                         Program Version 3.0.3 - RELEASE   -
|  1> ! RI-MP2 RIJK def2-TZVP def2-TZVP/C def2-TZVP/JK TIGHTSCF
|  2> % maxcore 2000
|  3> % mp2 density relaxed end
|  4> *xyz 0 1
|  5>  C        0.0029197700     1.6493770249     0.0315612252
|  6>  C        0.0287979351     0.1098330635     0.0057882573
|  7>  C        0.7146387437    -0.4281941771    -1.1649035509
|  8>  C        1.2980647668    -0.8510660637    -2.1323635001
|  9>  C        1.9426592492    -1.3272009408    -3.3341251359
| 10>  C        1.6640636668    -0.5023481718    -4.5791003657
| 11>  C        3.2581209194    -2.0414379381    -3.1912194455
| 12>  N        2.0671157082    -2.7803791305    -3.5771594187
| 13>  C        1.5178424683    -3.7104265654    -2.6002655294
| 14>  H        1.0182229509     2.0549085684     0.0413886390
| 15>  H       -0.5089978094     2.0439776689    -0.8502781244
| 16>  H       -0.5206454324     2.0066495584     0.9232861686
| 17>  H        0.5151097968    -0.2626541368     0.9166953764
| 18>  H       -0.9997659610    -0.2727700179     0.0360632043
| 19>  H        2.0112485291     0.5271186762    -4.4465424478
| 20>  H        2.1730457635    -0.9434917836    -5.4393882119
| 21>  H        0.5904880133    -0.4749056432    -4.7894268466
| 22>  H        4.0193211409    -1.9223275091    -3.9590508496
| 23>  H        3.6396366332    -2.1724146249    -2.1798437873
| 24>  H        1.6058147454    -3.3668870914    -1.5592315972
| 25>  H        0.4580183051    -3.8766963787    -2.8166556045
| 26>  H        2.0418905468    -4.6661955071    -2.7008281754
| 27> *
| 28>
| 29>                          ****END OF INPUT****

CARTESIAN COORDINATES (ANGSTROEM)
---------------------------------
  C      0.002920    1.649377    0.031561
  C      0.028798    0.109833    0.005788
  C      0.714639   -0.428194   -1.164904
  C      1.298065   -0.851066   -2.132364
  C      1.942659   -1.327201   -3.334125
  C      1.664064   -0.502348   -4.579100
  C      3.258121   -2.041438   -3.191219
  N      2.067116   -2.780379   -3.577159
  C      1.517842   -3.710427   -2.600266
  H      1.018223    2.054909    0.041389
  H     -0.508998    2.043978   -0.850278
  H     -0.520645    2.006650    0.923286
  H      0.515110   -0.262654    0.916695
  H     -0.999766   -0.272770    0.036063
  H      2.011249    0.527119   -4.446542
  H      2.173046   -0.943492   -5.439388
  H      0.590488   -0.474906   -4.789427
  H      4.019321   -1.922328   -3.959051
  H      3.639637   -2.172415   -2.179844
  H      1.605815   -3.366887   -1.559232
  H      0.458018   -3.876696   -2.816656
  H      2.041891   -4.666196   -2.700828

 Total Charge           Charge          ....    0
 Multiplicity           Mult            ....    1
 Number of Electrons    NEL             ....   68
 Basis Dimension        Dim             ....  357

ORBITAL ENERGIES
----------------

  NO   OCC          E(Eh)            E(eV)
   0   2.0000     -15.559521      -423.3961
   1   2.0000     -11.281548      -306.9865
   2   2.0000     -11.253672      -306.2280
   3   2.0000     -11.251155      -306.1595
   4   2.0000     -11.239968      -305.8551
   5   2.0000     -11.224849      -305.4437
   6   2.0000     -11.223066      -305.3951
   7   2.0000     -11.217167      -305.2346
   8   2.0000     -11.216359      -305.2126
   9   2.0000      -1.276039       -34.7228
  10   2.0000      -1.078404       -29.3449
  11   2.0000      -1.032669       -28.1004
  12   2.0000      -0.985978       -26.8298
  13   2.0000      -0.948918       -25.8214
  14   2.0000      -0.877975       -23.8909
  15   2.0000      -0.827642       -22.5213
  16   2.0000      -0.814548       -22.1650
  17   2.0000      -0.683771       -18.6063
  18   2.0000      -0.648045       -17.6342
  19   2.0000      -0.640828       -17.4378
  20   2.0000      -0.624116       -16.9831
  21   2.0000      -0.596273       -16.2254
  22   2.0000      -0.570699       -15.5295
  23   2.0000      -0.550064       -14.9680
  24   2.0000      -0.548758       -14.9325
  25   2.0000      -0.543741       -14.7960
  26   2.0000      -0.535129       -14.5616
  27   2.0000      -0.520449       -14.1621
  28   2.0000      -0.512174       -13.9370
  29   2.0000      -0.463666       -12.6170
  30   2.0000      -0.451579       -12.2881
  31   2.0000      -0.403209       -10.9719
  32   2.0000      -0.369701       -10.0601
  33   2.0000      -0.338051        -9.1988
  34   0.0000       0.129831         3.5329
  35   0.0000       0.154284         4.1983
  36   0.0000       0.163132         4.4390
  37   0.0000       0.175509         4.7758
  38   0.0000       0.182452         4.9648

MULLIKEN ATOMIC CHARGES
-----------------------
   0 C :   -0.361401
   1 C :   -0.308959
   2 C :    0.075771
   3 C :    0.034386
   4 C :   -0.062509
   5 C :   -0.413854
   6 C :   -0.156459
   7 N :   -0.215521
   8 C :   -0.301969
   9 H :    0.130502
  10 H :    0.130777
  11 H :    0.132140
  12 H :    0.141203
  13 H :    0.141421
  14 H :    0.129500
  15 H :    0.138563
  16 H :    0.130070
  17 H :    0.126225
  18 H :    0.117127
  19 H :    0.119582
  20 H :    0.135083
  21 H :    0.138322
Sum of atomic charges:   -0.0000000

LOEWDIN ATOMIC CHARGES
----------------------
   0 C :   -0.299440
   1 C :   -0.278574
   2 C :   -0.068556
   3 C :   -0.047040
   4 C :   -0.299296
   5 C :   -0.250379
   6 C :   -0.213443
   7 N :    0.113925
   8 C :   -0.324982
   9 H :    0.124188
  10 H :    0.124273
  11 H :    0.120871
  12 H :    0.152779
  13 H :    0.152679
  14 H :    0.128554
  15 H :    0.130955
  16 H :    0.129800
  17 H :    0.126322
  18 H :    0.128349
  19 H :    0.111193
  20 H :    0.119433
  21 H :    0.118389

  Mayer bond orders larger than 0.1
B(  0-C ,  1-C ) :   0.9458 B(  0-C ,  9-H ) :   0.9349 B(  0-C , 10-H ) :   0.9356
B(  0-C , 11-H ) :   0.9392 B(  1-C ,  2-C ) :   0.9303 B(  1-C , 12-H ) :   0.9426
B(  1-C , 13-H ) :   0.9402 B(  2-C ,  3-C ) :   2.5906 B(  2-C ,  4-C ) :  -0.1737
B(  3-C ,  4-C ) :   1.1706 B(  4-C ,  5-C ) :   0.9183 B(  4-C ,  6-C ) :   0.9115
B(  4-C ,  7-N ) :   0.8923 B(  5-C , 14-H ) :   0.9367 B(  5-C , 15-H ) :   0.9386
B(  5-C , 16-H ) :   0.9375 B(  6-C ,  7-N ) :   0.9020 B(  6-C , 17-H ) :   0.9119
B(  6-C , 18-H ) :   0.9119 B(  7-N ,  8-C ) :   0.8890 B(  8-C , 19-H ) :   0.9275
B(  8-C , 20-H ) :   0.9392 B(  8-C , 21-H ) :   0.9365

MP2 TOTAL ENERGY:     -366.490633964 Eh
FINAL SINGLE POINT ENERGY      -366.490633963521

DIPOLE MOMENT
-------------
                                X             Y             Z
Electronic contribution:      1.76618      -2.56149      -2.07042
Nuclear contribution   :     -1.81036       2.79483       2.63614
                        -----------------------------------------
Total Dipole Moment    :     -0.04417       0.23334       0.56571
                        -----------------------------------------
Magnitude (a.u.)       :      0.61354
Magnitude (Debye)      :      1.55949

                             ****ORCA TERMINATED NORMALLY****
TOTAL RUN TIME: 0 days 0 hours 19 minutes 1 seconds 226 msec
