                         Program Version 3.0.3 - RELEASE   -
|  1> ! RI-MP2 RIJK def2-TZVP def2-TZVP/C def2-TZVP/JK TIGHTSCF
|  2> % maxcore 2000
|  3> % mp2 density relaxed end
|  4> *xyz 0 1
|  5>  C        0.0343094361     1.5024281879    -0.3614969766
|  6>  C        1.3798881592     2.0707613639     0.0468445589
|  7>  C        2.1529612195     1.8017390676     1.0991368665
|  8>  C        1.9667458447     0.7855252732     2.2069461650
|  9>  C        0.6519959283     0.8332164198     2.9877270235
| 10>  O       -0.4202476852     1.6311523306     2.4977655223
| 11>  C       -0.5866207895     0.2105193498     2.4534738455
| 12>  C       -0.5601239554    -0.4775102973     1.1459740892
| 13>  C       -0.2426530480     0.0501748923    -0.0382068535
| 14>  H       -0.7413463304     2.1334880517     0.0857227616
| 15>  H       -0.0613285984     1.6283568470    -1.4457254316
| 16>  H        1.7347003818     2.8533570379    -0.6221909977
| 17>  H        3.0697403131     2.3811765213     1.1804069571
| 18>  H        2.0805314496    -0.2254804088     1.7950400264
| 19>  H        2.7809365037     0.9116499048     2.9266246407
| 20>  H        0.7580068615     0.8749701932     4.0725830019
| 21>  H       -1.3079764998    -0.1732821053     3.1762089312
| 22>  H       -0.7673305807    -1.5445285344     1.2049371567
| 23>  H       -0.1970272600    -0.6311216153    -0.8846450270
| 24> *
| 25>
| 26>                          ****END OF INPUT****

CARTESIAN COORDINATES (ANGSTROEM)
---------------------------------
  C      0.034309    1.502428   -0.361497
  C      1.379888    2.070761    0.046845
  C      2.152961    1.801739    1.099137
  C      1.966746    0.785525    2.206946
  C      0.651996    0.833216    2.987727
  O     -0.420248    1.631152    2.497766
  C     -0.586621    0.210519    2.453474
  C     -0.560124   -0.477510    1.145974
  C     -0.242653    0.050175   -0.038207
  H     -0.741346    2.133488    0.085723
  H     -0.061329    1.628357   -1.445725
  H      1.734700    2.853357   -0.622191
  H      3.069740    2.381177    1.180407
  H      2.080531   -0.225480    1.795040
  H      2.780937    0.911650    2.926625
  H      0.758007    0.874970    4.072583
  H     -1.307976   -0.173282    3.176209
  H     -0.767331   -1.544529    1.204937
  H     -0.197027   -0.631122   -0.884645

 Total Charge           Charge          ....    0
 Multiplicity           Mult            ....    1
 Number of Electrons    NEL             ....   66
 Basis Dimension        Dim             ....  339

ORBITAL ENERGIES
----------------

  NO   OCC          E(Eh)            E(eV)
   0   2.0000     -20.565791      -559.6236
   1   2.0000     -11.288425      -307.1737
   2   2.0000     -11.286101      -307.1104
   3   2.0000     -11.234986      -305.7195
   4   2.0000     -11.232316      -305.6469
   5   2.0000     -11.230259      -305.5909
   6   2.0000     -11.226954      -305.5010
   7   2.0000     -11.225528      -305.4621
   8   2.0000     -11.222446      -305.3783
   9   2.0000      -1.412901       -38.4470
  10   2.0000      -1.098570       -29.8936
  11   2.0000      -1.056780       -28.7564
  12   2.0000      -1.011807       -27.5327
  13   2.0000      -0.930861       -25.3300
  14   2.0000      -0.900219       -24.4962
  15   2.0000      -0.815739       -22.1974
  16   2.0000      -0.758658       -20.6441
  17   2.0000      -0.711217       -19.3532
  18   2.0000      -0.689540       -18.7633
  19   2.0000      -0.646961       -17.6047
  20   2.0000      -0.636596       -17.3227
  21   2.0000      -0.619924       -16.8690
  22   2.0000      -0.576678       -15.6922
  23   2.0000      -0.566650       -15.4193
  24   2.0000      -0.544696       -14.8219
  25   2.0000      -0.531917       -14.4742
  26   2.0000      -0.515671       -14.0321
  27   2.0000      -0.492223       -13.3941
  28   2.0000      -0.478392       -13.0177
  29   2.0000      -0.446444       -12.1484
  30   2.0000      -0.431540       -11.7428
  31   2.0000      -0.347907        -9.4670
  32   2.0000      -0.344033        -9.3616
  33   0.0000       0.135480         3.6866
  34   0.0000       0.139535         3.7969
  35   0.0000       0.157438         4.2841
  36   0.0000       0.163364         4.4454
  37   0.0000       0.168628         4.5886

MULLIKEN ATOMIC CHARGES
-----------------------
   0 C :   -0.082224
   1 C :   -0.197429
   2 C :   -0.185259
   3 C :   -0.157441
   4 C :    0.014558
   5 O :   -0.329889
   6 C :    0.082922
   7 C :   -0.227701
   8 C :   -0.161915
   9 H :    0.134206
  10 H :    0.124505
  11 H :    0.115751
  12 H :    0.117947
  13 H :    0.129753
  14 H :    0.135023
  15 H :    0.115538
  16 H :    0.129017
  17 H :    0.119042
  18 H :    0.123598
Sum of atomic charges:   -0.0000000

LOEWDIN ATOMIC CHARGES
----------------------
   0 C :   -0.244948
   1 C :   -0.168762
   2 C :   -0.176268
   3 C :   -0.237995
   4 C :   -0.251793
   5 O :    0.188009
   6 C :   -0.260820
   7 C :   -0.171218
   8 C :   -0.151345
   9 H :    0.160558
  10 H :    0.145608
  11 H :    0.145633
  12 H :    0.145553
  13 H :    0.157575
  14 H :    0.146516
  15 H :    0.135800
  16 H :    0.140997
  17 H :    0.151136
  18 H :    0.145764

  Mayer bond orders larger than 0.1
B(  0-C ,  1-C ) :   0.9192 B(  0-C ,  8-C ) :   0.9306 B(  0-C ,  9-H ) :   0.8973
B(  0-C , 10-H ) :   0.9326 B(  1-C ,  2-C ) :   1.8370 B(  1-C , 11-H ) :   0.9218
B(  2-C ,  3-C ) :   0.9186 B(  2-C , 12-H ) :   0.9273 B(  3-C ,  4-C ) :   0.8921
B(  3-C , 13-H ) :   0.9018 B(  3-C , 14-H ) :   0.9342 B(  4-C ,  5-O ) :   0.9248
B(  4-C ,  6-C ) :   0.9552 B(  4-C , 15-H ) :   0.9321 B(  5-O ,  6-C ) :   0.8773
B(  6-C ,  7-C ) :   0.9336 B(  6-C , 16-H ) :   0.9172 B(  7-C ,  8-C ) :   1.8183
B(  7-C , 17-H ) :   0.9206 B(  8-C , 18-H ) :   0.9276

MP2 TOTAL ENERGY:     -385.176514675 Eh
FINAL SINGLE POINT ENERGY      -385.176514675487

DIPOLE MOMENT
-------------
                                X             Y             Z
Electronic contribution:     -2.13797       0.64669       2.04282
Nuclear contribution   :      2.40456      -1.17913      -1.96256
                        -----------------------------------------
Total Dipole Moment    :      0.26659      -0.53245       0.08025
                        -----------------------------------------
Magnitude (a.u.)       :      0.60084
Magnitude (Debye)      :      1.52721

                             ****ORCA TERMINATED NORMALLY****
TOTAL RUN TIME: 0 days 0 hours 19 minutes 58 seconds 25 msec
