                         Program Version 3.0.3 - RELEASE   -
|  1> ! RI-MP2 RIJK def2-TZVP def2-TZVP/C def2-TZVP/JK TIGHTSCF
|  2> % maxcore 2000
|  3> % mp2 density relaxed end
|  4> *xyz 0 1
|  5>  C       -0.4798839689     1.1593895117    -0.3703368415
|  6>  N        0.7808618922     1.3508084852     0.3680635938
|  7>  C        0.2834971220    -0.0155080833     0.1195018874
|  8>  C       -0.1664743463    -0.7778904779     1.3158806268
|  9>  C       -1.4077108676    -1.5822916015     1.3449182732
| 10>  N       -1.3470470609    -0.3357082063     2.1384240279
| 11>  C       -0.4866819157    -0.5368128003     3.3735675890
| 12>  C        0.1532278821    -1.8800398856     3.5887174284
| 13>  C        0.7264709276    -0.9312588569     2.5711437144
| 14>  H       -1.3668582938     1.4602656030     0.1775001578
| 15>  H       -0.4973405889     1.3511484573    -1.4398622815
| 16>  H        1.5314563427     1.5642289569    -0.2838092286
| 17>  H        0.8126689014    -0.6100584255    -0.6251966297
| 18>  H       -2.0717776839    -1.4772164701     0.4913077056
| 19>  H       -1.4655189956    -2.5509767985     1.8270648778
| 20>  H       -0.6029483505     0.1955729805     4.1614144545
| 21>  H        0.7261860791    -1.9224434105     4.5108992671
| 22>  H       -0.3056943187    -2.8284096073     3.3327306963
| 23>  H        1.7307363536    -0.5338876309     2.6138442614
| 24> *
| 25>
| 26>                          ****END OF INPUT****

CARTESIAN COORDINATES (ANGSTROEM)
---------------------------------
  C     -0.479884    1.159390   -0.370337
  N      0.780862    1.350808    0.368064
  C      0.283497   -0.015508    0.119502
  C     -0.166474   -0.777890    1.315881
  C     -1.407711   -1.582292    1.344918
  N     -1.347047   -0.335708    2.138424
  C     -0.486682   -0.536813    3.373568
  C      0.153228   -1.880040    3.588717
  C      0.726471   -0.931259    2.571144
  H     -1.366858    1.460266    0.177500
  H     -0.497341    1.351148   -1.439862
  H      1.531456    1.564229   -0.283809
  H      0.812669   -0.610058   -0.625197
  H     -2.071778   -1.477216    0.491308
  H     -1.465519   -2.550977    1.827065
  H     -0.602948    0.195573    4.161414
  H      0.726186   -1.922443    4.510899
  H     -0.305694   -2.828410    3.332731
  H      1.730736   -0.533888    2.613844

 Total Charge           Charge          ....    0
 Multiplicity           Mult            ....    1
 Number of Electrons    NEL             ....   66
 Basis Dimension        Dim             ....  339

ORBITAL ENERGIES
----------------

  NO   OCC          E(Eh)            E(eV)
   0   2.0000     -15.556754      -423.3208
   1   2.0000     -15.556577      -423.3160
   2   2.0000     -11.269174      -306.6498
   3   2.0000     -11.262461      -306.4671
   4   2.0000     -11.259893      -306.3973
   5   2.0000     -11.256031      -306.2922
   6   2.0000     -11.251932      -306.1806
   7   2.0000     -11.235008      -305.7201
   8   2.0000     -11.234144      -305.6966
   9   2.0000      -1.303273       -35.4638
  10   2.0000      -1.253778       -34.1170
  11   2.0000      -1.107750       -30.1434
  12   2.0000      -0.950557       -25.8660
  13   2.0000      -0.901182       -24.5224
  14   2.0000      -0.880779       -23.9672
  15   2.0000      -0.821794       -22.3622
  16   2.0000      -0.772675       -21.0256
  17   2.0000      -0.710760       -19.3408
  18   2.0000      -0.707240       -19.2450
  19   2.0000      -0.692641       -18.8477
  20   2.0000      -0.664833       -18.0910
  21   2.0000      -0.610148       -16.6030
  22   2.0000      -0.569550       -15.4982
  23   2.0000      -0.546439       -14.8693
  24   2.0000      -0.522785       -14.2257
  25   2.0000      -0.502494       -13.6736
  26   2.0000      -0.498691       -13.5701
  27   2.0000      -0.463153       -12.6030
  28   2.0000      -0.460100       -12.5200
  29   2.0000      -0.449763       -12.2387
  30   2.0000      -0.394428       -10.7329
  31   2.0000      -0.373460       -10.1624
  32   2.0000      -0.338058        -9.1990
  33   0.0000       0.138860         3.7786
  34   0.0000       0.159033         4.3275
  35   0.0000       0.165121         4.4932
  36   0.0000       0.171772         4.6742
  37   0.0000       0.183691         4.9985

MULLIKEN ATOMIC CHARGES
-----------------------
   0 C :   -0.172575
   1 N :   -0.380096
   2 C :   -0.182078
   3 C :    0.283620
   4 C :   -0.165634
   5 N :   -0.291491
   6 C :   -0.062297
   7 C :   -0.251526
   8 C :   -0.182929
   9 H :    0.145967
  10 H :    0.123709
  11 H :    0.215400
  12 H :    0.126684
  13 H :    0.131771
  14 H :    0.119553
  15 H :    0.139227
  16 H :    0.132680
  17 H :    0.126816
  18 H :    0.143199
Sum of atomic charges:    0.0000000

LOEWDIN ATOMIC CHARGES
----------------------
   0 C :   -0.253376
   1 N :   -0.010828
   2 C :   -0.252764
   3 C :   -0.220268
   4 C :   -0.214630
   5 N :    0.141716
   6 C :   -0.195412
   7 C :   -0.213875
   8 C :   -0.152231
   9 H :    0.133189
  10 H :    0.118402
  11 H :    0.164324
  12 H :    0.142172
  13 H :    0.137595
  14 H :    0.125107
  15 H :    0.134752
  16 H :    0.147042
  17 H :    0.126464
  18 H :    0.142619

  Mayer bond orders larger than 0.1
B(  0-C ,  1-N ) :   0.9472 B(  0-C ,  2-C ) :   0.9268 B(  0-C ,  9-H ) :   0.9124
B(  0-C , 10-H ) :   0.9240 B(  1-N ,  2-C ) :   0.9168 B(  1-N , 11-H ) :   0.8674
B(  2-C ,  3-C ) :   0.8796 B(  2-C , 12-H ) :   0.9273 B(  3-C ,  4-C ) :   0.9516
B(  3-C ,  5-N ) :   0.7483 B(  3-C ,  8-C ) :   0.8658 B(  4-C ,  5-N ) :   0.9161
B(  4-C , 13-H ) :   0.9142 B(  4-C , 14-H ) :   0.8970 B(  5-N ,  6-C ) :   0.9066
B(  6-C ,  7-C ) :   0.8936 B(  6-C ,  8-C ) :   0.9144 B(  6-C , 15-H ) :   0.9281
B(  7-C ,  8-C ) :   0.8794 B(  7-C , 16-H ) :   0.9245 B(  7-C , 17-H ) :   0.9032
B(  8-C , 18-H ) :   0.9156

MP2 TOTAL ENERGY:     -381.270304149 Eh
FINAL SINGLE POINT ENERGY      -381.270304149499

DIPOLE MOMENT
-------------
                                X             Y             Z
Electronic contribution:     -0.15279       0.89313       0.49435
Nuclear contribution   :      0.57984      -1.47880      -1.00563
                        -----------------------------------------
Total Dipole Moment    :      0.42704      -0.58566      -0.51127
                        -----------------------------------------
Magnitude (a.u.)       :      0.88700
Magnitude (Debye)      :      2.25457

                             ****ORCA TERMINATED NORMALLY****
TOTAL RUN TIME: 0 days 0 hours 19 minutes 3 seconds 360 msec
