                         Program Version 3.0.3 - RELEASE   -
|  1> ! RI-MP2 RIJK def2-TZVP def2-TZVP/C def2-TZVP/JK TIGHTSCF
|  2> % maxcore 2000
|  3> % mp2 density relaxed end
|  4> *xyz 0 1
|  5>  O        0.1537662208     1.0954748467    -0.7462975646
|  6>  C       -0.0211729390     0.1180159538     0.2704921210
|  7>  C       -1.3355690565    -0.5212721342     0.2525218543
|  8>  C       -2.4431247727    -0.9995334817     0.2244676077
|  9>  C       -3.7448375379    -1.6022946500     0.2057214487
| 10>  C       -4.4490925484    -1.8026226305    -1.0985320320
| 11>  N       -3.9281006862    -2.9597048630    -0.3686521253
| 12>  H       -0.5872602709     1.7075154308    -0.6868392478
| 13>  H        0.7632818895    -0.6282939912     0.1016071786
| 14>  H        0.1584754129     0.5424806512     1.2713799517
| 15>  H       -4.3536883383    -1.4314488579     1.0898099293
| 16>  H       -5.5322683497    -1.7262667379    -1.1274342984
| 17>  H       -3.9371423554    -1.4690092354    -1.9960689524
| 18>  H       -3.0485684682    -3.2577844409    -0.7842556808
| 19> *
| 20>
| 21>                          ****END OF INPUT****

CARTESIAN COORDINATES (ANGSTROEM)
---------------------------------
  O      0.153766    1.095475   -0.746298
  C     -0.021173    0.118016    0.270492
  C     -1.335569   -0.521272    0.252522
  C     -2.443125   -0.999533    0.224468
  C     -3.744838   -1.602295    0.205721
  C     -4.449093   -1.802623   -1.098532
  N     -3.928101   -2.959705   -0.368652
  H     -0.587260    1.707515   -0.686839
  H      0.763282   -0.628294    0.101607
  H      0.158475    0.542481    1.271380
  H     -4.353688   -1.431449    1.089810
  H     -5.532268   -1.726267   -1.127434
  H     -3.937142   -1.469009   -1.996069
  H     -3.048568   -3.257784   -0.784256

 Total Charge           Charge          ....    0
 Multiplicity           Mult            ....    1
 Number of Electrons    NEL             ....   52
 Basis Dimension        Dim             ....  259

ORBITAL ENERGIES
----------------

  NO   OCC          E(Eh)            E(eV)
   0   2.0000     -20.569226      -559.7171
   1   2.0000     -15.573231      -423.7692
   2   2.0000     -11.310200      -307.7662
   3   2.0000     -11.289296      -307.1974
   4   2.0000     -11.271176      -306.7043
   5   2.0000     -11.241428      -305.8948
   6   2.0000     -11.235984      -305.7467
   7   2.0000      -1.373552       -37.3762
   8   2.0000      -1.275852       -34.7177
   9   2.0000      -1.061446       -28.8834
  10   2.0000      -0.967909       -26.3382
  11   2.0000      -0.907333       -24.6898
  12   2.0000      -0.867001       -23.5923
  13   2.0000      -0.744899       -20.2697
  14   2.0000      -0.715511       -19.4701
  15   2.0000      -0.665292       -18.1035
  16   2.0000      -0.657205       -17.8835
  17   2.0000      -0.622617       -16.9423
  18   2.0000      -0.572827       -15.5874
  19   2.0000      -0.541388       -14.7319
  20   2.0000      -0.514319       -13.9953
  21   2.0000      -0.506966       -13.7952
  22   2.0000      -0.479111       -13.0373
  23   2.0000      -0.441470       -12.0130
  24   2.0000      -0.387361       -10.5406
  25   2.0000      -0.364077        -9.9070
  26   0.0000       0.128184         3.4881
  27   0.0000       0.148150         4.0314
  28   0.0000       0.157589         4.2882
  29   0.0000       0.165804         4.5118
  30   0.0000       0.174079         4.7369

MULLIKEN ATOMIC CHARGES
-----------------------
   0 O :   -0.459091
   1 C :   -0.053558
   2 C :   -0.056622
   3 C :   -0.023543
   4 C :   -0.165320
   5 C :   -0.135466
   6 N :   -0.340374
   7 H :    0.319538
   8 H :    0.137632
   9 H :    0.134031
  10 H :    0.145545
  11 H :    0.129391
  12 H :    0.138606
  13 H :    0.229230
Sum of atomic charges:   -0.0000000

LOEWDIN ATOMIC CHARGES
----------------------
   0 O :   -0.042017
   1 C :   -0.334733
   2 C :   -0.079201
   3 C :   -0.069641
   4 C :   -0.263580
   5 C :   -0.247399
   6 N :   -0.002667
   7 H :    0.177333
   8 H :    0.146127
   9 H :    0.135638
  10 H :    0.156407
  11 H :    0.126481
  12 H :    0.126565
  13 H :    0.170689

  Mayer bond orders larger than 0.1
B(  0-O ,  1-C ) :   0.9496 B(  0-O ,  7-H ) :   0.8424 B(  1-C ,  2-C ) :   0.8893
B(  1-C ,  8-H ) :   0.9186 B(  1-C ,  9-H ) :   0.9745 B(  2-C ,  3-C ) :   2.6341
B(  2-C ,  4-C ) :  -0.1008 B(  3-C ,  4-C ) :   1.0920 B(  4-C ,  5-C ) :   0.9305
B(  4-C ,  6-N ) :   0.9452 B(  4-C , 10-H ) :   0.9163 B(  5-C ,  6-N ) :   0.9200
B(  5-C , 11-H ) :   0.9225 B(  5-C , 12-H ) :   0.9178 B(  6-N , 13-H ) :   0.8767

MP2 TOTAL ENERGY:     -323.952636134 Eh
FINAL SINGLE POINT ENERGY      -323.952636133997

DIPOLE MOMENT
-------------
                                X             Y             Z
Electronic contribution:      0.86644       0.31975       0.65488
Nuclear contribution   :     -1.06664       0.09261      -0.58875
                        -----------------------------------------
Total Dipole Moment    :     -0.20020       0.41237       0.06612
                        -----------------------------------------
Magnitude (a.u.)       :      0.46314
Magnitude (Debye)      :      1.17722

                             ****ORCA TERMINATED NORMALLY****
TOTAL RUN TIME: 0 days 0 hours 6 minutes 32 seconds 912 msec
