                         Program Version 3.0.3 - RELEASE   -
|  1> ! RI-MP2 RIJK def2-TZVP def2-TZVP/C def2-TZVP/JK TIGHTSCF
|  2> % maxcore 2000
|  3> % mp2 density relaxed end
|  4> *xyz 0 1
|  5>  C        0.0676933479     1.3685882437    -0.1052422963
|  6>  O       -0.0229219628    -0.0113969281     0.1787520133
|  7>  C       -1.3062418802    -0.5706647823     0.0651467358
|  8>  C       -2.0055684880    -0.6074279914    -1.3313383406
|  9>  C       -2.5869009486    -1.9788549700    -0.8606037543
| 10>  C       -1.3086619401    -2.1162131676     0.0241504738
| 11>  C       -3.7673262447    -1.7106597699     0.0476705254
| 12>  C       -3.6193138671    -0.7977978907     1.0073973175
| 13>  C       -2.2980680729    -0.0734259473     1.1393359671
| 14>  H        1.1311547326     1.6195542088    -0.1213626349
| 15>  H       -0.3659223750     1.6135445712    -1.0858422114
| 16>  H       -0.4232240294     1.9915919523     0.6557811266
| 17>  H       -2.7178505643     0.1788215898    -1.5918234261
| 18>  H       -1.2618992208    -0.7306786551    -2.1235167431
| 19>  H       -2.7801569389    -2.7424742480    -1.6135702387
| 20>  H       -0.4479617906    -2.4727864450    -0.5467362754
| 21>  H       -1.3959512832    -2.6612585107     0.9666555548
| 22>  H       -4.6947618256    -2.2565572647    -0.0940472362
| 23>  H       -4.4174389813    -0.5491360776     1.7006069499
| 24>  H       -1.8582306351    -0.2329178627     2.1335753858
| 25>  H       -2.4562743921     1.0095081754     1.0452414969
| 26> *
| 27>
| 28>                          ****END OF INPUT****

CARTESIAN COORDINATES (ANGSTROEM)
---------------------------------
  C      0.067693    1.368588   -0.105242
  O     -0.022922   -0.011397    0.178752
  C     -1.306242   -0.570665    0.065147
  C     -2.005568   -0.607428   -1.331338
  C     -2.586901   -1.978855   -0.860604
  C     -1.308662   -2.116213    0.024150
  C     -3.767326   -1.710660    0.047671
  C     -3.619314   -0.797798    1.007397
  C     -2.298068   -0.073426    1.139336
  H      1.131155    1.619554   -0.121363
  H     -0.365922    1.613545   -1.085842
  H     -0.423224    1.991592    0.655781
  H     -2.717851    0.178822   -1.591823
  H     -1.261899   -0.730679   -2.123517
  H     -2.780157   -2.742474   -1.613570
  H     -0.447962   -2.472786   -0.546736
  H     -1.395951   -2.661259    0.966656
  H     -4.694762   -2.256557   -0.094047
  H     -4.417439   -0.549136    1.700607
  H     -1.858231   -0.232918    2.133575
  H     -2.456274    1.009508    1.045241

 Total Charge           Charge          ....    0
 Multiplicity           Mult            ....    1
 Number of Electrons    NEL             ....   68
 Basis Dimension        Dim             ....  351

ORBITAL ENERGIES
----------------

  NO   OCC          E(Eh)            E(eV)
   0   2.0000     -20.551127      -559.2246
   1   2.0000     -11.283673      -307.0443
   2   2.0000     -11.268218      -306.6238
   3   2.0000     -11.232793      -305.6598
   4   2.0000     -11.225031      -305.4486
   5   2.0000     -11.223643      -305.4108
   6   2.0000     -11.221930      -305.3642
   7   2.0000     -11.220074      -305.3137
   8   2.0000     -11.216082      -305.2051
   9   2.0000      -1.374223       -37.3945
  10   2.0000      -1.164867       -31.6976
  11   2.0000      -1.034714       -28.1560
  12   2.0000      -0.986106       -26.8333
  13   2.0000      -0.926586       -25.2137
  14   2.0000      -0.895928       -24.3794
  15   2.0000      -0.823008       -22.3952
  16   2.0000      -0.776996       -21.1431
  17   2.0000      -0.701128       -19.0787
  18   2.0000      -0.686869       -18.6906
  19   2.0000      -0.636666       -17.3246
  20   2.0000      -0.632299       -17.2057
  21   2.0000      -0.621361       -16.9081
  22   2.0000      -0.589265       -16.0347
  23   2.0000      -0.584366       -15.9014
  24   2.0000      -0.561376       -15.2758
  25   2.0000      -0.534068       -14.5327
  26   2.0000      -0.526723       -14.3329
  27   2.0000      -0.502829       -13.6827
  28   2.0000      -0.476330       -12.9616
  29   2.0000      -0.469594       -12.7783
  30   2.0000      -0.447211       -12.1692
  31   2.0000      -0.428299       -11.6546
  32   2.0000      -0.397108       -10.8059
  33   2.0000      -0.339290        -9.2326
  34   0.0000       0.135612         3.6902
  35   0.0000       0.149450         4.0667
  36   0.0000       0.162557         4.4234
  37   0.0000       0.172827         4.7028
  38   0.0000       0.182205         4.9581

MULLIKEN ATOMIC CHARGES
-----------------------
   0 C :   -0.225096
   1 O :   -0.299585
   2 C :    0.273770
   3 C :   -0.339581
   4 C :    0.106468
   5 C :   -0.281728
   6 C :   -0.307385
   7 C :   -0.146784
   8 C :   -0.248405
   9 H :    0.143849
  10 H :    0.115436
  11 H :    0.114956
  12 H :    0.120781
  13 H :    0.123802
  14 H :    0.124471
  15 H :    0.121733
  16 H :    0.117129
  17 H :    0.118949
  18 H :    0.122709
  19 H :    0.127053
  20 H :    0.117458
Sum of atomic charges:   -0.0000000

LOEWDIN ATOMIC CHARGES
----------------------
   0 C :   -0.351630
   1 O :    0.181514
   2 C :   -0.339886
   3 C :   -0.179568
   4 C :   -0.200527
   5 C :   -0.164732
   6 C :   -0.147641
   7 C :   -0.163057
   8 C :   -0.207154
   9 H :    0.113919
  10 H :    0.104745
  11 H :    0.100931
  12 H :    0.129026
  13 H :    0.140752
  14 H :    0.138120
  15 H :    0.142029
  16 H :    0.131272
  17 H :    0.139730
  18 H :    0.138680
  19 H :    0.148894
  20 H :    0.144582

  Mayer bond orders larger than 0.1
B(  0-C ,  1-O ) :   0.9020 B(  0-C ,  9-H ) :   0.9426 B(  0-C , 10-H ) :   0.9294
B(  0-C , 11-H ) :   0.9330 B(  1-O ,  2-C ) :   1.0351 B(  2-C ,  3-C ) :   0.9163
B(  2-C ,  5-C ) :   0.8912 B(  2-C ,  8-C ) :   0.9134 B(  3-C ,  4-C ) :   0.8951
B(  3-C , 12-H ) :   0.9165 B(  3-C , 13-H ) :   0.9177 B(  4-C ,  5-C ) :   0.8839
B(  4-C ,  6-C ) :   0.8846 B(  4-C , 14-H ) :   0.9254 B(  5-C , 15-H ) :   0.9216
B(  5-C , 16-H ) :   0.9189 B(  6-C ,  7-C ) :   1.8001 B(  6-C , 17-H ) :   0.9340
B(  7-C ,  8-C ) :   0.9384 B(  7-C , 18-H ) :   0.9308 B(  8-C , 19-H ) :   0.9098
B(  8-C , 20-H ) :   0.9072

MP2 TOTAL ENERGY:     -386.400678066 Eh
FINAL SINGLE POINT ENERGY      -386.400678065919

DIPOLE MOMENT
-------------
                                X             Y             Z
Electronic contribution:     -0.29229      -2.36050       0.66047
Nuclear contribution   :      0.01378       2.65822      -0.81380
                        -----------------------------------------
Total Dipole Moment    :     -0.27852       0.29772      -0.15333
                        -----------------------------------------
Magnitude (a.u.)       :      0.43556
Magnitude (Debye)      :      1.10712

                             ****ORCA TERMINATED NORMALLY****
TOTAL RUN TIME: 0 days 0 hours 19 minutes 56 seconds 921 msec
