                         Program Version 3.0.3 - RELEASE   -
|  1> ! RI-MP2 RIJK def2-TZVP def2-TZVP/C def2-TZVP/JK TIGHTSCF
|  2> % maxcore 2000
|  3> % mp2 density relaxed end
|  4> *xyz 0 1
|  5>  O        0.1493679379     1.3592713869    -0.2661008259
|  6>  C        0.0711687398    -0.0317830263    -0.0347486207
|  7>  C        0.7320618599    -0.4998011137     1.2976690832
|  8>  C       -0.3925495773    -0.9766496173     2.2270685212
|  9>  C       -1.2842025172     0.1255025682     2.8950267833
| 10>  C       -2.3992192912    -0.1542673303     1.8677951571
| 11>  O       -2.2187412967     0.5835130141     0.6320042048
| 12>  C       -1.4090318501    -0.4859999430     0.0556988241
| 13>  C       -1.6010516063    -1.3600798564     1.3106077564
| 14>  H       -0.6472109071     1.7315701620     0.1401774880
| 15>  H        0.5629483510    -0.5177476708    -0.8845415294
| 16>  H        1.4137027764    -1.3335292110     1.0941093793
| 17>  H        1.3294090397     0.3108058423     1.7242669609
| 18>  H       -0.0602418722    -1.7433780823     2.9285371429
| 19>  H       -1.5853172861    -0.1492153342     3.9102995108
| 20>  H       -0.8984585705     1.1486903126     2.9053070040
| 21>  H       -3.4435079095    -0.1521364476     2.1853042242
| 22>  H       -1.8338350817    -0.8138055739    -0.8968529070
| 23>  H       -1.9605689787    -2.3832552193     1.2315174827
| 24> *
| 25>
| 26>                          ****END OF INPUT****

CARTESIAN COORDINATES (ANGSTROEM)
---------------------------------
  O      0.149368    1.359271   -0.266101
  C      0.071169   -0.031783   -0.034749
  C      0.732062   -0.499801    1.297669
  C     -0.392550   -0.976650    2.227069
  C     -1.284203    0.125503    2.895027
  C     -2.399219   -0.154267    1.867795
  O     -2.218741    0.583513    0.632004
  C     -1.409032   -0.486000    0.055699
  C     -1.601052   -1.360080    1.310608
  H     -0.647211    1.731570    0.140177
  H      0.562948   -0.517748   -0.884542
  H      1.413703   -1.333529    1.094109
  H      1.329409    0.310806    1.724267
  H     -0.060242   -1.743378    2.928537
  H     -1.585317   -0.149215    3.910300
  H     -0.898459    1.148690    2.905307
  H     -3.443508   -0.152136    2.185304
  H     -1.833835   -0.813806   -0.896853
  H     -1.960569   -2.383255    1.231517

 Total Charge           Charge          ....    0
 Multiplicity           Mult            ....    1
 Number of Electrons    NEL             ....   68
 Basis Dimension        Dim             ....  339

ORBITAL ENERGIES
----------------

  NO   OCC          E(Eh)            E(eV)
   0   2.0000     -20.559111      -559.4419
   1   2.0000     -20.540045      -558.9230
   2   2.0000     -11.289220      -307.1953
   3   2.0000     -11.286589      -307.1237
   4   2.0000     -11.276489      -306.8489
   5   2.0000     -11.238021      -305.8021
   6   2.0000     -11.237281      -305.7820
   7   2.0000     -11.229482      -305.5697
   8   2.0000     -11.220042      -305.3129
   9   2.0000      -1.395618       -37.9767
  10   2.0000      -1.344997       -36.5992
  11   2.0000      -1.135308       -30.8933
  12   2.0000      -1.032131       -28.0857
  13   2.0000      -0.963980       -26.2312
  14   2.0000      -0.891953       -24.2713
  15   2.0000      -0.868005       -23.6196
  16   2.0000      -0.771091       -20.9825
  17   2.0000      -0.728529       -19.8243
  18   2.0000      -0.713762       -19.4224
  19   2.0000      -0.684898       -18.6370
  20   2.0000      -0.641051       -17.4439
  21   2.0000      -0.626614       -17.0510
  22   2.0000      -0.603559       -16.4237
  23   2.0000      -0.586895       -15.9702
  24   2.0000      -0.567953       -15.4548
  25   2.0000      -0.549567       -14.9545
  26   2.0000      -0.528347       -14.3771
  27   2.0000      -0.519813       -14.1448
  28   2.0000      -0.470829       -12.8119
  29   2.0000      -0.454195       -12.3593
  30   2.0000      -0.449064       -12.2197
  31   2.0000      -0.424137       -11.5414
  32   2.0000      -0.421209       -11.4617
  33   2.0000      -0.406675       -11.0662
  34   0.0000       0.136047         3.7020
  35   0.0000       0.155173         4.2225
  36   0.0000       0.164587         4.4786
  37   0.0000       0.170582         4.6418
  38   0.0000       0.181465         4.9379

MULLIKEN ATOMIC CHARGES
-----------------------
   0 O :   -0.474143
   1 C :    0.001825
   2 C :   -0.209575
   3 C :   -0.087550
   4 C :   -0.251859
   5 C :    0.034254
   6 O :   -0.368750
   7 C :    0.049252
   8 C :   -0.088160
   9 H :    0.330093
  10 H :    0.094660
  11 H :    0.120936
  12 H :    0.117963
  13 H :    0.117151
  14 H :    0.120123
  15 H :    0.115376
  16 H :    0.121108
  17 H :    0.117131
  18 H :    0.140165
Sum of atomic charges:    0.0000000

LOEWDIN ATOMIC CHARGES
----------------------
   0 O :   -0.021251
   1 C :   -0.316852
   2 C :   -0.221132
   3 C :   -0.195442
   4 C :   -0.199256
   5 C :   -0.232111
   6 O :    0.141958
   7 C :   -0.216606
   8 C :   -0.143507
   9 H :    0.174330
  10 H :    0.140071
  11 H :    0.139694
  12 H :    0.142215
  13 H :    0.141300
  14 H :    0.137947
  15 H :    0.133159
  16 H :    0.125920
  17 H :    0.134087
  18 H :    0.135475

  Mayer bond orders larger than 0.1
B(  0-O ,  1-C ) :   1.0198 B(  0-O ,  9-H ) :   0.8096 B(  1-C ,  2-C ) :   0.8805
B(  1-C ,  7-C ) :   0.9465 B(  1-C , 10-H ) :   0.9520 B(  2-C ,  3-C ) :   0.9289
B(  2-C , 11-H ) :   0.9189 B(  2-C , 12-H ) :   0.9197 B(  3-C ,  4-C ) :   0.9434
B(  3-C ,  8-C ) :   0.9090 B(  3-C , 13-H ) :   0.9159 B(  4-C ,  5-C ) :   0.9356
B(  4-C , 14-H ) :   0.9108 B(  4-C , 15-H ) :   0.9028 B(  5-C ,  6-O ) :   0.8869
B(  5-C ,  8-C ) :   0.9142 B(  5-C , 16-H ) :   0.9285 B(  6-O ,  7-C ) :   0.8746
B(  7-C ,  8-C ) :   0.9570 B(  7-C , 17-H ) :   0.9149 B(  8-C , 18-H ) :   0.9039

MP2 TOTAL ENERGY:     -422.301652870 Eh
FINAL SINGLE POINT ENERGY      -422.301652869664

DIPOLE MOMENT
-------------
                                X             Y             Z
Electronic contribution:     -2.19816       1.63351      -2.64071
Nuclear contribution   :      1.92188      -2.62605       3.32308
                        -----------------------------------------
Total Dipole Moment    :     -0.27628      -0.99254       0.68237
                        -----------------------------------------
Magnitude (a.u.)       :      1.23576
Magnitude (Debye)      :      3.14104

                             ****ORCA TERMINATED NORMALLY****
TOTAL RUN TIME: 0 days 0 hours 19 minutes 1 seconds 338 msec
