                         Program Version 3.0.3 - RELEASE   -
|  1> ! RI-MP2 RIJK def2-TZVP def2-TZVP/C def2-TZVP/JK TIGHTSCF
|  2> % maxcore 2000
|  3> % mp2 density relaxed end
|  4> *xyz 0 1
|  5>  C       -0.1117680756     1.5285954174    -0.0601761580
|  6>  C        0.0472638572     0.0267953290     0.0482393001
|  7>  O        1.0724245275    -0.4951389799    -0.8676797499
|  8>  C        1.8239413471    -0.9709921610     0.2216141998
|  9>  C        2.7678273987    -2.1521560417     0.3107162599
| 10>  O        3.5296967496    -1.4412651215     1.3270100536
| 11>  C        2.8772714297    -0.1748844348     1.0429550697
| 12>  C        1.8014023104     0.2134687425     2.0882593879
| 13>  C        0.7601357840    -0.6153324028     1.2819951936
| 14>  H        0.8302623278     2.0509622237     0.1273433560
| 15>  H       -0.4508169917     1.7957248028    -1.0656447174
| 16>  H       -0.8576773447     1.8865975069     0.6578975764
| 17>  H       -0.9060119718    -0.4684280434    -0.1702206104
| 18>  H        2.3719331231    -3.1073000655     0.6738067630
| 19>  H        3.3647420748    -2.3204699938    -0.5964995203
| 20>  H        3.5708208397     0.5757402209     0.6533999170
| 21>  H        2.0118642846    -0.1830044793     3.0839816112
| 22>  H        1.5985257041     1.2849936012     2.1700090663
| 23>  H        0.1702547754    -1.3636993908     1.8111022015
| 24> *
| 25>
| 26>                          ****END OF INPUT****

CARTESIAN COORDINATES (ANGSTROEM)
---------------------------------
  C     -0.111768    1.528595   -0.060176
  C      0.047264    0.026795    0.048239
  O      1.072425   -0.495139   -0.867680
  C      1.823941   -0.970992    0.221614
  C      2.767827   -2.152156    0.310716
  O      3.529697   -1.441265    1.327010
  C      2.877271   -0.174884    1.042955
  C      1.801402    0.213469    2.088259
  C      0.760136   -0.615332    1.281995
  H      0.830262    2.050962    0.127343
  H     -0.450817    1.795725   -1.065645
  H     -0.857677    1.886598    0.657898
  H     -0.906012   -0.468428   -0.170221
  H      2.371933   -3.107300    0.673807
  H      3.364742   -2.320470   -0.596500
  H      3.570821    0.575740    0.653400
  H      2.011864   -0.183004    3.083982
  H      1.598526    1.284994    2.170009
  H      0.170255   -1.363699    1.811102

 Total Charge           Charge          ....    0
 Multiplicity           Mult            ....    1
 Number of Electrons    NEL             ....   68
 Basis Dimension        Dim             ....  339

ORBITAL ENERGIES
----------------

  NO   OCC          E(Eh)            E(eV)
   0   2.0000     -20.559088      -559.4412
   1   2.0000     -20.554292      -559.3107
   2   2.0000     -11.296311      -307.3882
   3   2.0000     -11.289507      -307.2031
   4   2.0000     -11.281436      -306.9835
   5   2.0000     -11.280079      -306.9466
   6   2.0000     -11.238451      -305.8138
   7   2.0000     -11.232186      -305.6433
   8   2.0000     -11.225826      -305.4703
   9   2.0000      -1.402650       -38.1681
  10   2.0000      -1.369987       -37.2792
  11   2.0000      -1.102378       -29.9972
  12   2.0000      -1.028130       -27.9768
  13   2.0000      -0.965452       -26.2713
  14   2.0000      -0.915931       -24.9238
  15   2.0000      -0.861139       -23.4328
  16   2.0000      -0.799010       -21.7422
  17   2.0000      -0.708553       -19.2807
  18   2.0000      -0.702767       -19.1233
  19   2.0000      -0.676893       -18.4192
  20   2.0000      -0.659008       -17.9325
  21   2.0000      -0.608783       -16.5658
  22   2.0000      -0.598918       -16.2974
  23   2.0000      -0.597619       -16.2620
  24   2.0000      -0.575529       -15.6609
  25   2.0000      -0.551465       -15.0061
  26   2.0000      -0.531650       -14.4669
  27   2.0000      -0.514231       -13.9929
  28   2.0000      -0.492246       -13.3947
  29   2.0000      -0.487011       -13.2522
  30   2.0000      -0.455264       -12.3884
  31   2.0000      -0.444395       -12.0926
  32   2.0000      -0.398433       -10.8419
  33   2.0000      -0.383506       -10.4357
  34   0.0000       0.137000         3.7280
  35   0.0000       0.150694         4.1006
  36   0.0000       0.162689         4.4270
  37   0.0000       0.174060         4.7364
  38   0.0000       0.188345         5.1251

MULLIKEN ATOMIC CHARGES
-----------------------
   0 C :   -0.425678
   1 C :    0.113923
   2 O :   -0.324237
   3 C :    0.166726
   4 C :   -0.015279
   5 O :   -0.326975
   6 C :   -0.002115
   7 C :   -0.259681
   8 C :   -0.125003
   9 H :    0.132763
  10 H :    0.145710
  11 H :    0.134030
  12 H :    0.097964
  13 H :    0.105311
  14 H :    0.101399
  15 H :    0.104455
  16 H :    0.125101
  17 H :    0.130663
  18 H :    0.120923
Sum of atomic charges:   -0.0000000

LOEWDIN ATOMIC CHARGES
----------------------
   0 C :   -0.294296
   1 C :   -0.250926
   2 O :    0.184828
   3 C :   -0.299728
   4 C :   -0.228687
   5 O :    0.137844
   6 C :   -0.207749
   7 C :   -0.205809
   8 C :   -0.143230
   9 H :    0.125734
  10 H :    0.131269
  11 H :    0.130951
  12 H :    0.138871
  13 H :    0.121046
  14 H :    0.125996
  15 H :    0.124682
  16 H :    0.138908
  17 H :    0.132144
  18 H :    0.138150

  Mayer bond orders larger than 0.1
B(  0-C ,  1-C ) :   0.9021 B(  0-C ,  9-H ) :   0.9376 B(  0-C , 10-H ) :   0.9349
B(  0-C , 11-H ) :   0.9287 B(  1-C ,  2-O ) :   0.8714 B(  1-C ,  8-C ) :   0.9118
B(  1-C , 12-H ) :   0.9101 B(  2-O ,  3-C ) :   1.0386 B(  3-C ,  4-C ) :   1.0090
B(  3-C ,  6-C ) :   0.9075 B(  3-C ,  8-C ) :   0.9133 B(  4-C ,  5-O ) :   0.9416
B(  4-C , 13-H ) :   0.9110 B(  4-C , 14-H ) :   0.8985 B(  5-O ,  6-C ) :   0.9757
B(  6-C ,  7-C ) :   0.8880 B(  6-C , 15-H ) :   0.9232 B(  7-C ,  8-C ) :   0.9195
B(  7-C , 16-H ) :   0.9015 B(  7-C , 17-H ) :   0.9135 B(  8-C , 18-H ) :   0.8912

MP2 TOTAL ENERGY:     -422.254624534 Eh
FINAL SINGLE POINT ENERGY      -422.254624533794

DIPOLE MOMENT
-------------
                                X             Y             Z
Electronic contribution:      3.52227      -4.03763      -1.14860
Nuclear contribution   :     -4.25456       4.33452       1.37659
                        -----------------------------------------
Total Dipole Moment    :     -0.73229       0.29690       0.22799
                        -----------------------------------------
Magnitude (a.u.)       :      0.82243
Magnitude (Debye)      :      2.09044

                             ****ORCA TERMINATED NORMALLY****
TOTAL RUN TIME: 0 days 0 hours 16 minutes 57 seconds 963 msec
