                         Program Version 3.0.3 - RELEASE   -
|  1> ! RI-MP2 RIJK def2-TZVP def2-TZVP/C def2-TZVP/JK TIGHTSCF
|  2> % maxcore 2000
|  3> % mp2 density relaxed end
|  4> *xyz 0 1
|  5>  C        0.0169889343     1.6415301082    -0.0525814728
|  6>  C       -0.0159703125     0.1197497850    -0.0815299424
|  7>  C        1.2274492509    -0.5531635864    -0.7192900576
|  8>  O        1.9470084921    -0.3081638387     0.5387601772
|  9>  C        0.6340679024    -0.5757415278     1.1429648618
| 10>  C        0.5107474765    -2.0923263404     0.8820848018
| 11>  C       -0.8506958219    -2.7037275363     0.4373770376
| 12>  C       -0.3768830540    -2.6856961580    -1.0496445489
| 13>  C        0.9865827333    -2.0742197586    -0.6112824415
| 14>  H        0.9989223555     2.0003237119     0.2646775516
| 15>  H       -0.1992547328     2.0552612334    -1.0436321101
| 16>  H       -0.7356201124     2.0348591545     0.6395066942
| 17>  H       -0.9990082286    -0.2367069867    -0.3990830273
| 18>  H        1.7287578820    -0.1510319757    -1.6011680228
| 19>  H        0.5300277140    -0.1966430294     2.1608984250
| 20>  H        1.0891293269    -2.6726504461     1.6018432494
| 21>  H       -1.0208829739    -3.7098557796     0.8271011802
| 22>  H       -1.7352236531    -2.1026690587     0.6659872687
| 23>  H       -0.2832096904    -3.6817849755    -1.4880216625
| 24>  H       -0.9703553948    -2.0735633339    -1.7344844363
| 25>  H        1.8787749865    -2.6426049013    -0.8763961552
| 26> *
| 27>
| 28>                          ****END OF INPUT****

CARTESIAN COORDINATES (ANGSTROEM)
---------------------------------
  C      0.016989    1.641530   -0.052581
  C     -0.015970    0.119750   -0.081530
  C      1.227449   -0.553164   -0.719290
  O      1.947008   -0.308164    0.538760
  C      0.634068   -0.575742    1.142965
  C      0.510747   -2.092326    0.882085
  C     -0.850696   -2.703728    0.437377
  C     -0.376883   -2.685696   -1.049645
  C      0.986583   -2.074220   -0.611282
  H      0.998922    2.000324    0.264678
  H     -0.199255    2.055261   -1.043632
  H     -0.735620    2.034859    0.639507
  H     -0.999008   -0.236707   -0.399083
  H      1.728758   -0.151032   -1.601168
  H      0.530028   -0.196643    2.160898
  H      1.089129   -2.672650    1.601843
  H     -1.020883   -3.709856    0.827101
  H     -1.735224   -2.102669    0.665987
  H     -0.283210   -3.681785   -1.488022
  H     -0.970355   -2.073563   -1.734484
  H      1.878775   -2.642605   -0.876396

 Total Charge           Charge          ....    0
 Multiplicity           Mult            ....    1
 Number of Electrons    NEL             ....   68
 Basis Dimension        Dim             ....  351

ORBITAL ENERGIES
----------------

  NO   OCC          E(Eh)            E(eV)
   0   2.0000     -20.540940      -558.9474
   1   2.0000     -11.280732      -306.9643
   2   2.0000     -11.280720      -306.9640
   3   2.0000     -11.231652      -305.6288
   4   2.0000     -11.225327      -305.4567
   5   2.0000     -11.224796      -305.4422
   6   2.0000     -11.224448      -305.4328
   7   2.0000     -11.223918      -305.4183
   8   2.0000     -11.212908      -305.1187
   9   2.0000      -1.379642       -37.5420
  10   2.0000      -1.133181       -30.8354
  11   2.0000      -1.039056       -28.2741
  12   2.0000      -0.959226       -26.1019
  13   2.0000      -0.948360       -25.8062
  14   2.0000      -0.872327       -23.7372
  15   2.0000      -0.854425       -23.2501
  16   2.0000      -0.733519       -19.9601
  17   2.0000      -0.716431       -19.4951
  18   2.0000      -0.689615       -18.7654
  19   2.0000      -0.674202       -18.3460
  20   2.0000      -0.641985       -17.4693
  21   2.0000      -0.587494       -15.9865
  22   2.0000      -0.582263       -15.8442
  23   2.0000      -0.553857       -15.0712
  24   2.0000      -0.532651       -14.4942
  25   2.0000      -0.524565       -14.2741
  26   2.0000      -0.521249       -14.1839
  27   2.0000      -0.486197       -13.2301
  28   2.0000      -0.471292       -12.8245
  29   2.0000      -0.452711       -12.3189
  30   2.0000      -0.444386       -12.0924
  31   2.0000      -0.427926       -11.6445
  32   2.0000      -0.418960       -11.4005
  33   2.0000      -0.400698       -10.9035
  34   0.0000       0.141966         3.8631
  35   0.0000       0.153492         4.1767
  36   0.0000       0.156897         4.2694
  37   0.0000       0.160000         4.3538
  38   0.0000       0.196955         5.3594

MULLIKEN ATOMIC CHARGES
-----------------------
   0 C :   -0.479622
   1 C :   -0.005959
   2 C :   -0.041744
   3 O :   -0.318796
   4 C :   -0.041743
   5 C :   -0.018686
   6 C :   -0.273854
   7 C :   -0.273853
   8 C :   -0.018687
   9 H :    0.158066
  10 H :    0.130866
  11 H :    0.130867
  12 H :    0.106149
  13 H :    0.120709
  14 H :    0.120709
  15 H :    0.113014
  16 H :    0.121158
  17 H :    0.118617
  18 H :    0.121157
  19 H :    0.118618
  20 H :    0.113014
Sum of atomic charges:    0.0000000

LOEWDIN ATOMIC CHARGES
----------------------
   0 C :   -0.294916
   1 C :   -0.217601
   2 C :   -0.216072
   3 O :    0.154159
   4 C :   -0.216074
   5 C :   -0.174688
   6 C :   -0.223178
   7 C :   -0.223178
   8 C :   -0.174688
   9 H :    0.132832
  10 H :    0.123941
  11 H :    0.123941
  12 H :    0.144367
  13 H :    0.132156
  14 H :    0.132156
  15 H :    0.141200
  16 H :    0.130218
  17 H :    0.127004
  18 H :    0.130218
  19 H :    0.127004
  20 H :    0.141200

  Mayer bond orders larger than 0.1
B(  0-C ,  1-C ) :   0.8766 B(  0-C ,  9-H ) :   0.9419 B(  0-C , 10-H ) :   0.9392
B(  0-C , 11-H ) :   0.9392 B(  1-C ,  2-C ) :   0.9338 B(  1-C ,  4-C ) :   0.9338
B(  1-C , 12-H ) :   0.9255 B(  2-C ,  3-O ) :   0.9076 B(  2-C ,  8-C ) :   0.9276
B(  2-C , 13-H ) :   0.9145 B(  3-O ,  4-C ) :   0.9076 B(  4-C ,  5-C ) :   0.9276
B(  4-C , 14-H ) :   0.9145 B(  5-C ,  6-C ) :   0.8973 B(  5-C ,  8-C ) :   0.9321
B(  5-C , 15-H ) :   0.9119 B(  6-C ,  7-C ) :   0.9636 B(  6-C , 16-H ) :   0.9201
B(  6-C , 17-H ) :   0.9247 B(  7-C ,  8-C ) :   0.8973 B(  7-C , 18-H ) :   0.9201
B(  7-C , 19-H ) :   0.9247 B(  8-C , 20-H ) :   0.9119

MP2 TOTAL ENERGY:     -386.381635282 Eh
FINAL SINGLE POINT ENERGY      -386.381635281943

DIPOLE MOMENT
-------------
                                X             Y             Z
Electronic contribution:      4.23559      -0.75543       1.34046
Nuclear contribution   :     -4.88497       0.53989      -1.54999
                        -----------------------------------------
Total Dipole Moment    :     -0.64938      -0.21555      -0.20953
                        -----------------------------------------
Magnitude (a.u.)       :      0.71558
Magnitude (Debye)      :      1.81886

                             ****ORCA TERMINATED NORMALLY****
TOTAL RUN TIME: 0 days 0 hours 20 minutes 22 seconds 499 msec
