                         Program Version 3.0.3 - RELEASE   -
|  1> ! RI-MP2 RIJK def2-TZVP def2-TZVP/C def2-TZVP/JK TIGHTSCF
|  2> % maxcore 2000
|  3> % mp2 density relaxed end
|  4> *xyz 0 1
|  5>  C       -0.1549282912     1.4338639517    -0.0850026132
|  6>  C        0.1105847740    -0.0553646513    -0.0782973541
|  7>  C        1.5414985247    -0.5826033164    -0.0489408470
|  8>  C        0.6631286152    -0.7085640283     1.1520237611
|  9>  O        0.9176842496     0.0301384055     2.3482931962
| 10>  C        0.5392562241    -1.1027116060     3.1567430018
| 11>  C        0.2099106604    -1.9647318511     1.9103230219
| 12>  C       -1.2463735135    -2.3086414889     1.7397923482
| 13>  O       -1.6642680755    -3.3856299706     1.4017663023
| 14>  H        0.5247910697     1.9519777631     0.5967205771
| 15>  H       -0.0231529057     1.8530351893    -1.0878560391
| 16>  H       -1.1774424571     1.6528600100     0.2403991573
| 17>  H       -0.5927622740    -0.6537094415    -0.6538764568
| 18>  H        1.7882498868    -1.4737160301    -0.6171984048
| 19>  H        2.3386485412     0.1513442372     0.0206851087
| 20>  H        1.3718179255    -1.4747979636     3.7625852976
| 21>  H       -0.3117117358    -0.8718298566     3.8090368815
| 22>  H        0.8247228606    -2.8536739758     1.7653459486
| 23>  H       -1.9382893789    -1.4593030866     1.9489343525
| 24> *
| 25>
| 26>                          ****END OF INPUT****

CARTESIAN COORDINATES (ANGSTROEM)
---------------------------------
  C     -0.154928    1.433864   -0.085003
  C      0.110585   -0.055365   -0.078297
  C      1.541499   -0.582603   -0.048941
  C      0.663129   -0.708564    1.152024
  O      0.917684    0.030138    2.348293
  C      0.539256   -1.102712    3.156743
  C      0.209911   -1.964732    1.910323
  C     -1.246374   -2.308641    1.739792
  O     -1.664268   -3.385630    1.401766
  H      0.524791    1.951978    0.596721
  H     -0.023153    1.853035   -1.087856
  H     -1.177442    1.652860    0.240399
  H     -0.592762   -0.653709   -0.653876
  H      1.788250   -1.473716   -0.617198
  H      2.338649    0.151344    0.020685
  H      1.371818   -1.474798    3.762585
  H     -0.311712   -0.871830    3.809037
  H      0.824723   -2.853674    1.765346
  H     -1.938289   -1.459303    1.948934

 Total Charge           Charge          ....    0
 Multiplicity           Mult            ....    1
 Number of Electrons    NEL             ....   68
 Basis Dimension        Dim             ....  339

ORBITAL ENERGIES
----------------

  NO   OCC          E(Eh)            E(eV)
   0   2.0000     -20.567212      -559.6623
   1   2.0000     -20.565633      -559.6193
   2   2.0000     -11.339111      -308.5529
   3   2.0000     -11.306064      -307.6536
   4   2.0000     -11.302688      -307.5618
   5   2.0000     -11.257442      -306.3306
   6   2.0000     -11.243737      -305.9576
   7   2.0000     -11.233396      -305.6763
   8   2.0000     -11.223080      -305.3955
   9   2.0000      -1.407035       -38.2874
  10   2.0000      -1.400133       -38.0995
  11   2.0000      -1.151442       -31.3323
  12   2.0000      -1.057658       -28.7803
  13   2.0000      -0.969862       -26.3913
  14   2.0000      -0.899858       -24.4864
  15   2.0000      -0.831415       -22.6240
  16   2.0000      -0.810755       -22.0618
  17   2.0000      -0.749339       -20.3906
  18   2.0000      -0.705776       -19.2052
  19   2.0000      -0.680416       -18.5151
  20   2.0000      -0.652931       -17.7672
  21   2.0000      -0.645345       -17.5607
  22   2.0000      -0.603604       -16.4249
  23   2.0000      -0.596912       -16.2428
  24   2.0000      -0.573522       -15.6063
  25   2.0000      -0.561351       -15.2751
  26   2.0000      -0.553039       -15.0489
  27   2.0000      -0.512883       -13.9563
  28   2.0000      -0.507988       -13.8231
  29   2.0000      -0.502193       -13.6654
  30   2.0000      -0.490910       -13.3583
  31   2.0000      -0.432640       -11.7727
  32   2.0000      -0.409562       -11.1447
  33   2.0000      -0.383375       -10.4322
  34   0.0000       0.117691         3.2025
  35   0.0000       0.139465         3.7950
  36   0.0000       0.152442         4.1482
  37   0.0000       0.164840         4.4855
  38   0.0000       0.169601         4.6151

MULLIKEN ATOMIC CHARGES
-----------------------
   0 C :   -0.419521
   1 C :   -0.062723
   2 C :   -0.293662
   3 C :    0.081807
   4 O :   -0.318134
   5 C :   -0.065115
   6 C :    0.061425
   7 C :    0.001744
   8 O :   -0.251605
   9 H :    0.148594
  10 H :    0.137632
  11 H :    0.130504
  12 H :    0.132521
  13 H :    0.140430
  14 H :    0.136779
  15 H :    0.113450
  16 H :    0.106980
  17 H :    0.126528
  18 H :    0.092365
Sum of atomic charges:   -0.0000000

LOEWDIN ATOMIC CHARGES
----------------------
   0 C :   -0.289387
   1 C :   -0.214946
   2 C :   -0.184109
   3 C :   -0.269205
   4 O :    0.172870
   5 C :   -0.228681
   6 C :   -0.186430
   7 C :   -0.278241
   8 O :    0.139523
   9 H :    0.132744
  10 H :    0.126476
  11 H :    0.126620
  12 H :    0.151741
  13 H :    0.137084
  14 H :    0.144274
  15 H :    0.123513
  16 H :    0.121878
  17 H :    0.156578
  18 H :    0.117699

  Mayer bond orders larger than 0.1
B(  0-C ,  1-C ) :   0.8949 B(  0-C ,  9-H ) :   0.9304 B(  0-C , 10-H ) :   0.9392
B(  0-C , 11-H ) :   0.9390 B(  1-C ,  2-C ) :   0.9007 B(  1-C ,  3-C ) :   0.8442
B(  1-C , 12-H ) :   0.9129 B(  2-C ,  3-C ) :   0.8736 B(  2-C , 13-H ) :   0.9179
B(  2-C , 14-H ) :   0.9147 B(  3-C ,  4-O ) :   0.9762 B(  3-C ,  6-C ) :   0.8390
B(  4-O ,  5-C ) :   0.9466 B(  5-C ,  6-C ) :   0.9538 B(  5-C , 15-H ) :   0.9138
B(  5-C , 16-H ) :   0.8995 B(  6-C ,  7-C ) :   0.8269 B(  6-C , 17-H ) :   0.8940
B(  7-C ,  8-O ) :   1.9966 B(  7-C , 18-H ) :   0.9462

MP2 TOTAL ENERGY:     -422.283231726 Eh
FINAL SINGLE POINT ENERGY      -422.283231725567

DIPOLE MOMENT
-------------
                                X             Y             Z
Electronic contribution:     -1.47504      -5.60813       3.01397
Nuclear contribution   :      1.81041       5.95185      -2.91765
                        -----------------------------------------
Total Dipole Moment    :      0.33537       0.34373       0.09632
                        -----------------------------------------
Magnitude (a.u.)       :      0.48979
Magnitude (Debye)      :      1.24496

                             ****ORCA TERMINATED NORMALLY****
TOTAL RUN TIME: 0 days 0 hours 16 minutes 53 seconds 979 msec
