                         Program Version 3.0.3 - RELEASE   -
|  1> ! RI-MP2 RIJK def2-TZVP def2-TZVP/C def2-TZVP/JK TIGHTSCF
|  2> % maxcore 2000
|  3> % mp2 density relaxed end
|  4> *xyz 0 1
|  5>  C        0.0667571679     1.4886961143    -0.5427586865
|  6>  O        0.0668827182     0.0825984185    -0.4750992229
|  7>  C       -1.0516408758    -0.4135939859     0.2375211260
|  8>  C       -1.0169257281    -1.8681417194     0.2862015870
|  9>  C       -1.0056966542    -3.0719807222     0.3372320920
| 10>  C       -1.0080224354    -4.5178373593     0.4083265747
| 11>  C       -1.1386200177    -5.2205019358     1.8002042019
| 12>  C       -2.0346842286    -6.2944248115     1.1293188504
| 13>  C       -2.2798018388    -5.3093131432    -0.0436255887
| 14>  H        0.9553398347     1.7859002309    -1.1041718782
| 15>  H       -0.8267353596     1.8754240151    -1.0593569935
| 16>  H        0.1075341519     1.9485213626     0.4580710294
| 17>  H       -1.0620705274    -0.0034715675     1.2632726170
| 18>  H       -1.9883409432    -0.0759387413    -0.2410773641
| 19>  H       -0.1299942492    -4.9116958376    -0.1161336742
| 20>  H       -0.2137536716    -5.5421072307     2.2836333467
| 21>  H       -1.7036605243    -4.5954381519     2.4961705827
| 22>  H       -1.4545609310    -7.1659328823     0.8122412237
| 23>  H       -2.9068684481    -6.6429431552     1.6859191174
| 24>  H       -3.1811218076    -4.7104211813     0.1090074982
| 25>  H       -2.2844924521    -5.7032603861    -1.0621025189
| 26> *
| 27>
| 28>                          ****END OF INPUT****

CARTESIAN COORDINATES (ANGSTROEM)
---------------------------------
  C      0.066757    1.488696   -0.542759
  O      0.066883    0.082598   -0.475099
  C     -1.051641   -0.413594    0.237521
  C     -1.016926   -1.868142    0.286202
  C     -1.005697   -3.071981    0.337232
  C     -1.008022   -4.517837    0.408327
  C     -1.138620   -5.220502    1.800204
  C     -2.034684   -6.294425    1.129319
  C     -2.279802   -5.309313   -0.043626
  H      0.955340    1.785900   -1.104172
  H     -0.826735    1.875424   -1.059357
  H      0.107534    1.948521    0.458071
  H     -1.062071   -0.003472    1.263273
  H     -1.988341   -0.075939   -0.241077
  H     -0.129994   -4.911696   -0.116134
  H     -0.213754   -5.542107    2.283633
  H     -1.703661   -4.595438    2.496171
  H     -1.454561   -7.165933    0.812241
  H     -2.906868   -6.642943    1.685919
  H     -3.181122   -4.710421    0.109007
  H     -2.284492   -5.703260   -1.062103

 Total Charge           Charge          ....    0
 Multiplicity           Mult            ....    1
 Number of Electrons    NEL             ....   68
 Basis Dimension        Dim             ....  351

ORBITAL ENERGIES
----------------

  NO   OCC          E(Eh)            E(eV)
   0   2.0000     -20.560330      -559.4750
   1   2.0000     -11.300311      -307.4971
   2   2.0000     -11.273203      -306.7595
   3   2.0000     -11.248456      -306.0860
   4   2.0000     -11.226641      -305.4924
   5   2.0000     -11.226597      -305.4912
   6   2.0000     -11.223642      -305.4108
   7   2.0000     -11.219801      -305.3063
   8   2.0000     -11.214159      -305.1528
   9   2.0000      -1.380606       -37.5682
  10   2.0000      -1.138584       -30.9824
  11   2.0000      -1.047725       -28.5100
  12   2.0000      -0.976254       -26.5652
  13   2.0000      -0.911503       -24.8032
  14   2.0000      -0.900561       -24.5055
  15   2.0000      -0.878429       -23.9033
  16   2.0000      -0.770660       -20.9707
  17   2.0000      -0.698970       -19.0199
  18   2.0000      -0.671028       -18.2596
  19   2.0000      -0.666958       -18.1489
  20   2.0000      -0.655849       -17.8465
  21   2.0000      -0.651887       -17.7388
  22   2.0000      -0.569023       -15.4839
  23   2.0000      -0.566673       -15.4199
  24   2.0000      -0.557233       -15.1631
  25   2.0000      -0.543817       -14.7980
  26   2.0000      -0.512888       -13.9564
  27   2.0000      -0.492320       -13.3967
  28   2.0000      -0.473867       -12.8946
  29   2.0000      -0.464240       -12.6326
  30   2.0000      -0.451487       -12.2856
  31   2.0000      -0.433752       -11.8030
  32   2.0000      -0.368693       -10.0327
  33   2.0000      -0.357156        -9.7187
  34   0.0000       0.135349         3.6830
  35   0.0000       0.144538         3.9331
  36   0.0000       0.163433         4.4472
  37   0.0000       0.165731         4.5098
  38   0.0000       0.170619         4.6428

MULLIKEN ATOMIC CHARGES
-----------------------
   0 C :   -0.215245
   1 O :   -0.283314
   2 C :   -0.213528
   3 C :    0.032023
   4 C :    0.071319
   5 C :   -0.181602
   6 C :   -0.221411
   7 C :   -0.204386
   8 C :   -0.221415
   9 H :    0.142757
  10 H :    0.110542
  11 H :    0.110540
  12 H :    0.121970
  13 H :    0.121968
  14 H :    0.122730
  15 H :    0.119085
  16 H :    0.119043
  17 H :    0.112630
  18 H :    0.118170
  19 H :    0.119041
  20 H :    0.119082
Sum of atomic charges:   -0.0000000

LOEWDIN ATOMIC CHARGES
----------------------
   0 C :   -0.361766
   1 O :    0.139495
   2 C :   -0.317660
   3 C :   -0.069415
   4 C :   -0.051888
   5 C :   -0.220708
   6 C :   -0.204771
   7 C :   -0.245619
   8 C :   -0.204771
   9 H :    0.115105
  10 H :    0.101152
  11 H :    0.101153
  12 H :    0.135306
  13 H :    0.135309
  14 H :    0.168350
  15 H :    0.124233
  16 H :    0.138002
  17 H :    0.133277
  18 H :    0.122981
  19 H :    0.138002
  20 H :    0.124232

  Mayer bond orders larger than 0.1
B(  0-C ,  1-O ) :   0.9174 B(  0-C ,  9-H ) :   0.9388 B(  0-C , 10-H ) :   0.9363
B(  0-C , 11-H ) :   0.9363 B(  1-O ,  2-C ) :   1.0583 B(  2-C ,  3-C ) :   0.9819
B(  2-C , 12-H ) :   0.9383 B(  2-C , 13-H ) :   0.9383 B(  3-C ,  4-C ) :   2.6925
B(  3-C ,  5-C ) :  -0.1256 B(  4-C ,  5-C ) :   1.0845 B(  5-C ,  6-C ) :   0.9131
B(  5-C ,  8-C ) :   0.9131 B(  5-C , 14-H ) :   0.9072 B(  6-C ,  7-C ) :   0.9378
B(  6-C , 15-H ) :   0.9282 B(  6-C , 16-H ) :   0.9281 B(  7-C ,  8-C ) :   0.9378
B(  7-C , 17-H ) :   0.9264 B(  7-C , 18-H ) :   0.9246 B(  8-C , 19-H ) :   0.9281
B(  8-C , 20-H ) :   0.9282

MP2 TOTAL ENERGY:     -386.344238886 Eh
FINAL SINGLE POINT ENERGY      -386.344238886183

DIPOLE MOMENT
-------------
                                X             Y             Z
Electronic contribution:      1.83361       1.32548      -1.19727
Nuclear contribution   :     -2.20889      -1.20293       1.42256
                        -----------------------------------------
Total Dipole Moment    :     -0.37528       0.12256       0.22529
                        -----------------------------------------
Magnitude (a.u.)       :      0.45455
Magnitude (Debye)      :      1.15536

                             ****ORCA TERMINATED NORMALLY****
TOTAL RUN TIME: 0 days 0 hours 15 minutes 17 seconds 768 msec
