                         Program Version 3.0.3 - RELEASE   -
|  1> ! RI-MP2 RIJK def2-TZVP def2-TZVP/C def2-TZVP/JK TIGHTSCF
|  2> % maxcore 2000
|  3> % mp2 density relaxed end
|  4> *xyz 0 1
|  5>  C        0.1157840125     1.3369067869    -0.5375618808
|  6>  C        0.0051940155     0.0473491585     0.2419973611
|  7>  O        0.8837528869    -0.3750505787     0.9624223203
|  8>  C       -1.2620717934    -0.7179082130     0.0722116474
|  9>  C       -1.7055716697    -1.7765257534     1.1146915917
| 10>  C       -1.4706204257    -2.1971690144    -0.2684592957
| 11>  O       -2.6181078244    -1.8767371468    -1.0925769463
| 12>  C       -2.4051531459    -0.5148864185    -0.8877271848
| 13>  O       -2.9683590697     0.3897748384    -1.4103502023
| 14>  H        1.0350576493     1.8546538544    -0.2633757919
| 15>  H        0.1193558225     1.1211592733    -1.6126061839
| 16>  H       -0.7574213808     1.9715605352    -0.3565254161
| 17>  H       -0.9103238998    -1.9794639963     1.8252578654
| 18>  H       -2.7180301092    -1.7413601449     1.5019668659
| 19>  H       -0.7553358879    -2.9084060004    -0.6555033099
| 20> *
| 21>
| 22>                          ****END OF INPUT****

CARTESIAN COORDINATES (ANGSTROEM)
---------------------------------
  C      0.115784    1.336907   -0.537562
  C      0.005194    0.047349    0.241997
  O      0.883753   -0.375051    0.962422
  C     -1.262072   -0.717908    0.072212
  C     -1.705572   -1.776526    1.114692
  C     -1.470620   -2.197169   -0.268459
  O     -2.618108   -1.876737   -1.092577
  C     -2.405153   -0.514886   -0.887727
  O     -2.968359    0.389775   -1.410350
  H      1.035058    1.854654   -0.263376
  H      0.119356    1.121159   -1.612606
  H     -0.757421    1.971561   -0.356525
  H     -0.910324   -1.979464    1.825258
  H     -2.718030   -1.741360    1.501967
  H     -0.755336   -2.908406   -0.655503

 Total Charge           Charge          ....    0
 Multiplicity           Mult            ....    1
 Number of Electrons    NEL             ....   66
 Basis Dimension        Dim             ....  315

ORBITAL ENERGIES
----------------

  NO   OCC          E(Eh)            E(eV)
   0   2.0000     -20.621002      -561.1260
   1   2.0000     -20.574001      -559.8470
   2   2.0000     -20.562876      -559.5443
   3   2.0000     -11.408855      -310.4507
   4   2.0000     -11.360365      -309.1312
   5   2.0000     -11.346271      -308.7477
   6   2.0000     -11.289385      -307.1998
   7   2.0000     -11.288331      -307.1711
   8   2.0000     -11.246302      -306.0274
   9   2.0000      -1.488069       -40.4924
  10   2.0000      -1.409202       -38.3463
  11   2.0000      -1.403983       -38.2043
  12   2.0000      -1.177563       -32.0431
  13   2.0000      -1.038078       -28.2475
  14   2.0000      -0.947612       -25.7858
  15   2.0000      -0.874485       -23.7959
  16   2.0000      -0.847758       -23.0687
  17   2.0000      -0.743932       -20.2434
  18   2.0000      -0.721094       -19.6220
  19   2.0000      -0.711729       -19.3671
  20   2.0000      -0.679176       -18.4813
  21   2.0000      -0.639211       -17.3938
  22   2.0000      -0.629101       -17.1187
  23   2.0000      -0.620180       -16.8760
  24   2.0000      -0.606068       -16.4920
  25   2.0000      -0.590198       -16.0601
  26   2.0000      -0.577739       -15.7211
  27   2.0000      -0.541251       -14.7282
  28   2.0000      -0.526268       -14.3205
  29   2.0000      -0.485528       -13.2119
  30   2.0000      -0.456594       -12.4246
  31   2.0000      -0.438244       -11.9252
  32   2.0000      -0.430994       -11.7279
  33   0.0000       0.107722         2.9313
  34   0.0000       0.136399         3.7116
  35   0.0000       0.143520         3.9054
  36   0.0000       0.156700         4.2640
  37   0.0000       0.167469         4.5571

MULLIKEN ATOMIC CHARGES
-----------------------
   0 C :   -0.387967
   1 C :    0.170901
   2 O :   -0.299587
   3 C :   -0.117964
   4 C :   -0.217260
   5 C :    0.070717
   6 O :   -0.250270
   7 C :    0.301762
   8 O :   -0.248693
   9 H :    0.156150
  10 H :    0.151489
  11 H :    0.164516
  12 H :    0.169430
  13 H :    0.165102
  14 H :    0.171673
Sum of atomic charges:    0.0000000

LOEWDIN ATOMIC CHARGES
----------------------
   0 C :   -0.261755
   1 C :   -0.327642
   2 O :    0.150693
   3 C :   -0.140635
   4 C :   -0.135932
   5 C :   -0.177430
   6 O :    0.246146
   7 C :   -0.407254
   8 O :    0.173642
   9 H :    0.135735
  10 H :    0.145452
  11 H :    0.144829
  12 H :    0.159738
  13 H :    0.147601
  14 H :    0.146811

  Mayer bond orders larger than 0.1
B(  0-C ,  1-C ) :   0.9411 B(  0-C ,  9-H ) :   0.9309 B(  0-C , 10-H ) :   0.9029
B(  0-C , 11-H ) :   0.9120 B(  1-C ,  2-O ) :   1.9622 B(  1-C ,  3-C ) :   0.9019
B(  3-C ,  4-C ) :   0.8102 B(  3-C ,  5-C ) :   0.8112 B(  3-C ,  7-C ) :   0.8850
B(  4-C ,  5-C ) :   0.9548 B(  4-C , 12-H ) :   0.9080 B(  4-C , 13-H ) :   0.9031
B(  5-C ,  6-O ) :   0.9050 B(  5-C , 14-H ) :   0.9026 B(  6-O ,  7-C ) :   1.0590
B(  7-C ,  8-O ) :   2.0441

MP2 TOTAL ENERGY:     -457.035276034 Eh
FINAL SINGLE POINT ENERGY      -457.035276033827

DIPOLE MOMENT
-------------
                                X             Y             Z
Electronic contribution:     -3.05329      -2.22306      -1.27163
Nuclear contribution   :      3.38826       1.87637       1.62126
                        -----------------------------------------
Total Dipole Moment    :      0.33497      -0.34669       0.34963
                        -----------------------------------------
Magnitude (a.u.)       :      0.59552
Magnitude (Debye)      :      1.51368

                             ****ORCA TERMINATED NORMALLY****
TOTAL RUN TIME: 0 days 0 hours 16 minutes 8 seconds 830 msec
