                         Program Version 3.0.3 - RELEASE   -
|  1> ! RI-MP2 RIJK def2-TZVP def2-TZVP/C def2-TZVP/JK TIGHTSCF
|  2> % maxcore 2000
|  3> % mp2 density relaxed end
|  4> *xyz 0 1
|  5>  C        0.7753391662     1.3054204267    -2.5516209268
|  6>  O        0.8257301165    -0.0658712688    -2.2400110581
|  7>  C       -0.2974260417    -0.5065836736    -1.5070751904
|  8>  C       -0.1029259809    -1.9849438680    -1.2265653487
|  9>  C        0.9375855442    -2.4630716500    -0.1776628490
| 10>  C       -0.2312196364    -3.1638197756     0.5124040419
| 11>  C       -1.2875078447    -2.2003865797     0.8637835020
| 12>  N       -1.2396054264    -2.6951782525    -0.5295191664
| 13>  H       -0.1017551279     1.5522833344    -3.1707297605
| 14>  H        0.7395526945     1.9302111445    -1.6447258365
| 15>  H        1.6819808732     1.5480121780    -3.1113452452
| 16>  H       -0.3959441611     0.0778107784    -0.5776584969
| 17>  H       -1.2285466222    -0.3631154085    -2.0822033078
| 18>  H        0.0527661220    -2.4856687413    -2.1854284994
| 19>  H        1.6830712204    -3.1393791131    -0.5975755521
| 20>  H        1.4510928546    -1.6960164342     0.4100497528
| 21>  H       -0.2317189089    -4.1873451458     0.8727387355
| 22>  H       -2.1576677333    -2.5728720619     1.3954824357
| 23>  H       -1.0296008682    -1.1698954188     1.0940680800
| 24> *
| 25>
| 26>                          ****END OF INPUT****

CARTESIAN COORDINATES (ANGSTROEM)
---------------------------------
  C      0.775339    1.305420   -2.551621
  O      0.825730   -0.065871   -2.240011
  C     -0.297426   -0.506584   -1.507075
  C     -0.102926   -1.984944   -1.226565
  C      0.937586   -2.463072   -0.177663
  C     -0.231220   -3.163820    0.512404
  C     -1.287508   -2.200387    0.863784
  N     -1.239605   -2.695178   -0.529519
  H     -0.101755    1.552283   -3.170730
  H      0.739553    1.930211   -1.644726
  H      1.681981    1.548012   -3.111345
  H     -0.395944    0.077811   -0.577658
  H     -1.228547   -0.363115   -2.082203
  H      0.052766   -2.485669   -2.185428
  H      1.683071   -3.139379   -0.597576
  H      1.451093   -1.696016    0.410050
  H     -0.231719   -4.187345    0.872739
  H     -2.157668   -2.572872    1.395482
  H     -1.029601   -1.169895    1.094068

 Total Charge           Charge          ....    0
 Multiplicity           Mult            ....    1
 Number of Electrons    NEL             ....   62
 Basis Dimension        Dim             ....  314

ORBITAL ENERGIES
----------------

  NO   OCC          E(Eh)            E(eV)
   0   2.0000     -20.558259      -559.4187
   1   2.0000     -15.557031      -423.3283
   2   2.0000     -11.274712      -306.8005
   3   2.0000     -11.272846      -306.7497
   4   2.0000     -11.260420      -306.4116
   5   2.0000     -11.256685      -306.3100
   6   2.0000     -11.253650      -306.2274
   7   2.0000     -11.227905      -305.5268
   8   2.0000      -1.379375       -37.5347
   9   2.0000      -1.284890       -34.9636
  10   2.0000      -1.033745       -28.1296
  11   2.0000      -0.970075       -26.3971
  12   2.0000      -0.925312       -25.1790
  13   2.0000      -0.874388       -23.7933
  14   2.0000      -0.804956       -21.9040
  15   2.0000      -0.744589       -20.2613
  16   2.0000      -0.689308       -18.7570
  17   2.0000      -0.665146       -18.0996
  18   2.0000      -0.653109       -17.7720
  19   2.0000      -0.644468       -17.5369
  20   2.0000      -0.599287       -16.3074
  21   2.0000      -0.576114       -15.6769
  22   2.0000      -0.569593       -15.4994
  23   2.0000      -0.539857       -14.6903
  24   2.0000      -0.518384       -14.1059
  25   2.0000      -0.487547       -13.2668
  26   2.0000      -0.472608       -12.8603
  27   2.0000      -0.449562       -12.2332
  28   2.0000      -0.424890       -11.5618
  29   2.0000      -0.416570       -11.3354
  30   2.0000      -0.368230       -10.0200
  31   0.0000       0.141122         3.8401
  32   0.0000       0.159821         4.3490
  33   0.0000       0.169437         4.6106
  34   0.0000       0.179434         4.8826
  35   0.0000       0.183564         4.9950

MULLIKEN ATOMIC CHARGES
-----------------------
   0 C :   -0.217536
   1 O :   -0.306240
   2 C :   -0.083163
   3 C :    0.063304
   4 C :   -0.250018
   5 C :   -0.064232
   6 C :   -0.169273
   7 N :   -0.261731
   8 H :    0.113743
   9 H :    0.110273
  10 H :    0.139837
  11 H :    0.079020
  12 H :    0.110284
  13 H :    0.110698
  14 H :    0.130125
  15 H :    0.115642
  16 H :    0.127289
  17 H :    0.130863
  18 H :    0.121113
Sum of atomic charges:   -0.0000000

LOEWDIN ATOMIC CHARGES
----------------------
   0 C :   -0.361230
   1 O :    0.138531
   2 C :   -0.314305
   3 C :   -0.251619
   4 C :   -0.212412
   5 C :   -0.218657
   6 C :   -0.256506
   7 N :    0.109393
   8 H :    0.102099
   9 H :    0.100787
  10 H :    0.113667
  11 H :    0.117314
  12 H :    0.126125
  13 H :    0.151152
  14 H :    0.137011
  15 H :    0.132954
  16 H :    0.130546
  17 H :    0.132573
  18 H :    0.122578

  Mayer bond orders larger than 0.1
B(  0-C ,  1-O ) :   0.9207 B(  0-C ,  8-H ) :   0.9381 B(  0-C ,  9-H ) :   0.9369
B(  0-C , 10-H ) :   0.9390 B(  1-O ,  2-C ) :   0.9531 B(  2-C ,  3-C ) :   0.9676
B(  2-C , 11-H ) :   0.9094 B(  2-C , 12-H ) :   0.9290 B(  3-C ,  4-C ) :   0.9505
B(  3-C ,  7-N ) :   0.8974 B(  3-C , 13-H ) :   0.9120 B(  4-C ,  5-C ) :   0.9444
B(  4-C , 14-H ) :   0.9349 B(  4-C , 15-H ) :   0.9080 B(  5-C ,  6-C ) :   0.9450
B(  5-C ,  7-N ) :   0.8807 B(  5-C , 16-H ) :   0.9085 B(  6-C ,  7-N ) :   0.8722
B(  6-C , 17-H ) :   0.9329 B(  6-C , 18-H ) :   0.9090

MP2 TOTAL ENERGY:     -364.374804465 Eh
FINAL SINGLE POINT ENERGY      -364.374804465432

DIPOLE MOMENT
-------------
                                X             Y             Z
Electronic contribution:     -0.77239      -3.97926       0.09662
Nuclear contribution   :      1.00300       4.53379       0.28179
                        -----------------------------------------
Total Dipole Moment    :      0.23061       0.55453       0.37841
                        -----------------------------------------
Magnitude (a.u.)       :      0.70984
Magnitude (Debye)      :      1.80428

                             ****ORCA TERMINATED NORMALLY****
TOTAL RUN TIME: 0 days 0 hours 12 minutes 36 seconds 96 msec
