                         Program Version 3.0.3 - RELEASE   -
|  1> ! RI-MP2 RIJK def2-TZVP def2-TZVP/C def2-TZVP/JK TIGHTSCF
|  2> % maxcore 2000
|  3> % mp2 density relaxed end
|  4> *xyz 0 1
|  5>  C       -0.3889306914     1.4112368799     0.2177095715
|  6>  C       -0.1454620841    -0.0666819707     0.1270840750
|  7>  N       -0.1937930045    -0.6148795823    -1.0954250180
|  8>  C        0.0198843963    -1.9254853385    -1.1949020849
|  9>  C        0.2866375693    -2.7231865249    -0.0832094309
| 10>  N        0.3391254466    -2.2011211175     1.1364464965
| 11>  C        0.1256130308    -0.8830588519     1.2483480252
| 12>  C        0.2028813586    -0.3826365597     2.6486803559
| 13>  O        0.0464180839     0.7639774985     2.9969244069
| 14>  H        0.4652619240     1.9249677798     0.6678621695
| 15>  H       -0.5725915539     1.8001619854    -0.7846527386
| 16>  H       -1.2412351358     1.6316417764     0.8667128882
| 17>  H       -0.0224684143    -2.3559272331    -2.1925516724
| 18>  H        0.4587553952    -3.7914104047    -0.1818188506
| 19>  H        0.4268737595    -1.1979829168     3.3673325368
| 20> *
| 21>
| 22>                          ****END OF INPUT****

CARTESIAN COORDINATES (ANGSTROEM)
---------------------------------
  C     -0.388931    1.411237    0.217710
  C     -0.145462   -0.066682    0.127084
  N     -0.193793   -0.614880   -1.095425
  C      0.019884   -1.925485   -1.194902
  C      0.286638   -2.723187   -0.083209
  N      0.339125   -2.201121    1.136446
  C      0.125613   -0.883059    1.248348
  C      0.202881   -0.382637    2.648680
  O      0.046418    0.763977    2.996924
  H      0.465262    1.924968    0.667862
  H     -0.572592    1.800162   -0.784653
  H     -1.241235    1.631642    0.866713
  H     -0.022468   -2.355927   -2.192552
  H      0.458755   -3.791410   -0.181819
  H      0.426874   -1.197983    3.367333

 Total Charge           Charge          ....    0
 Multiplicity           Mult            ....    1
 Number of Electrons    NEL             ....   64
 Basis Dimension        Dim             ....  315

ORBITAL ENERGIES
----------------

  NO   OCC          E(Eh)            E(eV)
   0   2.0000     -20.566206      -559.6349
   1   2.0000     -15.611965      -424.8232
   2   2.0000     -15.596902      -424.4133
   3   2.0000     -11.342167      -308.6361
   4   2.0000     -11.310891      -307.7850
   5   2.0000     -11.301438      -307.5278
   6   2.0000     -11.294928      -307.3506
   7   2.0000     -11.290844      -307.2395
   8   2.0000     -11.228938      -305.5549
   9   2.0000      -1.404750       -38.2252
  10   2.0000      -1.323007       -36.0009
  11   2.0000      -1.236311       -33.6417
  12   2.0000      -1.091947       -29.7134
  13   2.0000      -0.991218       -26.9724
  14   2.0000      -0.937578       -25.5128
  15   2.0000      -0.873539       -23.7702
  16   2.0000      -0.827304       -22.5121
  17   2.0000      -0.736113       -20.0307
  18   2.0000      -0.711792       -19.3688
  19   2.0000      -0.677403       -18.4331
  20   2.0000      -0.652804       -17.7637
  21   2.0000      -0.616582       -16.7781
  22   2.0000      -0.616442       -16.7743
  23   2.0000      -0.563791       -15.3415
  24   2.0000      -0.557333       -15.1658
  25   2.0000      -0.555086       -15.1046
  26   2.0000      -0.539301       -14.6751
  27   2.0000      -0.506437       -13.7808
  28   2.0000      -0.449119       -12.2211
  29   2.0000      -0.445494       -12.1225
  30   2.0000      -0.417163       -11.3516
  31   2.0000      -0.361422        -9.8348
  32   0.0000       0.048023         1.3068
  33   0.0000       0.085256         2.3199
  34   0.0000       0.149557         4.0697
  35   0.0000       0.160596         4.3700
  36   0.0000       0.173798         4.7293

MULLIKEN ATOMIC CHARGES
-----------------------
   0 C :   -0.358837
   1 C :    0.089338
   2 N :   -0.234629
   3 C :   -0.018215
   4 C :   -0.010244
   5 N :   -0.249568
   6 C :    0.129981
   7 C :    0.081488
   8 O :   -0.271812
   9 H :    0.148593
  10 H :    0.149559
  11 H :    0.148587
  12 H :    0.142575
  13 H :    0.143931
  14 H :    0.109254
Sum of atomic charges:    0.0000000

LOEWDIN ATOMIC CHARGES
----------------------
   0 C :   -0.260716
   1 C :   -0.192506
   2 N :    0.178376
   3 C :   -0.203534
   4 C :   -0.204508
   5 N :    0.173460
   6 C :   -0.202983
   7 C :   -0.258817
   8 O :    0.145384
   9 H :    0.139712
  10 H :    0.133446
  11 H :    0.139713
  12 H :    0.143804
  13 H :    0.144090
  14 H :    0.125078

  Mayer bond orders larger than 0.1
B(  0-C ,  1-C ) :   0.9149 B(  0-C ,  9-H ) :   0.9196 B(  0-C , 10-H ) :   0.9364
B(  0-C , 11-H ) :   0.9196 B(  1-C ,  2-N ) :   1.4102 B(  1-C ,  6-C ) :   1.2740
B(  2-N ,  3-C ) :   1.3816 B(  3-C ,  4-C ) :   1.2909 B(  3-C , 12-H ) :   0.9296
B(  4-C ,  5-N ) :   1.3955 B(  4-C , 13-H ) :   0.9283 B(  5-N ,  6-C ) :   1.3576
B(  6-C ,  7-C ) :   0.8547 B(  7-C ,  8-O ) :   1.9674 B(  7-C , 14-H ) :   0.9628

MP2 TOTAL ENERGY:     -416.148948853 Eh
FINAL SINGLE POINT ENERGY      -416.148948852954

DIPOLE MOMENT
-------------
                                X             Y             Z
Electronic contribution:      0.66022      -2.69611       1.68772
Nuclear contribution   :     -0.61586       2.02489      -2.29666
                        -----------------------------------------
Total Dipole Moment    :      0.04436      -0.67122      -0.60894
                        -----------------------------------------
Magnitude (a.u.)       :      0.90736
Magnitude (Debye)      :      2.30633

                             ****ORCA TERMINATED NORMALLY****
TOTAL RUN TIME: 0 days 0 hours 16 minutes 14 seconds 688 msec
