                         Program Version 3.0.3 - RELEASE   -
|  1> ! RI-MP2 RIJK def2-TZVP def2-TZVP/C def2-TZVP/JK TIGHTSCF
|  2> % maxcore 2000
|  3> % mp2 density relaxed end
|  4> *xyz 0 1
|  5>  C        0.7490465065     1.2609396036    -0.0499102758
|  6>  O        0.9266143463    -0.1184375868    -0.3009252121
|  7>  C       -0.0433143825    -0.6448137413    -1.1985992753
|  8>  C        0.1305038391    -2.1405394417    -1.2755491407
|  9>  N       -0.2268635099    -2.7431905917    -2.5691940523
| 10>  C        1.1669330914    -2.7974090115    -2.1197085426
| 11>  C        2.2081933094    -2.1003355026    -2.9841341204
| 12>  N        2.8485329155    -1.0656322048    -2.3743336411
| 13>  O        2.4797760940    -2.5052921081    -4.0963834284
| 14>  H        0.8337676246     1.8572138720    -0.9708459930
| 15>  H       -0.2337103970     1.4604672250     0.4017421596
| 16>  H        1.5303845545     1.5686525798     0.6486443009
| 17>  H       -1.0550211890    -0.4009132368    -0.8378376953
| 18>  H        0.0689239257    -0.2056080257    -2.1997650104
| 19>  H       -0.1461775458    -2.6696278542    -0.3651020200
| 20>  H       -0.6812552190    -3.6427508106    -2.4438092418
| 21>  H        1.5349452522    -3.7565811693    -1.7576911290
| 22>  H        2.5091490075    -0.6814416515    -1.5024554012
| 23>  H        3.5396366167    -0.5639409638    -2.9088155413
| 24> *
| 25>
| 26>                          ****END OF INPUT****

CARTESIAN COORDINATES (ANGSTROEM)
---------------------------------
  C      0.749047    1.260940   -0.049910
  O      0.926614   -0.118438   -0.300925
  C     -0.043314   -0.644814   -1.198599
  C      0.130504   -2.140539   -1.275549
  N     -0.226864   -2.743191   -2.569194
  C      1.166933   -2.797409   -2.119709
  C      2.208193   -2.100336   -2.984134
  N      2.848533   -1.065632   -2.374334
  O      2.479776   -2.505292   -4.096383
  H      0.833768    1.857214   -0.970846
  H     -0.233710    1.460467    0.401742
  H      1.530385    1.568653    0.648644
  H     -1.055021   -0.400913   -0.837838
  H      0.068924   -0.205608   -2.199765
  H     -0.146178   -2.669628   -0.365102
  H     -0.681255   -3.642751   -2.443809
  H      1.534945   -3.756581   -1.757691
  H      2.509149   -0.681442   -1.502455
  H      3.539637   -0.563941   -2.908816

 Total Charge           Charge          ....    0
 Multiplicity           Mult            ....    1
 Number of Electrons    NEL             ....   70
 Basis Dimension        Dim             ....  339

ORBITAL ENERGIES
----------------

  NO   OCC          E(Eh)            E(eV)
   0   2.0000     -20.579911      -560.0078
   1   2.0000     -20.509613      -558.0949
   2   2.0000     -15.573579      -423.7786
   3   2.0000     -15.571870      -423.7321
   4   2.0000     -11.345749      -308.7335
   5   2.0000     -11.293441      -307.3102
   6   2.0000     -11.289039      -307.1904
   7   2.0000     -11.277897      -306.8872
   8   2.0000     -11.277088      -306.8652
   9   2.0000      -1.397609       -38.0309
  10   2.0000      -1.374669       -37.4067
  11   2.0000      -1.278798       -34.7979
  12   2.0000      -1.201325       -32.6897
  13   2.0000      -1.014455       -27.6047
  14   2.0000      -0.933995       -25.4153
  15   2.0000      -0.915377       -24.9087
  16   2.0000      -0.834749       -22.7147
  17   2.0000      -0.772947       -21.0329
  18   2.0000      -0.738038       -20.0830
  19   2.0000      -0.719982       -19.5917
  20   2.0000      -0.678931       -18.4746
  21   2.0000      -0.664491       -18.0817
  22   2.0000      -0.663621       -18.0580
  23   2.0000      -0.632983       -17.2243
  24   2.0000      -0.594345       -16.1729
  25   2.0000      -0.572268       -15.5722
  26   2.0000      -0.565152       -15.3786
  27   2.0000      -0.531950       -14.4751
  28   2.0000      -0.505663       -13.7598
  29   2.0000      -0.489088       -13.3088
  30   2.0000      -0.480854       -13.0847
  31   2.0000      -0.448917       -12.2156
  32   2.0000      -0.440821       -11.9953
  33   2.0000      -0.406921       -11.0729
  34   2.0000      -0.393626       -10.7111
  35   0.0000       0.125127         3.4049
  36   0.0000       0.131523         3.5789
  37   0.0000       0.161197         4.3864
  38   0.0000       0.175267         4.7692
  39   0.0000       0.179838         4.8936

MULLIKEN ATOMIC CHARGES
-----------------------
   0 C :   -0.218309
   1 O :   -0.345758
   2 C :   -0.095194
   3 C :   -0.002272
   4 N :   -0.391243
   5 C :   -0.028763
   6 C :    0.225289
   7 N :   -0.465466
   8 O :   -0.342585
   9 H :    0.123070
  10 H :    0.123123
  11 H :    0.144377
  12 H :    0.110253
  13 H :    0.142670
  14 H :    0.126019
  15 H :    0.223677
  16 H :    0.141156
  17 H :    0.277338
  18 H :    0.252619
Sum of atomic charges:   -0.0000000

LOEWDIN ATOMIC CHARGES
----------------------
   0 C :   -0.358515
   1 O :    0.119305
   2 C :   -0.309435
   3 C :   -0.260254
   4 N :    0.026767
   5 C :   -0.219795
   6 C :   -0.474669
   7 N :   -0.005090
   8 O :    0.091325
   9 H :    0.104827
  10 H :    0.106660
  11 H :    0.114921
  12 H :    0.127559
  13 H :    0.133301
  14 H :    0.140027
  15 H :    0.169836
  16 H :    0.150332
  17 H :    0.171546
  18 H :    0.171351

  Mayer bond orders larger than 0.1
B(  0-C ,  1-O ) :   0.8904 B(  0-C ,  9-H ) :   0.9371 B(  0-C , 10-H ) :   0.9353
B(  0-C , 11-H ) :   0.9381 B(  1-O ,  2-C ) :   0.8861 B(  2-C ,  3-C ) :   0.9097
B(  2-C , 12-H ) :   0.9108 B(  2-C , 13-H ) :   0.9419 B(  3-C ,  4-N ) :   0.9185
B(  3-C ,  5-C ) :   0.9118 B(  3-C , 14-H ) :   0.9129 B(  4-N ,  5-C ) :   0.8814
B(  4-N , 15-H ) :   0.8667 B(  5-C ,  6-C ) :   0.8846 B(  5-C , 16-H ) :   0.9165
B(  6-C ,  7-N ) :   1.1778 B(  6-C ,  8-O ) :   2.0183 B(  7-N , 17-H ) :   0.8338
B(  7-N , 18-H ) :   0.8615

MP2 TOTAL ENERGY:     -455.601337693 Eh
FINAL SINGLE POINT ENERGY      -455.601337693488

DIPOLE MOMENT
-------------
                                X             Y             Z
Electronic contribution:      2.87849      -5.52618      -4.70782
Nuclear contribution   :     -3.36580       6.33995       6.32026
                        -----------------------------------------
Total Dipole Moment    :     -0.48730       0.81377       1.61244
                        -----------------------------------------
Magnitude (a.u.)       :      1.87073
Magnitude (Debye)      :      4.75502

                             ****ORCA TERMINATED NORMALLY****
TOTAL RUN TIME: 0 days 0 hours 16 minutes 4 seconds 62 msec
