                         Program Version 3.0.3 - RELEASE   -
|  1> ! RI-MP2 RIJK def2-TZVP def2-TZVP/C def2-TZVP/JK TIGHTSCF
|  2> % maxcore 2000
|  3> % mp2 density relaxed end
|  4> *xyz 0 1
|  5>  C       -0.3220187074     1.5240133499    -0.4272343888
|  6>  C       -0.1548009433     0.1520205885     0.2380441481
|  7>  C       -1.3987488285    -0.7047013890     0.1121617930
|  8>  C       -1.6683503160    -1.5427213042    -1.1178410726
|  9>  C       -1.4209276157    -2.2182614135     0.2139160546
| 10>  C       -0.1247253639    -2.9930361473     0.3892556245
| 11>  C       -2.5653024407    -2.8515113970     0.9634525533
| 12>  C       -4.0162239000    -2.6520728783     0.6124460150
| 13>  C       -3.3610500374    -3.9899999031     0.3701694809
| 14>  H        0.5830141527     2.1307251446    -0.3218150514
| 15>  H       -0.5359743842     1.4180078529    -1.4959872130
| 16>  H       -1.1515832096     2.0819132455     0.0211364752
| 17>  H        0.7054588881    -0.3599735776    -0.2069917996
| 18>  H        0.0898138230     0.2907014477     1.2997815757
| 19>  H       -2.2856014004    -0.2319533198     0.5312452396
| 20>  H       -2.6627597984    -1.5390099323    -1.5509803112
| 21>  H       -0.8745371922    -1.6166257473    -1.8558499501
| 22>  H        0.7020456717    -2.5580586112    -0.1775528898
| 23>  H        0.1756131148    -3.0289496973     1.4435003244
| 24>  H       -0.2523671017    -4.0267522458     0.0489981446
| 25>  H       -2.3660768486    -2.9406224912     2.0302218808
| 26>  H       -4.7258978182    -2.5652729200     1.4280628162
| 27>  H       -4.2712173820    -2.0506390415    -0.2529605438
| 28>  H       -3.1503111320    -4.2579825736    -0.6600445795
| 29>  H       -3.6338880800    -4.8269345491     1.0035241441
| 30> *
| 31>
| 32>                          ****END OF INPUT****

CARTESIAN COORDINATES (ANGSTROEM)
---------------------------------
  C     -0.322019    1.524013   -0.427234
  C     -0.154801    0.152021    0.238044
  C     -1.398749   -0.704701    0.112162
  C     -1.668350   -1.542721   -1.117841
  C     -1.420928   -2.218261    0.213916
  C     -0.124725   -2.993036    0.389256
  C     -2.565302   -2.851511    0.963453
  C     -4.016224   -2.652073    0.612446
  C     -3.361050   -3.990000    0.370169
  H      0.583014    2.130725   -0.321815
  H     -0.535974    1.418008   -1.495987
  H     -1.151583    2.081913    0.021136
  H      0.705459   -0.359974   -0.206992
  H      0.089814    0.290701    1.299782
  H     -2.285601   -0.231953    0.531245
  H     -2.662760   -1.539010   -1.550980
  H     -0.874537   -1.616626   -1.855850
  H      0.702046   -2.558059   -0.177553
  H      0.175613   -3.028950    1.443500
  H     -0.252367   -4.026752    0.048998
  H     -2.366077   -2.940622    2.030222
  H     -4.725898   -2.565273    1.428063
  H     -4.271217   -2.050639   -0.252961
  H     -3.150311   -4.257983   -0.660045
  H     -3.633888   -4.826935    1.003524

 Total Charge           Charge          ....    0
 Multiplicity           Mult            ....    1
 Number of Electrons    NEL             ....   70
 Basis Dimension        Dim             ....  375

ORBITAL ENERGIES
----------------

  NO   OCC          E(Eh)            E(eV)
   0   2.0000     -11.232724      -305.6580
   1   2.0000     -11.226340      -305.4842
   2   2.0000     -11.219972      -305.3110
   3   2.0000     -11.219936      -305.3100
   4   2.0000     -11.217986      -305.2569
   5   2.0000     -11.217879      -305.2540
   6   2.0000     -11.214689      -305.1672
   7   2.0000     -11.211049      -305.0681
   8   2.0000     -11.209109      -305.0154
   9   2.0000      -1.166971       -31.7549
  10   2.0000      -1.112362       -30.2689
  11   2.0000      -1.021920       -27.8079
  12   2.0000      -0.958389       -26.0791
  13   2.0000      -0.864713       -23.5300
  14   2.0000      -0.846764       -23.0416
  15   2.0000      -0.817252       -22.2386
  16   2.0000      -0.768056       -20.8999
  17   2.0000      -0.720452       -19.6045
  18   2.0000      -0.678815       -18.4715
  19   2.0000      -0.643911       -17.5217
  20   2.0000      -0.612801       -16.6752
  21   2.0000      -0.601805       -16.3759
  22   2.0000      -0.570409       -15.5216
  23   2.0000      -0.551598       -15.0097
  24   2.0000      -0.540493       -14.7076
  25   2.0000      -0.537377       -14.6228
  26   2.0000      -0.510571       -13.8933
  27   2.0000      -0.508574       -13.8390
  28   2.0000      -0.494764       -13.4632
  29   2.0000      -0.485771       -13.2185
  30   2.0000      -0.463674       -12.6172
  31   2.0000      -0.436650       -11.8819
  32   2.0000      -0.413403       -11.2493
  33   2.0000      -0.391969       -10.6660
  34   2.0000      -0.365396        -9.9429
  35   0.0000       0.139545         3.7972
  36   0.0000       0.153432         4.1751
  37   0.0000       0.159793         4.3482
  38   0.0000       0.164062         4.4643
  39   0.0000       0.179975         4.8974

MULLIKEN ATOMIC CHARGES
-----------------------
   0 C :   -0.388606
   1 C :   -0.195740
   2 C :   -0.126858
   3 C :   -0.348910
   4 C :    0.157538
   5 C :   -0.426765
   6 C :   -0.108909
   7 C :   -0.271320
   8 C :   -0.261211
   9 H :    0.131158
  10 H :    0.126929
  11 H :    0.120760
  12 H :    0.096597
  13 H :    0.112008
  14 H :    0.117495
  15 H :    0.128458
  16 H :    0.122891
  17 H :    0.125793
  18 H :    0.127633
  19 H :    0.139397
  20 H :    0.110865
  21 H :    0.128219
  22 H :    0.126072
  23 H :    0.128541
  24 H :    0.127964
Sum of atomic charges:    0.0000000

LOEWDIN ATOMIC CHARGES
----------------------
   0 C :   -0.315364
   1 C :   -0.274483
   2 C :   -0.188238
   3 C :   -0.189795
   4 C :   -0.239550
   5 C :   -0.260721
   6 C :   -0.190847
   7 C :   -0.227551
   8 C :   -0.224086
   9 H :    0.119004
  10 H :    0.121462
  11 H :    0.120173
  12 H :    0.136652
  13 H :    0.138120
  14 H :    0.154383
  15 H :    0.129581
  16 H :    0.135752
  17 H :    0.123175
  18 H :    0.126821
  19 H :    0.129232
  20 H :    0.152570
  21 H :    0.130182
  22 H :    0.130385
  23 H :    0.134656
  24 H :    0.128487

  Mayer bond orders larger than 0.1
B(  0-C ,  1-C ) :   0.9223 B(  0-C ,  9-H ) :   0.9414 B(  0-C , 10-H ) :   0.9395
B(  0-C , 11-H ) :   0.9391 B(  1-C ,  2-C ) :   0.9180 B(  1-C , 12-H ) :   0.9321
B(  1-C , 13-H ) :   0.9358 B(  2-C ,  3-C ) :   0.8961 B(  2-C ,  4-C ) :   0.8383
B(  2-C , 14-H ) :   0.9275 B(  3-C ,  4-C ) :   0.8717 B(  3-C , 15-H ) :   0.9248
B(  3-C , 16-H ) :   0.9225 B(  4-C ,  5-C ) :   0.9024 B(  4-C ,  6-C ) :   0.9111
B(  5-C , 17-H ) :   0.9343 B(  5-C , 18-H ) :   0.9424 B(  5-C , 19-H ) :   0.9385
B(  6-C ,  7-C ) :   0.8873 B(  6-C ,  8-C ) :   0.8797 B(  6-C , 20-H ) :   0.9297
B(  7-C ,  8-C ) :   0.9031 B(  7-C , 21-H ) :   0.9322 B(  7-C , 22-H ) :   0.9301
B(  8-C , 23-H ) :   0.9274 B(  8-C , 24-H ) :   0.9303

MP2 TOTAL ENERGY:     -351.686274857 Eh
FINAL SINGLE POINT ENERGY      -351.686274857454

DIPOLE MOMENT
-------------
                                X             Y             Z
Electronic contribution:     -2.45180      -2.50819       0.98584
Nuclear contribution   :      2.50591       2.51149      -0.91718
                        -----------------------------------------
Total Dipole Moment    :      0.05410       0.00330       0.06865
                        -----------------------------------------
Magnitude (a.u.)       :      0.08747
Magnitude (Debye)      :      0.22234

                             ****ORCA TERMINATED NORMALLY****
TOTAL RUN TIME: 0 days 0 hours 20 minutes 11 seconds 131 msec
