                         Program Version 3.0.3 - RELEASE   -
|  1> ! RI-MP2 RIJK def2-TZVP def2-TZVP/C def2-TZVP/JK TIGHTSCF
|  2> % maxcore 2000
|  3> % mp2 density relaxed end
|  4> *xyz 0 1
|  5>  C        0.1580062810     1.6247173330     0.1716426946
|  6>  O        1.5764791721     1.3595562426     0.1932411032
|  7>  C        1.3663430455    -0.0628057716     0.1870509968
|  8>  C       -0.1653868899     0.1241876630     0.0021951392
|  9>  C       -1.0591647328    -0.5342570915     0.9892423675
| 10>  N       -1.6603153246     0.1068565626     1.9577759800
| 11>  O       -2.3682590591    -0.8986969073     2.6298974351
| 12>  C       -2.1045976541    -2.0310253802     1.9789852141
| 13>  N       -1.3148303855    -1.8948091063     0.9638690739
| 14>  H       -0.1957151350     2.0633636436     1.1104469647
| 15>  H       -0.1267319586     2.2714409714    -0.6649691951
| 16>  H        1.8907510021    -0.5592504196    -0.6363938897
| 17>  H        1.6558513584    -0.5312964927     1.1361068412
| 18>  H       -0.4927431751    -0.1446361559    -1.0043142939
| 19>  H       -2.5672043143    -2.9329071010     2.3527605384
| 20> *
| 21>
| 22>                          ****END OF INPUT****

CARTESIAN COORDINATES (ANGSTROEM)
---------------------------------
  C      0.158006    1.624717    0.171643
  O      1.576479    1.359556    0.193241
  C      1.366343   -0.062806    0.187051
  C     -0.165387    0.124188    0.002195
  C     -1.059165   -0.534257    0.989242
  N     -1.660315    0.106857    1.957776
  O     -2.368259   -0.898697    2.629897
  C     -2.104598   -2.031025    1.978985
  N     -1.314830   -1.894809    0.963869
  H     -0.195715    2.063364    1.110447
  H     -0.126732    2.271441   -0.664969
  H      1.890751   -0.559250   -0.636394
  H      1.655851   -0.531296    1.136107
  H     -0.492743   -0.144636   -1.004314
  H     -2.567204   -2.932907    2.352761

 Total Charge           Charge          ....    0
 Multiplicity           Mult            ....    1
 Number of Electrons    NEL             ....   66
 Basis Dimension        Dim             ....  315

ORBITAL ENERGIES
----------------

  NO   OCC          E(Eh)            E(eV)
   0   2.0000     -20.670353      -562.4689
   1   2.0000     -20.556460      -559.3697
   2   2.0000     -15.636314      -425.4857
   3   2.0000     -15.588524      -424.1853
   4   2.0000     -11.371475      -309.4336
   5   2.0000     -11.327941      -308.2489
   6   2.0000     -11.293959      -307.3242
   7   2.0000     -11.288801      -307.1839
   8   2.0000     -11.262918      -306.4796
   9   2.0000      -1.532881       -41.7118
  10   2.0000      -1.388388       -37.7800
  11   2.0000      -1.269106       -34.5341
  12   2.0000      -1.178061       -32.0567
  13   2.0000      -1.043625       -28.3985
  14   2.0000      -0.946170       -25.7466
  15   2.0000      -0.881014       -23.9736
  16   2.0000      -0.863670       -23.5016
  17   2.0000      -0.785542       -21.3757
  18   2.0000      -0.742376       -20.2011
  19   2.0000      -0.703844       -19.1526
  20   2.0000      -0.686851       -18.6902
  21   2.0000      -0.661419       -17.9981
  22   2.0000      -0.631691       -17.1892
  23   2.0000      -0.602058       -16.3828
  24   2.0000      -0.575132       -15.6501
  25   2.0000      -0.563419       -15.3314
  26   2.0000      -0.534903       -14.5554
  27   2.0000      -0.504156       -13.7188
  28   2.0000      -0.485780       -13.2187
  29   2.0000      -0.478073       -13.0090
  30   2.0000      -0.460593       -12.5334
  31   2.0000      -0.424080       -11.5398
  32   2.0000      -0.413205       -11.2439
  33   0.0000       0.108010         2.9391
  34   0.0000       0.140924         3.8347
  35   0.0000       0.159151         4.3307
  36   0.0000       0.165496         4.5034
  37   0.0000       0.176026         4.7899

MULLIKEN ATOMIC CHARGES
-----------------------
   0 C :   -0.011374
   1 O :   -0.324302
   2 C :   -0.020935
   3 C :   -0.091846
   4 C :    0.110492
   5 N :   -0.126225
   6 O :   -0.093686
   7 C :    0.117759
   8 N :   -0.305544
   9 H :    0.124345
  10 H :    0.103435
  11 H :    0.106148
  12 H :    0.101970
  13 H :    0.134143
  14 H :    0.175621
Sum of atomic charges:    0.0000000

LOEWDIN ATOMIC CHARGES
----------------------
   0 C :   -0.237497
   1 O :    0.113888
   2 C :   -0.237699
   3 C :   -0.201194
   4 C :   -0.338537
   5 N :    0.061147
   6 O :    0.275745
   7 C :   -0.340611
   8 N :    0.115161
   9 H :    0.125841
  10 H :    0.119290
  11 H :    0.119331
  12 H :    0.121598
  13 H :    0.163682
  14 H :    0.139854

  Mayer bond orders larger than 0.1
B(  0-C ,  1-O ) :   0.9466 B(  0-C ,  3-C ) :   0.9607 B(  0-C ,  9-H ) :   0.9050
B(  0-C , 10-H ) :   0.9171 B(  1-O ,  2-C ) :   0.9603 B(  2-C ,  3-C ) :   0.9354
B(  2-C , 11-H ) :   0.9148 B(  2-C , 12-H ) :   0.9030 B(  3-C ,  4-C ) :   0.9021
B(  3-C , 13-H ) :   0.9119 B(  4-C ,  5-N ) :   1.6308 B(  4-C ,  8-N ) :   1.1866
B(  5-N ,  6-O ) :   0.8774 B(  6-O ,  7-C ) :   1.1558 B(  7-C ,  8-N ) :   1.6085
B(  7-C , 14-H ) :   0.9157

MP2 TOTAL ENERGY:     -453.174644221 Eh
FINAL SINGLE POINT ENERGY      -453.174644221113

DIPOLE MOMENT
-------------
                                X             Y             Z
Electronic contribution:     -4.05610      -2.14716       3.41389
Nuclear contribution   :      3.53600       1.41496      -3.56220
                        -----------------------------------------
Total Dipole Moment    :     -0.52009      -0.73220      -0.14831
                        -----------------------------------------
Magnitude (a.u.)       :      0.91028
Magnitude (Debye)      :      2.31376

                             ****ORCA TERMINATED NORMALLY****
TOTAL RUN TIME: 0 days 0 hours 14 minutes 50 seconds 72 msec
