                         Program Version 3.0.3 - RELEASE   -
|  1> ! RI-MP2 RIJK def2-TZVP def2-TZVP/C def2-TZVP/JK TIGHTSCF
|  2> % maxcore 2000
|  3> % mp2 density relaxed end
|  4> *xyz 0 1
|  5>  O       -0.0452968242     1.4637633428     0.1394461874
|  6>  C        0.0136463265     0.0831396994    -0.0774471118
|  7>  C       -1.4061351820    -0.5359487905    -0.0750907767
|  8>  C       -1.5242601408    -2.0687914001     0.1620822088
|  9>  O       -2.0850866801    -1.8231432140     1.4915219680
| 10>  C       -2.0083833836    -0.4665160323     1.3270993221
| 11>  N       -2.2375429600     0.4988817588     2.0904347250
| 12>  C       -2.2347894998    -0.0107777517    -1.1499003798
| 13>  N       -2.8906544123     0.3668207078    -2.0227225477
| 14>  H       -0.5526053771     1.6165842824     0.9507489160
| 15>  H        0.4898648736    -0.0762388939    -1.0494175935
| 16>  H        0.6078224348    -0.4439821601     0.6867643092
| 17>  H       -2.2340875194    -2.5947453420    -0.4764358757
| 18>  H       -0.5771996342    -2.6076636219     0.2323853039
| 19>  H       -2.5688106114     0.2105966352     3.0115216147
| 20> *
| 21>
| 22>                          ****END OF INPUT****

CARTESIAN COORDINATES (ANGSTROEM)
---------------------------------
  O     -0.045297    1.463763    0.139446
  C      0.013646    0.083140   -0.077447
  C     -1.406135   -0.535949   -0.075091
  C     -1.524260   -2.068791    0.162082
  O     -2.085087   -1.823143    1.491522
  C     -2.008383   -0.466516    1.327099
  N     -2.237543    0.498882    2.090435
  C     -2.234789   -0.010778   -1.149900
  N     -2.890654    0.366821   -2.022723
  H     -0.552605    1.616584    0.950749
  H      0.489865   -0.076239   -1.049418
  H      0.607822   -0.443982    0.686764
  H     -2.234088   -2.594745   -0.476436
  H     -0.577200   -2.607664    0.232385
  H     -2.568811    0.210597    3.011522

 Total Charge           Charge          ....    0
 Multiplicity           Mult            ....    1
 Number of Electrons    NEL             ....   66
 Basis Dimension        Dim             ....  315

ORBITAL ENERGIES
----------------

  NO   OCC          E(Eh)            E(eV)
   0   2.0000     -20.632222      -561.4313
   1   2.0000     -20.576379      -559.9117
   2   2.0000     -15.587800      -424.1656
   3   2.0000     -15.576333      -423.8536
   4   2.0000     -11.382562      -309.7353
   5   2.0000     -11.344603      -308.7024
   6   2.0000     -11.323907      -308.1392
   7   2.0000     -11.322874      -308.1111
   8   2.0000     -11.289470      -307.2021
   9   2.0000      -1.477597       -40.2075
  10   2.0000      -1.389872       -37.8203
  11   2.0000      -1.239662       -33.7329
  12   2.0000      -1.233426       -33.5632
  13   2.0000      -1.119190       -30.4547
  14   2.0000      -0.962018       -26.1779
  15   2.0000      -0.928504       -25.2659
  16   2.0000      -0.840323       -22.8663
  17   2.0000      -0.751613       -20.4524
  18   2.0000      -0.748128       -20.3576
  19   2.0000      -0.711669       -19.3655
  20   2.0000      -0.692515       -18.8443
  21   2.0000      -0.647242       -17.6124
  22   2.0000      -0.639771       -17.4091
  23   2.0000      -0.594423       -16.1751
  24   2.0000      -0.580099       -15.7853
  25   2.0000      -0.564252       -15.3541
  26   2.0000      -0.561329       -15.2745
  27   2.0000      -0.532197       -14.4818
  28   2.0000      -0.498401       -13.5622
  29   2.0000      -0.482213       -13.1217
  30   2.0000      -0.468204       -12.7405
  31   2.0000      -0.452255       -12.3065
  32   2.0000      -0.441389       -12.0108
  33   0.0000       0.118697         3.2299
  34   0.0000       0.131907         3.5894
  35   0.0000       0.140618         3.8264
  36   0.0000       0.157552         4.2872
  37   0.0000       0.160639         4.3712

MULLIKEN ATOMIC CHARGES
-----------------------
   0 O :   -0.454735
   1 C :   -0.017292
   2 C :    0.144296
   3 C :   -0.056899
   4 O :   -0.245533
   5 C :    0.172411
   6 N :   -0.411590
   7 C :   -0.213147
   8 N :   -0.035474
   9 H :    0.340072
  10 H :    0.136320
  11 H :    0.116195
  12 H :    0.149597
  13 H :    0.133822
  14 H :    0.241957
Sum of atomic charges:    0.0000000

LOEWDIN ATOMIC CHARGES
----------------------
   0 O :   -0.006312
   1 C :   -0.290029
   2 C :   -0.226812
   3 C :   -0.160146
   4 O :    0.234192
   5 C :   -0.363206
   6 N :   -0.036351
   7 C :   -0.141647
   8 N :    0.087387
   9 H :    0.184895
  10 H :    0.140454
  11 H :    0.129320
  12 H :    0.135969
  13 H :    0.131708
  14 H :    0.180578

  Mayer bond orders larger than 0.1
B(  0-O ,  1-C ) :   0.9683 B(  0-O ,  9-H ) :   0.8130 B(  1-C ,  2-C ) :   0.9130
B(  1-C , 10-H ) :   0.9265 B(  1-C , 11-H ) :   0.8981 B(  2-C ,  3-C ) :   0.9130
B(  2-C ,  5-C ) :   0.8721 B(  2-C ,  7-C ) :   0.9227 B(  3-C ,  4-O ) :   0.8857
B(  3-C , 12-H ) :   0.9117 B(  3-C , 13-H ) :   0.9102 B(  4-O ,  5-C ) :   1.0937
B(  5-C ,  6-N ) :   1.9564 B(  6-N , 14-H ) :   0.8408 B(  7-C ,  8-N ) :   2.8521

MP2 TOTAL ENERGY:     -453.210017449 Eh
FINAL SINGLE POINT ENERGY      -453.210017448897

DIPOLE MOMENT
-------------
                                X             Y             Z
Electronic contribution:     -3.47758       0.65327      -0.78132
Nuclear contribution   :      4.25091      -2.14598       1.70399
                        -----------------------------------------
Total Dipole Moment    :      0.77333      -1.49271       0.92268
                        -----------------------------------------
Magnitude (a.u.)       :      1.91770
Magnitude (Debye)      :      4.87440

                             ****ORCA TERMINATED NORMALLY****
TOTAL RUN TIME: 0 days 0 hours 15 minutes 8 seconds 230 msec
