                         Program Version 3.0.3 - RELEASE   -
|  1> ! RI-MP2 RIJK def2-TZVP def2-TZVP/C def2-TZVP/JK TIGHTSCF
|  2> % maxcore 2000
|  3> % mp2 density relaxed end
|  4> *xyz 0 1
|  5>  C       -0.1100114207     1.1843855791    -1.7436741442
|  6>  C       -0.0472444206    -0.1142054900    -0.9636589501
|  7>  C        1.2575262132    -0.6585341343    -0.3774844289
|  8>  C        2.5615202797     0.0365472172    -0.5523350906
|  9>  O        3.6178115487    -0.5480238247    -0.4671962261
| 10>  C        0.1296661708    -0.1494396073     0.5259058951
| 11>  C        0.2285729742     1.0746733145     1.3815011424
| 12>  C        1.3455714986     1.3113380514     2.3081704422
| 13>  O        1.2251326012     2.0538172444     1.0886341823
| 14>  H        0.4711199818     1.9811625925    -1.2769238413
| 15>  H        0.2571062142     1.0450414652    -2.7656968224
| 16>  H       -1.1476668343     1.5287858264    -1.8092991768
| 17>  H       -0.6920776214    -0.8916785877    -1.3656399875
| 18>  H        1.3849882105    -1.7365828018    -0.3768658324
| 19>  H        2.5242012731     1.1149346361    -0.7849272031
| 20>  H       -0.4011102342    -0.9471866533     1.0419392835
| 21>  H       -0.7381944960     1.5069520945     1.6482205417
| 22>  H        1.1828183407     1.8882922496     3.2163789452
| 23>  H        2.1718543706     0.6037839183     2.3378530809
| 24> *
| 25>
| 26>                          ****END OF INPUT****

CARTESIAN COORDINATES (ANGSTROEM)
---------------------------------
  C     -0.110011    1.184386   -1.743674
  C     -0.047244   -0.114205   -0.963659
  C      1.257526   -0.658534   -0.377484
  C      2.561520    0.036547   -0.552335
  O      3.617812   -0.548024   -0.467196
  C      0.129666   -0.149440    0.525906
  C      0.228573    1.074673    1.381501
  C      1.345571    1.311338    2.308170
  O      1.225133    2.053817    1.088634
  H      0.471120    1.981163   -1.276924
  H      0.257106    1.045041   -2.765697
  H     -1.147667    1.528786   -1.809299
  H     -0.692078   -0.891679   -1.365640
  H      1.384988   -1.736583   -0.376866
  H      2.524201    1.114935   -0.784927
  H     -0.401110   -0.947187    1.041939
  H     -0.738194    1.506952    1.648221
  H      1.182818    1.888292    3.216379
  H      2.171854    0.603784    2.337853

 Total Charge           Charge          ....    0
 Multiplicity           Mult            ....    1
 Number of Electrons    NEL             ....   68
 Basis Dimension        Dim             ....  339

ORBITAL ENERGIES
----------------

  NO   OCC          E(Eh)            E(eV)
   0   2.0000     -20.582796      -560.0863
   1   2.0000     -20.541587      -558.9650
   2   2.0000     -11.321225      -308.0662
   3   2.0000     -11.305445      -307.6368
   4   2.0000     -11.293775      -307.3192
   5   2.0000     -11.261425      -306.4390
   6   2.0000     -11.257286      -306.3263
   7   2.0000     -11.247351      -306.0560
   8   2.0000     -11.229132      -305.5602
   9   2.0000      -1.426776       -38.8245
  10   2.0000      -1.380030       -37.5525
  11   2.0000      -1.173187       -31.9241
  12   2.0000      -0.991643       -26.9840
  13   2.0000      -0.964275       -26.2393
  14   2.0000      -0.912068       -24.8186
  15   2.0000      -0.875366       -23.8199
  16   2.0000      -0.781381       -21.2625
  17   2.0000      -0.765317       -20.8253
  18   2.0000      -0.710616       -19.3369
  19   2.0000      -0.688952       -18.7473
  20   2.0000      -0.668971       -18.2036
  21   2.0000      -0.631889       -17.1946
  22   2.0000      -0.612270       -16.6607
  23   2.0000      -0.581112       -15.8129
  24   2.0000      -0.562729       -15.3126
  25   2.0000      -0.557839       -15.1796
  26   2.0000      -0.547952       -14.9105
  27   2.0000      -0.528063       -14.3693
  28   2.0000      -0.514079       -13.9888
  29   2.0000      -0.487685       -13.2706
  30   2.0000      -0.466336       -12.6897
  31   2.0000      -0.428339       -11.6557
  32   2.0000      -0.414277       -11.2730
  33   2.0000      -0.398380       -10.8405
  34   0.0000       0.129288         3.5181
  35   0.0000       0.135321         3.6823
  36   0.0000       0.160117         4.3570
  37   0.0000       0.160467         4.3665
  38   0.0000       0.175550         4.7770

MULLIKEN ATOMIC CHARGES
-----------------------
   0 C :   -0.436213
   1 C :   -0.061539
   2 C :   -0.099946
   3 C :    0.059562
   4 O :   -0.281435
   5 C :   -0.131304
   6 C :    0.031768
   7 C :   -0.082635
   8 O :   -0.346224
   9 H :    0.159531
  10 H :    0.143191
  11 H :    0.136486
  12 H :    0.130066
  13 H :    0.134329
  14 H :    0.109340
  15 H :    0.134633
  16 H :    0.133584
  17 H :    0.128155
  18 H :    0.138651
Sum of atomic charges:    0.0000000

LOEWDIN ATOMIC CHARGES
----------------------
   0 C :   -0.288297
   1 C :   -0.196113
   2 C :   -0.171231
   3 C :   -0.288478
   4 O :    0.117066
   5 C :   -0.171987
   6 C :   -0.277411
   7 C :   -0.250421
   8 O :    0.149626
   9 H :    0.131575
  10 H :    0.129067
  11 H :    0.129182
  12 H :    0.152571
  13 H :    0.158150
  14 H :    0.120003
  15 H :    0.162885
  16 H :    0.144527
  17 H :    0.121964
  18 H :    0.127321

  Mayer bond orders larger than 0.1
B(  0-C ,  1-C ) :   0.9075 B(  0-C ,  9-H ) :   0.9333 B(  0-C , 10-H ) :   0.9359
B(  0-C , 11-H ) :   0.9342 B(  1-C ,  2-C ) :   0.8038 B(  1-C ,  5-C ) :   0.8863
B(  1-C , 12-H ) :   0.9243 B(  2-C ,  3-C ) :   0.9179 B(  2-C ,  5-C ) :   0.8338
B(  2-C , 13-H ) :   0.9218 B(  3-C ,  4-O ) :   1.9636 B(  3-C , 14-H ) :   0.9493
B(  5-C ,  6-C ) :   0.9339 B(  5-C , 15-H ) :   0.9174 B(  6-C ,  7-C ) :   0.9663
B(  6-C ,  8-O ) :   0.8749 B(  6-C , 16-H ) :   0.9188 B(  7-C ,  8-O ) :   0.8863
B(  7-C , 17-H ) :   0.9265 B(  7-C , 18-H ) :   0.9093

MP2 TOTAL ENERGY:     -422.284321687 Eh
FINAL SINGLE POINT ENERGY      -422.284321686544

DIPOLE MOMENT
-------------
                                X             Y             Z
Electronic contribution:      4.72542      -1.10591       1.77084
Nuclear contribution   :     -6.19030       1.07794      -1.36728
                        -----------------------------------------
Total Dipole Moment    :     -1.46488      -0.02796       0.40356
                        -----------------------------------------
Magnitude (a.u.)       :      1.51971
Magnitude (Debye)      :      3.86281

                             ****ORCA TERMINATED NORMALLY****
TOTAL RUN TIME: 0 days 0 hours 19 minutes 39 seconds 581 msec
