                         Program Version 3.0.3 - RELEASE   -
|  1> ! RI-MP2 RIJK def2-TZVP def2-TZVP/C def2-TZVP/JK TIGHTSCF
|  2> % maxcore 2000
|  3> % mp2 density relaxed end
|  4> *xyz 0 1
|  5>  C        0.0751246930     1.5334915144    -0.0412459487
|  6>  C       -0.0120101245     0.0384182518     0.0781557079
|  7>  C        1.1582383459    -0.8930590448    -0.2253525770
|  8>  C        0.5337001588    -0.9876776757     1.1282791314
|  9>  C        1.2623357681    -0.7089862141     2.4095913485
| 10>  O        1.9434304215    -1.8531512901     2.9067364032
| 11>  C       -0.7355281710    -1.8484689282     1.0073449152
| 12>  C       -1.2790260339    -0.7663134199     0.0391517747
| 13>  O       -2.3735279613    -0.5314023696    -0.3919641510
| 14>  H        1.0479825725     1.9051769384     0.2948343637
| 15>  H       -0.0577967213     1.8448538416    -1.0828097680
| 16>  H       -0.7037804606     2.0226219224     0.5516207567
| 17>  H        1.0542177007    -1.7034547765    -0.9424401837
| 18>  H        2.1097243358    -0.3703027409    -0.2850227358
| 19>  H        1.9507663117     0.1399376916     2.2695116421
| 20>  H        0.5547406313    -0.4284272545     3.1973311841
| 21>  H        2.5560418135    -2.1451737725     2.2232848869
| 22>  H       -0.6096109369    -2.8653998919     0.6251603784
| 23>  H       -1.3441264132    -1.8812641515     1.9161948515
| 24> *
| 25>
| 26>                          ****END OF INPUT****

CARTESIAN COORDINATES (ANGSTROEM)
---------------------------------
  C      0.075125    1.533492   -0.041246
  C     -0.012010    0.038418    0.078156
  C      1.158238   -0.893059   -0.225353
  C      0.533700   -0.987678    1.128279
  C      1.262336   -0.708986    2.409591
  O      1.943430   -1.853151    2.906736
  C     -0.735528   -1.848469    1.007345
  C     -1.279026   -0.766313    0.039152
  O     -2.373528   -0.531402   -0.391964
  H      1.047983    1.905177    0.294834
  H     -0.057797    1.844854   -1.082810
  H     -0.703780    2.022622    0.551621
  H      1.054218   -1.703455   -0.942440
  H      2.109724   -0.370303   -0.285023
  H      1.950766    0.139938    2.269512
  H      0.554741   -0.428427    3.197331
  H      2.556042   -2.145174    2.223285
  H     -0.609611   -2.865400    0.625160
  H     -1.344126   -1.881264    1.916195

 Total Charge           Charge          ....    0
 Multiplicity           Mult            ....    1
 Number of Electrons    NEL             ....   68
 Basis Dimension        Dim             ....  339

ORBITAL ENERGIES
----------------

  NO   OCC          E(Eh)            E(eV)
   0   2.0000     -20.567729      -559.6764
   1   2.0000     -20.546373      -559.0952
   2   2.0000     -11.333043      -308.3878
   3   2.0000     -11.294688      -307.3441
   4   2.0000     -11.265967      -306.5625
   5   2.0000     -11.262445      -306.4667
   6   2.0000     -11.257403      -306.3295
   7   2.0000     -11.245866      -306.0156
   8   2.0000     -11.235952      -305.7458
   9   2.0000      -1.390961       -37.8500
  10   2.0000      -1.371942       -37.3324
  11   2.0000      -1.217191       -33.1215
  12   2.0000      -1.015588       -27.6355
  13   2.0000      -0.983731       -26.7687
  14   2.0000      -0.958100       -26.0712
  15   2.0000      -0.855389       -23.2763
  16   2.0000      -0.785802       -21.3828
  17   2.0000      -0.708551       -19.2807
  18   2.0000      -0.692827       -18.8528
  19   2.0000      -0.668456       -18.1896
  20   2.0000      -0.661180       -17.9916
  21   2.0000      -0.639323       -17.3968
  22   2.0000      -0.611512       -16.6401
  23   2.0000      -0.595287       -16.1986
  24   2.0000      -0.576648       -15.6914
  25   2.0000      -0.566153       -15.4058
  26   2.0000      -0.562609       -15.3094
  27   2.0000      -0.538821       -14.6621
  28   2.0000      -0.519042       -14.1239
  29   2.0000      -0.512750       -13.9527
  30   2.0000      -0.459555       -12.5051
  31   2.0000      -0.436787       -11.8856
  32   2.0000      -0.398813       -10.8523
  33   2.0000      -0.393055       -10.6956
  34   0.0000       0.118168         3.2155
  35   0.0000       0.138845         3.7782
  36   0.0000       0.143386         3.9017
  37   0.0000       0.157952         4.2981
  38   0.0000       0.171690         4.6719

MULLIKEN ATOMIC CHARGES
-----------------------
   0 C :   -0.405517
   1 C :    0.066677
   2 C :   -0.270972
   3 C :   -0.083950
   4 C :   -0.005259
   5 O :   -0.458114
   6 C :   -0.170624
   7 C :    0.075337
   8 O :   -0.263045
   9 H :    0.132221
  10 H :    0.151011
  11 H :    0.146668
  12 H :    0.146875
  13 H :    0.140593
  14 H :    0.102047
  15 H :    0.117393
  16 H :    0.315182
  17 H :    0.132690
  18 H :    0.130786
Sum of atomic charges:   -0.0000000

LOEWDIN ATOMIC CHARGES
----------------------
   0 C :   -0.265021
   1 C :   -0.164099
   2 C :   -0.156452
   3 C :   -0.191644
   4 C :   -0.307767
   5 O :   -0.041797
   6 C :   -0.156620
   7 C :   -0.285386
   8 O :    0.154360
   9 H :    0.130179
  10 H :    0.137227
  11 H :    0.134921
  12 H :    0.138499
  13 H :    0.146297
  14 H :    0.124626
  15 H :    0.137613
  16 H :    0.174962
  17 H :    0.138829
  18 H :    0.151272

  Mayer bond orders larger than 0.1
B(  0-C ,  1-C ) :   0.8856 B(  0-C ,  9-H ) :   0.9390 B(  0-C , 10-H ) :   0.9313
B(  0-C , 11-H ) :   0.9356 B(  1-C ,  2-C ) :   0.8317 B(  1-C ,  3-C ) :   0.7565
B(  1-C ,  6-C ) :  -0.1412 B(  1-C ,  7-C ) :   0.8623 B(  2-C ,  3-C ) :   0.8875
B(  2-C , 12-H ) :   0.9067 B(  2-C , 13-H ) :   0.9315 B(  3-C ,  4-C ) :   0.9555
B(  3-C ,  6-C ) :   0.8997 B(  4-C ,  5-O ) :   0.9101 B(  4-C , 14-H ) :   0.9304
B(  4-C , 15-H ) :   0.9159 B(  5-O , 16-H ) :   0.8444 B(  6-C ,  7-C ) :   0.9458
B(  6-C , 17-H ) :   0.8932 B(  6-C , 18-H ) :   0.8964 B(  7-C ,  8-O ) :   2.0483

MP2 TOTAL ENERGY:     -422.312626371 Eh
FINAL SINGLE POINT ENERGY      -422.312626370870

DIPOLE MOMENT
-------------
                                X             Y             Z
Electronic contribution:     -4.05339      -2.83365      -0.79706
Nuclear contribution   :      5.26795       3.06136       0.66308
                        -----------------------------------------
Total Dipole Moment    :      1.21457       0.22771      -0.13398
                        -----------------------------------------
Magnitude (a.u.)       :      1.24297
Magnitude (Debye)      :      3.15938

                             ****ORCA TERMINATED NORMALLY****
TOTAL RUN TIME: 0 days 0 hours 19 minutes 0 seconds 698 msec
