                         Program Version 3.0.3 - RELEASE   -
|  1> ! RI-MP2 RIJK def2-TZVP def2-TZVP/C def2-TZVP/JK TIGHTSCF
|  2> % maxcore 2000
|  3> % mp2 density relaxed end
|  4> *xyz 0 1
|  5>  C       -0.2044922388     1.5521488832     0.0522118958
|  6>  C        0.0496033813     0.0462919393     0.0020755815
|  7>  O        0.7854285290    -0.3373824874    -1.1612743534
|  8>  C        2.1981633451    -0.3585446317    -1.0436913028
|  9>  C        2.6397545085    -0.8803280311     0.3480851183
| 10>  C        1.5087997345    -1.8093698309     0.8931616973
| 11>  C        0.7474714916    -0.5010868230     1.2799202163
| 12>  C        2.1363412286     0.1401537337     1.3705716563
| 13>  O        2.6370935642     1.0073026182     2.0283054990
| 14>  H        0.7268843007     2.1151139602     0.1622983563
| 15>  H       -0.7023646833     1.8757717421    -0.8655064075
| 16>  H       -0.8472804626     1.8031051275     0.9024974972
| 17>  H       -0.9102950611    -0.4743260125    -0.1041249529
| 18>  H        2.5523122160    -1.0326050763    -1.8306894115
| 19>  H        2.6375427430     0.6340183994    -1.2258919637
| 20>  H        3.6870188106    -1.1862432086     0.3559931184
| 21>  H        1.0186152337    -2.4562764309     0.1645164220
| 22>  H        1.8259335668    -2.3813996103     1.7664599649
| 23>  H        0.0829292420    -0.4668829308     2.1446691284
| 24> *
| 25>
| 26>                          ****END OF INPUT****

CARTESIAN COORDINATES (ANGSTROEM)
---------------------------------
  C     -0.204492    1.552149    0.052212
  C      0.049603    0.046292    0.002076
  O      0.785429   -0.337382   -1.161274
  C      2.198163   -0.358545   -1.043691
  C      2.639755   -0.880328    0.348085
  C      1.508800   -1.809370    0.893162
  C      0.747471   -0.501087    1.279920
  C      2.136341    0.140154    1.370572
  O      2.637094    1.007303    2.028305
  H      0.726884    2.115114    0.162298
  H     -0.702365    1.875772   -0.865506
  H     -0.847280    1.803105    0.902497
  H     -0.910295   -0.474326   -0.104125
  H      2.552312   -1.032605   -1.830689
  H      2.637543    0.634018   -1.225892
  H      3.687019   -1.186243    0.355993
  H      1.018615   -2.456276    0.164516
  H      1.825934   -2.381400    1.766460
  H      0.082929   -0.466883    2.144669

 Total Charge           Charge          ....    0
 Multiplicity           Mult            ....    1
 Number of Electrons    NEL             ....   68
 Basis Dimension        Dim             ....  339

ORBITAL ENERGIES
----------------

  NO   OCC          E(Eh)            E(eV)
   0   2.0000     -20.563332      -559.5567
   1   2.0000     -20.553403      -559.2865
   2   2.0000     -11.331653      -308.3500
   3   2.0000     -11.299369      -307.4715
   4   2.0000     -11.294026      -307.3261
   5   2.0000     -11.251684      -306.1739
   6   2.0000     -11.251104      -306.1581
   7   2.0000     -11.246542      -306.0340
   8   2.0000     -11.221220      -305.3449
   9   2.0000      -1.398709       -38.0608
  10   2.0000      -1.385402       -37.6987
  11   2.0000      -1.156734       -31.4763
  12   2.0000      -1.059316       -28.8254
  13   2.0000      -0.963146       -26.2085
  14   2.0000      -0.885351       -24.0916
  15   2.0000      -0.859887       -23.3987
  16   2.0000      -0.830802       -22.6073
  17   2.0000      -0.707291       -19.2464
  18   2.0000      -0.698203       -18.9991
  19   2.0000      -0.671669       -18.2770
  20   2.0000      -0.652498       -17.7554
  21   2.0000      -0.635143       -17.2831
  22   2.0000      -0.620042       -16.8722
  23   2.0000      -0.579630       -15.7725
  24   2.0000      -0.566702       -15.4208
  25   2.0000      -0.558915       -15.2088
  26   2.0000      -0.542722       -14.7682
  27   2.0000      -0.529983       -14.4216
  28   2.0000      -0.517953       -14.0942
  29   2.0000      -0.502559       -13.6753
  30   2.0000      -0.467217       -12.7136
  31   2.0000      -0.450901       -12.2696
  32   2.0000      -0.423896       -11.5348
  33   2.0000      -0.391134       -10.6433
  34   0.0000       0.124469         3.3870
  35   0.0000       0.150026         4.0824
  36   0.0000       0.152698         4.1551
  37   0.0000       0.159706         4.3458
  38   0.0000       0.176043         4.7904

MULLIKEN ATOMIC CHARGES
-----------------------
   0 C :   -0.391419
   1 C :    0.029353
   2 O :   -0.321239
   3 C :   -0.092265
   4 C :    0.017893
   5 C :   -0.331183
   6 C :    0.023411
   7 C :   -0.004998
   8 O :   -0.250790
   9 H :    0.141498
  10 H :    0.142744
  11 H :    0.130702
  12 H :    0.106135
  13 H :    0.130192
  14 H :    0.113337
  15 H :    0.137943
  16 H :    0.141169
  17 H :    0.138506
  18 H :    0.139010
Sum of atomic charges:    0.0000000

LOEWDIN ATOMIC CHARGES
----------------------
   0 C :   -0.286611
   1 C :   -0.307996
   2 O :    0.178147
   3 C :   -0.279115
   4 C :   -0.190440
   5 C :   -0.182378
   6 C :   -0.169830
   7 C :   -0.294170
   8 O :    0.160399
   9 H :    0.129151
  10 H :    0.127745
  11 H :    0.130454
  12 H :    0.148171
  13 H :    0.133556
  14 H :    0.127778
  15 H :    0.147596
  16 H :    0.138618
  17 H :    0.139572
  18 H :    0.149353

  Mayer bond orders larger than 0.1
B(  0-C ,  1-C ) :   0.9426 B(  0-C ,  9-H ) :   0.9202 B(  0-C , 10-H ) :   0.9391
B(  0-C , 11-H ) :   0.9302 B(  1-C ,  2-O ) :   0.9043 B(  1-C ,  6-C ) :   0.8720
B(  1-C , 12-H ) :   0.9167 B(  2-O ,  3-C ) :   0.9339 B(  3-C ,  4-C ) :   0.8641
B(  3-C , 13-H ) :   0.9255 B(  3-C , 14-H ) :   0.9250 B(  4-C ,  5-C ) :   0.9008
B(  4-C ,  6-C ) :  -0.1192 B(  4-C ,  7-C ) :   0.8429 B(  4-C , 15-H ) :   0.8967
B(  5-C ,  6-C ) :   0.8985 B(  5-C , 16-H ) :   0.9118 B(  5-C , 17-H ) :   0.9218
B(  6-C ,  7-C ) :   0.8308 B(  6-C , 18-H ) :   0.8993 B(  7-C ,  8-O ) :   2.0431

MP2 TOTAL ENERGY:     -422.327341002 Eh
FINAL SINGLE POINT ENERGY      -422.327341001937

DIPOLE MOMENT
-------------
                                X             Y             Z
Electronic contribution:      3.15868      -0.12494       2.11465
Nuclear contribution   :     -3.47514      -0.52183      -2.35385
                        -----------------------------------------
Total Dipole Moment    :     -0.31645      -0.64677      -0.23920
                        -----------------------------------------
Magnitude (a.u.)       :      0.75873
Magnitude (Debye)      :      1.92854

                             ****ORCA TERMINATED NORMALLY****
TOTAL RUN TIME: 0 days 0 hours 19 minutes 27 seconds 874 msec
