                         Program Version 3.0.3 - RELEASE   -
|  1> ! RI-MP2 RIJK def2-TZVP def2-TZVP/C def2-TZVP/JK TIGHTSCF
|  2> % maxcore 2000
|  3> % mp2 density relaxed end
|  4> *xyz 0 1
|  5>  O       -0.6791975321     0.3312258584    -0.9964331314
|  6>  C       -0.2409587202     1.2749751923    -0.3787073824
|  7>  N       -0.6595017678     1.8372450855     0.8084026282
|  8>  N        0.1053943600     2.9035193817     1.2287957745
|  9>  C        0.9991993841     3.0464917681     0.2959158847
| 10>  N        0.8486507381     2.1043358823    -0.6923009528
| 11>  C        2.0358153987     4.0951322500     0.2945474376
| 12>  C        1.6174568129     5.5252539651     0.4273076220
| 13>  N        2.2817392917     4.8376884382     1.5346710794
| 14>  H       -1.4032015438     1.4886559089     1.3866161188
| 15>  H        1.4027183473     1.9903388416    -1.5233597944
| 16>  H        2.9265913067     3.8558246447    -0.2816573255
| 17>  H        2.2049958320     6.3005682905    -0.0565542893
| 18>  H        0.5503572625     5.7159853488     0.4944739389
| 19>  H        1.5911658502     4.5441039941     2.2240465119
| 20> *
| 21>
| 22>                          ****END OF INPUT****

CARTESIAN COORDINATES (ANGSTROEM)
---------------------------------
  O     -0.679198    0.331226   -0.996433
  C     -0.240959    1.274975   -0.378707
  N     -0.659502    1.837245    0.808403
  N      0.105394    2.903519    1.228796
  C      0.999199    3.046492    0.295916
  N      0.848651    2.104336   -0.692301
  C      2.035815    4.095132    0.294547
  C      1.617457    5.525254    0.427308
  N      2.281739    4.837688    1.534671
  H     -1.403202    1.488656    1.386616
  H      1.402718    1.990339   -1.523360
  H      2.926591    3.855825   -0.281657
  H      2.204996    6.300568   -0.056554
  H      0.550357    5.715985    0.494474
  H      1.591166    4.544104    2.224047

 Total Charge           Charge          ....    0
 Multiplicity           Mult            ....    1
 Number of Electrons    NEL             ....   66
 Basis Dimension        Dim             ....  315

ORBITAL ENERGIES
----------------

  NO   OCC          E(Eh)            E(eV)
   0   2.0000     -20.524560      -558.5017
   1   2.0000     -15.630986      -425.3407
   2   2.0000     -15.630182      -425.3189
   3   2.0000     -15.608137      -424.7190
   4   2.0000     -15.581499      -423.9941
   5   2.0000     -11.393574      -310.0349
   6   2.0000     -11.340917      -308.6020
   7   2.0000     -11.296796      -307.4014
   8   2.0000     -11.282068      -307.0007
   9   2.0000      -1.438295       -39.1380
  10   2.0000      -1.363858       -37.1125
  11   2.0000      -1.290796       -35.1244
  12   2.0000      -1.238529       -33.7021
  13   2.0000      -1.122177       -30.5360
  14   2.0000      -0.954200       -25.9651
  15   2.0000      -0.896448       -24.3936
  16   2.0000      -0.887322       -24.1453
  17   2.0000      -0.814403       -22.1610
  18   2.0000      -0.769480       -20.9386
  19   2.0000      -0.700453       -19.0603
  20   2.0000      -0.687419       -18.7056
  21   2.0000      -0.680022       -18.5044
  22   2.0000      -0.658764       -17.9259
  23   2.0000      -0.633896       -17.2492
  24   2.0000      -0.570078       -15.5126
  25   2.0000      -0.533282       -14.5113
  26   2.0000      -0.523226       -14.2377
  27   2.0000      -0.513771       -13.9804
  28   2.0000      -0.503549       -13.7023
  29   2.0000      -0.480985       -13.0883
  30   2.0000      -0.443207       -12.0603
  31   2.0000      -0.421994       -11.4830
  32   2.0000      -0.343801        -9.3553
  33   0.0000       0.121837         3.3153
  34   0.0000       0.142181         3.8689
  35   0.0000       0.148472         4.0401
  36   0.0000       0.162864         4.4317
  37   0.0000       0.174005         4.7349

MULLIKEN ATOMIC CHARGES
-----------------------
   0 O :   -0.359311
   1 C :    0.294638
   2 N :   -0.200634
   3 N :   -0.227305
   4 C :    0.212113
   5 N :   -0.315002
   6 C :   -0.093113
   7 C :   -0.152324
   8 N :   -0.357248
   9 H :    0.267932
  10 H :    0.264900
  11 H :    0.147131
  12 H :    0.131444
  13 H :    0.142975
  14 H :    0.243806
Sum of atomic charges:   -0.0000000

LOEWDIN ATOMIC CHARGES
----------------------
   0 O :    0.055980
   1 C :   -0.529048
   2 N :    0.103190
   3 N :    0.042733
   4 C :   -0.332994
   5 N :    0.181447
   6 C :   -0.252655
   7 C :   -0.246207
   8 N :    0.009586
   9 H :    0.189664
  10 H :    0.199771
  11 H :    0.149805
  12 H :    0.126363
  13 H :    0.128322
  14 H :    0.174043

  Mayer bond orders larger than 0.1
B(  0-O ,  1-C ) :   2.0039 B(  1-C ,  2-N ) :   1.1207 B(  1-C ,  5-N ) :   1.0273
B(  2-N ,  3-N ) :   0.9460 B(  2-N ,  9-H ) :   0.8698 B(  3-N ,  4-C ) :   1.6603
B(  4-C ,  5-N ) :   1.0971 B(  4-C ,  6-C ) :   0.9697 B(  5-N , 10-H ) :   0.8611
B(  6-C ,  7-C ) :   0.9337 B(  6-C ,  8-N ) :   0.9694 B(  6-C , 11-H ) :   0.8943
B(  7-C ,  8-N ) :   0.9072 B(  7-C , 12-H ) :   0.9255 B(  7-C , 13-H ) :   0.9117
B(  8-N , 14-H ) :   0.8710

MP2 TOTAL ENERGY:     -449.405528661 Eh
FINAL SINGLE POINT ENERGY      -449.405528661262

DIPOLE MOMENT
-------------
                                X             Y             Z
Electronic contribution:     -2.73246      -5.49930      -0.72056
Nuclear contribution   :      2.98441       6.29280       0.56373
                        -----------------------------------------
Total Dipole Moment    :      0.25196       0.79350      -0.15683
                        -----------------------------------------
Magnitude (a.u.)       :      0.84718
Magnitude (Debye)      :      2.15336

                             ****ORCA TERMINATED NORMALLY****
TOTAL RUN TIME: 0 days 0 hours 14 minutes 42 seconds 37 msec
