                         Program Version 3.0.3 - RELEASE   -
|  1> ! RI-MP2 RIJK def2-TZVP def2-TZVP/C def2-TZVP/JK TIGHTSCF
|  2> % maxcore 2000
|  3> % mp2 density relaxed end
|  4> *xyz 0 1
|  5>  C       -0.9639126985     0.4004815173     0.5633425252
|  6>  C        0.3716652597     0.2517204791    -0.1277765774
|  7>  O        1.3794688072     0.7976175108     0.2597161783
|  8>  C        0.4258293361    -0.6158806820    -1.3899917791
|  9>  C        1.6676808044    -1.5159564666    -1.4227458327
| 10>  C        1.5491567711    -2.5011647354    -2.5540681900
| 11>  C        0.3890215253    -2.7284855252    -3.1648873047
| 12>  C       -0.8836603725    -2.0542894266    -2.7332343568
| 13>  O       -0.7630014406    -1.3807796081    -1.4914383049
| 14>  H       -1.7109398865     0.7910864518    -0.1355201206
| 15>  H       -1.3310635710    -0.5807654256     0.8795167044
| 16>  H       -0.8576607329     1.0661418908     1.4203585663
| 17>  H        0.4847042276     0.0886992192    -2.2404685304
| 18>  H        2.5595056313    -0.8908136298    -1.5282189257
| 19>  H        1.7763786966    -2.0388827540    -0.4628228663
| 20>  H        2.4492884167    -3.0239373989    -2.8657972025
| 21>  H        0.3134126740    -3.4161943177    -4.0027465840
| 22>  H       -1.2273342262    -1.3535497100    -3.5166596878
| 23>  H       -1.6835519819    -2.7920075192    -2.5982330713
| 24> *
| 25>
| 26>                          ****END OF INPUT****

CARTESIAN COORDINATES (ANGSTROEM)
---------------------------------
  C     -0.963913    0.400482    0.563343
  C      0.371665    0.251720   -0.127777
  O      1.379469    0.797618    0.259716
  C      0.425829   -0.615881   -1.389992
  C      1.667681   -1.515956   -1.422746
  C      1.549157   -2.501165   -2.554068
  C      0.389022   -2.728486   -3.164887
  C     -0.883660   -2.054289   -2.733234
  O     -0.763001   -1.380780   -1.491438
  H     -1.710940    0.791086   -0.135520
  H     -1.331064   -0.580765    0.879517
  H     -0.857661    1.066142    1.420359
  H      0.484704    0.088699   -2.240469
  H      2.559506   -0.890814   -1.528219
  H      1.776379   -2.038883   -0.462823
  H      2.449288   -3.023937   -2.865797
  H      0.313413   -3.416194   -4.002747
  H     -1.227334   -1.353550   -3.516660
  H     -1.683552   -2.792008   -2.598233

 Total Charge           Charge          ....    0
 Multiplicity           Mult            ....    1
 Number of Electrons    NEL             ....   68
 Basis Dimension        Dim             ....  339

ORBITAL ENERGIES
----------------

  NO   OCC          E(Eh)            E(eV)
   0   2.0000     -20.569450      -559.7232
   1   2.0000     -20.544250      -559.0375
   2   2.0000     -11.330478      -308.3180
   3   2.0000     -11.295894      -307.3769
   4   2.0000     -11.290957      -307.2425
   5   2.0000     -11.238307      -305.8099
   6   2.0000     -11.235377      -305.7301
   7   2.0000     -11.235102      -305.7227
   8   2.0000     -11.227794      -305.5238
   9   2.0000      -1.400212       -38.1017
  10   2.0000      -1.383998       -37.6605
  11   2.0000      -1.093124       -29.7454
  12   2.0000      -1.057242       -28.7690
  13   2.0000      -0.998683       -27.1755
  14   2.0000      -0.902771       -24.5657
  15   2.0000      -0.888077       -24.1658
  16   2.0000      -0.756433       -20.5836
  17   2.0000      -0.735006       -20.0005
  18   2.0000      -0.694896       -18.9091
  19   2.0000      -0.668059       -18.1788
  20   2.0000      -0.653844       -17.7920
  21   2.0000      -0.615250       -16.7418
  22   2.0000      -0.611655       -16.6440
  23   2.0000      -0.596044       -16.2192
  24   2.0000      -0.580029       -15.7834
  25   2.0000      -0.575098       -15.6492
  26   2.0000      -0.548640       -14.9293
  27   2.0000      -0.543782       -14.7971
  28   2.0000      -0.515854       -14.0371
  29   2.0000      -0.497183       -13.5290
  30   2.0000      -0.482436       -13.1277
  31   2.0000      -0.428820       -11.6688
  32   2.0000      -0.405605       -11.0371
  33   2.0000      -0.361350        -9.8328
  34   0.0000       0.125154         3.4056
  35   0.0000       0.148751         4.0477
  36   0.0000       0.153812         4.1854
  37   0.0000       0.161218         4.3870
  38   0.0000       0.163820         4.4578

MULLIKEN ATOMIC CHARGES
-----------------------
   0 C :   -0.393705
   1 C :    0.190609
   2 O :   -0.292494
   3 C :    0.061638
   4 C :   -0.145620
   5 C :   -0.212614
   6 C :   -0.161727
   7 C :   -0.034038
   8 O :   -0.307189
   9 H :    0.143219
  10 H :    0.152387
  11 H :    0.149030
  12 H :    0.095474
  13 H :    0.141372
  14 H :    0.118832
  15 H :    0.127981
  16 H :    0.128447
  17 H :    0.106301
  18 H :    0.132095
Sum of atomic charges:   -0.0000000

LOEWDIN ATOMIC CHARGES
----------------------
   0 C :   -0.279310
   1 C :   -0.324132
   2 O :    0.152669
   3 C :   -0.283425
   4 C :   -0.226045
   5 C :   -0.167908
   6 C :   -0.181114
   7 C :   -0.302955
   8 O :    0.185130
   9 H :    0.140380
  10 H :    0.142204
  11 H :    0.131459
  12 H :    0.155525
  13 H :    0.153375
  14 H :    0.150826
  15 H :    0.143427
  16 H :    0.144588
  17 H :    0.127610
  18 H :    0.137696

  Mayer bond orders larger than 0.1
B(  0-C ,  1-C ) :   0.9439 B(  0-C ,  9-H ) :   0.9067 B(  0-C , 10-H ) :   0.9057
B(  0-C , 11-H ) :   0.9372 B(  1-C ,  2-O ) :   1.9940 B(  1-C ,  3-C ) :   0.8608
B(  3-C ,  4-C ) :   0.9524 B(  3-C ,  8-O ) :   0.9251 B(  3-C , 12-H ) :   0.9076
B(  4-C ,  5-C ) :   0.9253 B(  4-C , 13-H ) :   0.9230 B(  4-C , 14-H ) :   0.9011
B(  5-C ,  6-C ) :   1.8062 B(  5-C , 15-H ) :   0.9322 B(  6-C ,  7-C ) :   0.9376
B(  6-C , 16-H ) :   0.9183 B(  7-C ,  8-O ) :   0.9394 B(  7-C , 17-H ) :   0.9380
B(  7-C , 18-H ) :   0.9206

MP2 TOTAL ENERGY:     -422.333668528 Eh
FINAL SINGLE POINT ENERGY      -422.333668527804

DIPOLE MOMENT
-------------
                                X             Y             Z
Electronic contribution:      1.82885       1.41791       1.12437
Nuclear contribution   :     -2.34989      -1.94548      -1.83291
                        -----------------------------------------
Total Dipole Moment    :     -0.52103      -0.52756      -0.70854
                        -----------------------------------------
Magnitude (a.u.)       :      1.02558
Magnitude (Debye)      :      2.60683

                             ****ORCA TERMINATED NORMALLY****
TOTAL RUN TIME: 0 days 0 hours 18 minutes 12 seconds 278 msec
