                         Program Version 3.0.3 - RELEASE   -
|  1> ! RI-MP2 RIJK def2-TZVP def2-TZVP/C def2-TZVP/JK TIGHTSCF
|  2> % maxcore 2000
|  3> % mp2 density relaxed end
|  4> *xyz 0 1
|  5>  C       -0.0135339824     1.3885395011    -0.3346450314
|  6>  N       -0.0592217403     0.0139515039     0.1334847257
|  7>  C       -1.2359501557    -0.6919363005     0.0906990665
|  8>  O       -2.3151252063    -0.1987241383    -0.1882642291
|  9>  N       -1.0942203218    -2.0364417609     0.4096608705
| 10>  C       -2.2761057694    -2.8595373735     0.5331191514
| 11>  C       -2.1322433104    -4.1421024043    -0.1685898791
| 12>  N       -2.0082971207    -5.1619093687    -0.6967028671
| 13>  H        0.7292944498     1.9511851738     0.2373864484
| 14>  H        0.2303154671     1.4622357147    -1.4021753174
| 15>  H       -0.9983963048     1.8282277818    -0.1779564524
| 16>  H        0.8013391354    -0.5091818303     0.1004533130
| 17>  H       -0.2572775182    -2.3484441127     0.8748702073
| 18>  H       -2.5403678777    -3.0657814351     1.5792669414
| 19>  H       -3.0989200847    -2.2839517011     0.0978951823
| 20> *
| 21>
| 22>                          ****END OF INPUT****

CARTESIAN COORDINATES (ANGSTROEM)
---------------------------------
  C     -0.013534    1.388540   -0.334645
  N     -0.059222    0.013952    0.133485
  C     -1.235950   -0.691936    0.090699
  O     -2.315125   -0.198724   -0.188264
  N     -1.094220   -2.036442    0.409661
  C     -2.276106   -2.859537    0.533119
  C     -2.132243   -4.142102   -0.168590
  N     -2.008297   -5.161909   -0.696703
  H      0.729294    1.951185    0.237386
  H      0.230315    1.462236   -1.402175
  H     -0.998396    1.828228   -0.177956
  H      0.801339   -0.509182    0.100453
  H     -0.257278   -2.348444    0.874870
  H     -2.540368   -3.065781    1.579267
  H     -3.098920   -2.283952    0.097895

 Total Charge           Charge          ....    0
 Multiplicity           Mult            ....    1
 Number of Electrons    NEL             ....   60
 Basis Dimension        Dim             ....  290

ORBITAL ENERGIES
----------------

  NO   OCC          E(Eh)            E(eV)
   0   2.0000     -20.525670      -558.5319
   1   2.0000     -15.607504      -424.7018
   2   2.0000     -15.596095      -424.3913
   3   2.0000     -15.577130      -423.8753
   4   2.0000     -11.392940      -310.0177
   5   2.0000     -11.322709      -308.1066
   6   2.0000     -11.278669      -306.9082
   7   2.0000     -11.267855      -306.6139
   8   2.0000      -1.410838       -38.3909
   9   2.0000      -1.268670       -34.5223
  10   2.0000      -1.236510       -33.6471
  11   2.0000      -1.215596       -33.0781
  12   2.0000      -1.023850       -27.8604
  13   2.0000      -0.943540       -25.6750
  14   2.0000      -0.819374       -22.2963
  15   2.0000      -0.784771       -21.3547
  16   2.0000      -0.725702       -19.7474
  17   2.0000      -0.697046       -18.9676
  18   2.0000      -0.651108       -17.7176
  19   2.0000      -0.640850       -17.4384
  20   2.0000      -0.616124       -16.7656
  21   2.0000      -0.601170       -16.3587
  22   2.0000      -0.573056       -15.5936
  23   2.0000      -0.558208       -15.1896
  24   2.0000      -0.556030       -15.1303
  25   2.0000      -0.480060       -13.0631
  26   2.0000      -0.469350       -12.7717
  27   2.0000      -0.457349       -12.4451
  28   2.0000      -0.428540       -11.6612
  29   2.0000      -0.411087       -11.1863
  30   0.0000       0.104890         2.8542
  31   0.0000       0.138195         3.7605
  32   0.0000       0.151235         4.1153
  33   0.0000       0.171103         4.6560
  34   0.0000       0.175002         4.7621

MULLIKEN ATOMIC CHARGES
-----------------------
   0 C :   -0.278676
   1 N :   -0.372140
   2 C :    0.434615
   3 O :   -0.419568
   4 N :   -0.380682
   5 C :   -0.047543
   6 C :   -0.155311
   7 N :   -0.065701
   8 H :    0.137262
   9 H :    0.135094
  10 H :    0.174260
  11 H :    0.232700
  12 H :    0.238412
  13 H :    0.162790
  14 H :    0.204488
Sum of atomic charges:   -0.0000000

LOEWDIN ATOMIC CHARGES
----------------------
   0 C :   -0.313021
   1 N :    0.054664
   2 C :   -0.544962
   3 O :    0.056098
   4 N :    0.082928
   5 C :   -0.265578
   6 C :   -0.189521
   7 N :    0.061941
   8 H :    0.116351
   9 H :    0.113311
  10 H :    0.133817
  11 H :    0.180118
  12 H :    0.183635
  13 H :    0.154078
  14 H :    0.176142

  Mayer bond orders larger than 0.1
B(  0-C ,  1-N ) :   0.8735 B(  0-C ,  8-H ) :   0.9332 B(  0-C ,  9-H ) :   0.9397
B(  0-C , 10-H ) :   0.9286 B(  1-N ,  2-C ) :   1.1294 B(  1-N , 11-H ) :   0.8763
B(  2-C ,  3-O ) :   1.8564 B(  2-C ,  4-N ) :   1.0724 B(  4-N ,  5-C ) :   0.8881
B(  4-N , 12-H ) :   0.8732 B(  5-C ,  6-C ) :   0.8938 B(  5-C , 13-H ) :   0.9224
B(  5-C , 14-H ) :   0.8963 B(  6-C ,  7-N ) :   2.8528

MP2 TOTAL ENERGY:     -395.375479031 Eh
FINAL SINGLE POINT ENERGY      -395.375479030611

DIPOLE MOMENT
-------------
                                X             Y             Z
Electronic contribution:     -2.84926      -6.88060      -0.42272
Nuclear contribution   :      4.14159       7.82255       1.36481
                        -----------------------------------------
Total Dipole Moment    :      1.29233       0.94195       0.94209
                        -----------------------------------------
Magnitude (a.u.)       :      1.85605
Magnitude (Debye)      :      4.71772

                             ****ORCA TERMINATED NORMALLY****
TOTAL RUN TIME: 0 days 0 hours 9 minutes 7 seconds 311 msec
