                         Program Version 3.0.3 - RELEASE   -
|  1> ! RI-MP2 RIJK def2-TZVP def2-TZVP/C def2-TZVP/JK TIGHTSCF
|  2> % maxcore 2000
|  3> % mp2 density relaxed end
|  4> *xyz 0 1
|  5>  C       -0.0603148309     1.5896936806    -0.0558086141
|  6>  C        1.4806939743     1.3499210870     0.0178227700
|  7>  O        1.1785914473     0.1759759884     0.8649158903
|  8>  C       -0.0090431290     0.0313807409     0.0040359746
|  9>  C        0.6754707998    -0.2811219392    -1.3150127606
| 10>  N        0.6490277696    -1.0501049489    -2.3558965170
| 11>  O        1.7639829769    -0.6132750718    -3.1122952781
| 12>  C        2.3921249059     0.4033741585    -2.4568651048
| 13>  C        1.7456642505     0.6643412796    -1.3072961546
| 14>  H       -0.4496996824     2.0099461991     0.8727714530
| 15>  H       -0.4803995830     2.0765401319    -0.9383111716
| 16>  H        2.1864153978     2.0510159335     0.4551074340
| 17>  H       -0.7960283542    -0.5996476594     0.4070521041
| 18>  H        3.2600492874     0.7987682500    -2.9602753752
| 19> *
| 20>
| 21>                          ****END OF INPUT****

CARTESIAN COORDINATES (ANGSTROEM)
---------------------------------
  C     -0.060315    1.589694   -0.055809
  C      1.480694    1.349921    0.017823
  O      1.178591    0.175976    0.864916
  C     -0.009043    0.031381    0.004036
  C      0.675471   -0.281122   -1.315013
  N      0.649028   -1.050105   -2.355897
  O      1.763983   -0.613275   -3.112295
  C      2.392125    0.403374   -2.456865
  C      1.745664    0.664341   -1.307296
  H     -0.449700    2.009946    0.872771
  H     -0.480400    2.076540   -0.938311
  H      2.186415    2.051016    0.455107
  H     -0.796028   -0.599648    0.407052
  H      3.260049    0.798768   -2.960275

 Total Charge           Charge          ....    0
 Multiplicity           Mult            ....    1
 Number of Electrons    NEL             ....   64
 Basis Dimension        Dim             ....  309

ORBITAL ENERGIES
----------------

  NO   OCC          E(Eh)            E(eV)
   0   2.0000     -20.636308      -561.5425
   1   2.0000     -20.577950      -559.9545
   2   2.0000     -15.627930      -425.2576
   3   2.0000     -11.329794      -308.2994
   4   2.0000     -11.327648      -308.2410
   5   2.0000     -11.320656      -308.0507
   6   2.0000     -11.283814      -307.0482
   7   2.0000     -11.264660      -306.5270
   8   2.0000     -11.244196      -305.9701
   9   2.0000      -1.478038       -40.2195
  10   2.0000      -1.413747       -38.4700
  11   2.0000      -1.173865       -31.9425
  12   2.0000      -1.102434       -29.9988
  13   2.0000      -1.027077       -27.9482
  14   2.0000      -0.962822       -26.1997
  15   2.0000      -0.883575       -24.0433
  16   2.0000      -0.797564       -21.7028
  17   2.0000      -0.770694       -20.9717
  18   2.0000      -0.721065       -19.6212
  19   2.0000      -0.696721       -18.9588
  20   2.0000      -0.655151       -17.8276
  21   2.0000      -0.613758       -16.7012
  22   2.0000      -0.602123       -16.3846
  23   2.0000      -0.583275       -15.8717
  24   2.0000      -0.578712       -15.7476
  25   2.0000      -0.565723       -15.3941
  26   2.0000      -0.513054       -13.9609
  27   2.0000      -0.505138       -13.7455
  28   2.0000      -0.474165       -12.9027
  29   2.0000      -0.442884       -12.0515
  30   2.0000      -0.413552       -11.2533
  31   2.0000      -0.368662       -10.0318
  32   0.0000       0.121973         3.3191
  33   0.0000       0.149253         4.0614
  34   0.0000       0.158405         4.3104
  35   0.0000       0.168523         4.5857
  36   0.0000       0.170076         4.6280

MULLIKEN ATOMIC CHARGES
-----------------------
   0 C :   -0.198954
   1 C :    0.017662
   2 O :   -0.280782
   3 C :    0.005908
   4 C :    0.032362
   5 N :   -0.085367
   6 O :   -0.104955
   7 C :    0.020994
   8 C :   -0.153316
   9 H :    0.136831
  10 H :    0.135019
  11 H :    0.153415
  12 H :    0.156772
  13 H :    0.164410
Sum of atomic charges:    0.0000000

LOEWDIN ATOMIC CHARGES
----------------------
   0 C :   -0.176103
   1 C :   -0.193513
   2 O :    0.161140
   3 C :   -0.191830
   4 C :   -0.238155
   5 N :    0.069684
   6 O :    0.253111
   7 C :   -0.229352
   8 C :   -0.147518
   9 H :    0.140975
  10 H :    0.133740
  11 H :    0.137627
  12 H :    0.140194
  13 H :    0.140001

  Mayer bond orders larger than 0.1
B(  0-C ,  1-C ) :   0.9284 B(  0-C ,  3-C ) :   0.9404 B(  0-C ,  9-H ) :   0.9225
B(  0-C , 10-H ) :   0.9218 B(  1-C ,  2-O ) :   0.9188 B(  1-C ,  8-C ) :   0.9534
B(  1-C , 11-H ) :   0.8962 B(  2-O ,  3-C ) :   0.9358 B(  3-C ,  4-C ) :   0.9544
B(  3-C , 12-H ) :   0.9033 B(  4-C ,  5-N ) :   1.7150 B(  4-C ,  8-C ) :   1.0868
B(  5-N ,  6-O ) :   0.8750 B(  6-O ,  7-C ) :   1.1024 B(  7-C ,  8-C ) :   1.5303
B(  7-C , 13-H ) :   0.9083

MP2 TOTAL ENERGY:     -435.887281903 Eh
FINAL SINGLE POINT ENERGY      -435.887281903419

DIPOLE MOMENT
-------------
                                X             Y             Z
Electronic contribution:      1.61808      -3.45608      -2.64988
Nuclear contribution   :     -1.63276       4.78810       3.01219
                        -----------------------------------------
Total Dipole Moment    :     -0.01469       1.33202       0.36231
                        -----------------------------------------
Magnitude (a.u.)       :      1.38050
Magnitude (Debye)      :      3.50894

                             ****ORCA TERMINATED NORMALLY****
TOTAL RUN TIME: 0 days 0 hours 16 minutes 29 seconds 775 msec
