                         Program Version 3.0.3 - RELEASE   -
|  1> ! RI-MP2 RIJK def2-TZVP def2-TZVP/C def2-TZVP/JK TIGHTSCF
|  2> % maxcore 2000
|  3> % mp2 density relaxed end
|  4> *xyz 0 1
|  5>  C       -1.0465755638     0.9690700919     0.0617635156
|  6>  C       -0.0951996527    -0.2215188235     0.0320399183
|  7>  C        1.2086364033    -0.1776009507    -0.8260842114
|  8>  C        1.9816545993    -0.8325031200     0.3464669130
|  9>  O        2.7318090631     0.1177057727     1.1206137719
| 10>  C        1.6362079552     0.2913799193     2.0581853109
| 11>  C        1.3042827604     1.7517129864     2.3017309427
| 12>  C        0.7316047668    -0.7093719709     1.2699878779
| 13>  C        0.1332618869    -1.8331771347     2.0916976192
| 14>  H       -0.5338082748     1.9164887206     0.2379551620
| 15>  H       -1.5706721555     1.0555599313    -0.8968327812
| 16>  H       -1.8087414099     0.8507063958     0.8405839185
| 17>  H       -0.6763401305    -1.0959462798    -0.2859036007
| 18>  H        1.1702424296    -0.7431784463    -1.7606597921
| 19>  H        1.5877114775     0.8262778251    -1.0343021806
| 20>  H        2.5326895163    -1.7594161129     0.1621613282
| 21>  H        1.9096624148    -0.1652825630     3.0221436482
| 22>  H        0.4062295596     1.8515818929     2.9207282605
| 23>  H        2.1347068199     2.2277163889     2.8338575979
| 24>  H        1.1546943536     2.2959382310     1.3680649945
| 25>  H       -0.7047364465    -1.4713992295     2.7013795786
| 26>  H       -0.2500514720    -2.6357807958     1.4523235697
| 27>  H        0.8706589294    -2.2710694588     2.7732805985
| 28> *
| 29>
| 30>                          ****END OF INPUT****

CARTESIAN COORDINATES (ANGSTROEM)
---------------------------------
  C     -1.046576    0.969070    0.061764
  C     -0.095200   -0.221519    0.032040
  C      1.208636   -0.177601   -0.826084
  C      1.981655   -0.832503    0.346467
  O      2.731809    0.117706    1.120614
  C      1.636208    0.291380    2.058185
  C      1.304283    1.751713    2.301731
  C      0.731605   -0.709372    1.269988
  C      0.133262   -1.833177    2.091698
  H     -0.533808    1.916489    0.237955
  H     -1.570672    1.055560   -0.896833
  H     -1.808741    0.850706    0.840584
  H     -0.676340   -1.095946   -0.285904
  H      1.170242   -0.743178   -1.760660
  H      1.587711    0.826278   -1.034302
  H      2.532690   -1.759416    0.162161
  H      1.909662   -0.165283    3.022144
  H      0.406230    1.851582    2.920728
  H      2.134707    2.227716    2.833858
  H      1.154694    2.295938    1.368065
  H     -0.704736   -1.471399    2.701380
  H     -0.250051   -2.635781    1.452324
  H      0.870659   -2.271069    2.773281

 Total Charge           Charge          ....    0
 Multiplicity           Mult            ....    1
 Number of Electrons    NEL             ....   70
 Basis Dimension        Dim             ....  363

ORBITAL ENERGIES
----------------

  NO   OCC          E(Eh)            E(eV)
   0   2.0000     -20.537889      -558.8644
   1   2.0000     -11.279007      -306.9174
   2   2.0000     -11.272294      -306.7347
   3   2.0000     -11.233102      -305.6682
   4   2.0000     -11.231361      -305.6209
   5   2.0000     -11.219422      -305.2960
   6   2.0000     -11.216131      -305.2064
   7   2.0000     -11.214711      -305.1678
   8   2.0000     -11.214123      -305.1518
   9   2.0000      -1.372244       -37.3407
  10   2.0000      -1.119046       -30.4508
  11   2.0000      -1.024276       -27.8720
  12   2.0000      -0.992476       -27.0066
  13   2.0000      -0.962617       -26.1941
  14   2.0000      -0.873927       -23.7808
  15   2.0000      -0.835158       -22.7258
  16   2.0000      -0.805460       -21.9177
  17   2.0000      -0.712912       -19.3993
  18   2.0000      -0.644224       -17.5302
  19   2.0000      -0.633505       -17.2385
  20   2.0000      -0.622145       -16.9294
  21   2.0000      -0.598861       -16.2958
  22   2.0000      -0.587395       -15.9838
  23   2.0000      -0.564412       -15.3584
  24   2.0000      -0.562176       -15.2976
  25   2.0000      -0.558672       -15.2022
  26   2.0000      -0.552281       -15.0283
  27   2.0000      -0.518953       -14.1214
  28   2.0000      -0.515419       -14.0253
  29   2.0000      -0.488956       -13.3052
  30   2.0000      -0.476104       -12.9554
  31   2.0000      -0.438758       -11.9392
  32   2.0000      -0.427653       -11.6370
  33   2.0000      -0.399167       -10.8619
  34   2.0000      -0.385249       -10.4831
  35   0.0000       0.127584         3.4717
  36   0.0000       0.154506         4.2043
  37   0.0000       0.161029         4.3818
  38   0.0000       0.174695         4.7537
  39   0.0000       0.184563         5.0222

MULLIKEN ATOMIC CHARGES
-----------------------
   0 C :   -0.390840
   1 C :   -0.154768
   2 C :   -0.190403
   3 C :   -0.024690
   4 O :   -0.325481
   5 C :    0.032734
   6 C :   -0.398943
   7 C :    0.209345
   8 C :   -0.409031
   9 H :    0.116075
  10 H :    0.134994
  11 H :    0.128566
  12 H :    0.086961
  13 H :    0.117392
  14 H :    0.112433
  15 H :    0.090452
  16 H :    0.071356
  17 H :    0.128544
  18 H :    0.142801
  19 H :    0.123762
  20 H :    0.132224
  21 H :    0.130063
  22 H :    0.136453
Sum of atomic charges:    0.0000000

LOEWDIN ATOMIC CHARGES
----------------------
   0 C :   -0.299942
   1 C :   -0.214538
   2 C :   -0.198104
   3 C :   -0.218086
   4 O :    0.152915
   5 C :   -0.256484
   6 C :   -0.295613
   7 C :   -0.205874
   8 C :   -0.279601
   9 H :    0.119278
  10 H :    0.125743
  11 H :    0.124892
  12 H :    0.155644
  13 H :    0.127235
  14 H :    0.137797
  15 H :    0.124359
  16 H :    0.139433
  17 H :    0.128404
  18 H :    0.129236
  19 H :    0.121199
  20 H :    0.129029
  21 H :    0.125761
  22 H :    0.127315

  Mayer bond orders larger than 0.1
B(  0-C ,  1-C ) :   0.9018 B(  0-C ,  9-H ) :   0.9373 B(  0-C , 10-H ) :   0.9371
B(  0-C , 11-H ) :   0.9399 B(  1-C ,  2-C ) :   0.9486 B(  1-C ,  7-C ) :   0.8920
B(  1-C , 12-H ) :   0.9148 B(  2-C ,  3-C ) :   0.8854 B(  2-C , 13-H ) :   0.9102
B(  2-C , 14-H ) :   0.8991 B(  3-C ,  4-O ) :   0.9956 B(  3-C ,  7-C ) :   0.9279
B(  3-C , 15-H ) :   0.9311 B(  4-O ,  5-C ) :   0.9519 B(  5-C ,  6-C ) :   0.8953
B(  5-C ,  7-C ) :   0.9317 B(  5-C , 16-H ) :   0.9107 B(  6-C , 17-H ) :   0.9287
B(  6-C , 18-H ) :   0.9320 B(  6-C , 19-H ) :   0.9429 B(  7-C ,  8-C ) :   0.8962
B(  8-C , 20-H ) :   0.9326 B(  8-C , 21-H ) :   0.9346 B(  8-C , 22-H ) :   0.9394

MP2 TOTAL ENERGY:     -387.587169324 Eh
FINAL SINGLE POINT ENERGY      -387.587169324198

DIPOLE MOMENT
-------------
                                X             Y             Z
Electronic contribution:      5.93475      -1.72453      -0.84510
Nuclear contribution   :     -6.65551       1.49416       0.91089
                        -----------------------------------------
Total Dipole Moment    :     -0.72077      -0.23036       0.06579
                        -----------------------------------------
Magnitude (a.u.)       :      0.75954
Magnitude (Debye)      :      1.93059

                             ****ORCA TERMINATED NORMALLY****
TOTAL RUN TIME: 0 days 0 hours 21 minutes 39 seconds 232 msec
