                         Program Version 3.0.3 - RELEASE   -
|  1> ! RI-MP2 RIJK def2-TZVP def2-TZVP/C def2-TZVP/JK TIGHTSCF
|  2> % maxcore 2000
|  3> % mp2 density relaxed end
|  4> *xyz 0 1
|  5>  C       -0.3249526049     1.3702447158     0.1365096724
|  6>  N       -0.0842545702    -0.0527500298    -0.0294271293
|  7>  C       -0.0159532044    -0.8438789814     1.1871591716
|  8>  C       -1.2914236514    -0.8580168957     1.9186422703
|  9>  N       -2.2923872095    -0.8428674336     2.4954136964
| 10>  C        0.1038678708    -0.7132646192    -1.2287669728
| 11>  C        0.0360148245     0.1157759615    -2.5003808220
| 12>  O        0.3188429670    -1.9117349797    -1.2650151312
| 13>  H       -0.3920955757     1.8642251421    -0.8297049227
| 14>  H       -1.2635762353     1.5419001835     0.6762901636
| 15>  H        0.4878196144     1.8387370398     0.7072815100
| 16>  H        0.2519218408    -1.8616711727     0.8925215476
| 17>  H        0.7617833683    -0.4571635923     1.8591003285
| 18>  H        0.7943327960     0.9045048179    -2.5146543305
| 19>  H        0.2121752972    -0.5618238197    -3.3346267223
| 20>  H       -0.9435898075     0.5873339735    -2.6244194496
| 21> *
| 22>
| 23>                          ****END OF INPUT****

CARTESIAN COORDINATES (ANGSTROEM)
---------------------------------
  C     -0.324953    1.370245    0.136510
  N     -0.084255   -0.052750   -0.029427
  C     -0.015953   -0.843879    1.187159
  C     -1.291424   -0.858017    1.918642
  N     -2.292387   -0.842867    2.495414
  C      0.103868   -0.713265   -1.228767
  C      0.036015    0.115776   -2.500381
  O      0.318843   -1.911735   -1.265015
  H     -0.392096    1.864225   -0.829705
  H     -1.263576    1.541900    0.676290
  H      0.487820    1.838737    0.707282
  H      0.251922   -1.861671    0.892522
  H      0.761783   -0.457164    1.859100
  H      0.794333    0.904505   -2.514654
  H      0.212175   -0.561824   -3.334627
  H     -0.943590    0.587334   -2.624419

 Total Charge           Charge          ....    0
 Multiplicity           Mult            ....    1
 Number of Electrons    NEL             ....   60
 Basis Dimension        Dim             ....  296

ORBITAL ENERGIES
----------------

  NO   OCC          E(Eh)            E(eV)
   0   2.0000     -20.532951      -558.7300
   1   2.0000     -15.612853      -424.8473
   2   2.0000     -15.577948      -423.8975
   3   2.0000     -11.370112      -309.3965
   4   2.0000     -11.319381      -308.0160
   5   2.0000     -11.287176      -307.1397
   6   2.0000     -11.279330      -306.9262
   7   2.0000     -11.251419      -306.1667
   8   2.0000      -1.402245       -38.1570
   9   2.0000      -1.275366       -34.7045
  10   2.0000      -1.221710       -33.2444
  11   2.0000      -1.051284       -28.6069
  12   2.0000      -1.005442       -27.3595
  13   2.0000      -0.958048       -26.0698
  14   2.0000      -0.779678       -21.2161
  15   2.0000      -0.732047       -19.9200
  16   2.0000      -0.707080       -19.2406
  17   2.0000      -0.686463       -18.6796
  18   2.0000      -0.635412       -17.2904
  19   2.0000      -0.615509       -16.7489
  20   2.0000      -0.600774       -16.3479
  21   2.0000      -0.595794       -16.2124
  22   2.0000      -0.579315       -15.7640
  23   2.0000      -0.565458       -15.3869
  24   2.0000      -0.561451       -15.2779
  25   2.0000      -0.529609       -14.4114
  26   2.0000      -0.477154       -12.9840
  27   2.0000      -0.467690       -12.7265
  28   2.0000      -0.438614       -11.9353
  29   2.0000      -0.403839       -10.9890
  30   0.0000       0.111912         3.0453
  31   0.0000       0.141478         3.8498
  32   0.0000       0.156800         4.2668
  33   0.0000       0.167122         4.5476
  34   0.0000       0.171709         4.6724

MULLIKEN ATOMIC CHARGES
-----------------------
   0 C :   -0.340260
   1 N :   -0.119358
   2 C :   -0.066786
   3 C :   -0.177623
   4 N :   -0.059654
   5 C :    0.276190
   6 C :   -0.453681
   7 O :   -0.373749
   8 H :    0.157688
   9 H :    0.165708
  10 H :    0.143097
  11 H :    0.206865
  12 H :    0.166152
  13 H :    0.151379
  14 H :    0.169403
  15 H :    0.154630
Sum of atomic charges:    0.0000000

LOEWDIN ATOMIC CHARGES
----------------------
   0 C :   -0.284500
   1 N :    0.164105
   2 C :   -0.240359
   3 C :   -0.188054
   4 N :    0.064756
   5 C :   -0.443662
   6 C :   -0.276754
   7 O :    0.083505
   8 H :    0.128992
   9 H :    0.127419
  10 H :    0.120756
  11 H :    0.176011
  12 H :    0.158341
  13 H :    0.133464
  14 H :    0.141001
  15 H :    0.134976

  Mayer bond orders larger than 0.1
B(  0-C ,  1-N ) :   0.8897 B(  0-C ,  8-H ) :   0.9286 B(  0-C ,  9-H ) :   0.9253
B(  0-C , 10-H ) :   0.9298 B(  1-N ,  2-C ) :   0.8694 B(  1-N ,  5-C ) :   1.1466
B(  2-C ,  3-C ) :   0.8956 B(  2-C , 11-H ) :   0.8842 B(  2-C , 12-H ) :   0.9240
B(  3-C ,  4-N ) :   2.8544 B(  5-C ,  6-C ) :   0.9005 B(  5-C ,  7-O ) :   1.8878
B(  6-C , 13-H ) :   0.9182 B(  6-C , 14-H ) :   0.9382 B(  6-C , 15-H ) :   0.9171

MP2 TOTAL ENERGY:     -379.322709876 Eh
FINAL SINGLE POINT ENERGY      -379.322709876130

DIPOLE MOMENT
-------------
                                X             Y             Z
Electronic contribution:     -2.04360      -5.52570       4.53049
Nuclear contribution   :      3.00942       6.96975      -5.07178
                        -----------------------------------------
Total Dipole Moment    :      0.96582       1.44406      -0.54129
                        -----------------------------------------
Magnitude (a.u.)       :      1.81964
Magnitude (Debye)      :      4.62517

                             ****ORCA TERMINATED NORMALLY****
TOTAL RUN TIME: 0 days 0 hours 11 minutes 37 seconds 560 msec
