                         Program Version 3.0.3 - RELEASE   -
|  1> ! RI-MP2 RIJK def2-TZVP def2-TZVP/C def2-TZVP/JK TIGHTSCF
|  2> % maxcore 2000
|  3> % mp2 density relaxed end
|  4> *xyz 0 1
|  5>  C       -0.2065481202     1.6462635928    -0.0415965940
|  6>  C        0.0121726315     0.1410120504    -0.0206339917
|  7>  C        0.8235586521    -0.6202625230    -1.1043570887
|  8>  C        1.9730408531     0.1339858157    -1.7831486016
|  9>  C        3.1517139361     0.4035845472    -0.8352495716
| 10>  O        2.7772811032     1.0687589084     0.3639314244
| 11>  C        2.2330158492     0.2337545460     1.3713110764
| 12>  C        0.9968566227    -0.5561540964     0.9504675087
| 13>  O        1.3310317727    -1.5222464393    -0.0822276823
| 14>  H        0.7333967044     2.1969795039    -0.0845015253
| 15>  H       -0.8212096373     1.9321235530    -0.9029076136
| 16>  H       -0.7469023374     1.9652562208     0.8568778234
| 17>  H       -0.9547933552    -0.3637018812     0.0715423500
| 18>  H        0.2245225774    -1.1595887631    -1.8459451823
| 19>  H        2.3533258454    -0.4564836709    -2.6261069640
| 20>  H        1.5935778971     1.0741314080    -2.2014980858
| 21>  H        3.6510127240    -0.5450235943    -0.5975403589
| 22>  H        3.8775520898     1.0589318998    -1.3273409886
| 23>  H        2.9895002743    -0.4876912057     1.7222337623
| 24>  H        1.9839524020     0.8983967682     2.2065271099
| 25>  H        0.5666436050    -1.0469488902     1.8327844133
| 26> *
| 27>
| 28>                          ****END OF INPUT****

CARTESIAN COORDINATES (ANGSTROEM)
---------------------------------
  C     -0.206548    1.646264   -0.041597
  C      0.012173    0.141012   -0.020634
  C      0.823559   -0.620263   -1.104357
  C      1.973041    0.133986   -1.783149
  C      3.151714    0.403585   -0.835250
  O      2.777281    1.068759    0.363931
  C      2.233016    0.233755    1.371311
  C      0.996857   -0.556154    0.950468
  O      1.331032   -1.522246   -0.082228
  H      0.733397    2.196980   -0.084502
  H     -0.821210    1.932124   -0.902908
  H     -0.746902    1.965256    0.856878
  H     -0.954793   -0.363702    0.071542
  H      0.224523   -1.159589   -1.845945
  H      2.353326   -0.456484   -2.626107
  H      1.593578    1.074131   -2.201498
  H      3.651013   -0.545024   -0.597540
  H      3.877552    1.058932   -1.327341
  H      2.989500   -0.487691    1.722234
  H      1.983952    0.898397    2.206527
  H      0.566644   -1.046949    1.832784

 Total Charge           Charge          ....    0
 Multiplicity           Mult            ....    1
 Number of Electrons    NEL             ....   70
 Basis Dimension        Dim             ....  351

ORBITAL ENERGIES
----------------

  NO   OCC          E(Eh)            E(eV)
   0   2.0000     -20.551726      -559.2409
   1   2.0000     -20.544394      -559.0414
   2   2.0000     -11.281100      -306.9743
   3   2.0000     -11.280774      -306.9655
   4   2.0000     -11.274285      -306.7889
   5   2.0000     -11.271272      -306.7069
   6   2.0000     -11.233507      -305.6793
   7   2.0000     -11.223192      -305.3986
   8   2.0000     -11.214301      -305.1566
   9   2.0000      -1.388212       -37.7752
  10   2.0000      -1.359714       -36.9997
  11   2.0000      -1.057696       -28.7814
  12   2.0000      -1.049224       -28.5508
  13   2.0000      -0.963305       -26.2129
  14   2.0000      -0.917291       -24.9608
  15   2.0000      -0.889707       -24.2101
  16   2.0000      -0.784520       -21.3479
  17   2.0000      -0.722414       -19.6579
  18   2.0000      -0.711107       -19.3502
  19   2.0000      -0.664746       -18.0887
  20   2.0000      -0.646291       -17.5865
  21   2.0000      -0.635285       -17.2870
  22   2.0000      -0.593453       -16.1487
  23   2.0000      -0.587004       -15.9732
  24   2.0000      -0.574170       -15.6240
  25   2.0000      -0.565813       -15.3966
  26   2.0000      -0.542115       -14.7517
  27   2.0000      -0.531978       -14.4759
  28   2.0000      -0.517125       -14.0717
  29   2.0000      -0.494120       -13.4457
  30   2.0000      -0.462175       -12.5764
  31   2.0000      -0.446764       -12.1571
  32   2.0000      -0.433630       -11.7997
  33   2.0000      -0.423939       -11.5360
  34   2.0000      -0.398944       -10.8558
  35   0.0000       0.133008         3.6193
  36   0.0000       0.157348         4.2816
  37   0.0000       0.165604         4.5063
  38   0.0000       0.169629         4.6158
  39   0.0000       0.194789         5.3005

MULLIKEN ATOMIC CHARGES
-----------------------
   0 C :   -0.440384
   1 C :   -0.078604
   2 C :    0.091222
   3 C :   -0.244064
   4 C :   -0.077423
   5 O :   -0.335673
   6 C :   -0.058557
   7 C :    0.053658
   8 O :   -0.346113
   9 H :    0.164285
  10 H :    0.130950
  11 H :    0.131681
  12 H :    0.104026
  13 H :    0.108628
  14 H :    0.118834
  15 H :    0.116542
  16 H :    0.109426
  17 H :    0.122059
  18 H :    0.108230
  19 H :    0.117466
  20 H :    0.103811
Sum of atomic charges:   -0.0000000

LOEWDIN ATOMIC CHARGES
----------------------
   0 C :   -0.301107
   1 C :   -0.222745
   2 C :   -0.253203
   3 C :   -0.253529
   4 C :   -0.314476
   5 O :    0.150884
   6 C :   -0.310192
   7 C :   -0.268065
   8 O :    0.153381
   9 H :    0.129115
  10 H :    0.125894
  11 H :    0.126591
  12 H :    0.155424
  13 H :    0.133982
  14 H :    0.144711
  15 H :    0.143529
  16 H :    0.126930
  17 H :    0.128686
  18 H :    0.130361
  19 H :    0.136297
  20 H :    0.137530

  Mayer bond orders larger than 0.1
B(  0-C ,  1-C ) :   0.8894 B(  0-C ,  9-H ) :   0.9308 B(  0-C , 10-H ) :   0.9333
B(  0-C , 11-H ) :   0.9339 B(  1-C ,  2-C ) :   0.9549 B(  1-C ,  7-C ) :   0.9490
B(  1-C , 12-H ) :   0.9265 B(  2-C ,  3-C ) :   0.9200 B(  2-C ,  8-O ) :   0.9331
B(  2-C , 13-H ) :   0.9200 B(  3-C ,  4-C ) :   0.9578 B(  3-C , 14-H ) :   0.9147
B(  3-C , 15-H ) :   0.9127 B(  4-C ,  5-O ) :   0.9082 B(  4-C , 16-H ) :   0.9340
B(  4-C , 17-H ) :   0.9291 B(  5-O ,  6-C ) :   0.9162 B(  6-C ,  7-C ) :   0.9280
B(  6-C , 18-H ) :   0.9338 B(  6-C , 19-H ) :   0.9188 B(  7-C ,  8-O ) :   0.9358
B(  7-C , 20-H ) :   0.9058

MP2 TOTAL ENERGY:     -423.511425448 Eh
FINAL SINGLE POINT ENERGY      -423.511425447764

DIPOLE MOMENT
-------------
                                X             Y             Z
Electronic contribution:      1.74725      -3.28549       1.19326
Nuclear contribution   :     -2.10691       3.47362      -1.30477
                        -----------------------------------------
Total Dipole Moment    :     -0.35966       0.18812      -0.11152
                        -----------------------------------------
Magnitude (a.u.)       :      0.42093
Magnitude (Debye)      :      1.06991

                             ****ORCA TERMINATED NORMALLY****
TOTAL RUN TIME: 0 days 0 hours 19 minutes 54 seconds 541 msec
