                         Program Version 3.0.3 - RELEASE   -
|  1> ! RI-MP2 RIJK def2-TZVP def2-TZVP/C def2-TZVP/JK TIGHTSCF
|  2> % maxcore 2000
|  3> % mp2 density relaxed end
|  4> *xyz 0 1
|  5>  C       -0.3851427246     1.3467731439    -0.0234903778
|  6>  N       -0.0075014833    -0.0599191930     0.0040921636
|  7>  N        0.0278895837    -0.6705369101    -1.2116410842
|  8>  N        0.3397050181    -1.8799657960    -1.3100394013
|  9>  N        0.6444434138    -2.5752770787    -0.1654011876
| 10>  C        0.6585136485    -2.0994078326     1.1284706715
| 11>  N        0.9453600377    -2.7428519324     2.1902948779
| 12>  C        0.2848211300    -0.6578156089     1.2239951877
| 13>  N        0.2223605527     0.0151901945     2.3011428222
| 14>  H        0.4159489994     1.9578719491     0.3998158491
| 15>  H       -0.5656987448     1.6138259953    -1.0632870967
| 16>  H       -1.2836666071     1.5050937232     0.5782115200
| 17>  H        0.8818614356    -3.5375090195    -0.3550596220
| 18>  H        1.1853397762    -3.7175557758     2.0074995375
| 19>  H        0.4708859441    -0.6024441591     3.0757656901
| 20> *
| 21>
| 22>                          ****END OF INPUT****

CARTESIAN COORDINATES (ANGSTROEM)
---------------------------------
  C     -0.385143    1.346773   -0.023490
  N     -0.007501   -0.059919    0.004092
  N      0.027890   -0.670537   -1.211641
  N      0.339705   -1.879966   -1.310039
  N      0.644443   -2.575277   -0.165401
  C      0.658514   -2.099408    1.128471
  N      0.945360   -2.742852    2.190295
  C      0.284821   -0.657816    1.223995
  N      0.222361    0.015190    2.301143
  H      0.415949    1.957872    0.399816
  H     -0.565699    1.613826   -1.063287
  H     -1.283667    1.505094    0.578212
  H      0.881861   -3.537509   -0.355060
  H      1.185340   -3.717556    2.007500
  H      0.470886   -0.602444    3.075766

 Total Charge           Charge          ....    0
 Multiplicity           Mult            ....    1
 Number of Electrons    NEL             ....   66
 Basis Dimension        Dim             ....  315

ORBITAL ENERGIES
----------------

  NO   OCC          E(Eh)            E(eV)
   0   2.0000     -15.684686      -426.8020
   1   2.0000     -15.680136      -426.6782
   2   2.0000     -15.654093      -425.9695
   3   2.0000     -15.647549      -425.7914
   4   2.0000     -15.561095      -423.4389
   5   2.0000     -15.548705      -423.1018
   6   2.0000     -11.358880      -309.0908
   7   2.0000     -11.342491      -308.6449
   8   2.0000     -11.269643      -306.6626
   9   2.0000      -1.469474       -39.9864
  10   2.0000      -1.320760       -35.9397
  11   2.0000      -1.289666       -35.0936
  12   2.0000      -1.189429       -32.3660
  13   2.0000      -1.167123       -31.7590
  14   2.0000      -1.001387       -27.2491
  15   2.0000      -0.943548       -25.6752
  16   2.0000      -0.904461       -24.6116
  17   2.0000      -0.813682       -22.1414
  18   2.0000      -0.759451       -20.6657
  19   2.0000      -0.698105       -18.9964
  20   2.0000      -0.691836       -18.8258
  21   2.0000      -0.670954       -18.2576
  22   2.0000      -0.647798       -17.6275
  23   2.0000      -0.613160       -16.6849
  24   2.0000      -0.574688       -15.6381
  25   2.0000      -0.564226       -15.3534
  26   2.0000      -0.541466       -14.7340
  27   2.0000      -0.513020       -13.9600
  28   2.0000      -0.497968       -13.5504
  29   2.0000      -0.450629       -12.2622
  30   2.0000      -0.445437       -12.1210
  31   2.0000      -0.399167       -10.8619
  32   2.0000      -0.345490        -9.4013
  33   0.0000       0.099062         2.6956
  34   0.0000       0.114673         3.1204
  35   0.0000       0.117454         3.1961
  36   0.0000       0.156357         4.2547
  37   0.0000       0.181578         4.9410

MULLIKEN ATOMIC CHARGES
-----------------------
   0 C :   -0.286857
   1 N :    0.038969
   2 N :   -0.118851
   3 N :   -0.099758
   4 N :   -0.163346
   5 C :    0.052935
   6 N :   -0.397193
   7 C :    0.174192
   8 N :   -0.389316
   9 H :    0.154175
  10 H :    0.168363
  11 H :    0.153963
  12 H :    0.254235
  13 H :    0.208907
  14 H :    0.249584
Sum of atomic charges:    0.0000000

LOEWDIN ATOMIC CHARGES
----------------------
   0 C :   -0.273206
   1 N :    0.139968
   2 N :   -0.022673
   3 N :   -0.047983
   4 N :    0.076919
   5 C :   -0.366011
   6 N :   -0.057754
   7 C :   -0.334222
   8 N :   -0.031427
   9 H :    0.127792
  10 H :    0.128850
  11 H :    0.127759
  12 H :    0.191175
  13 H :    0.161333
  14 H :    0.179481

  Mayer bond orders larger than 0.1
B(  0-C ,  1-N ) :   0.8547 B(  0-C ,  9-H ) :   0.9279 B(  0-C , 10-H ) :   0.9207
B(  0-C , 11-H ) :   0.9280 B(  1-N ,  2-N ) :   0.9361 B(  1-N ,  7-C ) :   1.0776
B(  2-N ,  3-N ) :   1.5042 B(  3-N ,  4-N ) :   0.9100 B(  4-N ,  5-C ) :   1.0928
B(  4-N , 12-H ) :   0.8637 B(  5-C ,  6-N ) :   1.9889 B(  5-C ,  7-C ) :   0.8935
B(  6-N ,  7-C ) :  -0.1102 B(  6-N , 13-H ) :   0.8540 B(  7-C ,  8-N ) :   1.9180
B(  8-N , 14-H ) :   0.8515

MP2 TOTAL ENERGY:     -445.519007075 Eh
FINAL SINGLE POINT ENERGY      -445.519007075229

DIPOLE MOMENT
-------------
                                X             Y             Z
Electronic contribution:      0.80859      -3.87332      -2.09334
Nuclear contribution   :     -0.66860       3.21009       1.76274
                        -----------------------------------------
Total Dipole Moment    :      0.13999      -0.66323      -0.33059
                        -----------------------------------------
Magnitude (a.u.)       :      0.75416
Magnitude (Debye)      :      1.91693

                             ****ORCA TERMINATED NORMALLY****
TOTAL RUN TIME: 0 days 0 hours 15 minutes 41 seconds 551 msec
