                         Program Version 3.0.3 - RELEASE   -
|  1> ! RI-MP2 RIJK def2-TZVP def2-TZVP/C def2-TZVP/JK TIGHTSCF
|  2> % maxcore 2000
|  3> % mp2 density relaxed end
|  4> *xyz 0 1
|  5>  O       -0.1183331317     1.4878134229     0.3432538117
|  6>  C       -0.0714003654     0.1041227700     0.0184562012
|  7>  C        0.6658397763    -0.7225798262     1.0823077158
|  8>  O       -0.2950479939    -1.1123846385     2.0590024707
|  9>  C       -1.5877240228    -0.6611958394     1.6630326445
| 10>  C       -1.5051317666    -0.4440612299     0.1433702935
| 11>  C       -2.5855661724     0.4295930530    -0.4429207652
| 12>  C       -3.0416865328     0.2299416721    -1.8401070473
| 13>  N       -3.9233514682    -0.1299600786    -0.7139585828
| 14>  H        0.7839753481     1.8137495435     0.4126570520
| 15>  H        0.3496331961    -0.0476443408    -0.9848215193
| 16>  H        1.1231508822    -1.6198677658     0.6406855638
| 17>  H        1.4645529406    -0.1350238576     1.5563629999
| 18>  H       -2.3200882037    -1.4206128460     1.9529719288
| 19>  H       -1.8425756461     0.2807163561     2.1695850326
| 20>  H       -1.5268248600    -1.4247373018    -0.3513483598
| 21>  H       -2.6158221564     1.4360057948    -0.0373809494
| 22>  H       -3.3762540280     1.0774001375    -2.4313694529
| 23>  H       -2.5822907084    -0.5689208923    -2.4177690180
| 24>  H       -3.9067622368    -1.1394137430    -0.5823479898
| 25> *
| 26>
| 27>                          ****END OF INPUT****

CARTESIAN COORDINATES (ANGSTROEM)
---------------------------------
  O     -0.118333    1.487813    0.343254
  C     -0.071400    0.104123    0.018456
  C      0.665840   -0.722580    1.082308
  O     -0.295048   -1.112385    2.059002
  C     -1.587724   -0.661196    1.663033
  C     -1.505132   -0.444061    0.143370
  C     -2.585566    0.429593   -0.442921
  C     -3.041687    0.229942   -1.840107
  N     -3.923351   -0.129960   -0.713959
  H      0.783975    1.813750    0.412657
  H      0.349633   -0.047644   -0.984822
  H      1.123151   -1.619868    0.640686
  H      1.464553   -0.135024    1.556363
  H     -2.320088   -1.420613    1.952972
  H     -1.842576    0.280716    2.169585
  H     -1.526825   -1.424737   -0.351348
  H     -2.615822    1.436006   -0.037381
  H     -3.376254    1.077400   -2.431369
  H     -2.582291   -0.568921   -2.417769
  H     -3.906762   -1.139414   -0.582348

 Total Charge           Charge          ....    0
 Multiplicity           Mult            ....    1
 Number of Electrons    NEL             ....   70
 Basis Dimension        Dim             ....  345

ORBITAL ENERGIES
----------------

  NO   OCC          E(Eh)            E(eV)
   0   2.0000     -20.567589      -559.6725
   1   2.0000     -20.553199      -559.2810
   2   2.0000     -15.556120      -423.3035
   3   2.0000     -11.293518      -307.3122
   4   2.0000     -11.280889      -306.9686
   5   2.0000     -11.273024      -306.7546
   6   2.0000     -11.257943      -306.3442
   7   2.0000     -11.253315      -306.2183
   8   2.0000     -11.241717      -305.9027
   9   2.0000      -1.389072       -37.7986
  10   2.0000      -1.362820       -37.0842
  11   2.0000      -1.258806       -34.2539
  12   2.0000      -1.065292       -28.9881
  13   2.0000      -0.999202       -27.1897
  14   2.0000      -0.897254       -24.4155
  15   2.0000      -0.853221       -23.2173
  16   2.0000      -0.825947       -22.4752
  17   2.0000      -0.787869       -21.4390
  18   2.0000      -0.724757       -19.7216
  19   2.0000      -0.700099       -19.0507
  20   2.0000      -0.664794       -18.0900
  21   2.0000      -0.644524       -17.5384
  22   2.0000      -0.620419       -16.8824
  23   2.0000      -0.609633       -16.5890
  24   2.0000      -0.595929       -16.2161
  25   2.0000      -0.551693       -15.0123
  26   2.0000      -0.545706       -14.8494
  27   2.0000      -0.518822       -14.1179
  28   2.0000      -0.506038       -13.7700
  29   2.0000      -0.494750       -13.4628
  30   2.0000      -0.463324       -12.6077
  31   2.0000      -0.457650       -12.4533
  32   2.0000      -0.450988       -12.2720
  33   2.0000      -0.416717       -11.3395
  34   2.0000      -0.382851       -10.4179
  35   0.0000       0.121975         3.3191
  36   0.0000       0.141869         3.8604
  37   0.0000       0.158819         4.3217
  38   0.0000       0.174425         4.7464
  39   0.0000       0.184426         5.0185

MULLIKEN ATOMIC CHARGES
-----------------------
   0 O :   -0.470909
   1 C :    0.004186
   2 C :   -0.004868
   3 O :   -0.317680
   4 C :   -0.014534
   5 C :   -0.121333
   6 C :   -0.038992
   7 C :   -0.183591
   8 N :   -0.353248
   9 H :    0.316147
  10 H :    0.101937
  11 H :    0.091751
  12 H :    0.083903
  13 H :    0.107046
  14 H :    0.097848
  15 H :    0.098578
  16 H :    0.142818
  17 H :    0.125238
  18 H :    0.120551
  19 H :    0.215151
Sum of atomic charges:    0.0000000

LOEWDIN ATOMIC CHARGES
----------------------
   0 O :   -0.008814
   1 C :   -0.321168
   2 C :   -0.291415
   3 O :    0.141219
   4 C :   -0.272291
   5 C :   -0.235702
   6 C :   -0.254915
   7 C :   -0.265316
   8 N :   -0.019289
   9 H :    0.174849
  10 H :    0.134691
  11 H :    0.123596
  12 H :    0.122115
  13 H :    0.125521
  14 H :    0.127981
  15 H :    0.161512
  16 H :    0.150367
  17 H :    0.124758
  18 H :    0.119619
  19 H :    0.162681

  Mayer bond orders larger than 0.1
B(  0-O ,  1-C ) :   0.9943 B(  0-O ,  9-H ) :   0.8436 B(  1-C ,  2-C ) :   0.9689
B(  1-C ,  5-C ) :   0.8870 B(  1-C , 10-H ) :   0.9290 B(  2-C ,  3-O ) :   0.9694
B(  2-C , 11-H ) :   0.9158 B(  2-C , 12-H ) :   0.9036 B(  3-O ,  4-C ) :   0.9549
B(  4-C ,  5-C ) :   0.9568 B(  4-C , 13-H ) :   0.9109 B(  4-C , 14-H ) :   0.9199
B(  5-C ,  6-C ) :   0.9325 B(  5-C , 15-H ) :   0.9046 B(  6-C ,  7-C ) :   0.9358
B(  6-C ,  8-N ) :   0.9182 B(  6-C , 16-H ) :   0.9079 B(  7-C ,  8-N ) :   0.9350
B(  7-C , 17-H ) :   0.9211 B(  7-C , 18-H ) :   0.9164 B(  8-N , 19-H ) :   0.8742

MP2 TOTAL ENERGY:     -439.536658177 Eh
FINAL SINGLE POINT ENERGY      -439.536658176960

DIPOLE MOMENT
-------------
                                X             Y             Z
Electronic contribution:      0.65477       0.58782       2.19680
Nuclear contribution   :      0.34472      -0.80499      -2.91139
                        -----------------------------------------
Total Dipole Moment    :      0.99949      -0.21717      -0.71459
                        -----------------------------------------
Magnitude (a.u.)       :      1.24771
Magnitude (Debye)      :      3.17143

                             ****ORCA TERMINATED NORMALLY****
TOTAL RUN TIME: 0 days 0 hours 16 minutes 22 seconds 430 msec
