                         Program Version 3.0.3 - RELEASE   -
|  1> ! RI-MP2 RIJK def2-TZVP def2-TZVP/C def2-TZVP/JK TIGHTSCF
|  2> % maxcore 2000
|  3> % mp2 density relaxed end
|  4> *xyz 0 1
|  5>  C       -0.0219614440     1.5028250627    -0.5805283235
|  6>  C       -0.0368110307     0.0387344580    -0.1977413174
|  7>  C       -1.3800635413    -0.6747767567    -0.2210242132
|  8>  C       -2.3710719329    -0.1217874342     0.7849926287
|  9>  C       -3.3519231050     0.9613877929     0.4048795298
| 10>  C       -3.8377041282    -0.4437990840     0.6601591058
| 11>  C        1.1936971287    -0.7547379306    -0.3382509745
| 12>  O        0.7741151938    -0.2874601583     0.9461116084
| 13>  H        0.9907255957     1.9067266768    -0.5072593130
| 14>  H       -0.3787903275     1.6391886666    -1.6074308142
| 15>  H       -0.6727557735     2.0827287921     0.0798490095
| 16>  H       -1.8063135084    -0.6128751705    -1.2315599929
| 17>  H       -1.2061900535    -1.7371690683    -0.0135193964
| 18>  H       -1.9790571775    -0.0761867649     1.7973373292
| 19>  H       -3.5858842022     1.7295957903     1.1338299857
| 20>  H       -3.3462562025     1.3137092065    -0.6217102550
| 21>  H       -4.1562901346    -1.0318812732    -0.1948577857
| 22>  H       -4.4023586916    -0.6387203015     1.5651404248
| 23>  H        1.1315656435    -1.8325097017    -0.4876482020
| 24>  H        2.0955789119    -0.2875808221    -0.7333363141
| 25> *
| 26>
| 27>                          ****END OF INPUT****

CARTESIAN COORDINATES (ANGSTROEM)
---------------------------------
  C     -0.021961    1.502825   -0.580528
  C     -0.036811    0.038734   -0.197741
  C     -1.380064   -0.674777   -0.221024
  C     -2.371072   -0.121787    0.784993
  C     -3.351923    0.961388    0.404880
  C     -3.837704   -0.443799    0.660159
  C      1.193697   -0.754738   -0.338251
  O      0.774115   -0.287460    0.946112
  H      0.990726    1.906727   -0.507259
  H     -0.378790    1.639189   -1.607431
  H     -0.672756    2.082729    0.079849
  H     -1.806314   -0.612875   -1.231560
  H     -1.206190   -1.737169   -0.013519
  H     -1.979057   -0.076187    1.797337
  H     -3.585884    1.729596    1.133830
  H     -3.346256    1.313709   -0.621710
  H     -4.156290   -1.031881   -0.194858
  H     -4.402359   -0.638720    1.565140
  H      1.131566   -1.832510   -0.487648
  H      2.095579   -0.287581   -0.733336

 Total Charge           Charge          ....    0
 Multiplicity           Mult            ....    1
 Number of Electrons    NEL             ....   62
 Basis Dimension        Dim             ....  320

ORBITAL ENERGIES
----------------

  NO   OCC          E(Eh)            E(eV)
   0   2.0000     -20.558126      -559.4151
   1   2.0000     -11.287691      -307.1537
   2   2.0000     -11.275083      -306.8106
   3   2.0000     -11.229629      -305.5738
   4   2.0000     -11.228895      -305.5538
   5   2.0000     -11.223623      -305.4103
   6   2.0000     -11.222664      -305.3842
   7   2.0000     -11.219745      -305.3048
   8   2.0000      -1.402591       -38.1664
   9   2.0000      -1.144237       -31.1363
  10   2.0000      -1.034275       -28.1441
  11   2.0000      -0.958009       -26.0688
  12   2.0000      -0.903655       -24.5897
  13   2.0000      -0.821676       -22.3589
  14   2.0000      -0.799240       -21.7484
  15   2.0000      -0.758920       -20.6513
  16   2.0000      -0.685577       -18.6555
  17   2.0000      -0.650373       -17.6975
  18   2.0000      -0.640638       -17.4327
  19   2.0000      -0.625211       -17.0128
  20   2.0000      -0.586407       -15.9569
  21   2.0000      -0.564282       -15.3549
  22   2.0000      -0.539346       -14.6763
  23   2.0000      -0.517146       -14.0722
  24   2.0000      -0.510480       -13.8909
  25   2.0000      -0.507387       -13.8067
  26   2.0000      -0.500889       -13.6299
  27   2.0000      -0.443439       -12.0666
  28   2.0000      -0.429538       -11.6883
  29   2.0000      -0.406815       -11.0700
  30   2.0000      -0.401330       -10.9207
  31   0.0000       0.139036         3.7834
  32   0.0000       0.160634         4.3711
  33   0.0000       0.164951         4.4885
  34   0.0000       0.170236         4.6323
  35   0.0000       0.190608         5.1867

MULLIKEN ATOMIC CHARGES
-----------------------
   0 C :   -0.432772
   1 C :    0.211857
   2 C :   -0.231106
   3 C :   -0.105094
   4 C :   -0.281423
   5 C :   -0.252460
   6 C :   -0.083433
   7 O :   -0.350297
   8 H :    0.138751
   9 H :    0.126929
  10 H :    0.152017
  11 H :    0.121640
  12 H :    0.121466
  13 H :    0.132727
  14 H :    0.130547
  15 H :    0.126205
  16 H :    0.123883
  17 H :    0.131135
  18 H :    0.108888
  19 H :    0.110540
Sum of atomic charges:    0.0000000

LOEWDIN ATOMIC CHARGES
----------------------
   0 C :   -0.265136
   1 C :   -0.344298
   2 C :   -0.210074
   3 C :   -0.225684
   4 C :   -0.236157
   5 C :   -0.230899
   6 C :   -0.251949
   7 O :    0.155215
   8 H :    0.131208
   9 H :    0.129725
  10 H :    0.133131
  11 H :    0.148918
  12 H :    0.150851
  13 H :    0.153172
  14 H :    0.130267
  15 H :    0.130726
  16 H :    0.131846
  17 H :    0.131114
  18 H :    0.118845
  19 H :    0.119179

  Mayer bond orders larger than 0.1
B(  0-C ,  1-C ) :   0.8923 B(  0-C ,  8-H ) :   0.9355 B(  0-C ,  9-H ) :   0.9360
B(  0-C , 10-H ) :   0.9375 B(  1-C ,  2-C ) :   0.9252 B(  1-C ,  6-C ) :   0.9914
B(  1-C ,  7-O ) :   0.8103 B(  2-C ,  3-C ) :   0.8993 B(  2-C , 11-H ) :   0.9329
B(  2-C , 12-H ) :   0.9246 B(  3-C ,  4-C ) :   0.8945 B(  3-C ,  5-C ) :   0.8754
B(  3-C , 13-H ) :   0.9328 B(  4-C ,  5-C ) :   0.9098 B(  4-C , 14-H ) :   0.9301
B(  4-C , 15-H ) :   0.9259 B(  5-C , 16-H ) :   0.9264 B(  5-C , 17-H ) :   0.9321
B(  6-C ,  7-O ) :   0.9177 B(  6-C , 18-H ) :   0.8994 B(  6-C , 19-H ) :   0.9120

MP2 TOTAL ENERGY:     -348.366596426 Eh
FINAL SINGLE POINT ENERGY      -348.366596425997

DIPOLE MOMENT
-------------
                                X             Y             Z
Electronic contribution:      3.68781      -1.89425       2.14158
Nuclear contribution   :     -3.88829       1.89949      -2.81303
                        -----------------------------------------
Total Dipole Moment    :     -0.20048       0.00524      -0.67144
                        -----------------------------------------
Magnitude (a.u.)       :      0.70075
Magnitude (Debye)      :      1.78118

                             ****ORCA TERMINATED NORMALLY****
TOTAL RUN TIME: 0 days 0 hours 12 minutes 28 seconds 845 msec
