                         Program Version 3.0.3 - RELEASE   -
|  1> ! RI-MP2 RIJK def2-TZVP def2-TZVP/C def2-TZVP/JK TIGHTSCF
|  2> % maxcore 2000
|  3> % mp2 density relaxed end
|  4> *xyz 0 1
|  5>  O       -0.1125244044     1.4585313220     0.2285609239
|  6>  C        0.0218957134     0.0936519098    -0.0195140645
|  7>  C       -1.2817536216    -0.7078574546     0.0307336176
|  8>  O       -2.0843703946    -0.3062346907    -1.0489325497
|  9>  C       -1.0728626279    -1.2917816941    -1.3459464706
| 10>  C       -1.4729650232    -2.6285929332    -1.8598888107
| 11>  O       -2.5877284844    -3.0736872820    -1.7758386477
| 12>  C        0.2050381295    -0.4617763028    -1.4783826559
| 13>  O        1.0644025255    -0.3610764034    -2.3000609518
| 14>  H        0.6981482468     1.8982310849    -0.0508425427
| 15>  H        0.7963688056    -0.3847081566     0.6058575529
| 16>  H       -1.7575789804    -1.1997320316     0.8708643581
| 17>  H       -0.6386510344    -3.1968858975    -2.3211645788
| 18> *
| 19>
| 20>                          ****END OF INPUT****

CARTESIAN COORDINATES (ANGSTROEM)
---------------------------------
  O     -0.112524    1.458531    0.228561
  C      0.021896    0.093652   -0.019514
  C     -1.281754   -0.707857    0.030734
  O     -2.084370   -0.306235   -1.048933
  C     -1.072863   -1.291782   -1.345946
  C     -1.472965   -2.628593   -1.859889
  O     -2.587728   -3.073687   -1.775839
  C      0.205038   -0.461776   -1.478383
  O      1.064403   -0.361076   -2.300061
  H      0.698148    1.898231   -0.050843
  H      0.796369   -0.384708    0.605858
  H     -1.757579   -1.199732    0.870864
  H     -0.638651   -3.196886   -2.321165

 Total Charge           Charge          ....    0
 Multiplicity           Mult            ....    1
 Number of Electrons    NEL             ....   66
 Basis Dimension        Dim             ....  303

ORBITAL ENERGIES
----------------

  NO   OCC          E(Eh)            E(eV)
   0   2.0000     -20.626213      -561.2678
   1   2.0000     -20.598447      -560.5122
   2   2.0000     -20.594726      -560.4110
   3   2.0000     -20.584572      -560.1347
   4   2.0000     -11.375780      -309.5507
   5   2.0000     -11.365111      -309.2604
   6   2.0000     -11.343855      -308.6820
   7   2.0000     -11.339207      -308.5555
   8   2.0000     -11.337235      -308.5019
   9   2.0000      -1.484093       -40.3842
  10   2.0000      -1.434880       -39.0451
  11   2.0000      -1.419881       -38.6369
  12   2.0000      -1.405044       -38.2332
  13   2.0000      -1.107405       -30.1340
  14   2.0000      -0.995446       -27.0875
  15   2.0000      -0.894233       -24.3333
  16   2.0000      -0.856777       -23.3141
  17   2.0000      -0.770958       -20.9788
  18   2.0000      -0.757059       -20.6006
  19   2.0000      -0.728803       -19.8317
  20   2.0000      -0.702522       -19.1166
  21   2.0000      -0.670727       -18.2514
  22   2.0000      -0.665169       -18.1002
  23   2.0000      -0.626131       -17.0379
  24   2.0000      -0.617536       -16.8040
  25   2.0000      -0.601503       -16.3677
  26   2.0000      -0.563506       -15.3338
  27   2.0000      -0.551909       -15.0182
  28   2.0000      -0.541508       -14.7352
  29   2.0000      -0.506134       -13.7726
  30   2.0000      -0.473872       -12.8947
  31   2.0000      -0.444984       -12.1086
  32   2.0000      -0.415223       -11.2988
  33   0.0000       0.078831         2.1451
  34   0.0000       0.100242         2.7277
  35   0.0000       0.131503         3.5784
  36   0.0000       0.149960         4.0806
  37   0.0000       0.163095         4.4380

MULLIKEN ATOMIC CHARGES
-----------------------
   0 O :   -0.448490
   1 C :    0.151566
   2 C :   -0.026672
   3 O :   -0.267220
   4 C :    0.209268
   5 C :    0.049415
   6 O :   -0.237787
   7 C :    0.071121
   8 O :   -0.224305
   9 H :    0.335637
  10 H :    0.109416
  11 H :    0.168012
  12 H :    0.110040
Sum of atomic charges:   -0.0000000

LOEWDIN ATOMIC CHARGES
----------------------
   0 O :    0.010776
   1 C :   -0.296911
   2 C :   -0.180401
   3 O :    0.258691
   4 C :   -0.228056
   5 C :   -0.263832
   6 O :    0.163437
   7 C :   -0.258658
   8 O :    0.186134
   9 H :    0.190300
  10 H :    0.149028
  11 H :    0.143993
  12 H :    0.125497

  Mayer bond orders larger than 0.1
B(  0-O ,  1-C ) :   1.0271 B(  0-O ,  9-H ) :   0.8312 B(  1-C ,  2-C ) :   0.8740
B(  1-C ,  4-C ) :  -0.1150 B(  1-C ,  7-C ) :   0.8682 B(  1-C , 10-H ) :   0.9036
B(  2-C ,  3-O ) :   0.9341 B(  2-C ,  4-C ) :   0.8412 B(  2-C , 11-H ) :   0.9172
B(  3-O ,  4-C ) :   0.8575 B(  4-C ,  5-C ) :   0.8014 B(  4-C ,  7-C ) :   0.8090
B(  5-C ,  6-O ) :   2.0231 B(  5-C , 12-H ) :   0.9591 B(  7-C ,  8-O ) :   2.0594

MP2 TOTAL ENERGY:     -492.886241174 Eh
FINAL SINGLE POINT ENERGY      -492.886241173614

DIPOLE MOMENT
-------------
                                X             Y             Z
Electronic contribution:     -1.09325      -0.32893      -2.27535
Nuclear contribution   :      2.18451       0.22065       3.11624
                        -----------------------------------------
Total Dipole Moment    :      1.09126      -0.10828       0.84089
                        -----------------------------------------
Magnitude (a.u.)       :      1.38191
Magnitude (Debye)      :      3.51253

                             ****ORCA TERMINATED NORMALLY****
TOTAL RUN TIME: 0 days 0 hours 12 minutes 59 seconds 888 msec
