                         Program Version 3.0.3 - RELEASE   -
|  1> ! RI-MP2 RIJK def2-TZVP def2-TZVP/C def2-TZVP/JK TIGHTSCF
|  2> % maxcore 2000
|  3> % mp2 density relaxed end
|  4> *xyz 0 1
|  5>  O       -0.2305117541     0.5628258439    -1.1923637377
|  6>  C       -0.0567777332     1.2156889506    -0.1922577915
|  7>  C       -1.1264979916     1.3711109470     0.8934209652
|  8>  C       -1.4407871590     2.7990413477     1.2940123938
|  9>  C       -0.5731777820     3.8074824539     1.3963837951
| 10>  C        0.8974625717     3.6768262487     1.1082319303
| 11>  C        1.2227851014     3.4280936911    -0.3906969673
| 12>  C        1.2639700476     1.9452653066     0.0573750614
| 13>  O        1.3920696311     2.3475957059     1.4354400077
| 14>  H       -2.0249000781     0.8669209273     0.5302878128
| 15>  H       -0.7701090016     0.8192921815     1.7742803674
| 16>  H       -2.4881819629     2.9933960246     1.5089745184
| 17>  H       -0.9308817387     4.7949094854     1.6763862466
| 18>  H        1.4791945682     4.4503699082     1.6173181392
| 19>  H        0.4776391938     3.7246707128    -1.1288105196
| 20>  H        2.2111546037     3.7892798961    -0.6794896172
| 21>  H        2.0972677836     1.3301496187    -0.2922317247
| 22> *
| 23>
| 24>                          ****END OF INPUT****

CARTESIAN COORDINATES (ANGSTROEM)
---------------------------------
  O     -0.230512    0.562826   -1.192364
  C     -0.056778    1.215689   -0.192258
  C     -1.126498    1.371111    0.893421
  C     -1.440787    2.799041    1.294012
  C     -0.573178    3.807482    1.396384
  C      0.897463    3.676826    1.108232
  C      1.222785    3.428094   -0.390697
  C      1.263970    1.945265    0.057375
  O      1.392070    2.347596    1.435440
  H     -2.024900    0.866921    0.530288
  H     -0.770109    0.819292    1.774280
  H     -2.488182    2.993396    1.508975
  H     -0.930882    4.794909    1.676386
  H      1.479195    4.450370    1.617318
  H      0.477639    3.724671   -1.128811
  H      2.211155    3.789280   -0.679490
  H      2.097268    1.330150   -0.292232

 Total Charge           Charge          ....    0
 Multiplicity           Mult            ....    1
 Number of Electrons    NEL             ....   66
 Basis Dimension        Dim             ....  327

ORBITAL ENERGIES
----------------

  NO   OCC          E(Eh)            E(eV)
   0   2.0000     -20.566056      -559.6308
   1   2.0000     -20.552810      -559.2704
   2   2.0000     -11.335315      -308.4496
   3   2.0000     -11.304529      -307.6119
   4   2.0000     -11.301357      -307.5255
   5   2.0000     -11.251817      -306.1775
   6   2.0000     -11.250417      -306.1394
   7   2.0000     -11.246864      -306.0427
   8   2.0000     -11.241255      -305.8901
   9   2.0000      -1.407820       -38.3087
  10   2.0000      -1.390572       -37.8394
  11   2.0000      -1.101929       -29.9850
  12   2.0000      -1.031478       -28.0679
  13   2.0000      -1.023932       -27.8626
  14   2.0000      -0.921560       -25.0769
  15   2.0000      -0.861349       -23.4385
  16   2.0000      -0.745711       -20.2918
  17   2.0000      -0.731062       -19.8932
  18   2.0000      -0.710205       -19.3257
  19   2.0000      -0.685013       -18.6401
  20   2.0000      -0.639008       -17.3883
  21   2.0000      -0.626440       -17.0463
  22   2.0000      -0.617895       -16.8138
  23   2.0000      -0.602436       -16.3931
  24   2.0000      -0.566731       -15.4215
  25   2.0000      -0.556778       -15.1507
  26   2.0000      -0.538438       -14.6516
  27   2.0000      -0.513585       -13.9754
  28   2.0000      -0.493136       -13.4189
  29   2.0000      -0.471542       -12.8313
  30   2.0000      -0.451923       -12.2974
  31   2.0000      -0.404825       -11.0159
  32   2.0000      -0.366009        -9.9596
  33   0.0000       0.119174         3.2429
  34   0.0000       0.127253         3.4627
  35   0.0000       0.152879         4.1601
  36   0.0000       0.161859         4.4044
  37   0.0000       0.164926         4.4879

MULLIKEN ATOMIC CHARGES
-----------------------
   0 O :   -0.271533
   1 C :    0.096307
   2 C :   -0.178819
   3 C :   -0.157409
   4 C :   -0.281461
   5 C :    0.210568
   6 C :   -0.300397
   7 C :    0.143128
   8 O :   -0.344319
   9 H :    0.141771
  10 H :    0.145199
  11 H :    0.135938
  12 H :    0.123613
  13 H :    0.127311
  14 H :    0.141862
  15 H :    0.133182
  16 H :    0.135061
Sum of atomic charges:   -0.0000000

LOEWDIN ATOMIC CHARGES
----------------------
   0 O :    0.160724
   1 C :   -0.299241
   2 C :   -0.214792
   3 C :   -0.150965
   4 C :   -0.160650
   5 C :   -0.255620
   6 C :   -0.181668
   7 C :   -0.245615
   8 O :    0.171104
   9 H :    0.151944
  10 H :    0.168266
  11 H :    0.148225
  12 H :    0.147164
  13 H :    0.139165
  14 H :    0.137179
  15 H :    0.139079
  16 H :    0.145700

  Mayer bond orders larger than 0.1
B(  0-O ,  1-C ) :   2.0224 B(  1-C ,  2-C ) :   0.9278 B(  1-C ,  7-C ) :   0.8515
B(  2-C ,  3-C ) :   0.9124 B(  2-C ,  9-H ) :   0.9225 B(  2-C , 10-H ) :   0.8824
B(  3-C ,  4-C ) :   1.8102 B(  3-C , 11-H ) :   0.9227 B(  4-C ,  5-C ) :   0.9274
B(  4-C , 12-H ) :   0.9221 B(  5-C ,  6-C ) :   0.9057 B(  5-C ,  8-O ) :   0.8819
B(  5-C , 13-H ) :   0.9189 B(  6-C ,  7-C ) :   0.9254 B(  6-C , 14-H ) :   0.9201
B(  6-C , 15-H ) :   0.9193 B(  7-C ,  8-O ) :   0.9355 B(  7-C , 16-H ) :   0.9122

MP2 TOTAL ENERGY:     -421.113939863 Eh
FINAL SINGLE POINT ENERGY      -421.113939863338

DIPOLE MOMENT
-------------
                                X             Y             Z
Electronic contribution:      1.13635      -2.96490      -0.82583
Nuclear contribution   :     -1.20225       3.88463       1.12086
                        -----------------------------------------
Total Dipole Moment    :     -0.06590       0.91973       0.29502
                        -----------------------------------------
Magnitude (a.u.)       :      0.96814
Magnitude (Debye)      :      2.46081

                             ****ORCA TERMINATED NORMALLY****
TOTAL RUN TIME: 0 days 0 hours 17 minutes 1 seconds 521 msec
