                         Program Version 3.0.3 - RELEASE   -
|  1> ! RI-MP2 RIJK def2-TZVP def2-TZVP/C def2-TZVP/JK TIGHTSCF
|  2> % maxcore 2000
|  3> % mp2 density relaxed end
|  4> *xyz 0 1
|  5>  C       -0.1650501066     1.5408382703    -0.0249351438
|  6>  C        0.0062573610     0.0262056209     0.0142452966
|  7>  C        1.1390152367    -0.5936208059    -0.8678705259
|  8>  C        2.1180523786    -0.2754987402     0.2977973252
|  9>  C        0.8660652759    -0.5974750933     1.1707029609
| 10>  C        0.7385098837    -0.1352496871     2.5985934659
| 11>  O        1.7407088195    -0.7922915966     3.3676202833
| 12>  C        0.6880129307    -2.1061325670     0.8882023795
| 13>  C        0.8975901664    -2.1017883778    -0.6636924270
| 14>  H        0.7756363514     2.0844684137     0.0976242714
| 15>  H       -0.5982661156     1.8485406943    -0.9832483535
| 16>  H       -0.8470791302     1.8805330379     0.7628038087
| 17>  H       -0.9774836443    -0.4436722250    -0.1153876801
| 18>  H        1.3197765550    -0.2445856718    -1.8861051917
| 19>  H        2.9951392632    -0.9171161042     0.4179298427
| 20>  H        2.4223233335     0.7705457429     0.3475990101
| 21>  H        0.8559817106     0.9588173156     2.6524671654
| 22>  H       -0.2710293137    -0.3746028828     2.9754709249
| 23>  H        1.6675508320    -0.4887671104     4.2769877367
| 24>  H        1.4284893649    -2.7054947617     1.4217728912
| 25>  H       -0.3063433019    -2.4607291965     1.1791133586
| 26>  H        0.0197390768    -2.4604749939    -1.2095276864
| 27>  H        1.7551450922    -2.7061844815    -0.9735541623
| 28> *
| 29>
| 30>                          ****END OF INPUT****

CARTESIAN COORDINATES (ANGSTROEM)
---------------------------------
  C     -0.165050    1.540838   -0.024935
  C      0.006257    0.026206    0.014245
  C      1.139015   -0.593621   -0.867871
  C      2.118052   -0.275499    0.297797
  C      0.866065   -0.597475    1.170703
  C      0.738510   -0.135250    2.598593
  O      1.740709   -0.792292    3.367620
  C      0.688013   -2.106133    0.888202
  C      0.897590   -2.101788   -0.663692
  H      0.775636    2.084468    0.097624
  H     -0.598266    1.848541   -0.983248
  H     -0.847079    1.880533    0.762804
  H     -0.977484   -0.443672   -0.115388
  H      1.319777   -0.244586   -1.886105
  H      2.995139   -0.917116    0.417930
  H      2.422323    0.770546    0.347599
  H      0.855982    0.958817    2.652467
  H     -0.271029   -0.374603    2.975471
  H      1.667551   -0.488767    4.276988
  H      1.428489   -2.705495    1.421773
  H     -0.306343   -2.460729    1.179113
  H      0.019739   -2.460475   -1.209528
  H      1.755145   -2.706184   -0.973554

 Total Charge           Charge          ....    0
 Multiplicity           Mult            ....    1
 Number of Electrons    NEL             ....   70
 Basis Dimension        Dim             ....  363

ORBITAL ENERGIES
----------------

  NO   OCC          E(Eh)            E(eV)
   0   2.0000     -20.552298      -559.2565
   1   2.0000     -11.270504      -306.6860
   2   2.0000     -11.226402      -305.4859
   3   2.0000     -11.223557      -305.4085
   4   2.0000     -11.221759      -305.3596
   5   2.0000     -11.212892      -305.1183
   6   2.0000     -11.211900      -305.0913
   7   2.0000     -11.210187      -305.0447
   8   2.0000     -11.208707      -305.0044
   9   2.0000      -1.355304       -36.8797
  10   2.0000      -1.179779       -32.1034
  11   2.0000      -1.003676       -27.3114
  12   2.0000      -0.980395       -26.6779
  13   2.0000      -0.943239       -25.6668
  14   2.0000      -0.873930       -23.7808
  15   2.0000      -0.849302       -23.1107
  16   2.0000      -0.744525       -20.2596
  17   2.0000      -0.707778       -19.2596
  18   2.0000      -0.692118       -18.8335
  19   2.0000      -0.645051       -17.5527
  20   2.0000      -0.640589       -17.4313
  21   2.0000      -0.616655       -16.7800
  22   2.0000      -0.604591       -16.4518
  23   2.0000      -0.565318       -15.3831
  24   2.0000      -0.539048       -14.6683
  25   2.0000      -0.531977       -14.4758
  26   2.0000      -0.517436       -14.0801
  27   2.0000      -0.506771       -13.7899
  28   2.0000      -0.480836       -13.0842
  29   2.0000      -0.464949       -12.6519
  30   2.0000      -0.451979       -12.2990
  31   2.0000      -0.436046       -11.8654
  32   2.0000      -0.425049       -11.5662
  33   2.0000      -0.413011       -11.2386
  34   2.0000      -0.403641       -10.9836
  35   0.0000       0.132198         3.5973
  36   0.0000       0.145297         3.9537
  37   0.0000       0.158495         4.3129
  38   0.0000       0.170532         4.6404
  39   0.0000       0.184255         5.0138

MULLIKEN ATOMIC CHARGES
-----------------------
   0 C :   -0.442295
   1 C :   -0.110787
   2 C :   -0.033347
   3 C :   -0.299986
   4 C :    0.144360
   5 C :   -0.100799
   6 O :   -0.469867
   7 C :   -0.258158
   8 C :   -0.249152
   9 H :    0.128443
  10 H :    0.136869
  11 H :    0.132748
  12 H :    0.095791
  13 H :    0.116807
  14 H :    0.114579
  15 H :    0.114983
  16 H :    0.102580
  17 H :    0.096745
  18 H :    0.311533
  19 H :    0.132888
  20 H :    0.106762
  21 H :    0.113201
  22 H :    0.116100
Sum of atomic charges:    0.0000000

LOEWDIN ATOMIC CHARGES
----------------------
   0 C :   -0.295207
   1 C :   -0.185583
   2 C :   -0.190899
   3 C :   -0.171381
   4 C :   -0.234836
   5 C :   -0.310904
   6 O :   -0.043718
   7 C :   -0.199539
   8 C :   -0.225806
   9 H :    0.123213
  10 H :    0.126072
  11 H :    0.123521
  12 H :    0.145557
  13 H :    0.130780
  14 H :    0.131316
  15 H :    0.132980
  16 H :    0.120550
  17 H :    0.121248
  18 H :    0.170938
  19 H :    0.137632
  20 H :    0.132169
  21 H :    0.130496
  22 H :    0.131401

  Mayer bond orders larger than 0.1
B(  0-C ,  1-C ) :   0.9006 B(  0-C ,  9-H ) :   0.9347 B(  0-C , 10-H ) :   0.9396
B(  0-C , 11-H ) :   0.9412 B(  1-C ,  2-C ) :   0.8921 B(  1-C ,  4-C ) :   0.8505
B(  1-C , 12-H ) :   0.9261 B(  2-C ,  3-C ) :   0.9231 B(  2-C ,  8-C ) :   0.9107
B(  2-C , 13-H ) :   0.9192 B(  3-C ,  4-C ) :   0.9106 B(  3-C , 14-H ) :   0.9154
B(  3-C , 15-H ) :   0.9232 B(  4-C ,  5-C ) :   0.8649 B(  4-C ,  6-O ) :  -0.1288
B(  4-C ,  7-C ) :   0.9263 B(  5-C ,  6-O ) :   1.0792 B(  5-C , 16-H ) :   0.9360
B(  5-C , 17-H ) :   0.9259 B(  6-O , 18-H ) :   0.8501 B(  7-C ,  8-C ) :   0.9658
B(  7-C , 19-H ) :   0.9292 B(  7-C , 20-H ) :   0.9256 B(  8-C , 21-H ) :   0.9287
B(  8-C , 22-H ) :   0.9287

MP2 TOTAL ENERGY:     -387.616714340 Eh
FINAL SINGLE POINT ENERGY      -387.616714340365

DIPOLE MOMENT
-------------
                                X             Y             Z
Electronic contribution:      1.83992      -1.82309       2.62400
Nuclear contribution   :     -2.21483       2.23743      -2.36712
                        -----------------------------------------
Total Dipole Moment    :     -0.37491       0.41435       0.25688
                        -----------------------------------------
Magnitude (a.u.)       :      0.61500
Magnitude (Debye)      :      1.56321

                             ****ORCA TERMINATED NORMALLY****
TOTAL RUN TIME: 0 days 0 hours 23 minutes 41 seconds 842 msec
