                         Program Version 3.0.3 - RELEASE   -
|  1> ! RI-MP2 RIJK def2-TZVP def2-TZVP/C def2-TZVP/JK TIGHTSCF
|  2> % maxcore 2000
|  3> % mp2 density relaxed end
|  4> *xyz 0 1
|  5>  C       -0.0178417841     1.4386955133    -0.0061576475
|  6>  N       -0.0001591318    -0.0197091505    -0.0249819673
|  7>  C       -0.1088674144    -0.7182089458    -1.1705687922
|  8>  N       -0.1005402660    -2.0150310034    -1.2644572102
|  9>  C        0.0302608332    -2.6978270295    -0.0886651886
| 10>  O        0.0371128489    -4.0347109916    -0.2049744414
| 11>  C        0.1486965371    -2.1055690747     1.1374538251
| 12>  C        0.1405266577    -0.6778704006     1.2472156312
| 13>  O        0.2353052819     0.0053468015     2.2515926618
| 14>  H        0.9094781487     1.8158405783     0.4299420662
| 15>  H       -0.1298609701     1.8087195733    -1.0263576084
| 16>  H       -0.8444668108     1.7919016276     0.6137527794
| 17>  H       -0.2107038423    -0.1293261812    -2.0791023523
| 18>  H       -0.0577599149    -4.2264541595    -1.1481893260
| 19>  H        0.2502793968    -2.6883219273     2.0419830303
| 20> *
| 21>
| 22>                          ****END OF INPUT****

CARTESIAN COORDINATES (ANGSTROEM)
---------------------------------
  C     -0.017842    1.438696   -0.006158
  N     -0.000159   -0.019709   -0.024982
  C     -0.108867   -0.718209   -1.170569
  N     -0.100540   -2.015031   -1.264457
  C      0.030261   -2.697827   -0.088665
  O      0.037113   -4.034711   -0.204974
  C      0.148697   -2.105569    1.137454
  C      0.140527   -0.677870    1.247216
  O      0.235305    0.005347    2.251593
  H      0.909478    1.815841    0.429942
  H     -0.129861    1.808720   -1.026358
  H     -0.844467    1.791902    0.613753
  H     -0.210704   -0.129326   -2.079102
  H     -0.057760   -4.226454   -1.148189
  H      0.250279   -2.688322    2.041983

 Total Charge           Charge          ....    0
 Multiplicity           Mult            ....    1
 Number of Electrons    NEL             ....   66
 Basis Dimension        Dim             ....  315

ORBITAL ENERGIES
----------------

  NO   OCC          E(Eh)            E(eV)
   0   2.0000     -20.610040      -560.8277
   1   2.0000     -20.518206      -558.3288
   2   2.0000     -15.640607      -425.6026
   3   2.0000     -15.577217      -423.8776
   4   2.0000     -11.364068      -309.2320
   5   2.0000     -11.362757      -309.1963
   6   2.0000     -11.360437      -309.1332
   7   2.0000     -11.284996      -307.0804
   8   2.0000     -11.223594      -305.4095
   9   2.0000      -1.444533       -39.3077
  10   2.0000      -1.393719       -37.9250
  11   2.0000      -1.324409       -36.0390
  12   2.0000      -1.226423       -33.3727
  13   2.0000      -1.066651       -29.0250
  14   2.0000      -0.990179       -26.9441
  15   2.0000      -0.911641       -24.8070
  16   2.0000      -0.869725       -23.6664
  17   2.0000      -0.785579       -21.3767
  18   2.0000      -0.728453       -19.8222
  19   2.0000      -0.700080       -19.0502
  20   2.0000      -0.670736       -18.2517
  21   2.0000      -0.669219       -18.2104
  22   2.0000      -0.628891       -17.1130
  23   2.0000      -0.619299       -16.8520
  24   2.0000      -0.606095       -16.4927
  25   2.0000      -0.582362       -15.8469
  26   2.0000      -0.569488       -15.4966
  27   2.0000      -0.553409       -15.0590
  28   2.0000      -0.517384       -14.0787
  29   2.0000      -0.471081       -12.8188
  30   2.0000      -0.436942       -11.8898
  31   2.0000      -0.415166       -11.2972
  32   2.0000      -0.340197        -9.2572
  33   0.0000       0.094944         2.5835
  34   0.0000       0.132563         3.6072
  35   0.0000       0.149544         4.0693
  36   0.0000       0.151838         4.1317
  37   0.0000       0.160775         4.3749

MULLIKEN ATOMIC CHARGES
-----------------------
   0 C :   -0.297494
   1 N :   -0.025143
   2 C :    0.040876
   3 N :   -0.334589
   4 C :    0.339445
   5 O :   -0.401938
   6 C :   -0.317000
   7 C :    0.261598
   8 O :   -0.373335
   9 H :    0.165239
  10 H :    0.136332
  11 H :    0.165326
  12 H :    0.147323
  13 H :    0.342982
  14 H :    0.150379
Sum of atomic charges:    0.0000000

LOEWDIN ATOMIC CHARGES
----------------------
   0 C :   -0.260077
   1 N :    0.234824
   2 C :   -0.254139
   3 N :    0.098196
   4 C :   -0.364426
   5 O :    0.102299
   6 C :   -0.128349
   7 C :   -0.404005
   8 O :    0.081663
   9 H :    0.131649
  10 H :    0.123628
  11 H :    0.131692
  12 H :    0.143691
  13 H :    0.201434
  14 H :    0.161920

  Mayer bond orders larger than 0.1
B(  0-C ,  1-N ) :   0.8561 B(  0-C ,  9-H ) :   0.9272 B(  0-C , 10-H ) :   0.9239
B(  0-C , 11-H ) :   0.9272 B(  1-N ,  2-C ) :   1.2445 B(  1-N ,  7-C ) :   0.9420
B(  2-C ,  3-N ) :   1.6096 B(  2-C , 12-H ) :   0.9196 B(  3-N ,  4-C ) :   1.1480
B(  4-C ,  5-O ) :   1.1338 B(  4-C ,  6-C ) :   1.4415 B(  5-O , 13-H ) :   0.8106
B(  6-C ,  7-C ) :   1.1526 B(  6-C , 14-H ) :   0.9278 B(  7-C ,  8-O ) :   1.8821

MP2 TOTAL ENERGY:     -453.283546061 Eh
FINAL SINGLE POINT ENERGY      -453.283546061211

DIPOLE MOMENT
-------------
                                X             Y             Z
Electronic contribution:      0.15248      -4.72647       0.85433
Nuclear contribution   :     -0.30728       5.22604      -2.28412
                        -----------------------------------------
Total Dipole Moment    :     -0.15480       0.49957      -1.42979
                        -----------------------------------------
Magnitude (a.u.)       :      1.52245
Magnitude (Debye)      :      3.86975

                             ****ORCA TERMINATED NORMALLY****
TOTAL RUN TIME: 0 days 0 hours 14 minutes 29 seconds 559 msec
