                         Program Version 3.0.3 - RELEASE   -
|  1> ! RI-MP2 RIJK def2-TZVP def2-TZVP/C def2-TZVP/JK TIGHTSCF
|  2> % maxcore 2000
|  3> % mp2 density relaxed end
|  4> *xyz 0 1
|  5>  C       -0.9370445579     1.1031198950     0.0146847799
|  6>  C        0.0195561642    -0.0803190923     0.0374556612
|  7>  C        1.2489644199    -0.0783797263    -0.9183185377
|  8>  C        2.1750195533    -0.5728185582     0.2521251581
|  9>  C        2.9187169114    -1.8756303125     0.0634807735
| 10>  C        0.9666176466    -0.3034634544     1.2467245237
| 11>  C        1.7054287913     0.9488703270     1.8041720158
| 12>  C        2.9031225971     0.6092307026     0.8944960967
| 13>  O        4.0153802185     1.0435865674     0.7937041148
| 14>  H       -0.4117064206     2.0566437216     0.1329679769
| 15>  H       -1.4774849676     1.1466914524    -0.9374367032
| 16>  H       -1.6806021814     1.0288180548     0.8161180385
| 17>  H       -0.5535541544    -1.0005014077    -0.1212264367
| 18>  H        1.1937635285    -0.7751468312    -1.7583242126
| 19>  H        1.5159275918     0.9059501575    -1.3147925935
| 20>  H        3.7195932366    -1.7518092844    -0.6736943208
| 21>  H        3.3788258734    -2.2148164377     0.9975091298
| 22>  H        2.2510145667    -2.6671551033    -0.2936102073
| 23>  H        0.6609203443    -1.0302390414     2.0003455781
| 24>  H        1.2458015382     1.9274166257     1.6407672665
| 25>  H        1.9688643501     0.8763549454     2.8641942585
| 26> *
| 27>
| 28>                          ****END OF INPUT****

CARTESIAN COORDINATES (ANGSTROEM)
---------------------------------
  C     -0.937045    1.103120    0.014685
  C      0.019556   -0.080319    0.037456
  C      1.248964   -0.078380   -0.918319
  C      2.175020   -0.572819    0.252125
  C      2.918717   -1.875630    0.063481
  C      0.966618   -0.303463    1.246725
  C      1.705429    0.948870    1.804172
  C      2.903123    0.609231    0.894496
  O      4.015380    1.043587    0.793704
  H     -0.411706    2.056644    0.132968
  H     -1.477485    1.146691   -0.937437
  H     -1.680602    1.028818    0.816118
  H     -0.553554   -1.000501   -0.121226
  H      1.193764   -0.775147   -1.758324
  H      1.515928    0.905950   -1.314793
  H      3.719593   -1.751809   -0.673694
  H      3.378826   -2.214816    0.997509
  H      2.251015   -2.667155   -0.293610
  H      0.660920   -1.030239    2.000346
  H      1.245802    1.927417    1.640767
  H      1.968864    0.876355    2.864194

 Total Charge           Charge          ....    0
 Multiplicity           Mult            ....    1
 Number of Electrons    NEL             ....   68
 Basis Dimension        Dim             ....  351

ORBITAL ENERGIES
----------------

  NO   OCC          E(Eh)            E(eV)
   0   2.0000     -20.545695      -559.0768
   1   2.0000     -11.323136      -308.1182
   2   2.0000     -11.244456      -305.9772
   3   2.0000     -11.239173      -305.8335
   4   2.0000     -11.238614      -305.8182
   5   2.0000     -11.236560      -305.7623
   6   2.0000     -11.234632      -305.7099
   7   2.0000     -11.224401      -305.4315
   8   2.0000     -11.221850      -305.3621
   9   2.0000      -1.388118       -37.7726
  10   2.0000      -1.179425       -32.0938
  11   2.0000      -1.037676       -28.2366
  12   2.0000      -1.008382       -27.4395
  13   2.0000      -0.944546       -25.7024
  14   2.0000      -0.878708       -23.9109
  15   2.0000      -0.843233       -22.9455
  16   2.0000      -0.757060       -20.6006
  17   2.0000      -0.684381       -18.6229
  18   2.0000      -0.670933       -18.2570
  19   2.0000      -0.648128       -17.6365
  20   2.0000      -0.642529       -17.4841
  21   2.0000      -0.598999       -16.2996
  22   2.0000      -0.569864       -15.5068
  23   2.0000      -0.568388       -15.4666
  24   2.0000      -0.562263       -15.3000
  25   2.0000      -0.556172       -15.1342
  26   2.0000      -0.552711       -15.0400
  27   2.0000      -0.527004       -14.3405
  28   2.0000      -0.502494       -13.6736
  29   2.0000      -0.460619       -12.5341
  30   2.0000      -0.456912       -12.4332
  31   2.0000      -0.435833       -11.8596
  32   2.0000      -0.414703       -11.2846
  33   2.0000      -0.383234       -10.4283
  34   0.0000       0.124713         3.3936
  35   0.0000       0.137922         3.7530
  36   0.0000       0.145891         3.9699
  37   0.0000       0.158820         4.3217
  38   0.0000       0.167497         4.5578

MULLIKEN ATOMIC CHARGES
-----------------------
   0 C :   -0.421771
   1 C :   -0.048736
   2 C :   -0.310451
   3 C :    0.194008
   4 C :   -0.414110
   5 C :   -0.064531
   6 C :   -0.261989
   7 C :    0.015968
   8 O :   -0.254070
   9 H :    0.120162
  10 H :    0.136107
  11 H :    0.134506
  12 H :    0.099373
  13 H :    0.131388
  14 H :    0.129804
  15 H :    0.147051
  16 H :    0.134135
  17 H :    0.133695
  18 H :    0.121995
  19 H :    0.139805
  20 H :    0.137661
Sum of atomic charges:   -0.0000000

LOEWDIN ATOMIC CHARGES
----------------------
   0 C :   -0.299924
   1 C :   -0.239953
   2 C :   -0.160696
   3 C :   -0.198363
   4 C :   -0.270615
   5 C :   -0.138144
   6 C :   -0.185857
   7 C :   -0.283454
   8 O :    0.159967
   9 H :    0.120689
  10 H :    0.126340
  11 H :    0.125978
  12 H :    0.152668
  13 H :    0.134262
  14 H :    0.138938
  15 H :    0.136113
  16 H :    0.129806
  17 H :    0.128287
  18 H :    0.134917
  19 H :    0.140830
  20 H :    0.148212

  Mayer bond orders larger than 0.1
B(  0-C ,  1-C ) :   0.8933 B(  0-C ,  9-H ) :   0.9370 B(  0-C , 10-H ) :   0.9401
B(  0-C , 11-H ) :   0.9410 B(  1-C ,  2-C ) :   0.9592 B(  1-C ,  5-C ) :   0.9335
B(  1-C , 12-H ) :   0.9199 B(  2-C ,  3-C ) :   0.8547 B(  2-C , 13-H ) :   0.9244
B(  2-C , 14-H ) :   0.9062 B(  3-C ,  4-C ) :   0.8718 B(  3-C ,  5-C ) :   0.8938
B(  3-C ,  6-C ) :  -0.1356 B(  3-C ,  7-C ) :   0.7872 B(  4-C , 15-H ) :   0.9343
B(  4-C , 16-H ) :   0.9384 B(  4-C , 17-H ) :   0.9413 B(  5-C ,  6-C ) :   0.9055
B(  5-C , 18-H ) :   0.9106 B(  6-C ,  7-C ) :   0.9310 B(  6-C , 19-H ) :   0.9017
B(  6-C , 20-H ) :   0.8934 B(  7-C ,  8-O ) :   2.0625

MP2 TOTAL ENERGY:     -386.410326968 Eh
FINAL SINGLE POINT ENERGY      -386.410326967898

DIPOLE MOMENT
-------------
                                X             Y             Z
Electronic contribution:      6.69631       1.99545       1.99749
Nuclear contribution   :     -7.76583      -2.49643      -2.00367
                        -----------------------------------------
Total Dipole Moment    :     -1.06952      -0.50098      -0.00618
                        -----------------------------------------
Magnitude (a.u.)       :      1.18105
Magnitude (Debye)      :      3.00200

                             ****ORCA TERMINATED NORMALLY****
TOTAL RUN TIME: 0 days 0 hours 20 minutes 35 seconds 866 msec
