                         Program Version 3.0.3 - RELEASE   -
|  1> ! RI-MP2 RIJK def2-TZVP def2-TZVP/C def2-TZVP/JK TIGHTSCF
|  2> % maxcore 2000
|  3> % mp2 density relaxed end
|  4> *xyz 0 1
|  5>  C       -0.0149064193     1.4859796086     0.0870866395
|  6>  N       -0.0119341217     0.0584009356    -0.1657130545
|  7>  C       -1.1794143358    -0.6663437703    -0.0625841563
|  8>  C       -1.2907497511    -2.0689341776    -0.0038845675
|  9>  N       -2.6466335066    -2.3616367491     0.0458071030
| 10>  C       -3.3665327173    -1.2229670017     0.0205186901
| 11>  C       -2.4987337714    -0.1433862782    -0.0436738187
| 12>  C       -0.3325645450    -3.1282174152     0.0066253454
| 13>  O       -0.6228776579    -4.3162693449     0.0631730941
| 14>  H        1.0022745880     1.8675205475    -0.0250171527
| 15>  H       -0.6435918912     1.9984392955    -0.6488186111
| 16>  H       -0.3801897935     1.7520832608     1.0911627743
| 17>  H        0.8185306420    -0.4224336747     0.1401881367
| 18>  H       -2.9765505214    -3.3113883782     0.0927534991
| 19>  H       -4.4449921204    -1.2374721731     0.0537392873
| 20>  H       -2.7872035764     0.8945677202    -0.0714659320
| 21>  H        0.7311118191    -2.8047730253    -0.0431749568
| 22> *
| 23>
| 24>                          ****END OF INPUT****

CARTESIAN COORDINATES (ANGSTROEM)
---------------------------------
  C     -0.014906    1.485980    0.087087
  N     -0.011934    0.058401   -0.165713
  C     -1.179414   -0.666344   -0.062584
  C     -1.290750   -2.068934   -0.003885
  N     -2.646634   -2.361637    0.045807
  C     -3.366533   -1.222967    0.020519
  C     -2.498734   -0.143386   -0.043674
  C     -0.332565   -3.128217    0.006625
  O     -0.622878   -4.316269    0.063173
  H      1.002275    1.867521   -0.025017
  H     -0.643592    1.998439   -0.648819
  H     -0.380190    1.752083    1.091163
  H      0.818531   -0.422434    0.140188
  H     -2.976551   -3.311388    0.092753
  H     -4.444992   -1.237472    0.053739
  H     -2.787204    0.894568   -0.071466
  H      0.731112   -2.804773   -0.043175

 Total Charge           Charge          ....    0
 Multiplicity           Mult            ....    1
 Number of Electrons    NEL             ....   66
 Basis Dimension        Dim             ....  327

ORBITAL ENERGIES
----------------

  NO   OCC          E(Eh)            E(eV)
   0   2.0000     -20.525222      -558.5197
   1   2.0000     -15.610423      -424.7812
   2   2.0000     -15.577116      -423.8749
   3   2.0000     -11.319961      -308.0318
   4   2.0000     -11.289338      -307.1985
   5   2.0000     -11.286768      -307.1286
   6   2.0000     -11.266532      -306.5779
   7   2.0000     -11.243358      -305.9473
   8   2.0000     -11.220939      -305.3373
   9   2.0000      -1.364667       -37.1345
  10   2.0000      -1.305692       -35.5297
  11   2.0000      -1.242213       -33.8023
  12   2.0000      -1.050279       -28.5795
  13   2.0000      -1.020519       -27.7697
  14   2.0000      -0.932985       -25.3878
  15   2.0000      -0.868047       -23.6208
  16   2.0000      -0.807881       -21.9836
  17   2.0000      -0.773819       -21.0567
  18   2.0000      -0.719455       -19.5774
  19   2.0000      -0.688715       -18.7409
  20   2.0000      -0.628383       -17.0992
  21   2.0000      -0.622717       -16.9450
  22   2.0000      -0.615295       -16.7430
  23   2.0000      -0.613254       -16.6875
  24   2.0000      -0.588118       -16.0035
  25   2.0000      -0.585053       -15.9201
  26   2.0000      -0.552102       -15.0235
  27   2.0000      -0.536440       -14.5973
  28   2.0000      -0.509332       -13.8596
  29   2.0000      -0.459172       -12.4947
  30   2.0000      -0.416107       -11.3228
  31   2.0000      -0.336408        -9.1541
  32   2.0000      -0.292681        -7.9643
  33   0.0000       0.092915         2.5283
  34   0.0000       0.132306         3.6002
  35   0.0000       0.143693         3.9101
  36   0.0000       0.156345         4.2544
  37   0.0000       0.182625         4.9695

MULLIKEN ATOMIC CHARGES
-----------------------
   0 C :   -0.294740
   1 N :   -0.346724
   2 C :    0.206773
   3 C :    0.021886
   4 N :   -0.235587
   5 C :   -0.056828
   6 C :   -0.267373
   7 C :    0.067853
   8 O :   -0.347131
   9 H :    0.142578
  10 H :    0.140671
  11 H :    0.131842
  12 H :    0.227970
  13 H :    0.261936
  14 H :    0.151214
  15 H :    0.138210
  16 H :    0.057450
Sum of atomic charges:    0.0000000

LOEWDIN ATOMIC CHARGES
----------------------
   0 C :   -0.324972
   1 N :    0.051872
   2 C :   -0.213589
   3 C :   -0.225947
   4 N :    0.225205
   5 C :   -0.215635
   6 C :   -0.177426
   7 C :   -0.313761
   8 O :    0.071112
   9 H :    0.120075
  10 H :    0.119362
  11 H :    0.108829
  12 H :    0.180521
  13 H :    0.202154
  14 H :    0.136979
  15 H :    0.142063
  16 H :    0.113159

  Mayer bond orders larger than 0.1
B(  0-C ,  1-N ) :   0.9195 B(  0-C ,  9-H ) :   0.9355 B(  0-C , 10-H ) :   0.9354
B(  0-C , 11-H ) :   0.9310 B(  1-N ,  2-C ) :   1.1119 B(  1-N , 12-H ) :   0.8769
B(  2-C ,  3-C ) :   1.2310 B(  2-C ,  6-C ) :   1.2965 B(  3-C ,  4-N ) :   1.0888
B(  3-C ,  7-C ) :   0.9639 B(  3-C , 16-H ) :  -0.1212 B(  4-N ,  5-C ) :   1.2168
B(  4-N , 13-H ) :   0.8556 B(  5-C ,  6-C ) :   1.4061 B(  5-C , 14-H ) :   0.9184
B(  6-C , 15-H ) :   0.9272 B(  7-C ,  8-O ) :   1.9048 B(  7-C , 16-H ) :   1.0034

MP2 TOTAL ENERGY:     -417.338959580 Eh
FINAL SINGLE POINT ENERGY      -417.338959579975

DIPOLE MOMENT
-------------
                                X             Y             Z
Electronic contribution:     -1.77210      -7.85549      -0.34152
Nuclear contribution   :      1.55353       9.14718       0.55476
                        -----------------------------------------
Total Dipole Moment    :     -0.21857       1.29169       0.21324
                        -----------------------------------------
Magnitude (a.u.)       :      1.32729
Magnitude (Debye)      :      3.37371

                             ****ORCA TERMINATED NORMALLY****
TOTAL RUN TIME: 0 days 0 hours 17 minutes 1 seconds 411 msec
