                         Program Version 3.0.3 - RELEASE   -
|  1> ! RI-MP2 RIJK def2-TZVP def2-TZVP/C def2-TZVP/JK TIGHTSCF
|  2> % maxcore 2000
|  3> % mp2 density relaxed end
|  4> *xyz 0 1
|  5>  O       -0.0964797038     1.3718797975     0.1082564814
|  6>  C        0.0558791429    -0.0081688197     0.0832929128
|  7>  C        0.8839590481    -0.7884542818    -1.0021170234
|  8>  C        0.7681042261    -1.9356457204     0.0498131000
|  9>  C        0.8595414192    -0.8221178802     1.1356899557
| 10>  C       -0.7423080462    -2.2330470449    -0.0570335937
| 11>  C       -1.5752971031    -2.4377936313     1.2226228858
| 12>  O       -1.9392610585    -1.0377195841     1.2657983587
| 13>  C       -1.2717429857    -0.7779467346     0.0092219659
| 14>  H        0.7697850584     1.7749099466     0.2243185380
| 15>  H        0.4384659484    -0.9431330271    -1.9898279178
| 16>  H        1.9003095318    -0.3982766024    -1.1009158763
| 17>  H        1.4574125963    -2.7785610562     0.0508000262
| 18>  H        1.8832049053    -0.4524314243     1.2407683916
| 19>  H        0.4070177910    -0.9771164989     2.1154309620
| 20>  H       -0.9994363480    -2.8570495834    -0.9136271106
| 21>  H       -2.4590522585    -3.0742059978     1.0900553788
| 22>  H       -1.0371987084    -2.7578705640     2.1232779372
| 23>  H       -1.9553980553    -0.3813963829    -0.7469602022
| 24> *
| 25>
| 26>                          ****END OF INPUT****

CARTESIAN COORDINATES (ANGSTROEM)
---------------------------------
  O     -0.096480    1.371880    0.108256
  C      0.055879   -0.008169    0.083293
  C      0.883959   -0.788454   -1.002117
  C      0.768104   -1.935646    0.049813
  C      0.859541   -0.822118    1.135690
  C     -0.742308   -2.233047   -0.057034
  C     -1.575297   -2.437794    1.222623
  O     -1.939261   -1.037720    1.265798
  C     -1.271743   -0.777947    0.009222
  H      0.769785    1.774910    0.224319
  H      0.438466   -0.943133   -1.989828
  H      1.900310   -0.398277   -1.100916
  H      1.457413   -2.778561    0.050800
  H      1.883205   -0.452431    1.240768
  H      0.407018   -0.977116    2.115431
  H     -0.999436   -2.857050   -0.913627
  H     -2.459052   -3.074206    1.090055
  H     -1.037199   -2.757871    2.123278
  H     -1.955398   -0.381396   -0.746960

 Total Charge           Charge          ....    0
 Multiplicity           Mult            ....    1
 Number of Electrons    NEL             ....   68
 Basis Dimension        Dim             ....  339

ORBITAL ENERGIES
----------------

  NO   OCC          E(Eh)            E(eV)
   0   2.0000     -20.563299      -559.5558
   1   2.0000     -20.543566      -559.0189
   2   2.0000     -11.291838      -307.2665
   3   2.0000     -11.277055      -306.8643
   4   2.0000     -11.276207      -306.8412
   5   2.0000     -11.244212      -305.9706
   6   2.0000     -11.234844      -305.7156
   7   2.0000     -11.232238      -305.6447
   8   2.0000     -11.226556      -305.4901
   9   2.0000      -1.383675       -37.6517
  10   2.0000      -1.366992       -37.1977
  11   2.0000      -1.175819       -31.9957
  12   2.0000      -0.995139       -27.0791
  13   2.0000      -0.950822       -25.8732
  14   2.0000      -0.909024       -24.7358
  15   2.0000      -0.872269       -23.7356
  16   2.0000      -0.769912       -20.9504
  17   2.0000      -0.727760       -19.8034
  18   2.0000      -0.718034       -19.5387
  19   2.0000      -0.679595       -18.4927
  20   2.0000      -0.662345       -18.0233
  21   2.0000      -0.620555       -16.8862
  22   2.0000      -0.598859       -16.2958
  23   2.0000      -0.585888       -15.9428
  24   2.0000      -0.563161       -15.3244
  25   2.0000      -0.541226       -14.7275
  26   2.0000      -0.537213       -14.6183
  27   2.0000      -0.496191       -13.5020
  28   2.0000      -0.492659       -13.4059
  29   2.0000      -0.460914       -12.5421
  30   2.0000      -0.442226       -12.0336
  31   2.0000      -0.432644       -11.7728
  32   2.0000      -0.413652       -11.2560
  33   2.0000      -0.399714       -10.8768
  34   0.0000       0.132289         3.5998
  35   0.0000       0.142826         3.8865
  36   0.0000       0.164945         4.4884
  37   0.0000       0.170711         4.6453
  38   0.0000       0.187339         5.0978

MULLIKEN ATOMIC CHARGES
-----------------------
   0 O :   -0.447891
   1 C :    0.204288
   2 C :   -0.285914
   3 C :   -0.060011
   4 C :   -0.290323
   5 C :   -0.190297
   6 C :   -0.023290
   7 O :   -0.339903
   8 C :    0.064616
   9 H :    0.320968
  10 H :    0.120743
  11 H :    0.118276
  12 H :    0.131898
  13 H :    0.115880
  14 H :    0.138150
  15 H :    0.121199
  16 H :    0.103768
  17 H :    0.097995
  18 H :    0.099847
Sum of atomic charges:   -0.0000000

LOEWDIN ATOMIC CHARGES
----------------------
   0 O :    0.030693
   1 C :   -0.348336
   2 C :   -0.179447
   3 C :   -0.185904
   4 C :   -0.183772
   5 C :   -0.185933
   6 C :   -0.252145
   7 O :    0.137536
   8 C :   -0.204350
   9 H :    0.181051
  10 H :    0.130301
  11 H :    0.135727
  12 H :    0.134106
  13 H :    0.137588
  14 H :    0.134403
  15 H :    0.143565
  16 H :    0.119105
  17 H :    0.117403
  18 H :    0.138409

  Mayer bond orders larger than 0.1
B(  0-O ,  1-C ) :   1.0297 B(  0-O ,  9-H ) :   0.8371 B(  1-C ,  2-C ) :   0.8779
B(  1-C ,  4-C ) :   0.8965 B(  1-C ,  8-C ) :   0.8698 B(  2-C ,  3-C ) :   0.9061
B(  2-C , 10-H ) :   0.9228 B(  2-C , 11-H ) :   0.9126 B(  3-C ,  4-C ) :   0.9304
B(  3-C ,  5-C ) :   0.8761 B(  3-C , 12-H ) :   0.9066 B(  4-C , 13-H ) :   0.9183
B(  4-C , 14-H ) :   0.9096 B(  5-C ,  6-C ) :   0.9715 B(  5-C ,  8-C ) :   0.9725
B(  5-C , 15-H ) :   0.9261 B(  6-C ,  7-O ) :   0.9315 B(  6-C , 16-H ) :   0.9185
B(  6-C , 17-H ) :   0.9087 B(  7-O ,  8-C ) :   0.9772 B(  8-C , 18-H ) :   0.9394

MP2 TOTAL ENERGY:     -422.295281158 Eh
FINAL SINGLE POINT ENERGY      -422.295281158213

DIPOLE MOMENT
-------------
                                X             Y             Z
Electronic contribution:     -2.69248       2.81387       0.70347
Nuclear contribution   :      3.66488      -3.41178      -1.10482
                        -----------------------------------------
Total Dipole Moment    :      0.97240      -0.59791      -0.40135
                        -----------------------------------------
Magnitude (a.u.)       :      1.21002
Magnitude (Debye)      :      3.07562

                             ****ORCA TERMINATED NORMALLY****
TOTAL RUN TIME: 0 days 0 hours 18 minutes 12 seconds 782 msec
