                         Program Version 3.0.3 - RELEASE   -
|  1> ! RI-MP2 RIJK def2-TZVP def2-TZVP/C def2-TZVP/JK TIGHTSCF
|  2> % maxcore 2000
|  3> % mp2 density relaxed end
|  4> *xyz 0 1
|  5>  C        0.1918397405     1.7373860892    -0.7368011514
|  6>  O       -0.3604359482     0.4730344839    -1.0271085187
|  7>  C        0.6037722165    -0.5290839516    -1.1886677073
|  8>  C        1.3744186893    -1.0658124139     0.0480699520
|  9>  C        1.2315921105    -2.4917055373    -0.5594520943
| 10>  C        0.9894198281    -3.6736854158     0.3653989098
| 11>  C        0.0477708834    -1.9658260334    -1.4255451301
| 12>  O       -1.1667162235    -2.2224080941    -0.7681897780
| 13>  C       -2.3121350013    -1.8405475695    -1.5062976151
| 14>  H        0.7604590760     1.7302602354     0.2047128471
| 15>  H        0.8613469509     2.0824829146    -1.5408382256
| 16>  H       -0.6381139344     2.4415497069    -0.6412061082
| 17>  H        1.3083476272    -0.2608266589    -1.9937445216
| 18>  H        2.3794487143    -0.6855466349     0.2442253931
| 19>  H        0.7589097294    -0.9638228318     0.9465751769
| 20>  H        2.0808744304    -2.6978270941    -1.2200506564
| 21>  H        0.0979196656    -3.5113804498     0.9750336923
| 22>  H        0.8430765615    -4.5993290345    -0.2017321043
| 23>  H        1.8459930012    -3.8213500941     1.0320925327
| 24>  H       -0.0054508269    -2.3026919171    -2.4715704579
| 25>  H       -2.3390194698    -0.7606087308    -1.6839196975
| 26>  H       -2.3510829924    -2.3639877224    -2.4748886679
| 27>  H       -3.1829810084    -2.1342045461    -0.9144829699
| 28> *
| 29>
| 30>                          ****END OF INPUT****

CARTESIAN COORDINATES (ANGSTROEM)
---------------------------------
  C      0.191840    1.737386   -0.736801
  O     -0.360436    0.473034   -1.027109
  C      0.603772   -0.529084   -1.188668
  C      1.374419   -1.065812    0.048070
  C      1.231592   -2.491706   -0.559452
  C      0.989420   -3.673685    0.365399
  C      0.047771   -1.965826   -1.425545
  O     -1.166716   -2.222408   -0.768190
  C     -2.312135   -1.840548   -1.506298
  H      0.760459    1.730260    0.204713
  H      0.861347    2.082483   -1.540838
  H     -0.638114    2.441550   -0.641206
  H      1.308348   -0.260827   -1.993745
  H      2.379449   -0.685547    0.244225
  H      0.758910   -0.963823    0.946575
  H      2.080874   -2.697827   -1.220051
  H      0.097920   -3.511380    0.975034
  H      0.843077   -4.599329   -0.201732
  H      1.845993   -3.821350    1.032093
  H     -0.005451   -2.302692   -2.471570
  H     -2.339019   -0.760609   -1.683920
  H     -2.351083   -2.363988   -2.474889
  H     -3.182981   -2.134205   -0.914483

 Total Charge           Charge          ....    0
 Multiplicity           Mult            ....    1
 Number of Electrons    NEL             ....   72
 Basis Dimension        Dim             ....  363

ORBITAL ENERGIES
----------------

  NO   OCC          E(Eh)            E(eV)
   0   2.0000     -20.554450      -559.3150
   1   2.0000     -20.547057      -559.1139
   2   2.0000     -11.275041      -306.8095
   3   2.0000     -11.272291      -306.7346
   4   2.0000     -11.270785      -306.6937
   5   2.0000     -11.256930      -306.3166
   6   2.0000     -11.225408      -305.4589
   7   2.0000     -11.214882      -305.1725
   8   2.0000     -11.204234      -304.8827
   9   2.0000      -1.384039       -37.6616
  10   2.0000      -1.362635       -37.0792
  11   2.0000      -1.120767       -30.4976
  12   2.0000      -0.980573       -26.6828
  13   2.0000      -0.934339       -25.4247
  14   2.0000      -0.927283       -25.2326
  15   2.0000      -0.864513       -23.5246
  16   2.0000      -0.816895       -22.2289
  17   2.0000      -0.743613       -20.2347
  18   2.0000      -0.695078       -18.9140
  19   2.0000      -0.663046       -18.0424
  20   2.0000      -0.649255       -17.6671
  21   2.0000      -0.639029       -17.3889
  22   2.0000      -0.609520       -16.5859
  23   2.0000      -0.589498       -16.0411
  24   2.0000      -0.586925       -15.9710
  25   2.0000      -0.560921       -15.2634
  26   2.0000      -0.552065       -15.0224
  27   2.0000      -0.538560       -14.6550
  28   2.0000      -0.503891       -13.7116
  29   2.0000      -0.496190       -13.5020
  30   2.0000      -0.480291       -13.0694
  31   2.0000      -0.467240       -12.7142
  32   2.0000      -0.459095       -12.4926
  33   2.0000      -0.431992       -11.7551
  34   2.0000      -0.402198       -10.9444
  35   2.0000      -0.393225       -10.7002
  36   0.0000       0.135766         3.6944
  37   0.0000       0.154144         4.1945
  38   0.0000       0.162784         4.4296
  39   0.0000       0.166991         4.5440
  40   0.0000       0.196256         5.3404

MULLIKEN ATOMIC CHARGES
-----------------------
   0 C :   -0.221018
   1 O :   -0.301613
   2 C :    0.047598
   3 C :   -0.268126
   4 C :    0.007373
   5 C :   -0.431685
   6 C :    0.080758
   7 O :   -0.312574
   8 C :   -0.229250
   9 H :    0.118292
  10 H :    0.109476
  11 H :    0.139725
  12 H :    0.071047
  13 H :    0.122322
  14 H :    0.114147
  15 H :    0.100313
  16 H :    0.147536
  17 H :    0.124881
  18 H :    0.128251
  19 H :    0.078602
  20 H :    0.136596
  21 H :    0.104851
  22 H :    0.132500
Sum of atomic charges:   -0.0000000

LOEWDIN ATOMIC CHARGES
----------------------
   0 C :   -0.352757
   1 O :    0.160035
   2 C :   -0.302487
   3 C :   -0.210342
   4 C :   -0.234388
   5 C :   -0.300406
   6 C :   -0.266468
   7 O :    0.169755
   8 C :   -0.351354
   9 H :    0.104166
  10 H :    0.101635
  11 H :    0.113259
  12 H :    0.134444
  13 H :    0.121727
  14 H :    0.144817
  15 H :    0.151178
  16 H :    0.128579
  17 H :    0.124230
  18 H :    0.123547
  19 H :    0.123211
  20 H :    0.106667
  21 H :    0.099530
  22 H :    0.111424

  Mayer bond orders larger than 0.1
B(  0-C ,  1-O ) :   0.9146 B(  0-C ,  9-H ) :   0.9349 B(  0-C , 10-H ) :   0.9347
B(  0-C , 11-H ) :   0.9409 B(  1-O ,  2-C ) :   0.9926 B(  2-C ,  3-C ) :   0.9395
B(  2-C ,  6-C ) :   0.9028 B(  2-C , 12-H ) :   0.9387 B(  3-C ,  4-C ) :   0.9545
B(  3-C , 13-H ) :   0.9225 B(  3-C , 14-H ) :   0.9003 B(  4-C ,  5-C ) :   0.8771
B(  4-C ,  6-C ) :   0.8919 B(  4-C , 15-H ) :   0.9258 B(  5-C , 16-H ) :   0.9360
B(  5-C , 17-H ) :   0.9384 B(  5-C , 18-H ) :   0.9397 B(  6-C ,  7-O ) :   0.9895
B(  6-C , 19-H ) :   0.9258 B(  7-O ,  8-C ) :   0.9020 B(  8-C , 20-H ) :   0.9310
B(  8-C , 21-H ) :   0.9380 B(  8-C , 22-H ) :   0.9408

MP2 TOTAL ENERGY:     -424.685639721 Eh
FINAL SINGLE POINT ENERGY      -424.685639720942

DIPOLE MOMENT
-------------
                                X             Y             Z
Electronic contribution:     -1.49070       0.52180      -1.11058
Nuclear contribution   :      1.88861      -0.18286       0.80945
                        -----------------------------------------
Total Dipole Moment    :      0.39792       0.33894      -0.30113
                        -----------------------------------------
Magnitude (a.u.)       :      0.60324
Magnitude (Debye)      :      1.53331

                             ****ORCA TERMINATED NORMALLY****
TOTAL RUN TIME: 0 days 0 hours 30 minutes 15 seconds 667 msec
