                         Program Version 3.0.3 - RELEASE   -
|  1> ! RI-MP2 RIJK def2-TZVP def2-TZVP/C def2-TZVP/JK TIGHTSCF
|  2> % maxcore 2000
|  3> % mp2 density relaxed end
|  4> *xyz 0 1
|  5>  C       -0.3951116947     1.0525273714     0.1183710479
|  6>  O        0.5355490838     0.0183035572    -0.1328821946
|  7>  C        0.9486667644    -0.6312900154     1.0256283145
|  8>  C        0.1363065799    -1.7083076442     1.7054223075
|  9>  C       -0.5978118244    -2.5621032555     0.6975973724
| 10>  N       -0.0706401003    -3.9296135797     0.6141580772
| 11>  C        0.6786705123    -2.8569517887    -0.0467412305
| 12>  C        0.9534186996    -2.9429142722    -1.5183218585
| 13>  C        1.4671251227    -2.0264547921     0.9543379208
| 14>  H        0.0309544589     1.8304032731     0.7703283439
| 15>  H       -0.6483702241     1.4989968696    -0.8456542341
| 16>  H       -1.3101059208     0.6681190217     0.5910402235
| 17>  H        1.4821250049     0.0221833227     1.7228551032
| 18>  H       -0.0343164350    -1.7063822586     2.7774054201
| 19>  H       -1.5871081554    -2.3808845629     0.2945370053
| 20>  H        0.3570203239    -4.2224732527     1.4905101282
| 21>  H        0.1406564827    -3.4693193682    -2.0250097777
| 22>  H        1.0532760637    -1.9403888195    -1.9425104409
| 23>  H        1.8811699214    -3.4939233671    -1.7133731617
| 24>  H        2.4273992565    -2.3020518688     1.3788714235
| 25> *
| 26>
| 27>                          ****END OF INPUT****

CARTESIAN COORDINATES (ANGSTROEM)
---------------------------------
  C     -0.395112    1.052527    0.118371
  O      0.535549    0.018304   -0.132882
  C      0.948667   -0.631290    1.025628
  C      0.136307   -1.708308    1.705422
  C     -0.597812   -2.562103    0.697597
  N     -0.070640   -3.929614    0.614158
  C      0.678671   -2.856952   -0.046741
  C      0.953419   -2.942914   -1.518322
  C      1.467125   -2.026455    0.954338
  H      0.030954    1.830403    0.770328
  H     -0.648370    1.498997   -0.845654
  H     -1.310106    0.668119    0.591040
  H      1.482125    0.022183    1.722855
  H     -0.034316   -1.706382    2.777405
  H     -1.587108   -2.380885    0.294537
  H      0.357020   -4.222473    1.490510
  H      0.140656   -3.469319   -2.025010
  H      1.053276   -1.940389   -1.942510
  H      1.881170   -3.493923   -1.713373
  H      2.427399   -2.302052    1.378871

 Total Charge           Charge          ....    0
 Multiplicity           Mult            ....    1
 Number of Electrons    NEL             ....   68
 Basis Dimension        Dim             ....  345

ORBITAL ENERGIES
----------------

  NO   OCC          E(Eh)            E(eV)
   0   2.0000     -20.563911      -559.5725
   1   2.0000     -15.551027      -423.1649
   2   2.0000     -11.294023      -307.3260
   3   2.0000     -11.275246      -306.8150
   4   2.0000     -11.263699      -306.5008
   5   2.0000     -11.255425      -306.2757
   6   2.0000     -11.241643      -305.9007
   7   2.0000     -11.240909      -305.8807
   8   2.0000     -11.208219      -304.9911
   9   2.0000      -1.389330       -37.8056
  10   2.0000      -1.285441       -34.9786
  11   2.0000      -1.131873       -30.7998
  12   2.0000      -0.984778       -26.7972
  13   2.0000      -0.942955       -25.6591
  14   2.0000      -0.889260       -24.1980
  15   2.0000      -0.855643       -23.2832
  16   2.0000      -0.790887       -21.5211
  17   2.0000      -0.722363       -19.6565
  18   2.0000      -0.700384       -19.0584
  19   2.0000      -0.680466       -18.5164
  20   2.0000      -0.646479       -17.5916
  21   2.0000      -0.626427       -17.0460
  22   2.0000      -0.616875       -16.7860
  23   2.0000      -0.583332       -15.8733
  24   2.0000      -0.561396       -15.2764
  25   2.0000      -0.547161       -14.8890
  26   2.0000      -0.511392       -13.9157
  27   2.0000      -0.487215       -13.2578
  28   2.0000      -0.481807       -13.1106
  29   2.0000      -0.456566       -12.4238
  30   2.0000      -0.423082       -11.5127
  31   2.0000      -0.411882       -11.2079
  32   2.0000      -0.392897       -10.6913
  33   2.0000      -0.383078       -10.4241
  34   0.0000       0.140640         3.8270
  35   0.0000       0.151473         4.1218
  36   0.0000       0.161851         4.4042
  37   0.0000       0.172553         4.6954
  38   0.0000       0.190858         5.1935

MULLIKEN ATOMIC CHARGES
-----------------------
   0 C :   -0.215358
   1 O :   -0.298718
   2 C :    0.021217
   3 C :   -0.131392
   4 C :   -0.088157
   5 N :   -0.350504
   6 C :    0.110030
   7 C :   -0.439754
   8 C :   -0.108611
   9 H :    0.113821
  10 H :    0.141379
  11 H :    0.118797
  12 H :    0.098703
  13 H :    0.131979
  14 H :    0.129539
  15 H :    0.214029
  16 H :    0.139056
  17 H :    0.151401
  18 H :    0.126453
  19 H :    0.136089
Sum of atomic charges:   -0.0000000

LOEWDIN ATOMIC CHARGES
----------------------
   0 C :   -0.345807
   1 O :    0.176426
   2 C :   -0.280735
   3 C :   -0.158435
   4 C :   -0.204555
   5 N :    0.043638
   6 C :   -0.268587
   7 C :   -0.269725
   8 C :   -0.124973
   9 H :    0.103537
  10 H :    0.114143
  11 H :    0.104441
  12 H :    0.142201
  13 H :    0.135157
  14 H :    0.135978
  15 H :    0.164415
  16 H :    0.133543
  17 H :    0.132621
  18 H :    0.128047
  19 H :    0.138671

  Mayer bond orders larger than 0.1
B(  0-C ,  1-O ) :   0.8977 B(  0-C ,  9-H ) :   0.9352 B(  0-C , 10-H ) :   0.9398
B(  0-C , 11-H ) :   0.9347 B(  1-O ,  2-C ) :   0.9941 B(  2-C ,  3-C ) :   0.8863
B(  2-C ,  8-C ) :   0.8890 B(  2-C , 12-H ) :   0.9295 B(  3-C ,  4-C ) :   0.8901
B(  3-C ,  8-C ) :   0.8153 B(  3-C , 13-H ) :   0.9172 B(  4-C ,  5-N ) :   0.9617
B(  4-C ,  6-C ) :   0.8695 B(  4-C , 14-H ) :   0.9143 B(  5-N ,  6-C ) :   0.9659
B(  5-N , 15-H ) :   0.8707 B(  6-C ,  7-C ) :   0.8806 B(  6-C ,  8-C ) :   0.9296
B(  7-C , 16-H ) :   0.9373 B(  7-C , 17-H ) :   0.9400 B(  7-C , 18-H ) :   0.9353
B(  8-C , 19-H ) :   0.9181

MP2 TOTAL ENERGY:     -402.386029051 Eh
FINAL SINGLE POINT ENERGY      -402.386029051128

DIPOLE MOMENT
-------------
                                X             Y             Z
Electronic contribution:      0.66460      -2.15092       1.92237
Nuclear contribution   :     -0.54256       2.83862      -1.31063
                        -----------------------------------------
Total Dipole Moment    :      0.12204       0.68769       0.61174
                        -----------------------------------------
Magnitude (a.u.)       :      0.92846
Magnitude (Debye)      :      2.35997

                             ****ORCA TERMINATED NORMALLY****
TOTAL RUN TIME: 0 days 0 hours 18 minutes 47 seconds 119 msec
