                         Program Version 3.0.3 - RELEASE   -
|  1> ! RI-MP2 RIJK def2-TZVP def2-TZVP/C def2-TZVP/JK TIGHTSCF
|  2> % maxcore 2000
|  3> % mp2 density relaxed end
|  4> *xyz 0 1
|  5>  C       -0.0164204845     1.3735399177     0.1692670555
|  6>  N        0.2631310829    -0.0522183577     0.1024602209
|  7>  C        0.6380323433    -0.5695114259    -0.9612973537
|  8>  O        0.8591499187     0.0038616516    -2.2022840237
|  9>  N        1.2770828526    -0.9905232668    -3.0970714618
| 10>  C        1.2905505223    -2.0664007487    -2.3971059384
| 11>  O        0.9224680793    -1.9143275485    -1.1032220524
| 12>  C        1.6645949917    -3.4282395942    -2.8682196225
| 13>  O        2.0044727720    -3.6660842903    -3.9948611336
| 14>  H        0.6246266516     1.8245388704     0.9334496134
| 15>  H        0.1341211801     1.9074133659    -0.7756200207
| 16>  H       -1.0525620855     1.5163434284     0.4922318487
| 17>  H        1.5964352056    -4.1956759218    -2.0728415617
| 18> *
| 19>
| 20>                          ****END OF INPUT****

CARTESIAN COORDINATES (ANGSTROEM)
---------------------------------
  C     -0.016420    1.373540    0.169267
  N      0.263131   -0.052218    0.102460
  C      0.638032   -0.569511   -0.961297
  O      0.859150    0.003862   -2.202284
  N      1.277083   -0.990523   -3.097071
  C      1.290551   -2.066401   -2.397106
  O      0.922468   -1.914328   -1.103222
  C      1.664595   -3.428240   -2.868220
  O      2.004473   -3.666084   -3.994861
  H      0.624627    1.824539    0.933450
  H      0.134121    1.907413   -0.775620
  H     -1.052562    1.516343    0.492232
  H      1.596435   -4.195676   -2.072842

 Total Charge           Charge          ....    0
 Multiplicity           Mult            ....    1
 Number of Electrons    NEL             ....   66
 Basis Dimension        Dim             ....  303

ORBITAL ENERGIES
----------------

  NO   OCC          E(Eh)            E(eV)
   0   2.0000     -20.676771      -562.6436
   1   2.0000     -20.672689      -562.5325
   2   2.0000     -20.612375      -560.8912
   3   2.0000     -15.680855      -426.6978
   4   2.0000     -15.568269      -423.6341
   5   2.0000     -11.425262      -310.8972
   6   2.0000     -11.391633      -309.9821
   7   2.0000     -11.388948      -309.9090
   8   2.0000     -11.264338      -306.5182
   9   2.0000      -1.581852       -43.0444
  10   2.0000      -1.450735       -39.4765
  11   2.0000      -1.446233       -39.3540
  12   2.0000      -1.280378       -34.8408
  13   2.0000      -1.187631       -32.3171
  14   2.0000      -1.002987       -27.2927
  15   2.0000      -0.966328       -26.2951
  16   2.0000      -0.878389       -23.9022
  17   2.0000      -0.837036       -22.7769
  18   2.0000      -0.767946       -20.8969
  19   2.0000      -0.747218       -20.3328
  20   2.0000      -0.700747       -19.0683
  21   2.0000      -0.687203       -18.6997
  22   2.0000      -0.665189       -18.1007
  23   2.0000      -0.616697       -16.7812
  24   2.0000      -0.614821       -16.7301
  25   2.0000      -0.603429       -16.4201
  26   2.0000      -0.586577       -15.9616
  27   2.0000      -0.581526       -15.8241
  28   2.0000      -0.552497       -15.0342
  29   2.0000      -0.488875       -13.3030
  30   2.0000      -0.488547       -13.2940
  31   2.0000      -0.443214       -12.0605
  32   2.0000      -0.388125       -10.5614
  33   0.0000       0.034240         0.9317
  34   0.0000       0.141313         3.8453
  35   0.0000       0.153332         4.1724
  36   0.0000       0.174523         4.7490
  37   0.0000       0.181486         4.9385

MULLIKEN ATOMIC CHARGES
-----------------------
   0 C :   -0.263965
   1 N :   -0.234692
   2 C :    0.294857
   3 O :   -0.150185
   4 N :   -0.074268
   5 C :    0.262423
   6 O :   -0.217346
   7 C :    0.045831
   8 O :   -0.212257
   9 H :    0.144546
  10 H :    0.134952
  11 H :    0.144547
  12 H :    0.125557
Sum of atomic charges:   -0.0000000

LOEWDIN ATOMIC CHARGES
----------------------
   0 C :   -0.317019
   1 N :    0.079916
   2 C :   -0.458872
   3 O :    0.219349
   4 N :    0.097549
   5 C :   -0.375469
   6 O :    0.336130
   7 C :   -0.254725
   8 O :    0.186123
   9 H :    0.122599
  10 H :    0.112043
  11 H :    0.122597
  12 H :    0.129778

  Mayer bond orders larger than 0.1
B(  0-C ,  1-N ) :   0.8430 B(  0-C ,  9-H ) :   0.9332 B(  0-C , 10-H ) :   0.9297
B(  0-C , 11-H ) :   0.9332 B(  1-N ,  2-C ) :   1.9717 B(  2-C ,  3-O ) :   1.0350
B(  2-C ,  6-O ) :   0.9733 B(  3-O ,  4-N ) :   0.8287 B(  4-N ,  5-C ) :   1.7038
B(  5-C ,  6-O ) :   1.0471 B(  5-C ,  7-C ) :   0.7978 B(  7-C ,  8-O ) :   2.0274
B(  7-C , 12-H ) :   0.9646

MP2 TOTAL ENERGY:     -489.073737203 Eh
FINAL SINGLE POINT ENERGY      -489.073737202661

DIPOLE MOMENT
-------------
                                X             Y             Z
Electronic contribution:      2.29590      -5.58176      -4.82964
Nuclear contribution   :     -2.47199       5.62953       5.46594
                        -----------------------------------------
Total Dipole Moment    :     -0.17609       0.04777       0.63629
                        -----------------------------------------
Magnitude (a.u.)       :      0.66193
Magnitude (Debye)      :      1.68250

                             ****ORCA TERMINATED NORMALLY****
TOTAL RUN TIME: 0 days 0 hours 12 minutes 11 seconds 312 msec
