                         Program Version 3.0.3 - RELEASE   -
|  1> ! RI-MP2 RIJK def2-TZVP def2-TZVP/C def2-TZVP/JK TIGHTSCF
|  2> % maxcore 2000
|  3> % mp2 density relaxed end
|  4> *xyz 0 1
|  5>  C       -0.6235387983     1.3197777185     0.0482037596
|  6>  C        0.1973402268     0.0352648919    -0.0116678482
|  7>  C        1.0529697786    -0.0172591913    -1.2965386010
|  8>  O        1.8488106966    -1.2098416365    -1.4338641114
|  9>  C        2.1810661903    -1.8135272330    -0.2134639428
| 10>  C        3.6245943911    -1.8464409958     0.3707026253
| 11>  O        3.1169885797    -1.2294689153     1.6115800310
| 12>  C        1.9369593876    -0.9413320351     0.9765905893
| 13>  N        1.0936641210    -0.0336061082     1.1722649807
| 14>  H        0.0325883415     2.1957010979     0.0369743606
| 15>  H       -1.3158962517     1.3886104781    -0.7968839559
| 16>  H       -1.2002096233     1.3474065421     0.9759538469
| 17>  H       -0.4873063980    -0.8258783977    -0.0139523419
| 18>  H        0.4155667421     0.0125414411    -2.1850800592
| 19>  H        1.7085298112     0.8655602031    -1.3092296427
| 20>  H        1.7145211631    -2.8037497173    -0.1460922365
| 21>  H        4.0695860817    -2.8230079765     0.5666680502
| 22>  H        4.3263466101    -1.1752237560    -0.1294669241
| 23> *
| 24>
| 25>                          ****END OF INPUT****

CARTESIAN COORDINATES (ANGSTROEM)
---------------------------------
  C     -0.623539    1.319778    0.048204
  C      0.197340    0.035265   -0.011668
  C      1.052970   -0.017259   -1.296539
  O      1.848811   -1.209842   -1.433864
  C      2.181066   -1.813527   -0.213464
  C      3.624594   -1.846441    0.370703
  O      3.116989   -1.229469    1.611580
  C      1.936959   -0.941332    0.976591
  N      1.093664   -0.033606    1.172265
  H      0.032588    2.195701    0.036974
  H     -1.315896    1.388610   -0.796884
  H     -1.200210    1.347407    0.975954
  H     -0.487306   -0.825878   -0.013952
  H      0.415567    0.012541   -2.185080
  H      1.708530    0.865560   -1.309230
  H      1.714521   -2.803750   -0.146092
  H      4.069586   -2.823008    0.566668
  H      4.326347   -1.175224   -0.129467

 Total Charge           Charge          ....    0
 Multiplicity           Mult            ....    1
 Number of Electrons    NEL             ....   68
 Basis Dimension        Dim             ....  333

ORBITAL ENERGIES
----------------

  NO   OCC          E(Eh)            E(eV)
   0   2.0000     -20.596975      -560.4722
   1   2.0000     -20.577773      -559.9497
   2   2.0000     -15.549517      -423.1239
   3   2.0000     -11.336060      -308.4699
   4   2.0000     -11.310224      -307.7668
   5   2.0000     -11.309673      -307.7518
   6   2.0000     -11.288444      -307.1742
   7   2.0000     -11.271341      -306.7088
   8   2.0000     -11.219650      -305.3022
   9   2.0000      -1.444403       -39.3042
  10   2.0000      -1.390750       -37.8442
  11   2.0000      -1.235017       -33.6065
  12   2.0000      -1.057420       -28.7738
  13   2.0000      -1.021019       -27.7833
  14   2.0000      -0.930172       -25.3113
  15   2.0000      -0.896031       -24.3822
  16   2.0000      -0.830719       -22.6050
  17   2.0000      -0.738019       -20.0825
  18   2.0000      -0.713132       -19.4053
  19   2.0000      -0.699644       -19.0383
  20   2.0000      -0.685419       -18.6512
  21   2.0000      -0.636339       -17.3157
  22   2.0000      -0.611532       -16.6406
  23   2.0000      -0.605003       -16.4630
  24   2.0000      -0.561247       -15.2723
  25   2.0000      -0.553952       -15.0738
  26   2.0000      -0.544001       -14.8030
  27   2.0000      -0.531445       -14.4614
  28   2.0000      -0.522176       -14.2091
  29   2.0000      -0.513507       -13.9732
  30   2.0000      -0.500723       -13.6254
  31   2.0000      -0.432744       -11.7756
  32   2.0000      -0.403414       -10.9774
  33   2.0000      -0.392027       -10.6676
  34   0.0000       0.135124         3.6769
  35   0.0000       0.138545         3.7700
  36   0.0000       0.156889         4.2692
  37   0.0000       0.172579         4.6961
  38   0.0000       0.183070         4.9816

MULLIKEN ATOMIC CHARGES
-----------------------
   0 C :   -0.354347
   1 C :    0.009012
   2 C :   -0.054736
   3 O :   -0.308881
   4 C :    0.001609
   5 C :   -0.017941
   6 O :   -0.252085
   7 C :    0.099812
   8 N :   -0.196370
   9 H :    0.127077
  10 H :    0.123425
  11 H :    0.142403
  12 H :    0.096741
  13 H :    0.120905
  14 H :    0.103787
  15 H :    0.119247
  16 H :    0.124311
  17 H :    0.116029
Sum of atomic charges:   -0.0000000

LOEWDIN ATOMIC CHARGES
----------------------
   0 C :   -0.289262
   1 C :   -0.304700
   2 C :   -0.270786
   3 O :    0.170408
   4 C :   -0.282600
   5 C :   -0.195976
   6 O :    0.225681
   7 C :   -0.373976
   8 N :    0.131554
   9 H :    0.127076
  10 H :    0.123734
  11 H :    0.130186
  12 H :    0.147098
  13 H :    0.132982
  14 H :    0.127756
  15 H :    0.149846
  16 H :    0.122470
  17 H :    0.128509

  Mayer bond orders larger than 0.1
B(  0-C ,  1-C ) :   0.9235 B(  0-C ,  9-H ) :   0.9297 B(  0-C , 10-H ) :   0.9357
B(  0-C , 11-H ) :   0.9346 B(  1-C ,  2-C ) :   0.9297 B(  1-C ,  8-N ) :   0.8639
B(  1-C , 12-H ) :   0.9217 B(  2-C ,  3-O ) :   0.9155 B(  2-C , 13-H ) :   0.9194
B(  2-C , 14-H ) :   0.9207 B(  3-O ,  4-C ) :   0.9854 B(  4-C ,  5-C ) :   0.9259
B(  4-C ,  7-C ) :   0.9522 B(  4-C , 15-H ) :   0.9181 B(  5-C ,  6-O ) :   0.8860
B(  5-C , 16-H ) :   0.9188 B(  5-C , 17-H ) :   0.8960 B(  6-O ,  7-C ) :   1.0973
B(  7-C ,  8-N ) :   1.8903

MP2 TOTAL ENERGY:     -438.342303797 Eh
FINAL SINGLE POINT ENERGY      -438.342303797036

DIPOLE MOMENT
-------------
                                X             Y             Z
Electronic contribution:      4.77113      -4.06107       2.99418
Nuclear contribution   :     -4.87547       3.62819      -3.78828
                        -----------------------------------------
Total Dipole Moment    :     -0.10433      -0.43288      -0.79410
                        -----------------------------------------
Magnitude (a.u.)       :      0.91042
Magnitude (Debye)      :      2.31410

                             ****ORCA TERMINATED NORMALLY****
TOTAL RUN TIME: 0 days 0 hours 18 minutes 3 seconds 995 msec
