                         Program Version 3.0.3 - RELEASE   -
|  1> ! RI-MP2 RIJK def2-TZVP def2-TZVP/C def2-TZVP/JK TIGHTSCF
|  2> % maxcore 2000
|  3> % mp2 density relaxed end
|  4> *xyz 0 1
|  5>  O       -0.0172694727     1.3764502778     0.1124071123
|  6>  C        0.0297415818    -0.0370387250    -0.0200517278
|  7>  C       -1.4075776943    -0.5471379329     0.0550869050
|  8>  C       -1.5267793504    -2.0428749408    -0.0438293026
|  9>  C       -2.3961206183    -2.8571342039     0.8319475749
| 10>  N       -0.9278940506    -2.9607637853     0.9979066062
| 11>  C       -0.3309716235    -3.7695704979    -0.1389426492
| 12>  C       -1.2540458227    -4.3025634377    -1.1970998470
| 13>  C       -0.8777441672    -2.8449409380    -1.2001844247
| 14>  H        0.8857263045     1.7061503173     0.1256807912
| 15>  H        0.4916211438    -0.3274761754    -0.9769690106
| 16>  H        0.6168104971    -0.5021675771     0.7850677153
| 17>  H       -1.8384617981    -0.2064449756     1.0023742065
| 18>  H       -1.9936930615    -0.0793682066    -0.7471626363
| 19>  H       -2.8554074737    -2.3426435357     1.6715231114
| 20>  H       -2.9763931071    -3.6969483566     0.4690195974
| 21>  H        0.6675943080    -4.1565438077     0.0190529606
| 22>  H       -0.7294886860    -4.8820120582    -1.9517166632
| 23>  H       -2.2600118742    -4.6614653144    -1.0126328784
| 24>  H       -0.3724979648    -2.3725322163    -2.0320741910
| 25> *
| 26>
| 27>                          ****END OF INPUT****

CARTESIAN COORDINATES (ANGSTROEM)
---------------------------------
  O     -0.017269    1.376450    0.112407
  C      0.029742   -0.037039   -0.020052
  C     -1.407578   -0.547138    0.055087
  C     -1.526779   -2.042875   -0.043829
  C     -2.396121   -2.857134    0.831948
  N     -0.927894   -2.960764    0.997907
  C     -0.330972   -3.769570   -0.138943
  C     -1.254046   -4.302563   -1.197100
  C     -0.877744   -2.844941   -1.200184
  H      0.885726    1.706150    0.125681
  H      0.491621   -0.327476   -0.976969
  H      0.616810   -0.502168    0.785068
  H     -1.838462   -0.206445    1.002374
  H     -1.993693   -0.079368   -0.747163
  H     -2.855407   -2.342644    1.671523
  H     -2.976393   -3.696948    0.469020
  H      0.667594   -4.156544    0.019053
  H     -0.729489   -4.882012   -1.951717
  H     -2.260012   -4.661465   -1.012633
  H     -0.372498   -2.372532   -2.032074

 Total Charge           Charge          ....    0
 Multiplicity           Mult            ....    1
 Number of Electrons    NEL             ....   68
 Basis Dimension        Dim             ....  345

ORBITAL ENERGIES
----------------

  NO   OCC          E(Eh)            E(eV)
   0   2.0000     -20.553506      -559.2893
   1   2.0000     -15.557031      -423.3283
   2   2.0000     -11.272524      -306.7410
   3   2.0000     -11.271710      -306.7188
   4   2.0000     -11.265700      -306.5553
   5   2.0000     -11.255933      -306.2895
   6   2.0000     -11.240257      -305.8629
   7   2.0000     -11.238982      -305.8283
   8   2.0000     -11.224114      -305.4237
   9   2.0000      -1.357373       -36.9360
  10   2.0000      -1.300620       -35.3917
  11   2.0000      -1.111864       -30.2554
  12   2.0000      -1.034636       -28.1539
  13   2.0000      -0.918043       -24.9812
  14   2.0000      -0.884565       -24.0702
  15   2.0000      -0.833474       -22.6800
  16   2.0000      -0.774953       -21.0875
  17   2.0000      -0.716886       -19.5075
  18   2.0000      -0.711894       -19.3716
  19   2.0000      -0.683616       -18.6021
  20   2.0000      -0.661340       -17.9960
  21   2.0000      -0.640050       -17.4167
  22   2.0000      -0.591683       -16.1005
  23   2.0000      -0.575287       -15.6543
  24   2.0000      -0.549076       -14.9411
  25   2.0000      -0.540994       -14.7212
  26   2.0000      -0.523098       -14.2342
  27   2.0000      -0.501878       -13.6568
  28   2.0000      -0.470526       -12.8037
  29   2.0000      -0.467945       -12.7334
  30   2.0000      -0.451420       -12.2838
  31   2.0000      -0.438382       -11.9290
  32   2.0000      -0.379269       -10.3204
  33   2.0000      -0.339050        -9.2260
  34   0.0000       0.138362         3.7650
  35   0.0000       0.154080         4.1927
  36   0.0000       0.159347         4.3361
  37   0.0000       0.167138         4.5480
  38   0.0000       0.177662         4.8344

MULLIKEN ATOMIC CHARGES
-----------------------
   0 O :   -0.464887
   1 C :   -0.091337
   2 C :   -0.196560
   3 C :    0.190345
   4 C :   -0.178778
   5 N :   -0.287026
   6 C :   -0.040767
   7 C :   -0.252332
   8 C :   -0.221412
   9 H :    0.315692
  10 H :    0.090438
  11 H :    0.114972
  12 H :    0.116027
  13 H :    0.118369
  14 H :    0.127649
  15 H :    0.116421
  16 H :    0.136580
  17 H :    0.132719
  18 H :    0.131160
  19 H :    0.142726
Sum of atomic charges:   -0.0000000

LOEWDIN ATOMIC CHARGES
----------------------
   0 O :   -0.051769
   1 C :   -0.341308
   2 C :   -0.228600
   3 C :   -0.228470
   4 C :   -0.218695
   5 N :    0.129758
   6 C :   -0.201938
   7 C :   -0.212579
   8 C :   -0.162235
   9 H :    0.171989
  10 H :    0.113127
  11 H :    0.121010
  12 H :    0.151661
  13 H :    0.149845
  14 H :    0.136196
  15 H :    0.124322
  16 H :    0.133452
  17 H :    0.147365
  18 H :    0.127698
  19 H :    0.139172

  Mayer bond orders larger than 0.1
B(  0-O ,  1-C ) :   1.0103 B(  0-O ,  9-H ) :   0.8490 B(  1-C ,  2-C ) :   0.9348
B(  1-C , 10-H ) :   0.9269 B(  1-C , 11-H ) :   0.9295 B(  2-C ,  3-C ) :   0.8766
B(  2-C , 12-H ) :   0.9225 B(  2-C , 13-H ) :   0.9259 B(  3-C ,  4-C ) :   0.9757
B(  3-C ,  5-N ) :   0.7391 B(  3-C ,  8-C ) :   0.8809 B(  4-C ,  5-N ) :   0.9434
B(  4-C , 14-H ) :   0.9092 B(  4-C , 15-H ) :   0.8998 B(  5-N ,  6-C ) :   0.8878
B(  6-C ,  7-C ) :   0.8995 B(  6-C ,  8-C ) :   0.8915 B(  6-C , 16-H ) :   0.9329
B(  7-C ,  8-C ) :   0.8856 B(  7-C , 17-H ) :   0.9243 B(  7-C , 18-H ) :   0.9081
B(  8-C , 19-H ) :   0.9257

MP2 TOTAL ENERGY:     -402.363090079 Eh
FINAL SINGLE POINT ENERGY      -402.363090078836

DIPOLE MOMENT
-------------
                                X             Y             Z
Electronic contribution:      0.35579       0.17815       1.26149
Nuclear contribution   :     -0.06624      -0.51449      -1.86000
                        -----------------------------------------
Total Dipole Moment    :      0.28955      -0.33634      -0.59852
                        -----------------------------------------
Magnitude (a.u.)       :      0.74511
Magnitude (Debye)      :      1.89392

                             ****ORCA TERMINATED NORMALLY****
TOTAL RUN TIME: 0 days 0 hours 18 minutes 34 seconds 270 msec
