                         Program Version 3.0.3 - RELEASE   -
|  1> ! RI-MP2 RIJK def2-TZVP def2-TZVP/C def2-TZVP/JK TIGHTSCF
|  2> % maxcore 2000
|  3> % mp2 density relaxed end
|  4> *xyz 0 1
|  5>  C        0.4429230435     0.4134076432    -0.6913644523
|  6>  O       -0.3243268594    -0.5354790604    -1.4367533709
|  7>  C       -1.6419984729    -0.7135783178    -1.1181825072
|  8>  N       -2.5416670011     0.1551950137    -0.9152576321
|  9>  C       -2.3429743982     1.5828511508    -1.1074720020
| 10>  C       -3.7232666494     2.2052147593    -1.3470955905
| 11>  O       -4.6048668348     1.8979753807    -0.2916031452
| 12>  C       -1.9749273302    -2.1104045563    -1.0677830388
| 13>  C       -2.2408286373    -3.2822194517    -1.0346565156
| 14>  H        1.4795613892     0.0778173886    -0.7580246610
| 15>  H        0.3650390674     1.4227807406    -1.1039679170
| 16>  H        0.1344427840     0.4263681206     0.3586733707
| 17>  H       -1.9151705830     2.0290762408    -0.2000987180
| 18>  H       -1.6716033817     1.8036904219    -1.9486886186
| 19>  H       -3.6375210893     3.2959976386    -1.3977027358
| 20>  H       -4.1111353967     1.8521525057    -2.3166301846
| 21>  H       -4.5182487107     0.9432027039    -0.1646115229
| 22>  H       -2.4858450596    -4.3154429623    -1.0022600784
| 23> *
| 24>
| 25>                          ****END OF INPUT****

CARTESIAN COORDINATES (ANGSTROEM)
---------------------------------
  C      0.442923    0.413408   -0.691364
  O     -0.324327   -0.535479   -1.436753
  C     -1.641998   -0.713578   -1.118183
  N     -2.541667    0.155195   -0.915258
  C     -2.342974    1.582851   -1.107472
  C     -3.723267    2.205215   -1.347096
  O     -4.604867    1.897975   -0.291603
  C     -1.974927   -2.110405   -1.067783
  C     -2.240829   -3.282219   -1.034657
  H      1.479561    0.077817   -0.758025
  H      0.365039    1.422781   -1.103968
  H      0.134443    0.426368    0.358673
  H     -1.915171    2.029076   -0.200099
  H     -1.671603    1.803690   -1.948689
  H     -3.637521    3.295998   -1.397703
  H     -4.111135    1.852153   -2.316630
  H     -4.518249    0.943203   -0.164612
  H     -2.485845   -4.315443   -1.002260

 Total Charge           Charge          ....    0
 Multiplicity           Mult            ....    1
 Number of Electrons    NEL             ....   68
 Basis Dimension        Dim             ....  333

ORBITAL ENERGIES
----------------

  NO   OCC          E(Eh)            E(eV)
   0   2.0000     -20.603009      -560.6364
   1   2.0000     -20.542134      -558.9799
   2   2.0000     -15.568673      -423.6451
   3   2.0000     -11.371920      -309.4457
   4   2.0000     -11.301362      -307.5257
   5   2.0000     -11.271186      -306.7046
   6   2.0000     -11.265317      -306.5448
   7   2.0000     -11.251883      -306.1793
   8   2.0000     -11.248048      -306.0749
   9   2.0000      -1.434090       -39.0236
  10   2.0000      -1.352939       -36.8154
  11   2.0000      -1.237594       -33.6767
  12   2.0000      -1.067114       -29.0376
  13   2.0000      -1.010910       -27.5083
  14   2.0000      -0.973654       -26.4945
  15   2.0000      -0.879490       -23.9321
  16   2.0000      -0.819739       -22.3062
  17   2.0000      -0.751267       -20.4430
  18   2.0000      -0.712693       -19.3934
  19   2.0000      -0.702134       -19.1060
  20   2.0000      -0.683242       -18.5920
  21   2.0000      -0.664961       -18.0945
  22   2.0000      -0.629899       -17.1404
  23   2.0000      -0.613301       -16.6888
  24   2.0000      -0.574549       -15.6343
  25   2.0000      -0.573344       -15.6015
  26   2.0000      -0.550383       -14.9767
  27   2.0000      -0.514492       -14.0000
  28   2.0000      -0.488653       -13.2969
  29   2.0000      -0.454505       -12.3677
  30   2.0000      -0.450899       -12.2696
  31   2.0000      -0.426786       -11.6134
  32   2.0000      -0.408109       -11.1052
  33   2.0000      -0.379597       -10.3294
  34   0.0000       0.095287         2.5929
  35   0.0000       0.134000         3.6463
  36   0.0000       0.159082         4.3289
  37   0.0000       0.163858         4.4588
  38   0.0000       0.171680         4.6716

MULLIKEN ATOMIC CHARGES
-----------------------
   0 C :   -0.224479
   1 O :   -0.280010
   2 C :    0.003485
   3 N :   -0.275084
   4 C :   -0.169577
   5 C :    0.027081
   6 O :   -0.489093
   7 C :    0.057327
   8 C :   -0.060173
   9 H :    0.158911
  10 H :    0.130097
  11 H :    0.144531
  12 H :    0.126931
  13 H :    0.121932
  14 H :    0.104878
  15 H :    0.090918
  16 H :    0.330815
  17 H :    0.201512
Sum of atomic charges:   -0.0000000

LOEWDIN ATOMIC CHARGES
----------------------
   0 C :   -0.315346
   1 O :    0.224299
   2 C :   -0.375076
   3 N :    0.124630
   4 C :   -0.309423
   5 C :   -0.355510
   6 O :   -0.047390
   7 C :   -0.054357
   8 C :   -0.051697
   9 H :    0.118771
  10 H :    0.106709
  11 H :    0.115002
  12 H :    0.137284
  13 H :    0.132382
  14 H :    0.125999
  15 H :    0.116526
  16 H :    0.176241
  17 H :    0.130955

  Mayer bond orders larger than 0.1
B(  0-C ,  1-O ) :   0.8518 B(  0-C ,  9-H ) :   0.9357 B(  0-C , 10-H ) :   0.9302
B(  0-C , 11-H ) :   0.9355 B(  1-O ,  2-C ) :   1.0868 B(  2-C ,  3-N ) :   1.8748
B(  2-C ,  7-C ) :   1.1591 B(  2-C ,  8-C ) :  -0.1496 B(  3-N ,  4-C ) :   0.8437
B(  4-C ,  5-C ) :   0.9637 B(  4-C , 12-H ) :   0.9086 B(  4-C , 13-H ) :   0.9172
B(  5-C ,  6-O ) :   0.9385 B(  5-C , 14-H ) :   0.9264 B(  5-C , 15-H ) :   0.9292
B(  6-O , 16-H ) :   0.8224 B(  7-C ,  8-C ) :   2.5850 B(  8-C , 17-H ) :   0.8844

MP2 TOTAL ENERGY:     -438.297418296 Eh
FINAL SINGLE POINT ENERGY      -438.297418296469

DIPOLE MOMENT
-------------
                                X             Y             Z
Electronic contribution:     -1.33019      -6.62491      -0.41350
Nuclear contribution   :      2.49290       6.51122       0.33557
                        -----------------------------------------
Total Dipole Moment    :      1.16271      -0.11368      -0.07793
                        -----------------------------------------
Magnitude (a.u.)       :      1.17085
Magnitude (Debye)      :      2.97607

                             ****ORCA TERMINATED NORMALLY****
TOTAL RUN TIME: 0 days 0 hours 15 minutes 50 seconds 627 msec
