                         Program Version 3.0.3 - RELEASE   -
|  1> ! RI-MP2 RIJK def2-TZVP def2-TZVP/C def2-TZVP/JK TIGHTSCF
|  2> % maxcore 2000
|  3> % mp2 density relaxed end
|  4> *xyz 0 1
|  5>  O       -0.0506783222     1.3761162768    -0.3347044402
|  6>  C       -0.0601130351     0.0286282083     0.1044743075
|  7>  C       -1.4357051639    -0.5704226661     0.0398143768
|  8>  O       -2.3518533968     0.1398468699     0.8651288377
|  9>  C       -3.3228862582    -0.8076990336     1.3309187505
| 10>  C       -3.2442273427    -1.9459137358     0.3170766832
| 11>  C       -3.4757185140    -1.3850114650    -1.1249870122
| 12>  C       -1.9668890894    -1.1764602232    -1.2456762361
| 13>  C       -1.7199592520    -2.0298952204     0.0089590885
| 14>  H       -0.7356785732     1.8286545070     0.1705497233
| 15>  H        0.6205602550    -0.5240554816    -0.5509797963
| 16>  H        0.3195795178    -0.0555546642     1.1350100461
| 17>  H       -3.0698990811    -1.1457904631     2.3475281585
| 18>  H       -4.3001808240    -0.3141294868     1.3548212136
| 19>  H       -3.7805347945    -2.8518420632     0.5959272288
| 20>  H       -3.8287425254    -2.1633635562    -1.8056791365
| 21>  H       -4.1199628608    -0.5037372043    -1.2155062079
| 22>  H       -1.3919094493    -1.1386337721    -2.1642877236
| 23>  H       -1.0300260000    -2.8380712264     0.2154802083
| 24> *
| 25>
| 26>                          ****END OF INPUT****

CARTESIAN COORDINATES (ANGSTROEM)
---------------------------------
  O     -0.050678    1.376116   -0.334704
  C     -0.060113    0.028628    0.104474
  C     -1.435705   -0.570423    0.039814
  O     -2.351853    0.139847    0.865129
  C     -3.322886   -0.807699    1.330919
  C     -3.244227   -1.945914    0.317077
  C     -3.475719   -1.385011   -1.124987
  C     -1.966889   -1.176460   -1.245676
  C     -1.719959   -2.029895    0.008959
  H     -0.735679    1.828655    0.170550
  H      0.620560   -0.524055   -0.550980
  H      0.319580   -0.055555    1.135010
  H     -3.069899   -1.145790    2.347528
  H     -4.300181   -0.314129    1.354821
  H     -3.780535   -2.851842    0.595927
  H     -3.828743   -2.163364   -1.805679
  H     -4.119963   -0.503737   -1.215506
  H     -1.391909   -1.138634   -2.164288
  H     -1.030026   -2.838071    0.215480

 Total Charge           Charge          ....    0
 Multiplicity           Mult            ....    1
 Number of Electrons    NEL             ....   68
 Basis Dimension        Dim             ....  339

ORBITAL ENERGIES
----------------

  NO   OCC          E(Eh)            E(eV)
   0   2.0000     -20.558519      -559.4257
   1   2.0000     -20.547979      -559.1389
   2   2.0000     -11.286017      -307.1081
   3   2.0000     -11.278564      -306.9053
   4   2.0000     -11.277022      -306.8634
   5   2.0000     -11.243980      -305.9642
   6   2.0000     -11.237644      -305.7918
   7   2.0000     -11.236934      -305.7725
   8   2.0000     -11.231323      -305.6198
   9   2.0000      -1.391988       -37.8779
  10   2.0000      -1.350648       -36.7530
  11   2.0000      -1.183658       -32.2090
  12   2.0000      -1.042604       -28.3707
  13   2.0000      -0.942840       -25.6560
  14   2.0000      -0.916587       -24.9416
  15   2.0000      -0.850947       -23.1555
  16   2.0000      -0.775118       -21.0920
  17   2.0000      -0.732069       -19.9206
  18   2.0000      -0.719836       -19.5877
  19   2.0000      -0.666633       -18.1400
  20   2.0000      -0.657273       -17.8853
  21   2.0000      -0.626964       -17.0605
  22   2.0000      -0.620934       -16.8965
  23   2.0000      -0.588802       -16.0221
  24   2.0000      -0.572433       -15.5767
  25   2.0000      -0.559217       -15.2171
  26   2.0000      -0.529145       -14.3988
  27   2.0000      -0.499531       -13.5929
  28   2.0000      -0.482358       -13.1256
  29   2.0000      -0.469728       -12.7820
  30   2.0000      -0.452921       -12.3246
  31   2.0000      -0.447945       -12.1892
  32   2.0000      -0.391867       -10.6632
  33   2.0000      -0.374860       -10.2005
  34   0.0000       0.141740         3.8570
  35   0.0000       0.159396         4.3374
  36   0.0000       0.161746         4.4013
  37   0.0000       0.168769         4.5924
  38   0.0000       0.185522         5.0483

MULLIKEN ATOMIC CHARGES
-----------------------
   0 O :   -0.470739
   1 C :   -0.022432
   2 C :    0.173350
   3 O :   -0.348541
   4 C :   -0.045797
   5 C :   -0.064373
   6 C :   -0.211394
   7 C :   -0.166548
   8 C :   -0.238925
   9 H :    0.327180
  10 H :    0.106526
  11 H :    0.102011
  12 H :    0.092960
  13 H :    0.114948
  14 H :    0.132499
  15 H :    0.123198
  16 H :    0.109848
  17 H :    0.138208
  18 H :    0.148020
Sum of atomic charges:    0.0000000

LOEWDIN ATOMIC CHARGES
----------------------
   0 O :   -0.042841
   1 C :   -0.301702
   2 C :   -0.306967
   3 O :    0.180414
   4 C :   -0.268330
   5 C :   -0.192717
   6 C :   -0.188901
   7 C :   -0.139088
   8 C :   -0.119774
   9 H :    0.179430
  10 H :    0.137549
  11 H :    0.124956
  12 H :    0.122332
  13 H :    0.127890
  14 H :    0.143761
  15 H :    0.138419
  16 H :    0.129662
  17 H :    0.139190
  18 H :    0.136720

  Mayer bond orders larger than 0.1
B(  0-O ,  1-C ) :   0.9422 B(  0-O ,  9-H ) :   0.8363 B(  1-C ,  2-C ) :   0.9473
B(  1-C , 10-H ) :   0.9202 B(  1-C , 11-H ) :   0.9237 B(  2-C ,  3-O ) :   0.9514
B(  2-C ,  7-C ) :   0.8575 B(  2-C ,  8-C ) :   0.8588 B(  3-O ,  4-C ) :   0.9396
B(  4-C ,  5-C ) :   0.9714 B(  4-C , 12-H ) :   0.9270 B(  4-C , 13-H ) :   0.9143
B(  5-C ,  6-C ) :   0.9265 B(  5-C ,  8-C ) :   0.8924 B(  5-C , 14-H ) :   0.9090
B(  6-C ,  7-C ) :   0.9290 B(  6-C , 15-H ) :   0.9246 B(  6-C , 16-H ) :   0.9071
B(  7-C ,  8-C ) :   0.8144 B(  7-C , 17-H ) :   0.9103 B(  8-C , 18-H ) :   0.8982

MP2 TOTAL ENERGY:     -422.290159090 Eh
FINAL SINGLE POINT ENERGY      -422.290159090250

DIPOLE MOMENT
-------------
                                X             Y             Z
Electronic contribution:      1.38329       2.15606       0.32124
Nuclear contribution   :     -1.92130      -3.09663      -0.04351
                        -----------------------------------------
Total Dipole Moment    :     -0.53802      -0.94057       0.27773
                        -----------------------------------------
Magnitude (a.u.)       :      1.11860
Magnitude (Debye)      :      2.84326

                             ****ORCA TERMINATED NORMALLY****
TOTAL RUN TIME: 0 days 0 hours 17 minutes 4 seconds 811 msec
