                         Program Version 3.0.3 - RELEASE   -
|  1> ! RI-MP2 RIJK def2-TZVP def2-TZVP/C def2-TZVP/JK TIGHTSCF
|  2> % maxcore 2000
|  3> % mp2 density relaxed end
|  4> *xyz 0 1
|  5>  O        0.0169888357     1.3654442842    -0.4436082178
|  6>  C        1.3536523893     1.5577357048     0.0607180861
|  7>  C        1.3487952758     0.1484316910     0.6718534570
|  8>  C       -0.0659857485     0.0270260669     0.1025166874
|  9>  C        2.4315696045    -0.9458052171     0.5703351473
| 10>  C        3.2485103473    -0.2307301722     1.6721568690
| 11>  C        1.7613542585    -0.2826030394     2.0945450575
| 12>  O        1.7066882259    -1.6928688850     1.6303907430
| 13>  H        2.0798632766     1.7303368399    -0.7447721853
| 14>  H        1.4119193881     2.3910332597     0.7736093891
| 15>  H       -0.8727427154    -0.0690174305     0.8391471365
| 16>  H       -0.2052064880    -0.7298080177    -0.6788399840
| 17>  H        2.7709240404    -1.5072074957    -0.3010849984
| 18>  H        3.9118919680    -0.8785342930     2.2457227548
| 19>  H        3.6897375464     0.7428327322     1.4425607862
| 20>  H        1.2961855154    -0.0478993882     3.0527930616
| 21> *
| 22>
| 23>                          ****END OF INPUT****

CARTESIAN COORDINATES (ANGSTROEM)
---------------------------------
  O      0.016989    1.365444   -0.443608
  C      1.353652    1.557736    0.060718
  C      1.348795    0.148432    0.671853
  C     -0.065986    0.027026    0.102517
  C      2.431570   -0.945805    0.570335
  C      3.248510   -0.230730    1.672157
  C      1.761354   -0.282603    2.094545
  O      1.706688   -1.692869    1.630391
  H      2.079863    1.730337   -0.744772
  H      1.411919    2.391033    0.773609
  H     -0.872743   -0.069017    0.839147
  H     -0.205206   -0.729808   -0.678840
  H      2.770924   -1.507207   -0.301085
  H      3.911892   -0.878534    2.245723
  H      3.689738    0.742833    1.442561
  H      1.296186   -0.047899    3.052793

 Total Charge           Charge          ....    0
 Multiplicity           Mult            ....    1
 Number of Electrons    NEL             ....   60
 Basis Dimension        Dim             ....  296

ORBITAL ENERGIES
----------------

  NO   OCC          E(Eh)            E(eV)
   0   2.0000     -20.557329      -559.3934
   1   2.0000     -20.552207      -559.2540
   2   2.0000     -11.308659      -307.7243
   3   2.0000     -11.308581      -307.7221
   4   2.0000     -11.286343      -307.1170
   5   2.0000     -11.279363      -306.9271
   6   2.0000     -11.257163      -306.3230
   7   2.0000     -11.247765      -306.0673
   8   2.0000      -1.405558       -38.2472
   9   2.0000      -1.378761       -37.5180
  10   2.0000      -1.090923       -29.6855
  11   2.0000      -0.980642       -26.6846
  12   2.0000      -0.940346       -25.5881
  13   2.0000      -0.895401       -24.3651
  14   2.0000      -0.841425       -22.8963
  15   2.0000      -0.724507       -19.7148
  16   2.0000      -0.712620       -19.3914
  17   2.0000      -0.674810       -18.3625
  18   2.0000      -0.667096       -18.1526
  19   2.0000      -0.623042       -16.9538
  20   2.0000      -0.571211       -15.5434
  21   2.0000      -0.568418       -15.4675
  22   2.0000      -0.551808       -15.0155
  23   2.0000      -0.543225       -14.7819
  24   2.0000      -0.485527       -13.2119
  25   2.0000      -0.478784       -13.0284
  26   2.0000      -0.468677       -12.7534
  27   2.0000      -0.456904       -12.4330
  28   2.0000      -0.413109       -11.2413
  29   2.0000      -0.411574       -11.1995
  30   0.0000       0.138773         3.7762
  31   0.0000       0.154505         4.2043
  32   0.0000       0.167878         4.5682
  33   0.0000       0.169215         4.6046
  34   0.0000       0.191457         5.2098

MULLIKEN ATOMIC CHARGES
-----------------------
   0 O :   -0.328991
   1 C :   -0.023395
   2 C :    0.021063
   3 C :   -0.031550
   4 C :   -0.050341
   5 C :   -0.159262
   6 C :   -0.050324
   7 O :   -0.310832
   8 H :    0.100178
   9 H :    0.100173
  10 H :    0.103373
  11 H :    0.103383
  12 H :    0.141064
  13 H :    0.126988
  14 H :    0.117410
  15 H :    0.141062
Sum of atomic charges:    0.0000000

LOEWDIN ATOMIC CHARGES
----------------------
   0 O :    0.112258
   1 C :   -0.237256
   2 C :   -0.214242
   3 C :   -0.222423
   4 C :   -0.192747
   5 C :   -0.193497
   6 C :   -0.192751
   7 O :    0.131939
   8 H :    0.120776
   9 H :    0.120776
  10 H :    0.123114
  11 H :    0.123115
  12 H :    0.127396
  13 H :    0.134921
  14 H :    0.131227
  15 H :    0.127395

  Mayer bond orders larger than 0.1
B(  0-O ,  1-C ) :   0.9704 B(  0-O ,  3-C ) :   0.9528 B(  1-C ,  2-C ) :   0.9713
B(  1-C ,  8-H ) :   0.9040 B(  1-C ,  9-H ) :   0.9040 B(  2-C ,  3-C ) :   0.9922
B(  2-C ,  4-C ) :   0.8981 B(  2-C ,  6-C ) :   0.8981 B(  3-C , 10-H ) :   0.9073
B(  3-C , 11-H ) :   0.9074 B(  4-C ,  5-C ) :   0.9195 B(  4-C ,  7-O ) :   0.9208
B(  4-C , 12-H ) :   0.8802 B(  5-C ,  6-C ) :   0.9195 B(  5-C , 13-H ) :   0.9157
B(  5-C , 14-H ) :   0.9220 B(  6-C ,  7-O ) :   0.9208 B(  6-C , 15-H ) :   0.8802

MP2 TOTAL ENERGY:     -382.999821806 Eh
FINAL SINGLE POINT ENERGY      -382.999821806492

DIPOLE MOMENT
-------------
                                X             Y             Z
Electronic contribution:     -1.56524      -1.26376      -0.13867
Nuclear contribution   :      2.29608       1.54631       0.33724
                        -----------------------------------------
Total Dipole Moment    :      0.73084       0.28254       0.19857
                        -----------------------------------------
Magnitude (a.u.)       :      0.80832
Magnitude (Debye)      :      2.05459

                             ****ORCA TERMINATED NORMALLY****
TOTAL RUN TIME: 0 days 0 hours 12 minutes 13 seconds 681 msec
