                         Program Version 3.0.3 - RELEASE   -
|  1> ! RI-MP2 RIJK def2-TZVP def2-TZVP/C def2-TZVP/JK TIGHTSCF
|  2> % maxcore 2000
|  3> % mp2 density relaxed end
|  4> *xyz 0 1
|  5>  N        0.0888263554     1.3275047561     0.1596618345
|  6>  C       -0.0564570332    -0.0263091955     0.0558167264
|  7>  N       -1.2017786590    -0.6047383953     0.0311884919
|  8>  C       -1.1769256386    -1.9875255212     0.0013301615
|  9>  C       -0.0425988398    -2.7245516047    -0.0165239870
| 10>  O        0.0264170949    -4.0809002959    -0.0486437886
| 11>  C        1.2452561948    -2.0484063188    -0.0047777731
| 12>  N        2.3746473287    -2.6160201075    -0.0288405349
| 13>  O        1.1476136923    -0.6486179751     0.0335136430
| 14>  H        0.9611665221     1.7154824821    -0.1614474636
| 15>  H       -0.7423499003     1.8566558338    -0.0500200217
| 16>  H       -2.1507962010    -2.4713991603    -0.0109895571
| 17>  H       -0.8701141674    -4.4344731768    -0.0507012117
| 18>  H        3.1278437911    -1.9282653609    -0.0114777195
| 19> *
| 20>
| 21>                          ****END OF INPUT****

CARTESIAN COORDINATES (ANGSTROEM)
---------------------------------
  N      0.088826    1.327505    0.159662
  C     -0.056457   -0.026309    0.055817
  N     -1.201779   -0.604738    0.031188
  C     -1.176926   -1.987526    0.001330
  C     -0.042599   -2.724552   -0.016524
  O      0.026417   -4.080900   -0.048644
  C      1.245256   -2.048406   -0.004778
  N      2.374647   -2.616020   -0.028841
  O      1.147614   -0.648618    0.033514
  H      0.961167    1.715482   -0.161447
  H     -0.742350    1.856656   -0.050020
  H     -2.150796   -2.471399   -0.010990
  H     -0.870114   -4.434473   -0.050701
  H      3.127844   -1.928265   -0.011478

 Total Charge           Charge          ....    0
 Multiplicity           Mult            ....    1
 Number of Electrons    NEL             ....   66
 Basis Dimension        Dim             ....  309

ORBITAL ENERGIES
----------------

  NO   OCC          E(Eh)            E(eV)
   0   2.0000     -20.643440      -561.7366
   1   2.0000     -20.589313      -560.2637
   2   2.0000     -15.600304      -424.5059
   3   2.0000     -15.555184      -423.2781
   4   2.0000     -15.542788      -422.9408
   5   2.0000     -11.402542      -310.2790
   6   2.0000     -11.359132      -309.0977
   7   2.0000     -11.303016      -307.5707
   8   2.0000     -11.282314      -307.0074
   9   2.0000      -1.488732       -40.5105
  10   2.0000      -1.408297       -38.3217
  11   2.0000      -1.284502       -34.9531
  12   2.0000      -1.220450       -33.2101
  13   2.0000      -1.202234       -32.7144
  14   2.0000      -1.036644       -28.2085
  15   2.0000      -0.909200       -24.7406
  16   2.0000      -0.893677       -24.3182
  17   2.0000      -0.782647       -21.2969
  18   2.0000      -0.750507       -20.4223
  19   2.0000      -0.734331       -19.9822
  20   2.0000      -0.694545       -18.8995
  21   2.0000      -0.684708       -18.6318
  22   2.0000      -0.663283       -18.0489
  23   2.0000      -0.631699       -17.1894
  24   2.0000      -0.591546       -16.0968
  25   2.0000      -0.583903       -15.8888
  26   2.0000      -0.570727       -15.5303
  27   2.0000      -0.535673       -14.5764
  28   2.0000      -0.462246       -12.5783
  29   2.0000      -0.455048       -12.3825
  30   2.0000      -0.447772       -12.1845
  31   2.0000      -0.435069       -11.8388
  32   2.0000      -0.303344        -8.2544
  33   0.0000       0.102205         2.7811
  34   0.0000       0.125223         3.4075
  35   0.0000       0.135941         3.6991
  36   0.0000       0.167388         4.5548
  37   0.0000       0.179125         4.8742

MULLIKEN ATOMIC CHARGES
-----------------------
   0 N :   -0.492892
   1 C :    0.378806
   2 N :   -0.323068
   3 C :   -0.102810
   4 C :    0.187443
   5 O :   -0.395039
   6 C :    0.111497
   7 N :   -0.342502
   8 O :   -0.236744
   9 H :    0.268435
  10 H :    0.274140
  11 H :    0.121143
  12 H :    0.327604
  13 H :    0.223985
Sum of atomic charges:   -0.0000000

LOEWDIN ATOMIC CHARGES
----------------------
   0 N :   -0.026803
   1 C :   -0.454804
   2 N :    0.089522
   3 C :   -0.222422
   4 C :   -0.284830
   5 O :    0.095104
   6 C :   -0.340349
   7 N :   -0.034160
   8 O :    0.315060
   9 H :    0.176851
  10 H :    0.182719
  11 H :    0.140644
  12 H :    0.194588
  13 H :    0.168880

  Mayer bond orders larger than 0.1
B(  0-N ,  1-C ) :   1.1444 B(  0-N ,  9-H ) :   0.8640 B(  0-N , 10-H ) :   0.8624
B(  1-C ,  2-N ) :   1.6674 B(  1-C ,  8-O ) :   1.0708 B(  2-N ,  3-C ) :   1.1226
B(  3-C ,  4-C ) :   1.5443 B(  3-C , 11-H ) :   0.9546 B(  4-C ,  5-O ) :   1.1392
B(  4-C ,  6-C ) :   1.0333 B(  5-O , 12-H ) :   0.8298 B(  6-C ,  7-N ) :   2.0628
B(  6-C ,  8-O ) :   0.9755 B(  7-N , 13-H ) :   0.8498

MP2 TOTAL ENERGY:     -469.282916993 Eh
FINAL SINGLE POINT ENERGY      -469.282916993257

DIPOLE MOMENT
-------------
                                X             Y             Z
Electronic contribution:      0.47365      -0.93229       0.06371
Nuclear contribution   :     -1.02723       2.02700      -0.34727
                        -----------------------------------------
Total Dipole Moment    :     -0.55359       1.09471      -0.28356
                        -----------------------------------------
Magnitude (a.u.)       :      1.25907
Magnitude (Debye)      :      3.20029

                             ****ORCA TERMINATED NORMALLY****
TOTAL RUN TIME: 0 days 0 hours 13 minutes 14 seconds 441 msec
