                         Program Version 3.0.3 - RELEASE   -
|  1> ! RI-MP2 RIJK def2-TZVP def2-TZVP/C def2-TZVP/JK TIGHTSCF
|  2> % maxcore 2000
|  3> % mp2 density relaxed end
|  4> *xyz 0 1
|  5>  C        0.4310957913     0.2340039129     1.0029947628
|  6>  O       -0.0614619142    -0.6548165149     0.0107912646
|  7>  C        0.7301797906    -0.7986481102    -1.1328967374
|  8>  C        2.0253595942    -1.5546672805    -0.9978278423
|  9>  C        0.8136952588    -2.2126778857    -1.6299532430
| 10>  C        0.6174472672     0.3232698882    -2.1774735753
| 11>  C       -0.8581737643     0.6376627043    -2.4942254513
| 12>  C        1.3590428982     1.5329447048    -1.8101132533
| 13>  C        1.9704568127     2.5340658664    -1.5439592087
| 14>  H        1.4708818452     0.0029583018     1.2699615155
| 15>  H        0.3806861047     1.2799331023     0.6823092131
| 16>  H       -0.2031676562     0.0951821592     1.8822801335
| 17>  H        2.8589516753    -1.2720412119    -1.6316422679
| 18>  H        2.3055062067    -1.8869873353    -0.0048193491
| 19>  H        0.2906666129    -2.9570852083    -1.0414772706
| 20>  H        0.8154175902    -2.3921090005    -2.6997692465
| 21>  H        1.0849934765    -0.0658107000    -3.0920002713
| 22>  H       -0.9312937328     1.4059866722    -3.2675975856
| 23>  H       -1.3644569974    -0.2665434749    -2.8444254346
| 24>  H       -1.3746572438     0.9908939482    -1.5995930337
| 25>  H        2.5134236841     3.4132616419    -1.2995855287
| 26> *
| 27>
| 28>                          ****END OF INPUT****

CARTESIAN COORDINATES (ANGSTROEM)
---------------------------------
  C      0.431096    0.234004    1.002995
  O     -0.061462   -0.654817    0.010791
  C      0.730180   -0.798648   -1.132897
  C      2.025360   -1.554667   -0.997828
  C      0.813695   -2.212678   -1.629953
  C      0.617447    0.323270   -2.177474
  C     -0.858174    0.637663   -2.494225
  C      1.359043    1.532945   -1.810113
  C      1.970457    2.534066   -1.543959
  H      1.470882    0.002958    1.269962
  H      0.380686    1.279933    0.682309
  H     -0.203168    0.095182    1.882280
  H      2.858952   -1.272041   -1.631642
  H      2.305506   -1.886987   -0.004819
  H      0.290667   -2.957085   -1.041477
  H      0.815418   -2.392109   -2.699769
  H      1.084993   -0.065811   -3.092000
  H     -0.931294    1.405987   -3.267598
  H     -1.364457   -0.266543   -2.844425
  H     -1.374657    0.990894   -1.599593
  H      2.513424    3.413262   -1.299586

 Total Charge           Charge          ....    0
 Multiplicity           Mult            ....    1
 Number of Electrons    NEL             ....   68
 Basis Dimension        Dim             ....  351

ORBITAL ENERGIES
----------------

  NO   OCC          E(Eh)            E(eV)
   0   2.0000     -20.557352      -559.3940
   1   2.0000     -11.291049      -307.2451
   2   2.0000     -11.264358      -306.5188
   3   2.0000     -11.260956      -306.4262
   4   2.0000     -11.232222      -305.6443
   5   2.0000     -11.227171      -305.5069
   6   2.0000     -11.225433      -305.4596
   7   2.0000     -11.219447      -305.2967
   8   2.0000     -11.219440      -305.2965
   9   2.0000      -1.380344       -37.5611
  10   2.0000      -1.144430       -31.1415
  11   2.0000      -1.074214       -29.2308
  12   2.0000      -0.996141       -27.1064
  13   2.0000      -0.931362       -25.3437
  14   2.0000      -0.884381       -24.0652
  15   2.0000      -0.830190       -22.5906
  16   2.0000      -0.773543       -21.0492
  17   2.0000      -0.721408       -19.6305
  18   2.0000      -0.681656       -18.5488
  19   2.0000      -0.673235       -18.3197
  20   2.0000      -0.636932       -17.3318
  21   2.0000      -0.622139       -16.9293
  22   2.0000      -0.593095       -16.1389
  23   2.0000      -0.591007       -16.0821
  24   2.0000      -0.553683       -15.0665
  25   2.0000      -0.532214       -14.4823
  26   2.0000      -0.518074       -14.0975
  27   2.0000      -0.517068       -14.0701
  28   2.0000      -0.491344       -13.3702
  29   2.0000      -0.463968       -12.6252
  30   2.0000      -0.423449       -11.5226
  31   2.0000      -0.398220       -10.8361
  32   2.0000      -0.384948       -10.4750
  33   2.0000      -0.375356       -10.2139
  34   0.0000       0.133892         3.6434
  35   0.0000       0.152455         4.1485
  36   0.0000       0.163982         4.4622
  37   0.0000       0.167557         4.5595
  38   0.0000       0.179415         4.8821

MULLIKEN ATOMIC CHARGES
-----------------------
   0 C :   -0.218419
   1 O :   -0.322985
   2 C :    0.233608
   3 C :   -0.295972
   4 C :   -0.268482
   5 C :   -0.159327
   6 C :   -0.389226
   7 C :   -0.060163
   8 C :   -0.154075
   9 H :    0.112603
  10 H :    0.134434
  11 H :    0.137802
  12 H :    0.132600
  13 H :    0.138476
  14 H :    0.133875
  15 H :    0.128143
  16 H :    0.112157
  17 H :    0.140110
  18 H :    0.136536
  19 H :    0.140198
  20 H :    0.188107
Sum of atomic charges:   -0.0000000

LOEWDIN ATOMIC CHARGES
----------------------
   0 C :   -0.336566
   1 O :    0.194543
   2 C :   -0.325903
   3 C :   -0.206474
   4 C :   -0.200696
   5 C :   -0.231416
   6 C :   -0.262043
   7 C :   -0.086168
   8 C :   -0.106163
   9 H :    0.105479
  10 H :    0.108602
  11 H :    0.111747
  12 H :    0.136295
  13 H :    0.137752
  14 H :    0.139027
  15 H :    0.132760
  16 H :    0.178928
  17 H :    0.126415
  18 H :    0.127900
  19 H :    0.130083
  20 H :    0.125899

  Mayer bond orders larger than 0.1
B(  0-C ,  1-O ) :   0.8868 B(  0-C ,  9-H ) :   0.9348 B(  0-C , 10-H ) :   0.9339
B(  0-C , 11-H ) :   0.9375 B(  1-O ,  2-C ) :   0.9563 B(  2-C ,  3-C ) :   0.8872
B(  2-C ,  4-C ) :   0.8626 B(  2-C ,  5-C ) :   0.8840 B(  3-C ,  4-C ) :   0.9312
B(  3-C , 12-H ) :   0.9154 B(  3-C , 13-H ) :   0.9218 B(  4-C , 14-H ) :   0.9218
B(  4-C , 15-H ) :   0.9243 B(  5-C ,  6-C ) :   0.9070 B(  5-C ,  7-C ) :   1.1427
B(  5-C , 16-H ) :   0.9279 B(  6-C , 17-H ) :   0.9367 B(  6-C , 18-H ) :   0.9346
B(  6-C , 19-H ) :   0.9272 B(  7-C ,  8-C ) :   2.5886 B(  8-C , 20-H ) :   0.8954

MP2 TOTAL ENERGY:     -386.345495470 Eh
FINAL SINGLE POINT ENERGY      -386.345495470225

DIPOLE MOMENT
-------------
                                X             Y             Z
Electronic contribution:      1.27129       1.28243      -0.20836
Nuclear contribution   :     -0.99721      -1.21649       0.18786
                        -----------------------------------------
Total Dipole Moment    :      0.27408       0.06594      -0.02050
                        -----------------------------------------
Magnitude (a.u.)       :      0.28264
Magnitude (Debye)      :      0.71842

                             ****ORCA TERMINATED NORMALLY****
TOTAL RUN TIME: 0 days 0 hours 19 minutes 40 seconds 134 msec
