                         Program Version 3.0.3 - RELEASE   -
|  1> ! RI-MP2 RIJK def2-TZVP def2-TZVP/C def2-TZVP/JK TIGHTSCF
|  2> % maxcore 2000
|  3> % mp2 density relaxed end
|  4> *xyz 0 1
|  5>  C       -0.3812958574     1.4522142278    -0.4865989116
|  6>  O       -0.3740969807     0.0530365188    -0.6104738810
|  7>  C       -0.9115869675    -0.5984572583     0.5209819604
|  8>  C       -0.8677097758    -2.0785010807     0.3116480035
|  9>  C       -0.3848539946    -2.7244675835    -0.7948923899
| 10>  N       -0.5293720516    -4.0863040556    -0.5824769578
| 11>  C       -1.0947041441    -4.2922258787     0.6396635402
| 12>  O       -1.3145287434    -5.5770926420     1.0227238092
| 13>  C       -1.3247617905    -3.0764892626     1.2362943091
| 14>  H        0.0495244548     1.8654181369    -1.4020783949
| 15>  H       -1.4026059213     1.8485984849    -0.3646264117
| 16>  H        0.2194697963     1.7916466088     0.3730168993
| 17>  H       -0.3425481719    -0.3154334036     1.4259091552
| 18>  H       -1.9498023123    -0.2596837732     0.6945736465
| 19>  H        0.0429640767    -2.3368232625    -1.7021986511
| 20>  H       -0.2667678457    -4.8220076074    -1.2140445871
| 21>  H       -1.7133915714    -5.5649144717     1.8975862133
| 22>  H       -1.7635041897    -2.9144573774     2.2093382584
| 23> *
| 24>
| 25>                          ****END OF INPUT****

CARTESIAN COORDINATES (ANGSTROEM)
---------------------------------
  C     -0.381296    1.452214   -0.486599
  O     -0.374097    0.053037   -0.610474
  C     -0.911587   -0.598457    0.520982
  C     -0.867710   -2.078501    0.311648
  C     -0.384854   -2.724468   -0.794892
  N     -0.529372   -4.086304   -0.582477
  C     -1.094704   -4.292226    0.639664
  O     -1.314529   -5.577093    1.022724
  C     -1.324762   -3.076489    1.236294
  H      0.049524    1.865418   -1.402078
  H     -1.402606    1.848598   -0.364626
  H      0.219470    1.791647    0.373017
  H     -0.342548   -0.315433    1.425909
  H     -1.949802   -0.259684    0.694574
  H      0.042964   -2.336823   -1.702199
  H     -0.266768   -4.822008   -1.214045
  H     -1.713392   -5.564914    1.897586
  H     -1.763504   -2.914457    2.209338

 Total Charge           Charge          ....    0
 Multiplicity           Mult            ....    1
 Number of Electrons    NEL             ....   68
 Basis Dimension        Dim             ....  333

ORBITAL ENERGIES
----------------

  NO   OCC          E(Eh)            E(eV)
   0   2.0000     -20.597880      -560.4968
   1   2.0000     -20.551219      -559.2271
   2   2.0000     -15.593800      -424.3289
   3   2.0000     -11.318939      -308.0040
   4   2.0000     -11.274957      -306.8072
   5   2.0000     -11.267571      -306.6062
   6   2.0000     -11.235181      -305.7248
   7   2.0000     -11.212643      -305.1115
   8   2.0000     -11.199997      -304.7674
   9   2.0000      -1.419071       -38.6149
  10   2.0000      -1.373288       -37.3691
  11   2.0000      -1.277124       -34.7523
  12   2.0000      -1.061294       -28.8793
  13   2.0000      -0.983571       -26.7643
  14   2.0000      -0.940474       -25.5916
  15   2.0000      -0.880066       -23.9478
  16   2.0000      -0.804931       -21.9033
  17   2.0000      -0.756637       -20.5892
  18   2.0000      -0.744417       -20.2566
  19   2.0000      -0.667333       -18.1591
  20   2.0000      -0.660689       -17.9783
  21   2.0000      -0.638960       -17.3870
  22   2.0000      -0.620172       -16.8757
  23   2.0000      -0.617744       -16.8097
  24   2.0000      -0.601467       -16.3668
  25   2.0000      -0.565505       -15.3882
  26   2.0000      -0.555391       -15.1130
  27   2.0000      -0.532414       -14.4877
  28   2.0000      -0.516540       -14.0558
  29   2.0000      -0.503855       -13.7106
  30   2.0000      -0.478746       -13.0273
  31   2.0000      -0.423713       -11.5298
  32   2.0000      -0.340333        -9.2609
  33   2.0000      -0.277313        -7.5461
  34   0.0000       0.132813         3.6140
  35   0.0000       0.148886         4.0514
  36   0.0000       0.153718         4.1829
  37   0.0000       0.178384         4.8541
  38   0.0000       0.192399         5.2354

MULLIKEN ATOMIC CHARGES
-----------------------
   0 C :   -0.218658
   1 O :   -0.298659
   2 C :   -0.073054
   3 C :    0.090107
   4 C :   -0.145969
   5 N :   -0.266224
   6 C :    0.276627
   7 O :   -0.439484
   8 C :   -0.351472
   9 H :    0.137101
  10 H :    0.109475
  11 H :    0.109483
  12 H :    0.098589
  13 H :    0.098599
  14 H :    0.153833
  15 H :    0.248333
  16 H :    0.342380
  17 H :    0.128994
Sum of atomic charges:    0.0000000

LOEWDIN ATOMIC CHARGES
----------------------
   0 C :   -0.363661
   1 O :    0.142940
   2 C :   -0.286430
   3 C :   -0.199496
   4 C :   -0.211079
   5 N :    0.190980
   6 C :   -0.369197
   7 O :    0.055549
   8 C :   -0.190926
   9 H :    0.112827
  10 H :    0.100844
  11 H :    0.100841
  12 H :    0.125020
  13 H :    0.125023
  14 H :    0.137083
  15 H :    0.193352
  16 H :    0.199284
  17 H :    0.137046

  Mayer bond orders larger than 0.1
B(  0-C ,  1-O ) :   0.9223 B(  0-C ,  9-H ) :   0.9405 B(  0-C , 10-H ) :   0.9364
B(  0-C , 11-H ) :   0.9364 B(  1-O ,  2-C ) :   0.9817 B(  2-C ,  3-C ) :   0.9229
B(  2-C , 12-H ) :   0.9224 B(  2-C , 13-H ) :   0.9224 B(  3-C ,  4-C ) :   1.5355
B(  3-C ,  8-C ) :   1.1706 B(  4-C ,  5-N ) :   1.0824 B(  4-C , 14-H ) :   0.8978
B(  5-N ,  6-C ) :   1.1493 B(  5-N , 15-H ) :   0.8717 B(  6-C ,  7-O ) :   1.1007
B(  6-C ,  8-C ) :   1.4895 B(  7-O , 16-H ) :   0.8313 B(  8-C , 17-H ) :   0.9078

MP2 TOTAL ENERGY:     -438.376724986 Eh
FINAL SINGLE POINT ENERGY      -438.376724985880

DIPOLE MOMENT
-------------
                                X             Y             Z
Electronic contribution:     -0.19497      -9.41417      -0.29365
Nuclear contribution   :      0.03791       9.34576       0.63411
                        -----------------------------------------
Total Dipole Moment    :     -0.15706      -0.06841       0.34046
                        -----------------------------------------
Magnitude (a.u.)       :      0.38113
Magnitude (Debye)      :      0.96876

                             ****ORCA TERMINATED NORMALLY****
TOTAL RUN TIME: 0 days 0 hours 15 minutes 15 seconds 308 msec
