                         Program Version 3.0.3 - RELEASE   -
|  1> ! RI-MP2 RIJK def2-TZVP def2-TZVP/C def2-TZVP/JK TIGHTSCF
|  2> % maxcore 2000
|  3> % mp2 density relaxed end
|  4> *xyz 0 1
|  5>  C        0.0298358623     1.5745086318     0.0771081985
|  6>  C       -0.1442566049     0.0556654201    -0.0372351277
|  7>  C        0.6709906601    -0.5500949869    -1.1728407085
|  8>  C        2.2313245821    -0.5416482818    -1.1501627778
|  9>  C        2.8420957123    -1.2048593067     0.1017576976
| 10>  N        2.5673129221    -2.5903073732    -0.4115151453
| 11>  C        1.1163395377    -2.9276082924    -0.2143496057
| 12>  C        0.6804049063    -2.0862579776    -1.4313687040
| 13>  C        2.2034380849    -1.9784342004    -1.7625072091
| 14>  H        1.0744562641     1.8406723409     0.2717527577
| 15>  H       -0.2712965641     2.0782307241    -0.8482499873
| 16>  H       -0.5743018258     1.9851221970     0.8918947796
| 17>  H        0.1272187784    -0.4128317677     0.9162673719
| 18>  H       -1.2043439646    -0.1832172427    -0.1971449626
| 19>  H        0.3702053353    -0.0738773180    -2.1156385845
| 20>  H        2.7419984202     0.3201671909    -1.5820973510
| 21>  H        3.9242276606    -1.0495695666     0.1669005466
| 22>  H        2.4046502515    -0.9828448719     1.0819103573
| 23>  H        0.9685352782    -4.0000069350    -0.3806564096
| 24>  H        0.7145954391    -2.6761801896     0.7736870520
| 25>  H       -0.0875926617    -2.4906773698    -2.0929153843
| 26>  H        2.7086400259    -2.3206823743    -2.6651271638
| 27> *
| 28>
| 29>                          ****END OF INPUT****

CARTESIAN COORDINATES (ANGSTROEM)
---------------------------------
  C      0.029836    1.574509    0.077108
  C     -0.144257    0.055665   -0.037235
  C      0.670991   -0.550095   -1.172841
  C      2.231325   -0.541648   -1.150163
  C      2.842096   -1.204859    0.101758
  N      2.567313   -2.590307   -0.411515
  C      1.116340   -2.927608   -0.214350
  C      0.680405   -2.086258   -1.431369
  C      2.203438   -1.978434   -1.762507
  H      1.074456    1.840672    0.271753
  H     -0.271297    2.078231   -0.848250
  H     -0.574302    1.985122    0.891895
  H      0.127219   -0.412832    0.916267
  H     -1.204344   -0.183217   -0.197145
  H      0.370205   -0.073877   -2.115639
  H      2.741998    0.320167   -1.582097
  H      3.924228   -1.049570    0.166901
  H      2.404650   -0.982845    1.081910
  H      0.968535   -4.000007   -0.380656
  H      0.714595   -2.676180    0.773687
  H     -0.087593   -2.490677   -2.092915
  H      2.708640   -2.320682   -2.665127

 Total Charge           Charge          ....    0
 Multiplicity           Mult            ....    1
 Number of Electrons    NEL             ....   68
 Basis Dimension        Dim             ....  357

ORBITAL ENERGIES
----------------

  NO   OCC          E(Eh)            E(eV)
   0   2.0000     -15.538271      -422.8179
   1   2.0000     -11.253917      -306.2346
   2   2.0000     -11.245220      -305.9980
   3   2.0000     -11.244949      -305.9906
   4   2.0000     -11.230035      -305.5848
   5   2.0000     -11.226681      -305.4935
   6   2.0000     -11.226624      -305.4920
   7   2.0000     -11.220369      -305.3218
   8   2.0000     -11.215623      -305.1926
   9   2.0000      -1.269092       -34.5338
  10   2.0000      -1.081859       -29.4389
  11   2.0000      -1.010893       -27.5078
  12   2.0000      -1.008073       -27.4311
  13   2.0000      -0.897104       -24.4115
  14   2.0000      -0.856630       -23.3101
  15   2.0000      -0.807584       -21.9755
  16   2.0000      -0.787697       -21.4343
  17   2.0000      -0.706096       -19.2139
  18   2.0000      -0.672248       -18.2928
  19   2.0000      -0.633788       -17.2463
  20   2.0000      -0.615162       -16.7394
  21   2.0000      -0.607701       -16.5364
  22   2.0000      -0.579452       -15.7677
  23   2.0000      -0.560423       -15.2499
  24   2.0000      -0.544143       -14.8069
  25   2.0000      -0.528108       -14.3705
  26   2.0000      -0.511686       -13.9237
  27   2.0000      -0.481956       -13.1147
  28   2.0000      -0.478227       -13.0132
  29   2.0000      -0.448513       -12.2047
  30   2.0000      -0.436161       -11.8685
  31   2.0000      -0.424388       -11.5482
  32   2.0000      -0.403048       -10.9675
  33   2.0000      -0.341114        -9.2822
  34   0.0000       0.133232         3.6254
  35   0.0000       0.154496         4.2040
  36   0.0000       0.158544         4.3142
  37   0.0000       0.167660         4.5623
  38   0.0000       0.187885         5.1126

MULLIKEN ATOMIC CHARGES
-----------------------
   0 C :   -0.402374
   1 C :   -0.217602
   2 C :   -0.126624
   3 C :   -0.064617
   4 C :   -0.196703
   5 N :   -0.197180
   6 C :   -0.199284
   7 C :   -0.021101
   8 C :   -0.113608
   9 H :    0.128984
  10 H :    0.124802
  11 H :    0.135858
  12 H :    0.100628
  13 H :    0.114527
  14 H :    0.097080
  15 H :    0.125501
  16 H :    0.120896
  17 H :    0.114028
  18 H :    0.120728
  19 H :    0.114627
  20 H :    0.121751
  21 H :    0.119684
Sum of atomic charges:   -0.0000000

LOEWDIN ATOMIC CHARGES
----------------------
   0 C :   -0.314931
   1 C :   -0.277025
   2 C :   -0.205184
   3 C :   -0.177597
   4 C :   -0.236089
   5 N :    0.082545
   6 C :   -0.236510
   7 C :   -0.175194
   8 C :   -0.140657
   9 H :    0.121812
  10 H :    0.121114
  11 H :    0.121002
  12 H :    0.133468
  13 H :    0.139716
  14 H :    0.159545
  15 H :    0.130499
  16 H :    0.130041
  17 H :    0.119753
  18 H :    0.130188
  19 H :    0.119308
  20 H :    0.130470
  21 H :    0.123728

  Mayer bond orders larger than 0.1
B(  0-C ,  1-C ) :   0.9205 B(  0-C ,  9-H ) :   0.9384 B(  0-C , 10-H ) :   0.9393
B(  0-C , 11-H ) :   0.9414 B(  1-C ,  2-C ) :   0.8940 B(  1-C , 12-H ) :   0.9308
B(  1-C , 13-H ) :   0.9335 B(  2-C ,  3-C ) :   0.9205 B(  2-C ,  7-C ) :   0.9135
B(  2-C , 14-H ) :   0.9048 B(  3-C ,  4-C ) :   0.8930 B(  3-C ,  8-C ) :   0.8923
B(  3-C , 15-H ) :   0.9112 B(  4-C ,  5-N ) :   0.9078 B(  4-C , 16-H ) :   0.9245
B(  4-C , 17-H ) :   0.9327 B(  5-N ,  6-C ) :   0.9075 B(  5-N ,  8-C ) :   0.9188
B(  6-C ,  7-C ) :   0.8989 B(  6-C , 18-H ) :   0.9243 B(  6-C , 19-H ) :   0.9319
B(  7-C ,  8-C ) :   0.8887 B(  7-C , 20-H ) :   0.9110 B(  8-C , 21-H ) :   0.8979

MP2 TOTAL ENERGY:     -366.488405234 Eh
FINAL SINGLE POINT ENERGY      -366.488405234373

DIPOLE MOMENT
-------------
                                X             Y             Z
Electronic contribution:      3.69640      -5.49954      -2.53843
Nuclear contribution   :     -4.19125       6.01193       2.37279
                        -----------------------------------------
Total Dipole Moment    :     -0.49484       0.51239      -0.16564
                        -----------------------------------------
Magnitude (a.u.)       :      0.73133
Magnitude (Debye)      :      1.85891

                             ****ORCA TERMINATED NORMALLY****
TOTAL RUN TIME: 0 days 0 hours 33 minutes 54 seconds 939 msec
