                         Program Version 3.0.3 - RELEASE   -
|  1> ! RI-MP2 RIJK def2-TZVP def2-TZVP/C def2-TZVP/JK TIGHTSCF
|  2> % maxcore 2000
|  3> % mp2 density relaxed end
|  4> *xyz 0 1
|  5>  C       -0.3901559032     1.4508752141     0.0788064885
|  6>  C       -0.0173563740    -0.0038457796    -0.0621493557
|  7>  N       -0.2710412691    -0.5867326428    -1.1889483025
|  8>  C        0.0234691118    -1.9071813611    -1.4668082899
|  9>  O        0.6295224289    -2.2870799881    -2.4415225853
| 10>  C       -0.5741594230    -2.8738080950    -0.4807825433
| 11>  N       -0.2430163048    -2.9117315061     0.7548339460
| 12>  C        0.5398022195    -1.9627162430     1.3689435958
| 13>  C        0.6178038055    -0.6380050967     1.0762927041
| 14>  H       -1.0747164547     1.5975232573     0.9213257614
| 15>  H        0.5040635505     2.0501791985     0.2863864267
| 16>  H       -0.8552805992     1.8105005857    -0.8387684687
| 17>  H       -1.2798500274    -3.6162071616    -0.8562918765
| 18>  H        1.0351881345    -2.3283380957     2.2649769992
| 19>  H        1.1017733747     0.0100854339     1.8018106702
| 20> *
| 21>
| 22>                          ****END OF INPUT****

CARTESIAN COORDINATES (ANGSTROEM)
---------------------------------
  C     -0.390156    1.450875    0.078806
  C     -0.017356   -0.003846   -0.062149
  N     -0.271041   -0.586733   -1.188948
  C      0.023469   -1.907181   -1.466808
  O      0.629522   -2.287080   -2.441523
  C     -0.574159   -2.873808   -0.480783
  N     -0.243016   -2.911732    0.754834
  C      0.539802   -1.962716    1.368944
  C      0.617804   -0.638005    1.076293
  H     -1.074716    1.597523    0.921326
  H      0.504064    2.050179    0.286386
  H     -0.855281    1.810501   -0.838768
  H     -1.279850   -3.616207   -0.856292
  H      1.035188   -2.328338    2.264977
  H      1.101773    0.010085    1.801811

 Total Charge           Charge          ....    0
 Multiplicity           Mult            ....    1
 Number of Electrons    NEL             ....   64
 Basis Dimension        Dim             ....  315

ORBITAL ENERGIES
----------------

  NO   OCC          E(Eh)            E(eV)
   0   2.0000     -20.552874      -559.2721
   1   2.0000     -15.601411      -424.5360
   2   2.0000     -15.580566      -423.9688
   3   2.0000     -11.368719      -309.3586
   4   2.0000     -11.331620      -308.3491
   5   2.0000     -11.323796      -308.1361
   6   2.0000     -11.311431      -307.7997
   7   2.0000     -11.261417      -306.4387
   8   2.0000     -11.247021      -306.0470
   9   2.0000      -1.408330       -38.3226
  10   2.0000      -1.294395       -35.2223
  11   2.0000      -1.250387       -34.0248
  12   2.0000      -1.092774       -29.7359
  13   2.0000      -1.020522       -27.7698
  14   2.0000      -0.950374       -25.8610
  15   2.0000      -0.892641       -24.2900
  16   2.0000      -0.795320       -21.6418
  17   2.0000      -0.769586       -20.9415
  18   2.0000      -0.712709       -19.3938
  19   2.0000      -0.669351       -18.2140
  20   2.0000      -0.649693       -17.6790
  21   2.0000      -0.626150       -17.0384
  22   2.0000      -0.610334       -16.6080
  23   2.0000      -0.597120       -16.2485
  24   2.0000      -0.567864       -15.4524
  25   2.0000      -0.547519       -14.8988
  26   2.0000      -0.528348       -14.3771
  27   2.0000      -0.496714       -13.5163
  28   2.0000      -0.449500       -12.2315
  29   2.0000      -0.447344       -12.1729
  30   2.0000      -0.405872       -11.0443
  31   2.0000      -0.368793       -10.0354
  32   0.0000       0.054185         1.4745
  33   0.0000       0.082076         2.2334
  34   0.0000       0.130294         3.5455
  35   0.0000       0.161642         4.3985
  36   0.0000       0.163558         4.4506

MULLIKEN ATOMIC CHARGES
-----------------------
   0 C :   -0.403126
   1 C :    0.166576
   2 N :   -0.168629
   3 C :    0.215695
   4 O :   -0.270865
   5 C :   -0.021833
   6 N :   -0.200536
   7 C :   -0.029885
   8 C :   -0.186599
   9 H :    0.147992
  10 H :    0.147729
  11 H :    0.159463
  12 H :    0.153633
  13 H :    0.144972
  14 H :    0.145413
Sum of atomic charges:    0.0000000

LOEWDIN ATOMIC CHARGES
----------------------
   0 C :   -0.258351
   1 C :   -0.234753
   2 N :    0.214537
   3 C :   -0.441197
   4 O :    0.157517
   5 C :   -0.142841
   6 N :    0.163155
   7 C :   -0.195618
   8 C :   -0.129801
   9 H :    0.136087
  10 H :    0.138988
  11 H :    0.136720
  12 H :    0.146670
  13 H :    0.149015
  14 H :    0.159871

  Mayer bond orders larger than 0.1
B(  0-C ,  1-C ) :   0.8923 B(  0-C ,  9-H ) :   0.9196 B(  0-C , 10-H ) :   0.9225
B(  0-C , 11-H ) :   0.9407 B(  1-C ,  2-N ) :   1.6950 B(  1-C ,  8-C ) :   1.0516
B(  2-N ,  3-C ) :   1.0590 B(  3-C ,  4-O ) :   1.9944 B(  3-C ,  5-C ) :   0.9249
B(  5-C ,  6-N ) :   1.6787 B(  5-C , 12-H ) :   0.9092 B(  6-N ,  7-C ) :   1.1444
B(  7-C ,  8-C ) :   1.5661 B(  7-C , 13-H ) :   0.9419 B(  8-C , 14-H ) :   0.9039

MP2 TOTAL ENERGY:     -416.112942243 Eh
FINAL SINGLE POINT ENERGY      -416.112942242937

DIPOLE MOMENT
-------------
                                X             Y             Z
Electronic contribution:      0.56345      -5.98233      -3.59358
Nuclear contribution   :     -0.74448       6.78615       4.95680
                        -----------------------------------------
Total Dipole Moment    :     -0.18102       0.80382       1.36322
                        -----------------------------------------
Magnitude (a.u.)       :      1.59288
Magnitude (Debye)      :      4.04877

                             ****ORCA TERMINATED NORMALLY****
TOTAL RUN TIME: 0 days 0 hours 15 minutes 42 seconds 948 msec
