                         Program Version 3.0.3 - RELEASE   -
|  1> ! RI-MP2 RIJK def2-TZVP def2-TZVP/C def2-TZVP/JK TIGHTSCF
|  2> % maxcore 2000
|  3> % mp2 density relaxed end
|  4> *xyz 0 1
|  5>  C        1.5480474647     1.0607620152     0.3894968795
|  6>  O        1.2469586669    -0.3160486489     0.1274983030
|  7>  C        0.4162933869    -0.5361023381    -0.9073356886
|  8>  O       -0.0827662093     0.3479395752    -1.5613926586
|  9>  C        0.2184533017    -2.0327108592    -1.1528129712
| 10>  C       -1.2601284628    -2.3403811262    -1.4382829388
| 11>  N        1.1815996791    -2.4330332971    -2.1893830720
| 12>  C        1.5338273770    -3.8412897854    -2.1350241261
| 13>  C        0.8560624541    -2.0016675549    -3.5429229201
| 14>  H        2.0454174810     1.5156692485    -0.4709058295
| 15>  H        0.6345470318     1.6215567709     0.6026406825
| 16>  H        2.2089894176     1.0605828156     1.2562232451
| 17>  H        0.5280358163    -2.5455126550    -0.2383754743
| 18>  H       -1.3938615795    -3.3958324139    -1.6917782144
| 19>  H       -1.8712914845    -2.1261265393    -0.5557991358
| 20>  H       -1.6345187414    -1.7261189405    -2.2597792961
| 21>  H        0.7064317300    -4.5224664058    -2.4098308233
| 22>  H        2.3582699366    -4.0329446994    -2.8298656099
| 23>  H        1.8733300945    -4.1055137679    -1.1287443044
| 24>  H        0.5826673514    -0.9450364637    -3.5441205126
| 25>  H        1.7388605721    -2.1308204272    -4.1782630392
| 26>  H        0.0292789860    -2.5722779729    -4.0028448852
| 27> *
| 28>
| 29>                          ****END OF INPUT****

CARTESIAN COORDINATES (ANGSTROEM)
---------------------------------
  C      1.548047    1.060762    0.389497
  O      1.246959   -0.316049    0.127498
  C      0.416293   -0.536102   -0.907336
  O     -0.082766    0.347940   -1.561393
  C      0.218453   -2.032711   -1.152813
  C     -1.260128   -2.340381   -1.438283
  N      1.181600   -2.433033   -2.189383
  C      1.533827   -3.841290   -2.135024
  C      0.856062   -2.001668   -3.542923
  H      2.045417    1.515669   -0.470906
  H      0.634547    1.621557    0.602641
  H      2.208989    1.060583    1.256223
  H      0.528036   -2.545513   -0.238375
  H     -1.393862   -3.395832   -1.691778
  H     -1.871291   -2.126127   -0.555799
  H     -1.634519   -1.726119   -2.259779
  H      0.706432   -4.522466   -2.409831
  H      2.358270   -4.032945   -2.829866
  H      1.873330   -4.105514   -1.128744
  H      0.582667   -0.945036   -3.544121
  H      1.738861   -2.130820   -4.178263
  H      0.029279   -2.572278   -4.002845

 Total Charge           Charge          ....    0
 Multiplicity           Mult            ....    1
 Number of Electrons    NEL             ....   72
 Basis Dimension        Dim             ....  357

ORBITAL ENERGIES
----------------

  NO   OCC          E(Eh)            E(eV)
   0   2.0000     -20.599928      -560.5525
   1   2.0000     -20.539160      -558.8990
   2   2.0000     -15.553071      -423.2206
   3   2.0000     -11.371426      -309.4322
   4   2.0000     -11.282282      -307.0065
   5   2.0000     -11.272251      -306.7336
   6   2.0000     -11.247137      -306.0502
   7   2.0000     -11.238081      -305.8037
   8   2.0000     -11.219420      -305.2959
   9   2.0000      -1.457648       -39.6646
  10   2.0000      -1.356079       -36.9008
  11   2.0000      -1.231663       -33.5153
  12   2.0000      -1.041859       -28.3504
  13   2.0000      -0.970950       -26.4209
  14   2.0000      -0.952273       -25.9127
  15   2.0000      -0.900176       -24.4950
  16   2.0000      -0.818975       -22.2854
  17   2.0000      -0.759694       -20.6723
  18   2.0000      -0.704384       -19.1673
  19   2.0000      -0.676661       -18.4129
  20   2.0000      -0.671285       -18.2666
  21   2.0000      -0.644122       -17.5274
  22   2.0000      -0.625004       -17.0072
  23   2.0000      -0.614059       -16.7094
  24   2.0000      -0.582738       -15.8571
  25   2.0000      -0.555882       -15.1263
  26   2.0000      -0.550005       -14.9664
  27   2.0000      -0.538122       -14.6430
  28   2.0000      -0.532084       -14.4787
  29   2.0000      -0.521986       -14.2040
  30   2.0000      -0.514886       -14.0108
  31   2.0000      -0.512652       -13.9500
  32   2.0000      -0.493576       -13.4309
  33   2.0000      -0.459440       -12.5020
  34   2.0000      -0.440635       -11.9903
  35   2.0000      -0.354932        -9.6582
  36   0.0000       0.133147         3.6231
  37   0.0000       0.158735         4.3194
  38   0.0000       0.166345         4.5265
  39   0.0000       0.177361         4.8262
  40   0.0000       0.181278         4.9328

MULLIKEN ATOMIC CHARGES
-----------------------
   0 C :   -0.223752
   1 O :   -0.247099
   2 C :    0.305670
   3 O :   -0.346349
   4 C :    0.051728
   5 C :   -0.443837
   6 N :   -0.173824
   7 C :   -0.322099
   8 C :   -0.346560
   9 H :    0.139787
  10 H :    0.139085
  11 H :    0.143900
  12 H :    0.108191
  13 H :    0.138110
  14 H :    0.136265
  15 H :    0.155305
  16 H :    0.106056
  17 H :    0.135435
  18 H :    0.133929
  19 H :    0.163916
  20 H :    0.134850
  21 H :    0.111292
Sum of atomic charges:   -0.0000000

LOEWDIN ATOMIC CHARGES
----------------------
   0 C :   -0.309641
   1 O :    0.235216
   2 C :   -0.455622
   3 O :    0.121052
   4 C :   -0.280752
   5 C :   -0.289459
   6 N :    0.061709
   7 C :   -0.328880
   8 C :   -0.324577
   9 H :    0.114268
  10 H :    0.113499
  11 H :    0.114311
  12 H :    0.157889
  13 H :    0.124496
  14 H :    0.128684
  15 H :    0.131374
  16 H :    0.100960
  17 H :    0.119534
  18 H :    0.118312
  19 H :    0.126281
  20 H :    0.117637
  21 H :    0.103708

  Mayer bond orders larger than 0.1
B(  0-C ,  1-O ) :   0.8412 B(  0-C ,  9-H ) :   0.9386 B(  0-C , 10-H ) :   0.9378
B(  0-C , 11-H ) :   0.9345 B(  1-O ,  2-C ) :   1.1550 B(  2-C ,  3-O ) :   1.8856
B(  2-C ,  4-C ) :   0.8944 B(  4-C ,  5-C ) :   0.9001 B(  4-C ,  6-N ) :   0.9217
B(  4-C , 12-H ) :   0.9293 B(  5-C , 13-H ) :   0.9394 B(  5-C , 14-H ) :   0.9334
B(  5-C , 15-H ) :   0.9243 B(  6-N ,  7-C ) :   0.9252 B(  6-N ,  8-C ) :   0.9098
B(  7-C , 16-H ) :   0.9272 B(  7-C , 17-H ) :   0.9379 B(  7-C , 18-H ) :   0.9381
B(  8-C , 19-H ) :   0.9270 B(  8-C , 20-H ) :   0.9368 B(  8-C , 21-H ) :   0.9286

MP2 TOTAL ENERGY:     -440.778292090 Eh
FINAL SINGLE POINT ENERGY      -440.778292090339

DIPOLE MOMENT
-------------
                                X             Y             Z
Electronic contribution:      0.56504       5.84124       3.65669
Nuclear contribution   :     -0.37640      -6.20890      -3.30266
                        -----------------------------------------
Total Dipole Moment    :      0.18864      -0.36766       0.35403
                        -----------------------------------------
Magnitude (a.u.)       :      0.54415
Magnitude (Debye)      :      1.38312

                             ****ORCA TERMINATED NORMALLY****
TOTAL RUN TIME: 0 days 0 hours 18 minutes 57 seconds 114 msec
