                         Program Version 3.0.3 - RELEASE   -
|  1> ! RI-MP2 RIJK def2-TZVP def2-TZVP/C def2-TZVP/JK TIGHTSCF
|  2> % maxcore 2000
|  3> % mp2 density relaxed end
|  4> *xyz 0 1
|  5>  N        0.2586427245     1.3999019767     0.3201495669
|  6>  C        0.0574696727     0.0119687198     0.1426710785
|  7>  C       -1.0411242386    -0.8169061769     0.2136321698
|  8>  C       -0.6226857206    -2.1791926026     0.0122215255
|  9>  C        0.7290789553    -2.1066219830    -0.1803507429
| 10>  O        1.7533001389    -2.9493131781    -0.4924772119
| 11>  C        2.9613799501    -2.1850679871    -0.3015182183
| 12>  C        2.5516288004    -0.6911766002    -0.4081379201
| 13>  N        1.1491875679    -0.8143993640    -0.0800195717
| 14>  H       -0.3420846441     1.7638398137     1.0505564398
| 15>  H        0.0602019390     1.9299728914    -0.5237337397
| 16>  H       -2.0513366997    -0.4902442477     0.4130198004
| 17>  H       -1.2373527862    -3.0635628416     0.0131504620
| 18>  H        3.3649738867    -2.4029690541     0.6948547349
| 19>  H        3.6834893839    -2.4933838190    -1.0590837777
| 20>  H        3.0919635848    -0.0586846866     0.2998177819
| 21>  H        2.6991032151    -0.2895373907    -1.4189487974
| 22> *
| 23>
| 24>                          ****END OF INPUT****

CARTESIAN COORDINATES (ANGSTROEM)
---------------------------------
  N      0.258643    1.399902    0.320150
  C      0.057470    0.011969    0.142671
  C     -1.041124   -0.816906    0.213632
  C     -0.622686   -2.179193    0.012222
  C      0.729079   -2.106622   -0.180351
  O      1.753300   -2.949313   -0.492477
  C      2.961380   -2.185068   -0.301518
  C      2.551629   -0.691177   -0.408138
  N      1.149188   -0.814399   -0.080020
  H     -0.342085    1.763840    1.050556
  H      0.060202    1.929973   -0.523734
  H     -2.051337   -0.490244    0.413020
  H     -1.237353   -3.063563    0.013150
  H      3.364974   -2.402969    0.694855
  H      3.683489   -2.493384   -1.059084
  H      3.091964   -0.058685    0.299818
  H      2.699103   -0.289537   -1.418949

 Total Charge           Charge          ....    0
 Multiplicity           Mult            ....    1
 Number of Electrons    NEL             ....   66
 Basis Dimension        Dim             ....  327

ORBITAL ENERGIES
----------------

  NO   OCC          E(Eh)            E(eV)
   0   2.0000     -20.587219      -560.2067
   1   2.0000     -15.591670      -424.2709
   2   2.0000     -15.558882      -423.3787
   3   2.0000     -11.301656      -307.5337
   4   2.0000     -11.300453      -307.5010
   5   2.0000     -11.283150      -307.0301
   6   2.0000     -11.275952      -306.8342
   7   2.0000     -11.204809      -304.8984
   8   2.0000     -11.196306      -304.6670
   9   2.0000      -1.429679       -38.9035
  10   2.0000      -1.290506       -35.1165
  11   2.0000      -1.181881       -32.1606
  12   2.0000      -1.090716       -29.6799
  13   2.0000      -0.982753       -26.7421
  14   2.0000      -0.941023       -25.6065
  15   2.0000      -0.862416       -23.4675
  16   2.0000      -0.795466       -21.6457
  17   2.0000      -0.744711       -20.2646
  18   2.0000      -0.709337       -19.3020
  19   2.0000      -0.684576       -18.6283
  20   2.0000      -0.665286       -18.1033
  21   2.0000      -0.632890       -17.2218
  22   2.0000      -0.600520       -16.3410
  23   2.0000      -0.592142       -16.1130
  24   2.0000      -0.583083       -15.8665
  25   2.0000      -0.556902       -15.1541
  26   2.0000      -0.549535       -14.9536
  27   2.0000      -0.526953       -14.3391
  28   2.0000      -0.513629       -13.9766
  29   2.0000      -0.464163       -12.6305
  30   2.0000      -0.426193       -11.5973
  31   2.0000      -0.336930        -9.1683
  32   2.0000      -0.269410        -7.3310
  33   0.0000       0.128755         3.5036
  34   0.0000       0.147525         4.0144
  35   0.0000       0.168411         4.5827
  36   0.0000       0.178707         4.8629
  37   0.0000       0.190295         5.1782

MULLIKEN ATOMIC CHARGES
-----------------------
   0 N :   -0.571861
   1 C :    0.066813
   2 C :   -0.184640
   3 C :   -0.278784
   4 C :    0.193774
   5 O :   -0.283008
   6 C :   -0.012275
   7 C :   -0.181681
   8 N :    0.002556
   9 H :    0.253220
  10 H :    0.249570
  11 H :    0.119439
  12 H :    0.127037
  13 H :    0.105584
  14 H :    0.128548
  15 H :    0.148821
  16 H :    0.116886
Sum of atomic charges:   -0.0000000

LOEWDIN ATOMIC CHARGES
----------------------
   0 N :   -0.123601
   1 C :   -0.326381
   2 C :   -0.191294
   3 C :   -0.188824
   4 C :   -0.317896
   5 O :    0.222001
   6 C :   -0.251287
   7 C :   -0.229005
   8 N :    0.274764
   9 H :    0.167371
  10 H :    0.163842
  11 H :    0.135698
  12 H :    0.138741
  13 H :    0.126192
  14 H :    0.128087
  15 H :    0.139846
  16 H :    0.131747

  Mayer bond orders larger than 0.1
B(  0-N ,  1-C ) :   1.0246 B(  0-N ,  9-H ) :   0.8883 B(  0-N , 10-H ) :   0.8783
B(  1-C ,  2-C ) :   1.5008 B(  1-C ,  8-N ) :   1.0821 B(  2-C ,  3-C ) :   1.1800
B(  2-C , 11-H ) :   0.9367 B(  3-C ,  4-C ) :   1.4735 B(  3-C , 12-H ) :   0.9450
B(  4-C ,  5-O ) :   1.0602 B(  4-C ,  8-N ) :   1.1010 B(  5-O ,  6-C ) :   0.8847
B(  6-C ,  7-C ) :   0.9447 B(  6-C , 13-H ) :   0.9210 B(  6-C , 14-H ) :   0.9286
B(  7-C ,  8-N ) :   0.8816 B(  7-C , 15-H ) :   0.9231 B(  7-C , 16-H ) :   0.9127

MP2 TOTAL ENERGY:     -417.318166092 Eh
FINAL SINGLE POINT ENERGY      -417.318166092267

DIPOLE MOMENT
-------------
                                X             Y             Z
Electronic contribution:     -1.27130      -2.85031      -0.29393
Nuclear contribution   :      1.88690       3.65301       0.18282
                        -----------------------------------------
Total Dipole Moment    :      0.61561       0.80270      -0.11111
                        -----------------------------------------
Magnitude (a.u.)       :      1.01767
Magnitude (Debye)      :      2.58670

                             ****ORCA TERMINATED NORMALLY****
TOTAL RUN TIME: 0 days 0 hours 17 minutes 23 seconds 645 msec
