                         Program Version 3.0.3 - RELEASE   -
|  1> ! RI-MP2 RIJK def2-TZVP def2-TZVP/C def2-TZVP/JK TIGHTSCF
|  2> % maxcore 2000
|  3> % mp2 density relaxed end
|  4> *xyz 0 1
|  5>  C       -0.0386891091     1.5386959805     0.0382500508
|  6>  C       -0.0473217712     0.0465970633    -0.0433002712
|  7>  C       -0.0719477867    -0.7323312859    -1.1368829349
|  8>  C        0.0239033319    -2.1770410249    -0.7183243840
|  9>  C        1.3427885367    -2.5534860997     0.0143773566
| 10>  C        1.3654129530    -1.6998179819     1.2312895496
| 11>  C        0.0579077189    -0.8622195571     1.1651725121
| 12>  C       -0.5401105692    -2.2234027299     0.7269769527
| 13>  N        0.6685422447    -3.0265460001     1.2661462155
| 14>  H        0.8874447426     1.9069168847     0.4984778674
| 15>  H       -0.1282947488     1.9969220105    -0.9505857370
| 16>  H       -0.8623224138     1.9085077533     0.6621263770
| 17>  H       -0.0818835951    -0.3851603447    -2.1637677955
| 18>  H       -0.3278044576    -2.9372030265    -1.4148709787
| 19>  H        2.2190703715    -3.0503435262    -0.3851985885
| 20>  H        2.2583463829    -1.5085181991     1.8146610147
| 21>  H       -0.2600560063    -0.4608496613     2.1278049751
| 22>  H       -1.5587946245    -2.5305863250     0.9602587182
| 23> *
| 24>
| 25>                          ****END OF INPUT****

CARTESIAN COORDINATES (ANGSTROEM)
---------------------------------
  C     -0.038689    1.538696    0.038250
  C     -0.047322    0.046597   -0.043300
  C     -0.071948   -0.732331   -1.136883
  C      0.023903   -2.177041   -0.718324
  C      1.342789   -2.553486    0.014377
  C      1.365413   -1.699818    1.231290
  C      0.057908   -0.862220    1.165173
  C     -0.540111   -2.223403    0.726977
  N      0.668542   -3.026546    1.266146
  H      0.887445    1.906917    0.498478
  H     -0.128295    1.996922   -0.950586
  H     -0.862322    1.908508    0.662126
  H     -0.081884   -0.385160   -2.163768
  H     -0.327804   -2.937203   -1.414871
  H      2.219070   -3.050344   -0.385199
  H      2.258346   -1.508518    1.814661
  H     -0.260056   -0.460850    2.127805
  H     -1.558795   -2.530586    0.960259

 Total Charge           Charge          ....    0
 Multiplicity           Mult            ....    1
 Number of Electrons    NEL             ....   64
 Basis Dimension        Dim             ....  333

ORBITAL ENERGIES
----------------

  NO   OCC          E(Eh)            E(eV)
   0   2.0000     -15.554673      -423.2642
   1   2.0000     -11.264072      -306.5110
   2   2.0000     -11.260354      -306.4098
   3   2.0000     -11.258921      -306.3708
   4   2.0000     -11.240324      -305.8648
   5   2.0000     -11.239529      -305.8431
   6   2.0000     -11.236302      -305.7553
   7   2.0000     -11.228256      -305.5364
   8   2.0000     -11.220309      -305.3201
   9   2.0000      -1.319128       -35.8953
  10   2.0000      -1.118299       -30.4305
  11   2.0000      -1.005957       -27.3735
  12   2.0000      -0.974789       -26.5254
  13   2.0000      -0.925228       -25.1767
  14   2.0000      -0.878324       -23.9004
  15   2.0000      -0.786622       -21.4051
  16   2.0000      -0.726447       -19.7676
  17   2.0000      -0.716934       -19.5088
  18   2.0000      -0.691569       -18.8186
  19   2.0000      -0.636017       -17.3069
  20   2.0000      -0.595120       -16.1940
  21   2.0000      -0.584216       -15.8973
  22   2.0000      -0.565524       -15.3887
  23   2.0000      -0.557975       -15.1833
  24   2.0000      -0.524300       -14.2669
  25   2.0000      -0.516141       -14.0449
  26   2.0000      -0.512237       -13.9387
  27   2.0000      -0.455867       -12.4048
  28   2.0000      -0.428030       -11.6473
  29   2.0000      -0.394047       -10.7226
  30   2.0000      -0.376100       -10.2342
  31   2.0000      -0.336293        -9.1510
  32   0.0000       0.135672         3.6918
  33   0.0000       0.141840         3.8597
  34   0.0000       0.162305         4.4165
  35   0.0000       0.176340         4.7984
  36   0.0000       0.178717         4.8631

MULLIKEN ATOMIC CHARGES
-----------------------
   0 C :   -0.445464
   1 C :   -0.009279
   2 C :   -0.244128
   3 C :   -0.033756
   4 C :   -0.105673
   5 C :   -0.096104
   6 C :   -0.060943
   7 C :    0.011269
   8 N :   -0.237965
   9 H :    0.141383
  10 H :    0.139194
  11 H :    0.142488
  12 H :    0.125632
  13 H :    0.130712
  14 H :    0.135278
  15 H :    0.136566
  16 H :    0.131775
  17 H :    0.139014
Sum of atomic charges:   -0.0000000

LOEWDIN ATOMIC CHARGES
----------------------
   0 C :   -0.275075
   1 C :   -0.158519
   2 C :   -0.114304
   3 C :   -0.171923
   4 C :   -0.182199
   5 C :   -0.181435
   6 C :   -0.144563
   7 C :   -0.124587
   8 N :    0.124681
   9 H :    0.132593
  10 H :    0.130935
  11 H :    0.131731
  12 H :    0.136335
  13 H :    0.147709
  14 H :    0.134045
  15 H :    0.134147
  16 H :    0.149457
  17 H :    0.130970

  Mayer bond orders larger than 0.1
B(  0-C ,  1-C ) :   0.8778 B(  0-C ,  9-H ) :   0.9258 B(  0-C , 10-H ) :   0.9509
B(  0-C , 11-H ) :   0.9396 B(  1-C ,  2-C ) :   1.7307 B(  1-C ,  6-C ) :   0.9423
B(  2-C ,  3-C ) :   0.9617 B(  2-C , 12-H ) :   0.9251 B(  3-C ,  4-C ) :   0.8453
B(  3-C ,  7-C ) :   0.9386 B(  3-C , 13-H ) :   0.9192 B(  4-C ,  5-C ) :   0.9636
B(  4-C ,  8-N ) :   0.9062 B(  4-C , 14-H ) :   0.9124 B(  5-C ,  6-C ) :   0.8497
B(  5-C ,  8-N ) :   0.8991 B(  5-C , 15-H ) :   0.9102 B(  6-C ,  7-C ) :   0.9485
B(  6-C , 16-H ) :   0.9112 B(  7-C ,  8-N ) :   0.9561 B(  7-C , 17-H ) :   0.8966

MP2 TOTAL ENERGY:     -364.094903112 Eh
FINAL SINGLE POINT ENERGY      -364.094903112049

DIPOLE MOMENT
-------------
                                X             Y             Z
Electronic contribution:      0.54472      -5.23899       0.95952
Nuclear contribution   :     -0.58205       5.98060      -1.34265
                        -----------------------------------------
Total Dipole Moment    :     -0.03733       0.74161      -0.38313
                        -----------------------------------------
Magnitude (a.u.)       :      0.83556
Magnitude (Debye)      :      2.12384

                             ****ORCA TERMINATED NORMALLY****
TOTAL RUN TIME: 0 days 0 hours 19 minutes 10 seconds 922 msec
