                         Program Version 3.0.3 - RELEASE   -
|  1> ! RI-MP2 RIJK def2-TZVP def2-TZVP/C def2-TZVP/JK TIGHTSCF
|  2> % maxcore 2000
|  3> % mp2 density relaxed end
|  4> *xyz 0 1
|  5>  N        0.1295880768     1.4100461275     0.1321913694
|  6>  C        0.0049696622     0.0234961366     0.0379347159
|  7>  C       -1.0798143206    -0.8429453660     0.0088299826
|  8>  N       -2.4489692949    -0.8958469429    -0.0285176029
|  9>  N       -2.8525388746    -2.0685265584    -0.0625216851
| 10>  O       -1.6499456978    -3.0068716742    -0.0541979799
| 11>  C       -0.6052174925    -2.1793308976    -0.0081129653
| 12>  C        0.7626460412    -2.1609937397     0.0013038188
| 13>  N        1.0961327824    -0.7956048695     0.0391012732
| 14>  H        0.5846102019     1.8307687014    -0.6715321527
| 15>  H       -0.7721315180     1.8497782720     0.2640479432
| 16>  H        1.5214379716    -2.9208734202    -0.0303744700
| 17>  H        2.0358902124    -0.4495047789     0.1411146827
| 18> *
| 19>
| 20>                          ****END OF INPUT****

CARTESIAN COORDINATES (ANGSTROEM)
---------------------------------
  N      0.129588    1.410046    0.132191
  C      0.004970    0.023496    0.037935
  C     -1.079814   -0.842945    0.008830
  N     -2.448969   -0.895847   -0.028518
  N     -2.852539   -2.068527   -0.062522
  O     -1.649946   -3.006872   -0.054198
  C     -0.605217   -2.179331   -0.008113
  C      0.762646   -2.160994    0.001304
  N      1.096133   -0.795605    0.039101
  H      0.584610    1.830769   -0.671532
  H     -0.772132    1.849778    0.264048
  H      1.521438   -2.920873   -0.030374
  H      2.035890   -0.449505    0.141115

 Total Charge           Charge          ....    0
 Multiplicity           Mult            ....    1
 Number of Electrons    NEL             ....   64
 Basis Dimension        Dim             ....  303

ORBITAL ENERGIES
----------------

  NO   OCC          E(Eh)            E(eV)
   0   2.0000     -20.618767      -561.0652
   1   2.0000     -15.694502      -427.0691
   2   2.0000     -15.650967      -425.8845
   3   2.0000     -15.629267      -425.2940
   4   2.0000     -15.598835      -424.4659
   5   2.0000     -11.341263      -308.6115
   6   2.0000     -11.288875      -307.1859
   7   2.0000     -11.259090      -306.3754
   8   2.0000     -11.254292      -306.2448
   9   2.0000      -1.481626       -40.3171
  10   2.0000      -1.328227       -36.1429
  11   2.0000      -1.319160       -35.8962
  12   2.0000      -1.220679       -33.2164
  13   2.0000      -1.088456       -29.6184
  14   2.0000      -0.984842       -26.7989
  15   2.0000      -0.921248       -25.0684
  16   2.0000      -0.812588       -22.1116
  17   2.0000      -0.799491       -21.7552
  18   2.0000      -0.734949       -19.9990
  19   2.0000      -0.719993       -19.5920
  20   2.0000      -0.674345       -18.3499
  21   2.0000      -0.664768       -18.0893
  22   2.0000      -0.655091       -17.8259
  23   2.0000      -0.623789       -16.9742
  24   2.0000      -0.583459       -15.8767
  25   2.0000      -0.566758       -15.4223
  26   2.0000      -0.523925       -14.2567
  27   2.0000      -0.512343       -13.9416
  28   2.0000      -0.473148       -12.8750
  29   2.0000      -0.460498       -12.5308
  30   2.0000      -0.359348        -9.7783
  31   2.0000      -0.293943        -7.9986
  32   0.0000       0.094505         2.5716
  33   0.0000       0.110641         3.0107
  34   0.0000       0.136698         3.7198
  35   0.0000       0.174919         4.7598
  36   0.0000       0.183486         4.9929

MULLIKEN ATOMIC CHARGES
-----------------------
   0 N :   -0.520230
   1 C :    0.090006
   2 C :    0.016526
   3 N :   -0.084439
   4 N :    0.014921
   5 O :   -0.192203
   6 C :    0.112958
   7 C :   -0.166295
   8 N :   -0.215679
   9 H :    0.261931
  10 H :    0.268050
  11 H :    0.162615
  12 H :    0.251838
Sum of atomic charges:    0.0000000

LOEWDIN ATOMIC CHARGES
----------------------
   0 N :   -0.090250
   1 C :   -0.304489
   2 C :   -0.259633
   3 N :    0.062412
   4 N :    0.033466
   5 O :    0.201289
   6 C :   -0.317727
   7 C :   -0.222848
   8 N :    0.213153
   9 H :    0.171703
  10 H :    0.180720
  11 H :    0.135181
  12 H :    0.197025

  Mayer bond orders larger than 0.1
B(  0-N ,  1-C ) :   1.0942 B(  0-N ,  9-H ) :   0.8648 B(  0-N , 10-H ) :   0.8784
B(  1-C ,  2-C ) :   1.2817 B(  1-C ,  7-C ) :   0.1215 B(  1-C ,  8-N ) :   1.2431
B(  2-C ,  3-N ) :   1.2087 B(  2-C ,  6-C ) :   1.1256 B(  3-N ,  4-N ) :   1.5355
B(  4-N ,  5-O ) :   0.7476 B(  5-O ,  6-C ) :   1.1666 B(  6-C ,  7-C ) :   1.4576
B(  7-C ,  8-N ) :   1.0579 B(  7-C , 11-H ) :   0.9061 B(  8-N , 12-H ) :   0.8635

MP2 TOTAL ENERGY:     -448.155206948 Eh
FINAL SINGLE POINT ENERGY      -448.155206947980

DIPOLE MOMENT
-------------
                                X             Y             Z
Electronic contribution:     -4.05894      -3.37905      -0.01477
Nuclear contribution   :      5.89668       4.59048      -0.29213
                        -----------------------------------------
Total Dipole Moment    :      1.83774       1.21143      -0.30689
                        -----------------------------------------
Magnitude (a.u.)       :      2.22240
Magnitude (Debye)      :      5.64888

                             ****ORCA TERMINATED NORMALLY****
TOTAL RUN TIME: 0 days 0 hours 15 minutes 50 seconds 104 msec
