                         Program Version 3.0.3 - RELEASE   -
|  1> ! RI-MP2 RIJK def2-TZVP def2-TZVP/C def2-TZVP/JK TIGHTSCF
|  2> % maxcore 2000
|  3> % mp2 density relaxed end
|  4> *xyz 0 1
|  5>  C        0.0849321784     1.4565081785    -0.0116025590
|  6>  N        0.0621343109     0.0002751424     0.0028746674
|  7>  C        0.0328759445    -0.6133251387     1.3191459678
|  8>  C        0.0388189126    -0.6700419744    -1.1729470905
|  9>  O        0.0405582889    -0.1200696362    -2.2669995785
| 10>  C       -0.0065699034    -2.2313078480    -1.1697717662
| 11>  O       -0.2938963220    -2.6539256435    -2.4737827920
| 12>  C        1.2653904657    -2.7824877371    -0.6787723536
| 13>  C        2.3061013708    -3.2381957111    -0.2858681763
| 14>  H        0.9840042068     1.8278876100     0.4941995741
| 15>  H        0.0811849981     1.7949001220    -1.0457208932
| 16>  H       -0.7936361097     1.8562184316     0.5089519078
| 17>  H        0.1570218828    -1.6917640121     1.2600779891
| 18>  H        0.8557819171    -0.2202811576     1.9275302339
| 19>  H       -0.9096157325    -0.3853013893     1.8336118874
| 20>  H       -0.8179676725    -2.5633756453    -0.5063389866
| 21>  H       -0.1590782430    -1.8523892415    -3.0133454383
| 22>  H        3.2261933965    -3.6483468297     0.0510752067
| 23> *
| 24>
| 25>                          ****END OF INPUT****

CARTESIAN COORDINATES (ANGSTROEM)
---------------------------------
  C      0.084932    1.456508   -0.011603
  N      0.062134    0.000275    0.002875
  C      0.032876   -0.613325    1.319146
  C      0.038819   -0.670042   -1.172947
  O      0.040558   -0.120070   -2.267000
  C     -0.006570   -2.231308   -1.169772
  O     -0.293896   -2.653926   -2.473783
  C      1.265390   -2.782488   -0.678772
  C      2.306101   -3.238196   -0.285868
  H      0.984004    1.827888    0.494200
  H      0.081185    1.794900   -1.045721
  H     -0.793636    1.856218    0.508952
  H      0.157022   -1.691764    1.260078
  H      0.855782   -0.220281    1.927530
  H     -0.909616   -0.385301    1.833612
  H     -0.817968   -2.563376   -0.506339
  H     -0.159078   -1.852389   -3.013345
  H      3.226193   -3.648347    0.051075

 Total Charge           Charge          ....    0
 Multiplicity           Mult            ....    1
 Number of Electrons    NEL             ....   68
 Basis Dimension        Dim             ....  333

ORBITAL ENERGIES
----------------

  NO   OCC          E(Eh)            E(eV)
   0   2.0000     -20.557041      -559.3855
   1   2.0000     -20.535767      -558.8066
   2   2.0000     -15.606678      -424.6793
   3   2.0000     -11.368676      -309.3574
   4   2.0000     -11.329875      -308.3016
   5   2.0000     -11.280019      -306.9449
   6   2.0000     -11.266769      -306.5844
   7   2.0000     -11.246250      -306.0260
   8   2.0000     -11.239126      -305.8322
   9   2.0000      -1.414648       -38.4945
  10   2.0000      -1.362210       -37.0676
  11   2.0000      -1.265561       -34.4377
  12   2.0000      -1.067023       -29.0352
  13   2.0000      -0.995444       -27.0874
  14   2.0000      -0.982325       -26.7304
  15   2.0000      -0.928871       -25.2759
  16   2.0000      -0.777968       -21.1696
  17   2.0000      -0.741106       -20.1665
  18   2.0000      -0.737140       -20.0586
  19   2.0000      -0.689499       -18.7622
  20   2.0000      -0.685917       -18.6648
  21   2.0000      -0.659654       -17.9501
  22   2.0000      -0.635060       -17.2809
  23   2.0000      -0.614025       -16.7085
  24   2.0000      -0.581525       -15.8241
  25   2.0000      -0.572202       -15.5704
  26   2.0000      -0.547795       -14.9063
  27   2.0000      -0.547171       -14.8893
  28   2.0000      -0.525507       -14.2998
  29   2.0000      -0.480745       -13.0817
  30   2.0000      -0.459747       -12.5104
  31   2.0000      -0.408352       -11.1118
  32   2.0000      -0.396449       -10.7879
  33   2.0000      -0.390973       -10.6389
  34   0.0000       0.119387         3.2487
  35   0.0000       0.148984         4.0541
  36   0.0000       0.150513         4.0957
  37   0.0000       0.160759         4.3745
  38   0.0000       0.168714         4.5909

MULLIKEN ATOMIC CHARGES
-----------------------
   0 C :   -0.324808
   1 N :   -0.099923
   2 C :   -0.320129
   3 C :    0.269934
   4 O :   -0.416780
   5 C :   -0.097923
   6 O :   -0.461263
   7 C :   -0.000546
   8 C :   -0.146847
   9 H :    0.139857
  10 H :    0.187106
  11 H :    0.137779
  12 H :    0.161856
  13 H :    0.145025
  14 H :    0.146422
  15 H :    0.144741
  16 H :    0.342706
  17 H :    0.192793
Sum of atomic charges:    0.0000000

LOEWDIN ATOMIC CHARGES
----------------------
   0 C :   -0.278243
   1 N :    0.159323
   2 C :   -0.280006
   3 C :   -0.404717
   4 O :    0.069183
   5 C :   -0.326438
   6 O :    0.007733
   7 C :   -0.092227
   8 C :   -0.086350
   9 H :    0.120155
  10 H :    0.136523
  11 H :    0.120004
  12 H :    0.133977
  13 H :    0.124355
  14 H :    0.119982
  15 H :    0.161006
  16 H :    0.187172
  17 H :    0.128569

  Mayer bond orders larger than 0.1
B(  0-C ,  1-N ) :   0.8606 B(  0-C ,  9-H ) :   0.9319 B(  0-C , 10-H ) :   0.9227
B(  0-C , 11-H ) :   0.9319 B(  1-N ,  2-C ) :   0.8795 B(  1-N ,  3-C ) :   1.2454
B(  2-C , 12-H ) :   0.9229 B(  2-C , 13-H ) :   0.9311 B(  2-C , 14-H ) :   0.9309
B(  3-C ,  4-O ) :   1.7707 B(  3-C ,  5-C ) :   0.9205 B(  5-C ,  6-O ) :   1.1981
B(  5-C ,  7-C ) :   0.8794 B(  5-C , 15-H ) :   0.9783 B(  6-O ,  7-C ) :  -0.1025
B(  6-O , 16-H ) :   0.7856 B(  7-C ,  8-C ) :   2.6894 B(  8-C , 17-H ) :   0.9076

MP2 TOTAL ENERGY:     -438.342372559 Eh
FINAL SINGLE POINT ENERGY      -438.342372559119

DIPOLE MOMENT
-------------
                                X             Y             Z
Electronic contribution:      0.62907      -4.46503      -6.16877
Nuclear contribution   :     -0.48670       5.13681       7.90218
                        -----------------------------------------
Total Dipole Moment    :      0.14237       0.67179       1.73341
                        -----------------------------------------
Magnitude (a.u.)       :      1.86448
Magnitude (Debye)      :      4.73913

                             ****ORCA TERMINATED NORMALLY****
TOTAL RUN TIME: 0 days 0 hours 18 minutes 2 seconds 319 msec
