                         Program Version 3.0.3 - RELEASE   -
|  1> ! RI-MP2 RIJK def2-TZVP def2-TZVP/C def2-TZVP/JK TIGHTSCF
|  2> % maxcore 2000
|  3> % mp2 density relaxed end
|  4> *xyz 0 1
|  5>  C        0.2490028304     1.4740589134    -0.1561407192
|  6>  C        0.1935414946    -0.0361696785    -0.0107081926
|  7>  O        0.5493888205    -0.6104428439    -1.2680297696
|  8>  C        0.5120671184    -2.0250173687    -1.3013238970
|  9>  C        0.7538891388    -2.4850563737    -2.7328611327
| 10>  C        2.2874965663    -2.5298552197    -2.8034314768
| 11>  O        2.7245674340    -2.8441595636    -1.4672426291
| 12>  C        1.7478411751    -2.5820712021    -0.5623155985
| 13>  O        1.8989252322    -2.7306231065     0.6171013943
| 14>  H        1.2595946202     1.7985152961    -0.4199695554
| 15>  H       -0.4363483632     1.8139875210    -0.9378832887
| 16>  H       -0.0326121288     1.9531523163     0.7861237910
| 17>  H        0.8760923062    -0.3833852464     0.7747524693
| 18>  H       -0.8206530015    -0.3671113024     0.2654610869
| 19>  H       -0.4113419522    -2.4073869695    -0.8488629994
| 20>  H        0.3365583117    -3.4856708673    -2.8780912295
| 21>  H        0.3098986125    -1.8048074315    -3.4609967362
| 22>  H        2.6778461523    -3.3013883748    -3.4696008212
| 23>  H        2.7119908725    -1.5617604982    -3.0869650955
| 24> *
| 25>
| 26>                          ****END OF INPUT****

CARTESIAN COORDINATES (ANGSTROEM)
---------------------------------
  C      0.249003    1.474059   -0.156141
  C      0.193541   -0.036170   -0.010708
  O      0.549389   -0.610443   -1.268030
  C      0.512067   -2.025017   -1.301324
  C      0.753889   -2.485056   -2.732861
  C      2.287497   -2.529855   -2.803431
  O      2.724567   -2.844160   -1.467243
  C      1.747841   -2.582071   -0.562316
  O      1.898925   -2.730623    0.617101
  H      1.259595    1.798515   -0.419970
  H     -0.436348    1.813988   -0.937883
  H     -0.032612    1.953152    0.786124
  H      0.876092   -0.383385    0.774752
  H     -0.820653   -0.367111    0.265461
  H     -0.411342   -2.407387   -0.848863
  H      0.336558   -3.485671   -2.878091
  H      0.309899   -1.804807   -3.460997
  H      2.677846   -3.301388   -3.469601
  H      2.711991   -1.561760   -3.086965

 Total Charge           Charge          ....    0
 Multiplicity           Mult            ....    1
 Number of Electrons    NEL             ....   70
 Basis Dimension        Dim             ....  339

ORBITAL ENERGIES
----------------

  NO   OCC          E(Eh)            E(eV)
   0   2.0000     -20.602828      -560.6315
   1   2.0000     -20.575460      -559.8867
   2   2.0000     -20.544921      -559.0557
   3   2.0000     -11.377129      -309.5874
   4   2.0000     -11.310555      -307.7758
   5   2.0000     -11.302008      -307.5433
   6   2.0000     -11.280481      -306.9575
   7   2.0000     -11.250197      -306.1334
   8   2.0000     -11.219900      -305.3090
   9   2.0000      -1.461817       -39.7781
  10   2.0000      -1.391642       -37.8685
  11   2.0000      -1.369122       -37.2557
  12   2.0000      -1.089303       -29.6415
  13   2.0000      -1.019126       -27.7318
  14   2.0000      -0.970780       -26.4163
  15   2.0000      -0.851707       -23.1761
  16   2.0000      -0.847471       -23.0608
  17   2.0000      -0.786589       -21.4042
  18   2.0000      -0.715200       -19.4616
  19   2.0000      -0.707411       -19.2496
  20   2.0000      -0.670828       -18.2542
  21   2.0000      -0.659559       -17.9475
  22   2.0000      -0.638638       -17.3782
  23   2.0000      -0.616610       -16.7788
  24   2.0000      -0.583824       -15.8867
  25   2.0000      -0.581202       -15.8153
  26   2.0000      -0.553504       -15.0616
  27   2.0000      -0.543568       -14.7912
  28   2.0000      -0.522505       -14.2181
  29   2.0000      -0.519015       -14.1231
  30   2.0000      -0.504707       -13.7338
  31   2.0000      -0.497845       -13.5471
  32   2.0000      -0.467301       -12.7159
  33   2.0000      -0.454131       -12.3575
  34   2.0000      -0.413966       -11.2646
  35   0.0000       0.132285         3.5997
  36   0.0000       0.146023         3.9735
  37   0.0000       0.154279         4.1982
  38   0.0000       0.162288         4.4161
  39   0.0000       0.181676         4.9437

MULLIKEN ATOMIC CHARGES
-----------------------
   0 C :   -0.364345
   1 C :   -0.077307
   2 O :   -0.304148
   3 C :    0.065746
   4 C :   -0.230990
   5 C :   -0.048484
   6 O :   -0.217157
   7 C :    0.225023
   8 O :   -0.286282
   9 H :    0.132218
  10 H :    0.127190
  11 H :    0.127226
  12 H :    0.132108
  13 H :    0.093736
  14 H :    0.104320
  15 H :    0.132036
  16 H :    0.139334
  17 H :    0.128645
  18 H :    0.121128
Sum of atomic charges:    0.0000000

LOEWDIN ATOMIC CHARGES
----------------------
   0 C :   -0.316261
   1 C :   -0.334876
   2 O :    0.182907
   3 C :   -0.299366
   4 C :   -0.234855
   5 C :   -0.260468
   6 O :    0.258047
   7 C :   -0.449887
   8 O :    0.138444
   9 H :    0.124921
  10 H :    0.123135
  11 H :    0.126843
  12 H :    0.127003
  13 H :    0.119003
  14 H :    0.143804
  15 H :    0.146420
  16 H :    0.147070
  17 H :    0.127983
  18 H :    0.130135

  Mayer bond orders larger than 0.1
B(  0-C ,  1-C ) :   0.9479 B(  0-C ,  9-H ) :   0.9360 B(  0-C , 10-H ) :   0.9339
B(  0-C , 11-H ) :   0.9327 B(  1-C ,  2-O ) :   0.8864 B(  1-C , 12-H ) :   0.9228
B(  1-C , 13-H ) :   0.9269 B(  2-O ,  3-C ) :   0.9582 B(  3-C ,  4-C ) :   0.9056
B(  3-C ,  7-C ) :   0.8907 B(  3-C , 14-H ) :   0.9219 B(  4-C ,  5-C ) :   0.9565
B(  4-C , 15-H ) :   0.9240 B(  4-C , 16-H ) :   0.9207 B(  5-C ,  6-O ) :   0.8716
B(  5-C , 17-H ) :   0.9309 B(  5-C , 18-H ) :   0.9207 B(  6-O ,  7-C ) :   1.1313
B(  7-C ,  8-O ) :   2.0085

MP2 TOTAL ENERGY:     -459.463259984 Eh
FINAL SINGLE POINT ENERGY      -459.463259984417

DIPOLE MOMENT
-------------
                                X             Y             Z
Electronic contribution:      4.52099      -7.22756       1.38423
Nuclear contribution   :     -5.31609       7.49418      -2.48012
                        -----------------------------------------
Total Dipole Moment    :     -0.79510       0.26662      -1.09589
                        -----------------------------------------
Magnitude (a.u.)       :      1.37994
Magnitude (Debye)      :      3.50753

                             ****ORCA TERMINATED NORMALLY****
TOTAL RUN TIME: 0 days 0 hours 17 minutes 6 seconds 165 msec
