                         Program Version 3.0.3 - RELEASE   -
|  1> ! RI-MP2 RIJK def2-TZVP def2-TZVP/C def2-TZVP/JK TIGHTSCF
|  2> % maxcore 2000
|  3> % mp2 density relaxed end
|  4> *xyz 0 1
|  5>  C       -0.1489624213     1.4853016416    -0.0282822659
|  6>  C        0.1195807914     0.0186325092     0.0433619771
|  7>  C        0.8023994322    -0.8738954317    -0.8879749012
|  8>  C        1.6698145106    -1.8527854880    -0.1090927159
|  9>  O        1.3551348077    -1.6187317927     1.2683827196
| 10>  C        0.1196018660    -0.9229179463     1.2749654170
| 11>  C       -0.9555626969    -1.7051579888     0.4845590058
| 12>  O       -1.8233468030    -2.4783636608     0.7420321175
| 13>  N       -0.6996435881    -1.0262681920    -0.7757614538
| 14>  H        0.6780142607     2.0480537491     0.4181400692
| 15>  H       -0.2625319622     1.8061072940    -1.0670969208
| 16>  H       -1.0656815433     1.7457608061     0.5100584200
| 17>  H        1.1045115514    -0.5527569187    -1.8783998398
| 18>  H        1.4572142694    -2.8946654198    -0.3829142930
| 19>  H        2.7359269014    -1.6569958528    -0.2647440008
| 20>  H       -0.0997812159    -0.5625390583     2.2784412850
| 21> *
| 22>
| 23>                          ****END OF INPUT****

CARTESIAN COORDINATES (ANGSTROEM)
---------------------------------
  C     -0.148962    1.485302   -0.028282
  C      0.119581    0.018633    0.043362
  C      0.802399   -0.873895   -0.887975
  C      1.669815   -1.852785   -0.109093
  O      1.355135   -1.618732    1.268383
  C      0.119602   -0.922918    1.274965
  C     -0.955563   -1.705158    0.484559
  O     -1.823347   -2.478364    0.742032
  N     -0.699644   -1.026268   -0.775761
  H      0.678014    2.048054    0.418140
  H     -0.262532    1.806107   -1.067097
  H     -1.065682    1.745761    0.510058
  H      1.104512   -0.552757   -1.878400
  H      1.457214   -2.894665   -0.382914
  H      2.735927   -1.656996   -0.264744
  H     -0.099781   -0.562539    2.278441

 Total Charge           Charge          ....    0
 Multiplicity           Mult            ....    1
 Number of Electrons    NEL             ....   66
 Basis Dimension        Dim             ....  321

ORBITAL ENERGIES
----------------

  NO   OCC          E(Eh)            E(eV)
   0   2.0000     -20.587641      -560.2182
   1   2.0000     -20.557388      -559.3950
   2   2.0000     -15.592272      -424.2873
   3   2.0000     -11.361473      -309.1614
   4   2.0000     -11.319359      -308.0154
   5   2.0000     -11.305774      -307.6458
   6   2.0000     -11.302235      -307.5495
   7   2.0000     -11.299908      -307.4861
   8   2.0000     -11.252061      -306.1842
   9   2.0000      -1.433194       -38.9992
  10   2.0000      -1.401828       -38.1457
  11   2.0000      -1.301931       -35.4274
  12   2.0000      -1.044686       -28.4274
  13   2.0000      -1.030900       -28.0522
  14   2.0000      -0.948306       -25.8047
  15   2.0000      -0.903823       -24.5943
  16   2.0000      -0.797012       -21.6878
  17   2.0000      -0.739237       -20.1157
  18   2.0000      -0.709113       -19.2959
  19   2.0000      -0.701837       -19.0979
  20   2.0000      -0.650785       -17.7088
  21   2.0000      -0.632691       -17.2164
  22   2.0000      -0.610932       -16.6243
  23   2.0000      -0.601571       -16.3696
  24   2.0000      -0.586675       -15.9642
  25   2.0000      -0.572959       -15.5910
  26   2.0000      -0.555412       -15.1135
  27   2.0000      -0.543630       -14.7929
  28   2.0000      -0.523886       -14.2557
  29   2.0000      -0.455140       -12.3850
  30   2.0000      -0.450571       -12.2607
  31   2.0000      -0.431244       -11.7347
  32   2.0000      -0.391762       -10.6604
  33   0.0000       0.122020         3.3203
  34   0.0000       0.142191         3.8692
  35   0.0000       0.156149         4.2490
  36   0.0000       0.170464         4.6386
  37   0.0000       0.176623         4.8062

MULLIKEN ATOMIC CHARGES
-----------------------
   0 C :   -0.421190
   1 C :    0.112827
   2 C :   -0.117889
   3 C :   -0.030697
   4 O :   -0.303680
   5 C :    0.061066
   6 C :    0.137406
   7 O :   -0.226663
   8 N :   -0.196387
   9 H :    0.149910
  10 H :    0.153240
  11 H :    0.147232
  12 H :    0.146591
  13 H :    0.119767
  14 H :    0.128946
  15 H :    0.139520
Sum of atomic charges:    0.0000000

LOEWDIN ATOMIC CHARGES
----------------------
   0 C :   -0.263867
   1 C :   -0.197485
   2 C :   -0.198011
   3 C :   -0.265108
   4 O :    0.182101
   5 C :   -0.221899
   6 C :   -0.373327
   7 O :    0.177651
   8 N :    0.176371
   9 H :    0.137780
  10 H :    0.139520
  11 H :    0.136600
  12 H :    0.154548
  13 H :    0.133222
  14 H :    0.134953
  15 H :    0.146950

  Mayer bond orders larger than 0.1
B(  0-C ,  1-C ) :   0.8453 B(  0-C ,  9-H ) :   0.9355 B(  0-C , 10-H ) :   0.9422
B(  0-C , 11-H ) :   0.9330 B(  1-C ,  2-C ) :   0.9250 B(  1-C ,  5-C ) :   0.8368
B(  1-C ,  8-N ) :   0.7587 B(  2-C ,  3-C ) :   0.9542 B(  2-C ,  8-N ) :   0.8778
B(  2-C , 12-H ) :   0.9175 B(  3-C ,  4-O ) :   0.9383 B(  3-C , 13-H ) :   0.9091
B(  3-C , 14-H ) :   0.9181 B(  4-O ,  5-C ) :   0.9509 B(  5-C ,  6-C ) :   0.8794
B(  5-C , 15-H ) :   0.9137 B(  6-C ,  7-O ) :   2.0757 B(  6-C ,  8-N ) :   0.9825

MP2 TOTAL ENERGY:     -437.142901700 Eh
FINAL SINGLE POINT ENERGY      -437.142901699666

DIPOLE MOMENT
-------------
                                X             Y             Z
Electronic contribution:     -2.75702      -5.34294       1.63576
Nuclear contribution   :      3.90784       6.53213      -1.93319
                        -----------------------------------------
Total Dipole Moment    :      1.15082       1.18919      -0.29743
                        -----------------------------------------
Magnitude (a.u.)       :      1.68138
Magnitude (Debye)      :      4.27372

                             ****ORCA TERMINATED NORMALLY****
TOTAL RUN TIME: 0 days 0 hours 17 minutes 23 seconds 534 msec
