                         Program Version 3.0.3 - RELEASE   -
|  1> ! RI-MP2 RIJK def2-TZVP def2-TZVP/C def2-TZVP/JK TIGHTSCF
|  2> % maxcore 2000
|  3> % mp2 density relaxed end
|  4> *xyz 0 1
|  5>  N        0.0737637873     1.3360421046     0.0010774288
|  6>  C       -0.0384692397    -0.0132776419    -0.0160747125
|  7>  C       -1.1630185874    -0.7739906050     0.0531215934
|  8>  C       -0.8353317866    -2.1884823268     0.0433604937
|  9>  O       -1.5862793244    -3.1411958475     0.1070933093
| 10>  C        0.7007030003    -2.3022795197    -0.0841451071
| 11>  C        1.2291091709    -0.8562099219    -0.0619413323
| 12>  C        2.1342543217    -0.5290869963    -1.2509840133
| 13>  O        2.6539830235     0.7909529810    -1.0783911595
| 14>  H        0.9520067175     1.7295014821    -0.3044687506
| 15>  H       -0.7532775013     1.9003491335    -0.1028834229
| 16>  H       -2.1791030622    -0.4049137167     0.1094250347
| 17>  H        1.1003914753    -2.9166921134     0.7265228096
| 18>  H        0.9389061161    -2.8188859149    -1.0209261124
| 19>  H        1.8137264183    -0.6567409184     0.8449753712
| 20>  H        2.9530093664    -1.2614211327    -1.2924024303
| 21>  H        1.5607391784    -0.6095260398    -2.1867638433
| 22>  H        3.1593271557     1.0271585938    -1.8618426166
| 23> *
| 24>
| 25>                          ****END OF INPUT****

CARTESIAN COORDINATES (ANGSTROEM)
---------------------------------
  N      0.073764    1.336042    0.001077
  C     -0.038469   -0.013278   -0.016075
  C     -1.163019   -0.773991    0.053122
  C     -0.835332   -2.188482    0.043360
  O     -1.586279   -3.141196    0.107093
  C      0.700703   -2.302280   -0.084145
  C      1.229109   -0.856210   -0.061941
  C      2.134254   -0.529087   -1.250984
  O      2.653983    0.790953   -1.078391
  H      0.952007    1.729501   -0.304469
  H     -0.753278    1.900349   -0.102883
  H     -2.179103   -0.404914    0.109425
  H      1.100391   -2.916692    0.726523
  H      0.938906   -2.818886   -1.020926
  H      1.813726   -0.656741    0.844975
  H      2.953009   -1.261421   -1.292402
  H      1.560739   -0.609526   -2.186764
  H      3.159327    1.027159   -1.861843

 Total Charge           Charge          ....    0
 Multiplicity           Mult            ....    1
 Number of Electrons    NEL             ....   68
 Basis Dimension        Dim             ....  333

ORBITAL ENERGIES
----------------

  NO   OCC          E(Eh)            E(eV)
   0   2.0000     -20.586663      -560.1916
   1   2.0000     -20.505085      -557.9717
   2   2.0000     -15.583125      -424.0384
   3   2.0000     -11.306367      -307.6619
   4   2.0000     -11.305426      -307.6363
   5   2.0000     -11.303386      -307.5808
   6   2.0000     -11.256103      -306.2941
   7   2.0000     -11.232563      -305.6536
   8   2.0000     -11.204230      -304.8826
   9   2.0000      -1.389921       -37.8217
  10   2.0000      -1.350180       -36.7403
  11   2.0000      -1.248982       -33.9865
  12   2.0000      -1.123038       -30.5594
  13   2.0000      -1.014846       -27.6154
  14   2.0000      -0.948108       -25.7993
  15   2.0000      -0.875754       -23.8305
  16   2.0000      -0.788342       -21.4519
  17   2.0000      -0.749470       -20.3941
  18   2.0000      -0.723707       -19.6931
  19   2.0000      -0.691629       -18.8202
  20   2.0000      -0.688031       -18.7223
  21   2.0000      -0.652238       -17.7483
  22   2.0000      -0.629381       -17.1263
  23   2.0000      -0.599948       -16.3254
  24   2.0000      -0.573565       -15.6075
  25   2.0000      -0.562645       -15.3104
  26   2.0000      -0.536163       -14.5897
  27   2.0000      -0.525894       -14.3103
  28   2.0000      -0.519094       -14.1253
  29   2.0000      -0.504939       -13.7401
  30   2.0000      -0.473112       -12.8740
  31   2.0000      -0.465122       -12.6566
  32   2.0000      -0.384253       -10.4561
  33   2.0000      -0.324862        -8.8399
  34   0.0000       0.113565         3.0903
  35   0.0000       0.130468         3.5502
  36   0.0000       0.141303         3.8451
  37   0.0000       0.150684         4.1003
  38   0.0000       0.165442         4.5019

MULLIKEN ATOMIC CHARGES
-----------------------
   0 N :   -0.492705
   1 C :    0.164192
   2 C :   -0.320599
   3 C :    0.174246
   4 O :   -0.324301
   5 C :   -0.236264
   6 C :    0.039059
   7 C :   -0.099856
   8 O :   -0.503259
   9 H :    0.281575
  10 H :    0.253007
  11 H :    0.126814
  12 H :    0.133864
  13 H :    0.125212
  14 H :    0.115576
  15 H :    0.119388
  16 H :    0.117747
  17 H :    0.326305
Sum of atomic charges:    0.0000000

LOEWDIN ATOMIC CHARGES
----------------------
   0 N :   -0.001409
   1 C :   -0.218908
   2 C :   -0.153296
   3 C :   -0.350022
   4 O :    0.102582
   5 C :   -0.183248
   6 C :   -0.203053
   7 C :   -0.313349
   8 O :   -0.057788
   9 H :    0.176132
  10 H :    0.172967
  11 H :    0.142006
  12 H :    0.147180
  13 H :    0.149907
  14 H :    0.165672
  15 H :    0.124283
  16 H :    0.124450
  17 H :    0.175894

  Mayer bond orders larger than 0.1
B(  0-N ,  1-C ) :   1.1632 B(  0-N ,  9-H ) :   0.8431 B(  0-N , 10-H ) :   0.8733
B(  1-C ,  2-C ) :   1.4712 B(  1-C ,  6-C ) :   0.9103 B(  2-C ,  3-C ) :   1.0873
B(  2-C , 11-H ) :   0.9314 B(  3-C ,  4-O ) :   2.0024 B(  3-C ,  5-C ) :   0.9054
B(  5-C ,  6-C ) :   0.8983 B(  5-C , 12-H ) :   0.9097 B(  5-C , 13-H ) :   0.9053
B(  6-C ,  7-C ) :   0.8661 B(  6-C , 14-H ) :   0.9045 B(  7-C ,  8-O ) :   0.9492
B(  7-C , 15-H ) :   0.9326 B(  7-C , 16-H ) :   0.9231 B(  8-O , 17-H ) :   0.8426

MP2 TOTAL ENERGY:     -438.410156527 Eh
FINAL SINGLE POINT ENERGY      -438.410156527235

DIPOLE MOMENT
-------------
                                X             Y             Z
Electronic contribution:     -4.08682      -1.37712       1.47201
Nuclear contribution   :      5.49831       3.07569      -2.35622
                        -----------------------------------------
Total Dipole Moment    :      1.41149       1.69857      -0.88421
                        -----------------------------------------
Magnitude (a.u.)       :      2.37892
Magnitude (Debye)      :      6.04673

                             ****ORCA TERMINATED NORMALLY****
TOTAL RUN TIME: 0 days 0 hours 28 minutes 9 seconds 298 msec
