                         Program Version 3.0.3 - RELEASE   -
|  1> ! RI-MP2 RIJK def2-TZVP def2-TZVP/C def2-TZVP/JK TIGHTSCF
|  2> % maxcore 2000
|  3> % mp2 density relaxed end
|  4> *xyz 0 1
|  5>  C       -0.0347067748     1.4909296425     0.0057025230
|  6>  C       -0.0374233658    -0.0178066018     0.0369271926
|  7>  C       -1.3568400359    -0.7408863217    -0.2106140624
|  8>  O       -1.2193801554    -2.0462871972     0.3403166431
|  9>  C       -0.2734382391    -1.9933184783     1.4061539455
| 10>  C        0.6627392381    -0.8484321491     1.0691417413
| 11>  C        1.2358826079    -0.7802823775    -0.3472618236
| 12>  C        1.2773276825    -1.9290342154    -1.2901711794
| 13>  O        2.1894847763    -2.0969211887    -2.0672038072
| 14>  H        0.9392622279     1.8912113898     0.3005585675
| 15>  H       -0.2580162282     1.8688685282    -0.9981337196
| 16>  H       -0.7879445859     1.8971210613     0.6906523185
| 17>  H       -2.1675320266    -0.1831922716     0.2868170392
| 18>  H       -1.6217121373    -0.8548239859    -1.2670061759
| 19>  H       -0.7696807425    -1.7900709984     2.3685919231
| 20>  H        0.2047965382    -2.9758472005     1.4685652821
| 21>  H        1.2481681635    -0.4028130548     1.8654680934
| 22>  H        2.1165579434    -0.1522112717    -0.4458902671
| 23>  H        0.4213102137    -2.6291159492    -1.2467206841
| 24> *
| 25>
| 26>                          ****END OF INPUT****

CARTESIAN COORDINATES (ANGSTROEM)
---------------------------------
  C     -0.034707    1.490930    0.005703
  C     -0.037423   -0.017807    0.036927
  C     -1.356840   -0.740886   -0.210614
  O     -1.219380   -2.046287    0.340317
  C     -0.273438   -1.993318    1.406154
  C      0.662739   -0.848432    1.069142
  C      1.235883   -0.780282   -0.347262
  C      1.277328   -1.929034   -1.290171
  O      2.189485   -2.096921   -2.067204
  H      0.939262    1.891211    0.300559
  H     -0.258016    1.868869   -0.998134
  H     -0.787945    1.897121    0.690652
  H     -2.167532   -0.183192    0.286817
  H     -1.621712   -0.854824   -1.267006
  H     -0.769681   -1.790071    2.368592
  H      0.204797   -2.975847    1.468565
  H      1.248168   -0.402813    1.865468
  H      2.116558   -0.152211   -0.445890
  H      0.421310   -2.629116   -1.246721

 Total Charge           Charge          ....    0
 Multiplicity           Mult            ....    1
 Number of Electrons    NEL             ....   68
 Basis Dimension        Dim             ....  339

ORBITAL ENERGIES
----------------

  NO   OCC          E(Eh)            E(eV)
   0   2.0000     -20.569373      -559.7211
   1   2.0000     -20.544689      -559.0494
   2   2.0000     -11.322785      -308.1086
   3   2.0000     -11.293259      -307.3052
   4   2.0000     -11.292190      -307.2761
   5   2.0000     -11.265247      -306.5429
   6   2.0000     -11.257091      -306.3210
   7   2.0000     -11.248900      -306.0981
   8   2.0000     -11.239513      -305.8427
   9   2.0000      -1.396947       -38.0129
  10   2.0000      -1.382030       -37.6070
  11   2.0000      -1.178641       -32.0725
  12   2.0000      -1.026755       -27.9394
  13   2.0000      -0.973295       -26.4847
  14   2.0000      -0.933209       -25.3939
  15   2.0000      -0.861104       -23.4318
  16   2.0000      -0.779475       -21.2106
  17   2.0000      -0.768049       -20.8997
  18   2.0000      -0.693140       -18.8613
  19   2.0000      -0.690580       -18.7916
  20   2.0000      -0.643569       -17.5124
  21   2.0000      -0.632303       -17.2058
  22   2.0000      -0.618028       -16.8174
  23   2.0000      -0.593709       -16.1557
  24   2.0000      -0.583763       -15.8850
  25   2.0000      -0.571496       -15.5512
  26   2.0000      -0.563512       -15.3339
  27   2.0000      -0.530736       -14.4421
  28   2.0000      -0.521490       -14.1905
  29   2.0000      -0.491165       -13.3653
  30   2.0000      -0.463079       -12.6010
  31   2.0000      -0.426041       -11.5932
  32   2.0000      -0.414438       -11.2774
  33   2.0000      -0.397278       -10.8105
  34   0.0000       0.123897         3.3714
  35   0.0000       0.128089         3.4855
  36   0.0000       0.154107         4.1935
  37   0.0000       0.162674         4.4266
  38   0.0000       0.183975         5.0062

MULLIKEN ATOMIC CHARGES
-----------------------
   0 C :   -0.402421
   1 C :    0.059617
   2 C :   -0.045792
   3 O :   -0.333779
   4 C :   -0.060662
   5 C :   -0.123863
   6 C :   -0.141782
   7 C :    0.036715
   8 O :   -0.274823
   9 H :    0.137933
  10 H :    0.145030
  11 H :    0.135673
  12 H :    0.100671
  13 H :    0.129712
  14 H :    0.107692
  15 H :    0.128178
  16 H :    0.145009
  17 H :    0.132475
  18 H :    0.124418
Sum of atomic charges:   -0.0000000

LOEWDIN ATOMIC CHARGES
----------------------
   0 C :   -0.260633
   1 C :   -0.228540
   2 C :   -0.258487
   3 O :    0.149788
   4 C :   -0.280502
   5 C :   -0.162053
   6 C :   -0.155057
   7 C :   -0.283749
   8 O :    0.120819
   9 H :    0.132596
  10 H :    0.132525
  11 H :    0.130109
  12 H :    0.129552
  13 H :    0.133499
  14 H :    0.127790
  15 H :    0.131766
  16 H :    0.152778
  17 H :    0.162747
  18 H :    0.125052

  Mayer bond orders larger than 0.1
B(  0-C ,  1-C ) :   0.8929 B(  0-C ,  9-H ) :   0.9340 B(  0-C , 10-H ) :   0.9367
B(  0-C , 11-H ) :   0.9331 B(  1-C ,  2-C ) :   0.9593 B(  1-C ,  5-C ) :   0.8347
B(  1-C ,  6-C ) :   0.7937 B(  2-C ,  3-O ) :   0.9080 B(  2-C , 12-H ) :   0.9142
B(  2-C , 13-H ) :   0.9285 B(  3-O ,  4-C ) :   0.9069 B(  4-C ,  5-C ) :   0.9684
B(  4-C , 14-H ) :   0.9237 B(  4-C , 15-H ) :   0.9258 B(  5-C ,  6-C ) :   0.8123
B(  5-C , 16-H ) :   0.9092 B(  6-C ,  7-C ) :   0.9021 B(  6-C , 17-H ) :   0.9244
B(  7-C ,  8-O ) :   1.9686 B(  7-C , 18-H ) :   0.9433

MP2 TOTAL ENERGY:     -422.320877757 Eh
FINAL SINGLE POINT ENERGY      -422.320877756966

DIPOLE MOMENT
-------------
                                X             Y             Z
Electronic contribution:      2.47084      -5.35344      -2.96473
Nuclear contribution   :     -3.04620       6.32723       4.04405
                        -----------------------------------------
Total Dipole Moment    :     -0.57536       0.97379       1.07931
                        -----------------------------------------
Magnitude (a.u.)       :      1.56340
Magnitude (Debye)      :      3.97385

                             ****ORCA TERMINATED NORMALLY****
TOTAL RUN TIME: 0 days 0 hours 17 minutes 56 seconds 361 msec
