                         Program Version 3.0.3 - RELEASE   -
|  1> ! RI-MP2 RIJK def2-TZVP def2-TZVP/C def2-TZVP/JK TIGHTSCF
|  2> % maxcore 2000
|  3> % mp2 density relaxed end
|  4> *xyz 0 1
|  5>  C       -0.1332524072     1.5136448284     0.0462761900
|  6>  C        0.0395687448     0.0140564698    -0.0068468190
|  7>  C       -0.7620593254    -0.8592007102     0.9330194371
|  8>  C        0.7372472821    -0.7630719040     1.0960333188
|  9>  C        1.5417063089    -1.8585292327     0.4652742012
| 10>  C        2.6678620634    -1.4201139441    -0.4420847444
| 11>  C        1.3308801709    -1.8022956005    -1.0378618267
| 12>  C        1.2264251193    -3.0475442635    -1.8863301392
| 13>  C        0.3951814809    -0.6280631709    -1.3543371566
| 14>  H        0.7620581548     2.0310857290    -0.3190292176
| 15>  H       -0.9773141898     1.8399865660    -0.5735879428
| 16>  H       -0.3239815190     1.8573489226     1.0680702694
| 17>  H       -1.3814851444    -0.3579819618     1.6699748175
| 18>  H       -1.1790370032    -1.7895404616     0.5579220698
| 19>  H        1.1328847873    -0.2443569220     1.9650345418
| 20>  H        1.6252437542    -2.8167858201     0.9707674373
| 21>  H        2.9578160978    -0.3732557868    -0.4313554820
| 22>  H        3.4928066261    -2.1098552607    -0.5895133502
| 23>  H        1.8988054908    -3.8330577572    -1.5265433991
| 24>  H        0.2065416470    -3.4507170411    -1.8783533303
| 25>  H        1.4902180034    -2.8416165299    -2.9309246976
| 26>  H       -0.5027334436    -0.9788806571    -1.8799508687
| 27>  H        0.8792130508     0.1024083083    -2.0159404786
| 28> *
| 29>
| 30>                          ****END OF INPUT****

CARTESIAN COORDINATES (ANGSTROEM)
---------------------------------
  C     -0.133252    1.513645    0.046276
  C      0.039569    0.014056   -0.006847
  C     -0.762059   -0.859201    0.933019
  C      0.737247   -0.763072    1.096033
  C      1.541706   -1.858529    0.465274
  C      2.667862   -1.420114   -0.442085
  C      1.330880   -1.802296   -1.037862
  C      1.226425   -3.047544   -1.886330
  C      0.395181   -0.628063   -1.354337
  H      0.762058    2.031086   -0.319029
  H     -0.977314    1.839987   -0.573588
  H     -0.323982    1.857349    1.068070
  H     -1.381485   -0.357982    1.669975
  H     -1.179037   -1.789540    0.557922
  H      1.132885   -0.244357    1.965035
  H      1.625244   -2.816786    0.970767
  H      2.957816   -0.373256   -0.431355
  H      3.492807   -2.109855   -0.589513
  H      1.898805   -3.833058   -1.526543
  H      0.206542   -3.450717   -1.878353
  H      1.490218   -2.841617   -2.930925
  H     -0.502733   -0.978881   -1.879951
  H      0.879213    0.102408   -2.015940

 Total Charge           Charge          ....    0
 Multiplicity           Mult            ....    1
 Number of Electrons    NEL             ....   68
 Basis Dimension        Dim             ....  363

ORBITAL ENERGIES
----------------

  NO   OCC          E(Eh)            E(eV)
   0   2.0000     -11.229571      -305.5722
   1   2.0000     -11.229567      -305.5721
   2   2.0000     -11.221669      -305.3571
   3   2.0000     -11.220990      -305.3387
   4   2.0000     -11.217859      -305.2535
   5   2.0000     -11.215191      -305.1809
   6   2.0000     -11.215185      -305.1807
   7   2.0000     -11.214099      -305.1511
   8   2.0000     -11.214098      -305.1511
   9   2.0000      -1.194287       -32.4982
  10   2.0000      -1.106469       -30.1086
  11   2.0000      -0.991618       -26.9833
  12   2.0000      -0.955016       -25.9873
  13   2.0000      -0.932217       -25.3669
  14   2.0000      -0.847520       -23.0622
  15   2.0000      -0.784461       -21.3463
  16   2.0000      -0.735045       -20.0016
  17   2.0000      -0.728645       -19.8274
  18   2.0000      -0.657522       -17.8921
  19   2.0000      -0.628383       -17.0992
  20   2.0000      -0.593302       -16.1446
  21   2.0000      -0.577898       -15.7254
  22   2.0000      -0.572943       -15.5906
  23   2.0000      -0.563175       -15.3248
  24   2.0000      -0.545096       -14.8328
  25   2.0000      -0.537997       -14.6397
  26   2.0000      -0.516686       -14.0597
  27   2.0000      -0.515836       -14.0366
  28   2.0000      -0.490476       -13.3465
  29   2.0000      -0.453784       -12.3481
  30   2.0000      -0.436210       -11.8699
  31   2.0000      -0.399645       -10.8749
  32   2.0000      -0.368118       -10.0170
  33   2.0000      -0.365446        -9.9443
  34   0.0000       0.137274         3.7354
  35   0.0000       0.152485         4.1493
  36   0.0000       0.172190         4.6855
  37   0.0000       0.173176         4.7124
  38   0.0000       0.188990         5.1427

MULLIKEN ATOMIC CHARGES
-----------------------
   0 C :   -0.426248
   1 C :    0.086200
   2 C :   -0.332913
   3 C :   -0.098032
   4 C :   -0.098031
   5 C :   -0.332914
   6 C :    0.086200
   7 C :   -0.426248
   8 C :   -0.216812
   9 H :    0.126277
  10 H :    0.133213
  11 H :    0.127270
  12 H :    0.127196
  13 H :    0.127962
  14 H :    0.118961
  15 H :    0.118961
  16 H :    0.127962
  17 H :    0.127196
  18 H :    0.127270
  19 H :    0.126278
  20 H :    0.133213
  21 H :    0.118519
  22 H :    0.118520
Sum of atomic charges:    0.0000000

LOEWDIN ATOMIC CHARGES
----------------------
   0 C :   -0.271949
   1 C :   -0.234468
   2 C :   -0.182742
   3 C :   -0.166061
   4 C :   -0.166061
   5 C :   -0.182742
   6 C :   -0.234468
   7 C :   -0.271949
   8 C :   -0.163028
   9 H :    0.124930
  10 H :    0.126980
  11 H :    0.127616
  12 H :    0.134352
  13 H :    0.136043
  14 H :    0.145061
  15 H :    0.145061
  16 H :    0.136043
  17 H :    0.134352
  18 H :    0.127616
  19 H :    0.124930
  20 H :    0.126980
  21 H :    0.141753
  22 H :    0.141753

  Mayer bond orders larger than 0.1
B(  0-C ,  1-C ) :   0.8936 B(  0-C ,  9-H ) :   0.9429 B(  0-C , 10-H ) :   0.9424
B(  0-C , 11-H ) :   0.9372 B(  1-C ,  2-C ) :   0.8885 B(  1-C ,  3-C ) :   0.8706
B(  1-C ,  8-C ) :   0.9154 B(  2-C ,  3-C ) :   0.8871 B(  2-C , 12-H ) :   0.9263
B(  2-C , 13-H ) :   0.9167 B(  3-C ,  4-C ) :   0.8832 B(  3-C , 14-H ) :   0.9228
B(  4-C ,  5-C ) :   0.8871 B(  4-C ,  6-C ) :   0.8706 B(  4-C , 15-H ) :   0.9228
B(  5-C ,  6-C ) :   0.8885 B(  5-C , 16-H ) :   0.9167 B(  5-C , 17-H ) :   0.9263
B(  6-C ,  7-C ) :   0.8936 B(  6-C ,  8-C ) :   0.9154 B(  7-C , 18-H ) :   0.9372
B(  7-C , 19-H ) :   0.9429 B(  7-C , 20-H ) :   0.9424 B(  8-C , 21-H ) :   0.9249
B(  8-C , 22-H ) :   0.9249

MP2 TOTAL ENERGY:     -350.508761032 Eh
FINAL SINGLE POINT ENERGY      -350.508761032203

DIPOLE MOMENT
-------------
                                X             Y             Z
Electronic contribution:      0.70840      -0.64981       2.03201
Nuclear contribution   :     -0.72662       0.66652      -2.08428
                        -----------------------------------------
Total Dipole Moment    :     -0.01822       0.01671      -0.05226
                        -----------------------------------------
Magnitude (a.u.)       :      0.05782
Magnitude (Debye)      :      0.14696

                             ****ORCA TERMINATED NORMALLY****
TOTAL RUN TIME: 0 days 0 hours 21 minutes 38 seconds 242 msec
