                         Program Version 3.0.3 - RELEASE   -
|  1> ! RI-MP2 RIJK def2-TZVP def2-TZVP/C def2-TZVP/JK TIGHTSCF
|  2> % maxcore 2000
|  3> % mp2 density relaxed end
|  4> *xyz 0 1
|  5>  C        0.0644628117     1.5846386322     0.1392740372
|  6>  C        0.0306247967     0.0577344078     0.0753165955
|  7>  O        0.7106924899    -0.5193085586     1.1899339009
|  8>  C       -1.3970119384    -0.4912728378    -0.0559874329
|  9>  C       -1.4472090622    -2.0155010406    -0.1962900624
| 10>  C       -2.8732380224    -2.5737604973    -0.2332743719
| 11>  C       -2.9104290779    -4.1041737308    -0.3952201456
| 12>  C       -4.3182278721    -4.6448781479    -0.3114888324
| 13>  O       -4.8636861399    -5.3003157160    -1.1614441165
| 14>  H        1.0931305116     1.9375560081     0.2515578626
| 15>  H       -0.3604372808     2.0307552631    -0.7656897992
| 16>  H       -0.5183679532     1.9503416718     0.9945311277
| 17>  H        0.6141716952    -0.2747822720    -0.7930473228
| 18>  H        0.2876154313    -0.1872470089     1.9899424492
| 19>  H       -1.9744865896    -0.1795851748     0.8281358384
| 20>  H       -1.8836227760    -0.0177437604    -0.9190158626
| 21>  H       -0.9171532380    -2.3118366766    -1.1116346457
| 22>  H       -0.8921334233    -2.4642456790     0.6352898182
| 23>  H       -3.4000588338    -2.2930899231     0.6892332686
| 24>  H       -3.4325022072    -2.1113389552    -1.0569378607
| 25>  H       -2.4694363975    -4.4195414843    -1.3454390261
| 26>  H       -2.3298485033    -4.5626637792     0.4189137686
| 27>  H       -4.8521331606    -4.3772251505     0.6322649220
| 28> *
| 29>
| 30>                          ****END OF INPUT****

CARTESIAN COORDINATES (ANGSTROEM)
---------------------------------
  C      0.064463    1.584639    0.139274
  C      0.030625    0.057734    0.075317
  O      0.710692   -0.519309    1.189934
  C     -1.397012   -0.491273   -0.055987
  C     -1.447209   -2.015501   -0.196290
  C     -2.873238   -2.573760   -0.233274
  C     -2.910429   -4.104174   -0.395220
  C     -4.318228   -4.644878   -0.311489
  O     -4.863686   -5.300316   -1.161444
  H      1.093131    1.937556    0.251558
  H     -0.360437    2.030755   -0.765690
  H     -0.518368    1.950342    0.994531
  H      0.614172   -0.274782   -0.793047
  H      0.287615   -0.187247    1.989942
  H     -1.974487   -0.179585    0.828136
  H     -1.883623   -0.017744   -0.919016
  H     -0.917153   -2.311837   -1.111635
  H     -0.892133   -2.464246    0.635290
  H     -3.400059   -2.293090    0.689233
  H     -3.432502   -2.111339   -1.056938
  H     -2.469436   -4.419541   -1.345439
  H     -2.329849   -4.562664    0.418914
  H     -4.852133   -4.377225    0.632265

 Total Charge           Charge          ....    0
 Multiplicity           Mult            ....    1
 Number of Electrons    NEL             ....   72
 Basis Dimension        Dim             ....  363

ORBITAL ENERGIES
----------------

  NO   OCC          E(Eh)            E(eV)
   0   2.0000     -20.557038      -559.3855
   1   2.0000     -20.554702      -559.3219
   2   2.0000     -11.329441      -308.2898
   3   2.0000     -11.284693      -307.0721
   4   2.0000     -11.240164      -305.8604
   5   2.0000     -11.239580      -305.8445
   6   2.0000     -11.229546      -305.5715
   7   2.0000     -11.227842      -305.5251
   8   2.0000     -11.223316      -305.4020
   9   2.0000      -1.393345       -37.9148
  10   2.0000      -1.363243       -37.0957
  11   2.0000      -1.099472       -29.9181
  12   2.0000      -1.051512       -28.6131
  13   2.0000      -0.994473       -27.0610
  14   2.0000      -0.912493       -24.8302
  15   2.0000      -0.828970       -22.5574
  16   2.0000      -0.807175       -21.9644
  17   2.0000      -0.789966       -21.4961
  18   2.0000      -0.679595       -18.4927
  19   2.0000      -0.661436       -17.9986
  20   2.0000      -0.658717       -17.9246
  21   2.0000      -0.633461       -17.2373
  22   2.0000      -0.626090       -17.0368
  23   2.0000      -0.616739       -16.7823
  24   2.0000      -0.575899       -15.6710
  25   2.0000      -0.568801       -15.4779
  26   2.0000      -0.558399       -15.1948
  27   2.0000      -0.533025       -14.5043
  28   2.0000      -0.520824       -14.1723
  29   2.0000      -0.505722       -13.7614
  30   2.0000      -0.502204       -13.6657
  31   2.0000      -0.485932       -13.2229
  32   2.0000      -0.479049       -13.0356
  33   2.0000      -0.467772       -12.7287
  34   2.0000      -0.439987       -11.9727
  35   2.0000      -0.413213       -11.2441
  36   0.0000       0.121666         3.3107
  37   0.0000       0.133607         3.6356
  38   0.0000       0.144591         3.9345
  39   0.0000       0.151635         4.1262
  40   0.0000       0.162950         4.4341

MULLIKEN ATOMIC CHARGES
-----------------------
   0 C :   -0.387530
   1 C :    0.123537
   2 O :   -0.473655
   3 C :   -0.290791
   4 C :   -0.190345
   5 C :   -0.273822
   6 C :   -0.127689
   7 C :    0.096371
   8 O :   -0.265215
   9 H :    0.149735
  10 H :    0.127202
  11 H :    0.113651
  12 H :    0.088786
  13 H :    0.308854
  14 H :    0.105201
  15 H :    0.113632
  16 H :    0.111119
  17 H :    0.123022
  18 H :    0.113370
  19 H :    0.124076
  20 H :    0.120853
  21 H :    0.123196
  22 H :    0.066443
Sum of atomic charges:   -0.0000000

LOEWDIN ATOMIC CHARGES
----------------------
   0 C :   -0.305857
   1 C :   -0.373586
   2 O :   -0.026007
   3 C :   -0.261594
   4 C :   -0.268039
   5 C :   -0.265012
   6 C :   -0.262782
   7 C :   -0.298810
   8 O :    0.128990
   9 H :    0.126475
  10 H :    0.126213
  11 H :    0.120461
  12 H :    0.144519
  13 H :    0.173086
  14 H :    0.136508
  15 H :    0.142257
  16 H :    0.139834
  17 H :    0.141618
  18 H :    0.137587
  19 H :    0.140086
  20 H :    0.144841
  21 H :    0.151347
  22 H :    0.107866

  Mayer bond orders larger than 0.1
B(  0-C ,  1-C ) :   0.9402 B(  0-C ,  9-H ) :   0.9441 B(  0-C , 10-H ) :   0.9345
B(  0-C , 11-H ) :   0.9203 B(  1-C ,  2-O ) :   0.8910 B(  1-C ,  3-C ) :   0.9414
B(  1-C , 12-H ) :   0.9234 B(  2-O , 13-H ) :   0.8448 B(  3-C ,  4-C ) :   0.9256
B(  3-C , 14-H ) :   0.9259 B(  3-C , 15-H ) :   0.9223 B(  4-C ,  5-C ) :   0.9223
B(  4-C , 16-H ) :   0.9280 B(  4-C , 17-H ) :   0.9301 B(  5-C ,  6-C ) :   0.9112
B(  5-C , 18-H ) :   0.9332 B(  5-C , 19-H ) :   0.9241 B(  6-C ,  7-C ) :   0.8776
B(  6-C , 20-H ) :   0.9046 B(  6-C , 21-H ) :   0.9149 B(  7-C ,  8-O ) :   2.0081
B(  7-C , 22-H ) :   0.9397

MP2 TOTAL ENERGY:     -424.736241628 Eh
FINAL SINGLE POINT ENERGY      -424.736241627878

DIPOLE MOMENT
-------------
                                X             Y             Z
Electronic contribution:     -4.43951      -8.57476      -0.89802
Nuclear contribution   :      4.67408       9.67923       1.51645
                        -----------------------------------------
Total Dipole Moment    :      0.23457       1.10447       0.61843
                        -----------------------------------------
Magnitude (a.u.)       :      1.28737
Magnitude (Debye)      :      3.27225

                             ****ORCA TERMINATED NORMALLY****
TOTAL RUN TIME: 0 days 0 hours 19 minutes 33 seconds 121 msec
