                         Program Version 3.0.3 - RELEASE   -
|  1> ! RI-MP2 RIJK def2-TZVP def2-TZVP/C def2-TZVP/JK TIGHTSCF
|  2> % maxcore 2000
|  3> % mp2 density relaxed end
|  4> *xyz 0 1
|  5>  C        0.4348478765     0.9158205304     0.6876239733
|  6>  O       -0.3603798386     0.2572013650    -0.2717007937
|  7>  C        0.3923016247    -0.3526641649    -1.3078170214
|  8>  C        1.1518970477    -1.6130921924    -0.8736014569
|  9>  C        0.5156925499    -2.4791548591     0.1501630540
| 10>  N        0.3812653517    -2.8203950919    -1.2679725099
| 11>  C       -0.8741485319    -2.3330986288    -1.8896384487
| 12>  C       -0.5804144947    -0.8992818932    -2.3781903630
| 13>  C       -1.8083107824    -0.0379362000    -2.6608666291
| 14>  H        1.0978499610     0.2196154844     1.2213817456
| 15>  H        1.0563107795     1.6990224080     0.2253064105
| 16>  H       -0.2427559202     1.3815302021     1.4074666470
| 17>  H        1.0845493631     0.3910470276    -1.7311064702
| 18>  H        2.2243973781    -1.6574178499    -1.0422428209
| 19>  H        1.1242065258    -3.1649766538     0.7340254352
| 20>  H       -0.3529160817    -2.0778475580     0.6666178951
| 21>  H       -1.1421552161    -2.9978137274    -2.7160210275
| 22>  H       -1.7059375153    -2.3429415927    -1.1734298738
| 23>  H        0.0138143561    -0.9928979976    -3.2962236550
| 24>  H       -2.4011152224     0.1040940005    -1.7546493198
| 25>  H       -1.5216770513     0.9517169438    -3.0311148970
| 26>  H       -2.4419433696    -0.5068713021    -3.4208938039
| 27> *
| 28>
| 29>                          ****END OF INPUT****

CARTESIAN COORDINATES (ANGSTROEM)
---------------------------------
  C      0.434848    0.915821    0.687624
  O     -0.360380    0.257201   -0.271701
  C      0.392302   -0.352664   -1.307817
  C      1.151897   -1.613092   -0.873601
  C      0.515693   -2.479155    0.150163
  N      0.381265   -2.820395   -1.267973
  C     -0.874149   -2.333099   -1.889638
  C     -0.580414   -0.899282   -2.378190
  C     -1.808311   -0.037936   -2.660867
  H      1.097850    0.219615    1.221382
  H      1.056311    1.699022    0.225306
  H     -0.242756    1.381530    1.407467
  H      1.084549    0.391047   -1.731106
  H      2.224397   -1.657418   -1.042243
  H      1.124207   -3.164977    0.734025
  H     -0.352916   -2.077848    0.666618
  H     -1.142155   -2.997814   -2.716021
  H     -1.705938   -2.342942   -1.173430
  H      0.013814   -0.992898   -3.296224
  H     -2.401115    0.104094   -1.754649
  H     -1.521677    0.951717   -3.031115
  H     -2.441943   -0.506871   -3.420894

 Total Charge           Charge          ....    0
 Multiplicity           Mult            ....    1
 Number of Electrons    NEL             ....   70
 Basis Dimension        Dim             ....  357

ORBITAL ENERGIES
----------------

  NO   OCC          E(Eh)            E(eV)
   0   2.0000     -20.556738      -559.3773
   1   2.0000     -15.551933      -423.1896
   2   2.0000     -11.282836      -307.0216
   3   2.0000     -11.272403      -306.7377
   4   2.0000     -11.251210      -306.1610
   5   2.0000     -11.249714      -306.1203
   6   2.0000     -11.242307      -305.9187
   7   2.0000     -11.227451      -305.5145
   8   2.0000     -11.209745      -305.0327
   9   2.0000      -1.380205       -37.5573
  10   2.0000      -1.271133       -34.5893
  11   2.0000      -1.071690       -29.1622
  12   2.0000      -0.987685       -26.8763
  13   2.0000      -0.943832       -25.6830
  14   2.0000      -0.910368       -24.7724
  15   2.0000      -0.831244       -22.6193
  16   2.0000      -0.780729       -21.2447
  17   2.0000      -0.769109       -20.9285
  18   2.0000      -0.704417       -19.1682
  19   2.0000      -0.663537       -18.0558
  20   2.0000      -0.643738       -17.5170
  21   2.0000      -0.627433       -17.0733
  22   2.0000      -0.595538       -16.2054
  23   2.0000      -0.581821       -15.8322
  24   2.0000      -0.569682       -15.5018
  25   2.0000      -0.551453       -15.0058
  26   2.0000      -0.535793       -14.5797
  27   2.0000      -0.511649       -13.9227
  28   2.0000      -0.499089       -13.5809
  29   2.0000      -0.475325       -12.9343
  30   2.0000      -0.463422       -12.6104
  31   2.0000      -0.449665       -12.2360
  32   2.0000      -0.431360       -11.7379
  33   2.0000      -0.422799       -11.5050
  34   2.0000      -0.366456        -9.9718
  35   0.0000       0.134965         3.6726
  36   0.0000       0.153337         4.1725
  37   0.0000       0.160034         4.3548
  38   0.0000       0.178519         4.8577
  39   0.0000       0.193196         5.2571

MULLIKEN ATOMIC CHARGES
-----------------------
   0 C :   -0.235017
   1 O :   -0.316395
   2 C :    0.097244
   3 C :   -0.143232
   4 C :   -0.176933
   5 N :   -0.206624
   6 C :   -0.181700
   7 C :   -0.006148
   8 C :   -0.421103
   9 H :    0.122206
  10 H :    0.113690
  11 H :    0.140788
  12 H :    0.081461
  13 H :    0.128476
  14 H :    0.123823
  15 H :    0.138686
  16 H :    0.123312
  17 H :    0.116103
  18 H :    0.098257
  19 H :    0.143688
  20 H :    0.126683
  21 H :    0.132736
Sum of atomic charges:    0.0000000

LOEWDIN ATOMIC CHARGES
----------------------
   0 C :   -0.357940
   1 O :    0.161245
   2 C :   -0.285931
   3 C :   -0.231809
   4 C :   -0.247400
   5 N :    0.107487
   6 C :   -0.247132
   7 C :   -0.250741
   8 C :   -0.295017
   9 H :    0.104571
  10 H :    0.102921
  11 H :    0.113566
  12 H :    0.137911
  13 H :    0.136485
  14 H :    0.124735
  15 H :    0.129665
  16 H :    0.131052
  17 H :    0.130634
  18 H :    0.158931
  19 H :    0.127396
  20 H :    0.125114
  21 H :    0.124257

  Mayer bond orders larger than 0.1
B(  0-C ,  1-O ) :   0.9082 B(  0-C ,  9-H ) :   0.9325 B(  0-C , 10-H ) :   0.9333
B(  0-C , 11-H ) :   0.9413 B(  1-O ,  2-C ) :   0.9853 B(  2-C ,  3-C ) :   0.9430
B(  2-C ,  7-C ) :   0.8970 B(  2-C , 12-H ) :   0.9261 B(  3-C ,  4-C ) :   0.9594
B(  3-C ,  5-N ) :   0.9147 B(  3-C , 13-H ) :   0.9094 B(  4-C ,  5-N ) :   0.8922
B(  4-C , 14-H ) :   0.9298 B(  4-C , 15-H ) :   0.9002 B(  5-N ,  6-C ) :   0.9041
B(  6-C ,  7-C ) :   0.9441 B(  6-C , 16-H ) :   0.9245 B(  6-C , 17-H ) :   0.9306
B(  7-C ,  8-C ) :   0.8951 B(  7-C , 18-H ) :   0.9201 B(  8-C , 19-H ) :   0.9330
B(  8-C , 20-H ) :   0.9356 B(  8-C , 21-H ) :   0.9391

MP2 TOTAL ENERGY:     -403.629642361 Eh
FINAL SINGLE POINT ENERGY      -403.629642361163

DIPOLE MOMENT
-------------
                                X             Y             Z
Electronic contribution:      1.95139      -3.07789       0.23782
Nuclear contribution   :     -1.77473       3.66501      -0.04789
                        -----------------------------------------
Total Dipole Moment    :      0.17666       0.58713       0.18992
                        -----------------------------------------
Magnitude (a.u.)       :      0.64187
Magnitude (Debye)      :      1.63150

                             ****ORCA TERMINATED NORMALLY****
TOTAL RUN TIME: 0 days 0 hours 32 minutes 5 seconds 356 msec
