                         Program Version 3.0.3 - RELEASE   -
|  1> ! RI-MP2 RIJK def2-TZVP def2-TZVP/C def2-TZVP/JK TIGHTSCF
|  2> % maxcore 2000
|  3> % mp2 density relaxed end
|  4> *xyz 0 1
|  5>  O       -0.0686654711    -0.0124122221    -0.0532897871
|  6>  C       -0.0291934506     1.1879436796    -0.0206112822
|  7>  N       -1.0168476506     2.1541501909    -0.0541860476
|  8>  C       -0.1165813991     3.3008781999     0.0975103096
|  9>  C        0.1000389501     3.9276975305     1.4918523519
| 10>  C        1.6481451809     4.1491861204     1.4412476842
| 11>  C        1.6682189269     2.5837154055     1.4752955553
| 12>  C        0.4203609232     2.7046256910     2.3947805934
| 13>  C        1.0705919486     2.2771081836     0.0860848173
| 14>  H       -2.0162136187     2.0665032802     0.0637270300
| 15>  H       -0.1886085344     4.0330594820    -0.7099487243
| 16>  H       -0.5852768505     4.7157887149     1.8054218893
| 17>  H        2.0684883498     4.6486617394     0.5624243906
| 18>  H        2.0413806316     4.6017660258     2.3543004089
| 19>  H        2.5501849269     2.0198278984     1.7753354012
| 20>  H        0.6913692915     3.0111642473     3.4067441459
| 21>  H       -0.2891829577     1.8759130265     2.4355336507
| 22>  H        1.7871861532     2.3125966062    -0.7346061670
| 23> *
| 24>
| 25>                          ****END OF INPUT****

CARTESIAN COORDINATES (ANGSTROEM)
---------------------------------
  O     -0.068665   -0.012412   -0.053290
  C     -0.029193    1.187944   -0.020611
  N     -1.016848    2.154150   -0.054186
  C     -0.116581    3.300878    0.097510
  C      0.100039    3.927698    1.491852
  C      1.648145    4.149186    1.441248
  C      1.668219    2.583715    1.475296
  C      0.420361    2.704626    2.394781
  C      1.070592    2.277108    0.086085
  H     -2.016214    2.066503    0.063727
  H     -0.188609    4.033059   -0.709949
  H     -0.585277    4.715789    1.805422
  H      2.068488    4.648662    0.562424
  H      2.041381    4.601766    2.354300
  H      2.550185    2.019828    1.775335
  H      0.691369    3.011164    3.406744
  H     -0.289183    1.875913    2.435534
  H      1.787186    2.312597   -0.734606

 Total Charge           Charge          ....    0
 Multiplicity           Mult            ....    1
 Number of Electrons    NEL             ....   66
 Basis Dimension        Dim             ....  333

ORBITAL ENERGIES
----------------

  NO   OCC          E(Eh)            E(eV)
   0   2.0000     -20.523189      -558.4644
   1   2.0000     -15.579370      -423.9362
   2   2.0000     -11.346806      -308.7623
   3   2.0000     -11.279711      -306.9365
   4   2.0000     -11.250720      -306.1477
   5   2.0000     -11.248003      -306.0737
   6   2.0000     -11.246839      -306.0421
   7   2.0000     -11.240761      -305.8767
   8   2.0000     -11.233426      -305.6771
   9   2.0000      -1.384510       -37.6744
  10   2.0000      -1.274901       -34.6918
  11   2.0000      -1.172247       -31.8985
  12   2.0000      -0.991008       -26.9667
  13   2.0000      -0.948711       -25.8157
  14   2.0000      -0.910332       -24.7714
  15   2.0000      -0.838796       -22.8248
  16   2.0000      -0.771151       -20.9841
  17   2.0000      -0.738047       -20.0833
  18   2.0000      -0.700066       -19.0498
  19   2.0000      -0.670813       -18.2537
  20   2.0000      -0.663621       -18.0580
  21   2.0000      -0.647572       -17.6213
  22   2.0000      -0.571007       -15.5379
  23   2.0000      -0.559537       -15.2258
  24   2.0000      -0.542583       -14.7644
  25   2.0000      -0.525367       -14.2960
  26   2.0000      -0.511066       -13.9068
  27   2.0000      -0.472987       -12.8706
  28   2.0000      -0.466492       -12.6939
  29   2.0000      -0.458083       -12.4651
  30   2.0000      -0.454350       -12.3635
  31   2.0000      -0.406467       -11.0605
  32   2.0000      -0.391791       -10.6612
  33   0.0000       0.133070         3.6210
  34   0.0000       0.139968         3.8087
  35   0.0000       0.159597         4.3428
  36   0.0000       0.161509         4.3949
  37   0.0000       0.188057         5.1173

MULLIKEN ATOMIC CHARGES
-----------------------
   0 O :   -0.305046
   1 C :    0.181750
   2 N :   -0.334451
   3 C :   -0.016091
   4 C :   -0.025920
   5 C :   -0.305438
   6 C :   -0.026542
   7 C :   -0.304413
   8 C :   -0.136314
   9 H :    0.233724
  10 H :    0.124387
  11 H :    0.135494
  12 H :    0.121328
  13 H :    0.128060
  14 H :    0.138364
  15 H :    0.126995
  16 H :    0.134976
  17 H :    0.129137
Sum of atomic charges:   -0.0000000

LOEWDIN ATOMIC CHARGES
----------------------
   0 O :    0.104952
   1 C :   -0.421476
   2 N :    0.139505
   3 C :   -0.201231
   4 C :   -0.194448
   5 C :   -0.186732
   6 C :   -0.179190
   7 C :   -0.194175
   8 C :   -0.136190
   9 H :    0.169418
  10 H :    0.139361
  11 H :    0.132767
  12 H :    0.128969
  13 H :    0.137215
  14 H :    0.137368
  15 H :    0.140533
  16 H :    0.132477
  17 H :    0.150877

  Mayer bond orders larger than 0.1
B(  0-O ,  1-C ) :   2.0447 B(  1-C ,  2-N ) :   1.1477 B(  1-C ,  8-C ) :   0.8668
B(  2-N ,  3-C ) :   0.9283 B(  2-N ,  9-H ) :   0.8539 B(  3-C ,  4-C ) :   0.8807
B(  3-C ,  8-C ) :   0.9287 B(  3-C , 10-H ) :   0.9309 B(  4-C ,  5-C ) :   0.8861
B(  4-C ,  7-C ) :   0.9150 B(  4-C , 11-H ) :   0.9089 B(  5-C ,  6-C ) :   0.8832
B(  5-C , 12-H ) :   0.9255 B(  5-C , 13-H ) :   0.9199 B(  6-C ,  7-C ) :   0.9204
B(  6-C ,  8-C ) :   0.8688 B(  6-C , 14-H ) :   0.9175 B(  7-C , 15-H ) :   0.9289
B(  7-C , 16-H ) :   0.9154 B(  8-C , 17-H ) :   0.9078

MP2 TOTAL ENERGY:     -401.271151865 Eh
FINAL SINGLE POINT ENERGY      -401.271151865444

DIPOLE MOMENT
-------------
                                X             Y             Z
Electronic contribution:     -2.46314      -5.26084      -3.54791
Nuclear contribution   :      2.38220       6.78018       3.88160
                        -----------------------------------------
Total Dipole Moment    :     -0.08094       1.51934       0.33370
                        -----------------------------------------
Magnitude (a.u.)       :      1.55766
Magnitude (Debye)      :      3.95925

                             ****ORCA TERMINATED NORMALLY****
TOTAL RUN TIME: 0 days 0 hours 19 minutes 9 seconds 288 msec
