                         Program Version 3.0.3 - RELEASE   -
|  1> ! RI-MP2 RIJK def2-TZVP def2-TZVP/C def2-TZVP/JK TIGHTSCF
|  2> % maxcore 2000
|  3> % mp2 density relaxed end
|  4> *xyz 0 1
|  5>  C        0.1059881874    -1.1863876132    -0.0053687636
|  6>  C       -0.0058775311     0.0126203923     0.0028953770
|  7>  C       -0.1160760536     1.4178903860     0.0123132657
|  8>  C       -1.2152611516     2.2666992526     0.0315744578
|  9>  C       -0.6682525829     3.5619613063     0.0317280090
| 10>  N        0.6646885365     3.5403884785     0.0140912620
| 11>  N        0.9763971241     2.2387067637     0.0026157007
| 12>  H        0.1958448366    -2.2445633548    -0.0125432820
| 13>  H       -2.2510058288     1.9714892764     0.0435125825
| 14>  H       -1.1869224780     4.5089833548     0.0439133165
| 15>  H        1.9422987217     1.9556746274    -0.0116818556
| 16> *
| 17>
| 18>                          ****END OF INPUT****

CARTESIAN COORDINATES (ANGSTROEM)
---------------------------------
  C      0.105988   -1.186388   -0.005369
  C     -0.005878    0.012620    0.002895
  C     -0.116076    1.417890    0.012313
  C     -1.215261    2.266699    0.031574
  C     -0.668253    3.561961    0.031728
  N      0.664689    3.540388    0.014091
  N      0.976397    2.238707    0.002616
  H      0.195845   -2.244563   -0.012543
  H     -2.251006    1.971489    0.043513
  H     -1.186922    4.508983    0.043913
  H      1.942299    1.955675   -0.011682

 Total Charge           Charge          ....    0
 Multiplicity           Mult            ....    1
 Number of Electrons    NEL             ....   48
 Basis Dimension        Dim             ....  241

ORBITAL ENERGIES
----------------

  NO   OCC          E(Eh)            E(eV)
   0   2.0000     -15.648748      -425.8241
   1   2.0000     -15.598735      -424.4632
   2   2.0000     -11.304356      -307.6072
   3   2.0000     -11.259631      -306.3901
   4   2.0000     -11.258692      -306.3646
   5   2.0000     -11.251536      -306.1699
   6   2.0000     -11.235472      -305.7327
   7   2.0000      -1.386882       -37.7390
   8   2.0000      -1.122970       -30.5576
   9   2.0000      -1.080487       -29.4016
  10   2.0000      -1.028032       -27.9742
  11   2.0000      -0.859039       -23.3757
  12   2.0000      -0.818517       -22.2730
  13   2.0000      -0.792153       -21.5556
  14   2.0000      -0.720537       -19.6068
  15   2.0000      -0.632080       -17.1998
  16   2.0000      -0.623744       -16.9729
  17   2.0000      -0.610912       -16.6238
  18   2.0000      -0.586709       -15.9652
  19   2.0000      -0.477400       -12.9907
  20   2.0000      -0.456744       -12.4286
  21   2.0000      -0.415725       -11.3124
  22   2.0000      -0.373322       -10.1586
  23   2.0000      -0.331967        -9.0333
  24   0.0000       0.100847         2.7442
  25   0.0000       0.138836         3.7779
  26   0.0000       0.151440         4.1209
  27   0.0000       0.161813         4.4032
  28   0.0000       0.181364         4.9352

MULLIKEN ATOMIC CHARGES
-----------------------
   0 C :   -0.115267
   1 C :    0.052958
   2 C :   -0.051002
   3 C :   -0.190506
   4 C :   -0.109603
   5 N :   -0.207114
   6 N :   -0.131614
   7 H :    0.200716
   8 H :    0.151474
   9 H :    0.136987
  10 H :    0.262970
Sum of atomic charges:   -0.0000000

LOEWDIN ATOMIC CHARGES
----------------------
   0 C :   -0.065904
   1 C :   -0.081283
   2 C :   -0.236660
   3 C :   -0.153230
   4 C :   -0.264897
   5 N :    0.028299
   6 N :    0.165087
   7 H :    0.130280
   8 H :    0.147053
   9 H :    0.135901
  10 H :    0.195355

  Mayer bond orders larger than 0.1
B(  0-C ,  1-C ) :   2.6147 B(  0-C ,  2-C ) :  -0.1459 B(  0-C ,  7-H ) :   0.8707
B(  1-C ,  2-C ) :   1.1326 B(  2-C ,  3-C ) :   1.3714 B(  2-C ,  6-N ) :   1.2031
B(  3-C ,  4-C ) :   1.3406 B(  3-C ,  8-H ) :   0.9223 B(  4-C ,  5-N ) :   1.5045
B(  4-C ,  9-H ) :   0.9368 B(  5-N ,  6-N ) :   1.0873 B(  6-N , 10-H ) :   0.8669

MP2 TOTAL ENERGY:     -301.743296707 Eh
FINAL SINGLE POINT ENERGY      -301.743296707050

DIPOLE MOMENT
-------------
                                X             Y             Z
Electronic contribution:      1.20502      -0.02251      -0.01597
Nuclear contribution   :     -1.16388      -0.70307       0.01132
                        -----------------------------------------
Total Dipole Moment    :      0.04114      -0.72558      -0.00465
                        -----------------------------------------
Magnitude (a.u.)       :      0.72676
Magnitude (Debye)      :      1.84728

                             ****ORCA TERMINATED NORMALLY****
TOTAL RUN TIME: 0 days 0 hours 6 minutes 40 seconds 398 msec
