                         Program Version 3.0.3 - RELEASE   -
|  1> ! RI-MP2 RIJK def2-TZVP def2-TZVP/C def2-TZVP/JK TIGHTSCF
|  2> % maxcore 2000
|  3> % mp2 density relaxed end
|  4> *xyz 0 1
|  5>  C        0.1407928555     1.6380363258    -0.0191356762
|  6>  C        0.1095493141     0.1057451869     0.0941563666
|  7>  N        0.5767305076    -0.5736281173    -1.0997805482
|  8>  C        1.6355460338    -1.4239695418    -0.8773896947
|  9>  O        2.2070179677    -2.1146450828    -1.6944197156
| 10>  C        1.9193629983    -1.3007564335     0.5905086725
| 11>  C        3.0007578869    -2.0431150858     1.2667319726
| 12>  O        3.2404761032    -1.9515810696     2.4496288825
| 13>  C        1.0514954309    -0.4380944069     1.1358323279
| 14>  H        1.1531503573     1.9853617021    -0.2413674197
| 15>  H       -0.5269142812     1.9751532858    -0.8175850571
| 16>  H       -0.1934806284     2.0965074648     0.9163162119
| 17>  H       -0.9183135637    -0.2045986607     0.3429619583
| 18>  H        0.1608313287    -0.4684739244    -2.0101950032
| 19>  H        3.5869534960    -2.7030388861     0.5978538955
| 20>  H        1.0110400933    -0.1447517966     2.1773278269
| 21> *
| 22>
| 23>                          ****END OF INPUT****

CARTESIAN COORDINATES (ANGSTROEM)
---------------------------------
  C      0.140793    1.638036   -0.019136
  C      0.109549    0.105745    0.094156
  N      0.576731   -0.573628   -1.099781
  C      1.635546   -1.423970   -0.877390
  O      2.207018   -2.114645   -1.694420
  C      1.919363   -1.300756    0.590509
  C      3.000758   -2.043115    1.266732
  O      3.240476   -1.951581    2.449629
  C      1.051495   -0.438094    1.135832
  H      1.153150    1.985362   -0.241367
  H     -0.526914    1.975153   -0.817585
  H     -0.193481    2.096507    0.916316
  H     -0.918314   -0.204599    0.342962
  H      0.160831   -0.468474   -2.010195
  H      3.586953   -2.703039    0.597854
  H      1.011040   -0.144752    2.177328

 Total Charge           Charge          ....    0
 Multiplicity           Mult            ....    1
 Number of Electrons    NEL             ....   66
 Basis Dimension        Dim             ....  321

ORBITAL ENERGIES
----------------

  NO   OCC          E(Eh)            E(eV)
   0   2.0000     -20.559934      -559.4642
   1   2.0000     -20.529830      -558.6451
   2   2.0000     -15.594739      -424.3544
   3   2.0000     -11.363746      -309.2232
   4   2.0000     -11.339683      -308.5685
   5   2.0000     -11.309858      -307.7569
   6   2.0000     -11.292131      -307.2745
   7   2.0000     -11.260302      -306.4084
   8   2.0000     -11.251614      -306.1720
   9   2.0000      -1.398192       -38.0467
  10   2.0000      -1.392044       -37.8794
  11   2.0000      -1.276948       -34.7475
  12   2.0000      -1.102883       -30.0110
  13   2.0000      -1.051931       -28.6245
  14   2.0000      -0.933327       -25.3971
  15   2.0000      -0.871363       -23.7110
  16   2.0000      -0.834567       -22.7097
  17   2.0000      -0.758378       -20.6365
  18   2.0000      -0.713488       -19.4150
  19   2.0000      -0.681817       -18.5532
  20   2.0000      -0.662450       -18.0262
  21   2.0000      -0.640989       -17.4422
  22   2.0000      -0.623147       -16.9567
  23   2.0000      -0.609580       -16.5875
  24   2.0000      -0.599456       -16.3120
  25   2.0000      -0.565317       -15.3831
  26   2.0000      -0.550616       -14.9830
  27   2.0000      -0.541121       -14.7247
  28   2.0000      -0.533991       -14.5306
  29   2.0000      -0.452713       -12.3190
  30   2.0000      -0.422735       -11.5032
  31   2.0000      -0.410248       -11.1634
  32   2.0000      -0.398997       -10.8573
  33   0.0000       0.053115         1.4453
  34   0.0000       0.118297         3.2190
  35   0.0000       0.153008         4.1636
  36   0.0000       0.160575         4.3695
  37   0.0000       0.164832         4.4853

MULLIKEN ATOMIC CHARGES
-----------------------
   0 C :   -0.394890
   1 C :    0.115274
   2 N :   -0.311763
   3 C :    0.196708
   4 O :   -0.336564
   5 C :    0.024671
   6 C :    0.067869
   7 O :   -0.272612
   8 C :   -0.171176
   9 H :    0.144030
  10 H :    0.137099
  11 H :    0.136571
  12 H :    0.125408
  13 H :    0.243682
  14 H :    0.127750
  15 H :    0.167946
Sum of atomic charges:    0.0000000

LOEWDIN ATOMIC CHARGES
----------------------
   0 C :   -0.279250
   1 C :   -0.279160
   2 N :    0.148865
   3 C :   -0.412327
   4 O :    0.088929
   5 C :   -0.133832
   6 C :   -0.250416
   7 O :    0.136983
   8 C :   -0.035802
   9 H :    0.130827
  10 H :    0.126107
  11 H :    0.129886
  12 H :    0.160359
  13 H :    0.186101
  14 H :    0.128523
  15 H :    0.154209

  Mayer bond orders larger than 0.1
B(  0-C ,  1-C ) :   0.8933 B(  0-C ,  9-H ) :   0.9284 B(  0-C , 10-H ) :   0.9327
B(  0-C , 11-H ) :   0.9312 B(  1-C ,  2-N ) :   0.8798 B(  1-C ,  8-C ) :   0.9502
B(  1-C , 12-H ) :   0.9095 B(  2-N ,  3-C ) :   1.1777 B(  2-N , 13-H ) :   0.8637
B(  3-C ,  4-O ) :   2.0067 B(  3-C ,  5-C ) :   0.9085 B(  5-C ,  6-C ) :   0.8419
B(  5-C ,  7-O ) :  -0.1048 B(  5-C ,  8-C ) :   1.6564 B(  6-C ,  7-O ) :   1.9782
B(  6-C , 14-H ) :   0.9690 B(  8-C , 15-H ) :   0.9118

MP2 TOTAL ENERGY:     -437.214848508 Eh
FINAL SINGLE POINT ENERGY      -437.214848507633

DIPOLE MOMENT
-------------
                                X             Y             Z
Electronic contribution:      4.65677      -6.93130       0.24299
Nuclear contribution   :     -6.13918       8.23196      -0.35369
                        -----------------------------------------
Total Dipole Moment    :     -1.48242       1.30066      -0.11070
                        -----------------------------------------
Magnitude (a.u.)       :      1.97523
Magnitude (Debye)      :      5.02063

                             ****ORCA TERMINATED NORMALLY****
TOTAL RUN TIME: 0 days 0 hours 14 minutes 41 seconds 729 msec
