                         Program Version 3.0.3 - RELEASE   -
|  1> ! RI-MP2 RIJK def2-TZVP def2-TZVP/C def2-TZVP/JK TIGHTSCF
|  2> % maxcore 2000
|  3> % mp2 density relaxed end
|  4> *xyz 0 1
|  5>  C       -0.1301676917     1.5561560071     0.4521542125
|  6>  C       -0.1072657156     0.0991203618     0.1177931932
|  7>  C       -0.3739034958    -0.4672136447    -1.0647825054
|  8>  C       -0.1562702971    -1.9456236992    -1.0268581223
|  9>  C       -1.0052386761    -2.8654614276    -1.8789142250
| 10>  O       -0.6566415341    -4.2360895545    -1.7143400619
| 11>  N        1.2654290550    -2.2978681338    -0.7440692450
| 12>  C        0.2739422687    -2.2502815184     0.3615056170
| 13>  C        0.2876996097    -0.9477262859     1.1509145373
| 14>  H        0.8675424879     1.9108057727     0.7407394133
| 15>  H       -0.4711098497     2.1596407468    -0.3935197621
| 16>  H       -0.7899289946     1.7574871671     1.3061266761
| 17>  H       -0.6666310845     0.0688145727    -1.9615569013
| 18>  H       -2.0577103664    -2.7617090995    -1.5877657722
| 19>  H       -0.9342613860    -2.5662267200    -2.9348947826
| 20>  H       -0.0564216048    -4.4806050284    -2.4233336911
| 21>  H        1.3727703461    -3.2872174609    -0.9731503122
| 22>  H        0.0078169370    -3.1856312560     0.8410463028
| 23>  H        1.2759457111    -0.7390619263     1.5797027810
| 24>  H       -0.4235657489    -0.9715492733     1.9880328582
| 25> *
| 26>
| 27>                          ****END OF INPUT****

CARTESIAN COORDINATES (ANGSTROEM)
---------------------------------
  C     -0.130168    1.556156    0.452154
  C     -0.107266    0.099120    0.117793
  C     -0.373903   -0.467214   -1.064783
  C     -0.156270   -1.945624   -1.026858
  C     -1.005239   -2.865461   -1.878914
  O     -0.656642   -4.236090   -1.714340
  N      1.265429   -2.297868   -0.744069
  C      0.273942   -2.250282    0.361506
  C      0.287700   -0.947726    1.150915
  H      0.867542    1.910806    0.740739
  H     -0.471110    2.159641   -0.393520
  H     -0.789929    1.757487    1.306127
  H     -0.666631    0.068815   -1.961557
  H     -2.057710   -2.761709   -1.587766
  H     -0.934261   -2.566227   -2.934895
  H     -0.056422   -4.480605   -2.423334
  H      1.372770   -3.287217   -0.973150
  H      0.007817   -3.185631    0.841046
  H      1.275946   -0.739062    1.579703
  H     -0.423566   -0.971549    1.988033

 Total Charge           Charge          ....    0
 Multiplicity           Mult            ....    1
 Number of Electrons    NEL             ....   68
 Basis Dimension        Dim             ....  345

ORBITAL ENERGIES
----------------

  NO   OCC          E(Eh)            E(eV)
   0   2.0000     -20.567840      -559.6794
   1   2.0000     -15.547805      -423.0773
   2   2.0000     -11.286535      -307.1222
   3   2.0000     -11.256795      -306.3130
   4   2.0000     -11.248419      -306.0851
   5   2.0000     -11.234154      -305.6969
   6   2.0000     -11.224728      -305.4404
   7   2.0000     -11.222426      -305.3777
   8   2.0000     -11.214641      -305.1659
   9   2.0000      -1.372429       -37.3457
  10   2.0000      -1.261452       -34.3258
  11   2.0000      -1.094560       -29.7845
  12   2.0000      -0.992088       -26.9961
  13   2.0000      -0.969024       -26.3685
  14   2.0000      -0.926884       -25.2218
  15   2.0000      -0.834333       -22.7034
  16   2.0000      -0.762346       -20.7445
  17   2.0000      -0.725408       -19.7393
  18   2.0000      -0.693336       -18.8666
  19   2.0000      -0.691947       -18.8288
  20   2.0000      -0.627146       -17.0655
  21   2.0000      -0.610710       -16.6183
  22   2.0000      -0.588694       -16.0192
  23   2.0000      -0.579834       -15.7781
  24   2.0000      -0.553256       -15.0548
  25   2.0000      -0.537989       -14.6394
  26   2.0000      -0.524393       -14.2695
  27   2.0000      -0.515029       -14.0147
  28   2.0000      -0.497163       -13.5285
  29   2.0000      -0.471725       -12.8363
  30   2.0000      -0.462113       -12.5747
  31   2.0000      -0.445172       -12.1137
  32   2.0000      -0.371734       -10.1154
  33   2.0000      -0.329885        -8.9766
  34   0.0000       0.125965         3.4277
  35   0.0000       0.142752         3.8845
  36   0.0000       0.150475         4.0946
  37   0.0000       0.166435         4.5289
  38   0.0000       0.178893         4.8679

MULLIKEN ATOMIC CHARGES
-----------------------
   0 C :   -0.423166
   1 C :    0.056313
   2 C :   -0.351426
   3 C :    0.283828
   4 C :   -0.059419
   5 O :   -0.489540
   6 N :   -0.409500
   7 C :   -0.148044
   8 C :   -0.132665
   9 H :    0.142845
  10 H :    0.135522
  11 H :    0.135841
  12 H :    0.119317
  13 H :    0.122792
  14 H :    0.121005
  15 H :    0.326234
  16 H :    0.198670
  17 H :    0.142875
  18 H :    0.116660
  19 H :    0.111856
Sum of atomic charges:    0.0000000

LOEWDIN ATOMIC CHARGES
----------------------
   0 C :   -0.274433
   1 C :   -0.165329
   2 C :   -0.104904
   3 C :   -0.280510
   4 C :   -0.304042
   5 O :   -0.043930
   6 N :    0.018942
   7 C :   -0.213478
   8 C :   -0.193488
   9 H :    0.133101
  10 H :    0.130155
  11 H :    0.130555
  12 H :    0.140264
  13 H :    0.136237
  14 H :    0.124695
  15 H :    0.173773
  16 H :    0.162148
  17 H :    0.139199
  18 H :    0.147974
  19 H :    0.143071

  Mayer bond orders larger than 0.1
B(  0-C ,  1-C ) :   0.8854 B(  0-C ,  9-H ) :   0.9280 B(  0-C , 10-H ) :   0.9459
B(  0-C , 11-H ) :   0.9338 B(  1-C ,  2-C ) :   1.8037 B(  1-C ,  8-C ) :   0.9839
B(  2-C ,  3-C ) :   0.8983 B(  2-C , 12-H ) :   0.9191 B(  3-C ,  4-C ) :   0.8576
B(  3-C ,  6-N ) :   0.8828 B(  3-C ,  7-C ) :   0.8890 B(  4-C ,  5-O ) :   0.9369
B(  4-C , 13-H ) :   0.9248 B(  4-C , 14-H ) :   0.9558 B(  5-O , 15-H ) :   0.8438
B(  6-N ,  7-C ) :   0.9691 B(  6-N , 16-H ) :   0.8684 B(  7-C ,  8-C ) :   0.9337
B(  7-C , 17-H ) :   0.9143 B(  8-C , 18-H ) :   0.8881 B(  8-C , 19-H ) :   0.9064

MP2 TOTAL ENERGY:     -402.442328684 Eh
FINAL SINGLE POINT ENERGY      -402.442328683815

DIPOLE MOMENT
-------------
                                X             Y             Z
Electronic contribution:      0.70926      -4.56232      -1.97971
Nuclear contribution   :     -1.00077       4.60985       1.70625
                        -----------------------------------------
Total Dipole Moment    :     -0.29151       0.04753      -0.27346
                        -----------------------------------------
Magnitude (a.u.)       :      0.40251
Magnitude (Debye)      :      1.02310

                             ****ORCA TERMINATED NORMALLY****
TOTAL RUN TIME: 0 days 0 hours 18 minutes 52 seconds 704 msec
