                         Program Version 3.0.3 - RELEASE   -
|  1> ! RI-MP2 RIJK def2-TZVP def2-TZVP/C def2-TZVP/JK TIGHTSCF
|  2> % maxcore 2000
|  3> % mp2 density relaxed end
|  4> *xyz 0 1
|  5>  C        0.2714093568     1.5403288362     0.0722126522
|  6>  C        0.0020472223     0.0580756304    -0.0176410355
|  7>  C        0.0156945495    -0.5623056005    -1.2032444397
|  8>  C       -0.1845332607    -2.0157928558    -1.5647384293
|  9>  C       -0.2687929724    -3.0262254199    -0.4095004109
| 10>  C       -1.4664471872    -2.7689554618     0.4801587876
| 11>  C       -1.3928936145    -2.9085799145     1.9821525745
| 12>  C       -1.4625069625    -1.5383775263     1.3474816330
| 13>  C       -0.2486773765    -0.6235159063     1.3238143431
| 14>  H        1.1333647030     1.7464486935     0.7210937606
| 15>  H        0.4729851553     1.9827021861    -0.9069660303
| 16>  H       -0.5808133347     2.0703223192     0.5186062294
| 17>  H        0.2074774811     0.0650165046    -2.0744992829
| 18>  H       -1.0950082187    -2.0990290329    -2.1795102178
| 19>  H        0.6325958038    -2.3094456881    -2.2395415024
| 20>  H       -0.3195945472    -4.0409691763    -0.8232871019
| 21>  H        0.6561264049    -2.9876422406     0.1763553231
| 22>  H       -2.4199492856    -3.0241014141     0.0233640017
| 23>  H       -2.2620441348    -3.2833107583     2.5120497343
| 24>  H       -0.4452350627    -3.2152974338     2.4154650623
| 25>  H       -2.4101859988    -1.0140358667     1.4353150897
| 26>  H        0.6464561462    -1.1844449399     1.6205408426
| 27>  H       -0.3682563968     0.1451839561     2.0963978367
| 28> *
| 29>
| 30>                          ****END OF INPUT****

CARTESIAN COORDINATES (ANGSTROEM)
---------------------------------
  C      0.271409    1.540329    0.072213
  C      0.002047    0.058076   -0.017641
  C      0.015695   -0.562306   -1.203244
  C     -0.184533   -2.015793   -1.564738
  C     -0.268793   -3.026225   -0.409500
  C     -1.466447   -2.768955    0.480159
  C     -1.392894   -2.908580    1.982153
  C     -1.462507   -1.538378    1.347482
  C     -0.248677   -0.623516    1.323814
  H      1.133365    1.746449    0.721094
  H      0.472985    1.982702   -0.906966
  H     -0.580813    2.070322    0.518606
  H      0.207477    0.065017   -2.074499
  H     -1.095008   -2.099029   -2.179510
  H      0.632596   -2.309446   -2.239542
  H     -0.319595   -4.040969   -0.823287
  H      0.656126   -2.987642    0.176355
  H     -2.419949   -3.024101    0.023364
  H     -2.262044   -3.283311    2.512050
  H     -0.445235   -3.215297    2.415465
  H     -2.410186   -1.014036    1.435315
  H      0.646456   -1.184445    1.620541
  H     -0.368256    0.145184    2.096398

 Total Charge           Charge          ....    0
 Multiplicity           Mult            ....    1
 Number of Electrons    NEL             ....   68
 Basis Dimension        Dim             ....  363

ORBITAL ENERGIES
----------------

  NO   OCC          E(Eh)            E(eV)
   0   2.0000     -11.225146      -305.4518
   1   2.0000     -11.222928      -305.3914
   2   2.0000     -11.221902      -305.3635
   3   2.0000     -11.220694      -305.3306
   4   2.0000     -11.220516      -305.3258
   5   2.0000     -11.218173      -305.2620
   6   2.0000     -11.217972      -305.2565
   7   2.0000     -11.214198      -305.1538
   8   2.0000     -11.211504      -305.0805
   9   2.0000      -1.154688       -31.4207
  10   2.0000      -1.082373       -29.4529
  11   2.0000      -1.033859       -28.1327
  12   2.0000      -0.944651       -25.7052
  13   2.0000      -0.924634       -25.1606
  14   2.0000      -0.852077       -23.1862
  15   2.0000      -0.801425       -21.8079
  16   2.0000      -0.741821       -20.1860
  17   2.0000      -0.697648       -18.9840
  18   2.0000      -0.666599       -18.1391
  19   2.0000      -0.624043       -16.9811
  20   2.0000      -0.609899       -16.5962
  21   2.0000      -0.595075       -16.1928
  22   2.0000      -0.557254       -15.1636
  23   2.0000      -0.553234       -15.0542
  24   2.0000      -0.545195       -14.8355
  25   2.0000      -0.527446       -14.3525
  26   2.0000      -0.515480       -14.0269
  27   2.0000      -0.503023       -13.6880
  28   2.0000      -0.484442       -13.1823
  29   2.0000      -0.469410       -12.7733
  30   2.0000      -0.462960       -12.5978
  31   2.0000      -0.396474       -10.7886
  32   2.0000      -0.385984       -10.5032
  33   2.0000      -0.326190        -8.8761
  34   0.0000       0.136176         3.7055
  35   0.0000       0.152013         4.1365
  36   0.0000       0.155922         4.2428
  37   0.0000       0.163436         4.4473
  38   0.0000       0.176669         4.8074

MULLIKEN ATOMIC CHARGES
-----------------------
   0 C :   -0.419794
   1 C :    0.104426
   2 C :   -0.276006
   3 C :   -0.122268
   4 C :   -0.240507
   5 C :   -0.102989
   6 C :   -0.301118
   7 C :   -0.047969
   8 C :   -0.307642
   9 H :    0.134796
  10 H :    0.125782
  11 H :    0.133087
  12 H :    0.103882
  13 H :    0.108886
  14 H :    0.122317
  15 H :    0.123239
  16 H :    0.114721
  17 H :    0.113485
  18 H :    0.129302
  19 H :    0.122509
  20 H :    0.111521
  21 H :    0.132004
  22 H :    0.138337
Sum of atomic charges:    0.0000000

LOEWDIN ATOMIC CHARGES
----------------------
   0 C :   -0.278327
   1 C :   -0.192406
   2 C :   -0.157953
   3 C :   -0.251930
   4 C :   -0.242340
   5 C :   -0.210151
   6 C :   -0.209669
   7 C :   -0.201095
   8 C :   -0.206607
   9 H :    0.127745
  10 H :    0.124902
  11 H :    0.127049
  12 H :    0.145155
  13 H :    0.145515
  14 H :    0.143368
  15 H :    0.140271
  16 H :    0.142604
  17 H :    0.147078
  18 H :    0.130354
  19 H :    0.132873
  20 H :    0.146756
  21 H :    0.149133
  22 H :    0.147673

  Mayer bond orders larger than 0.1
B(  0-C ,  1-C ) :   0.8883 B(  0-C ,  9-H ) :   0.9310 B(  0-C , 10-H ) :   0.9447
B(  0-C , 11-H ) :   0.9335 B(  1-C ,  2-C ) :   1.7856 B(  1-C ,  8-C ) :   0.8799
B(  2-C ,  3-C ) :   0.9394 B(  2-C , 12-H ) :   0.9240 B(  3-C ,  4-C ) :   0.9228
B(  3-C , 13-H ) :   0.9133 B(  3-C , 14-H ) :   0.9253 B(  4-C ,  5-C ) :   0.9300
B(  4-C , 15-H ) :   0.9300 B(  4-C , 16-H ) :   0.9325 B(  5-C ,  6-C ) :   0.8930
B(  5-C ,  7-C ) :   0.8741 B(  5-C , 17-H ) :   0.9266 B(  6-C ,  7-C ) :   0.8940
B(  6-C , 18-H ) :   0.9320 B(  6-C , 19-H ) :   0.9210 B(  7-C ,  8-C ) :   0.9087
B(  7-C , 20-H ) :   0.9264 B(  8-C , 21-H ) :   0.9236 B(  8-C , 22-H ) :   0.9385

MP2 TOTAL ENERGY:     -350.506054566 Eh
FINAL SINGLE POINT ENERGY      -350.506054566102

DIPOLE MOMENT
-------------
                                X             Y             Z
Electronic contribution:     -1.02205      -1.08764      -0.12638
Nuclear contribution   :      1.00661       1.06012       0.13911
                        -----------------------------------------
Total Dipole Moment    :     -0.01545      -0.02752       0.01273
                        -----------------------------------------
Magnitude (a.u.)       :      0.03403
Magnitude (Debye)      :      0.08650

                             ****ORCA TERMINATED NORMALLY****
TOTAL RUN TIME: 0 days 0 hours 23 minutes 30 seconds 407 msec
