                         Program Version 3.0.3 - RELEASE   -
|  1> ! RI-MP2 RIJK def2-TZVP def2-TZVP/C def2-TZVP/JK TIGHTSCF
|  2> % maxcore 2000
|  3> % mp2 density relaxed end
|  4> *xyz 0 1
|  5>  O        0.5217120394     0.6235578653    -0.9432920599
|  6>  C       -0.0307564289     0.2123785281     0.2988740723
|  7>  C       -1.4670164983    -0.2503764661     0.1824477379
|  8>  N       -1.8635485680    -1.0498413620    -0.9935547903
|  9>  C       -2.4422003476     0.3001153947    -0.8001509106
| 10>  C       -3.8350308366     0.3172792920    -0.1783364788
| 11>  C       -3.6807281236    -0.2854572681     1.2235350755
| 12>  C       -3.2289467155    -1.7152222342     1.3836420849
| 13>  C       -2.2128902377    -0.6019467402     1.4573234892
| 14>  H        0.1284098462     1.4713258001    -1.1734021874
| 15>  H        0.5971804941    -0.6192967507     0.6399983814
| 16>  H        0.0445328977     1.0071378347     1.0567682244
| 17>  H       -1.1124842439    -0.9706765731    -1.6788723695
| 18>  H       -2.1774430042     1.0681149915    -1.5226511949
| 19>  H       -4.1804888237     1.3542986571    -0.0968902761
| 20>  H       -4.5618544043    -0.2212005909    -0.7962191813
| 21>  H       -4.2847057556     0.1388894140     2.0185298897
| 22>  H       -3.4922105652    -2.2094799663     2.3130271850
| 23>  H       -3.1963971064    -2.3538532693     0.5096184393
| 24>  H       -1.7245735680    -0.3809693966     2.4004334792
| 25> *
| 26>
| 27>                          ****END OF INPUT****

CARTESIAN COORDINATES (ANGSTROEM)
---------------------------------
  O      0.521712    0.623558   -0.943292
  C     -0.030756    0.212379    0.298874
  C     -1.467016   -0.250376    0.182448
  N     -1.863549   -1.049841   -0.993555
  C     -2.442200    0.300115   -0.800151
  C     -3.835031    0.317279   -0.178336
  C     -3.680728   -0.285457    1.223535
  C     -3.228947   -1.715222    1.383642
  C     -2.212890   -0.601947    1.457323
  H      0.128410    1.471326   -1.173402
  H      0.597180   -0.619297    0.639998
  H      0.044533    1.007138    1.056768
  H     -1.112484   -0.970677   -1.678872
  H     -2.177443    1.068115   -1.522651
  H     -4.180489    1.354299   -0.096890
  H     -4.561854   -0.221201   -0.796219
  H     -4.284706    0.138889    2.018530
  H     -3.492211   -2.209480    2.313027
  H     -3.196397   -2.353853    0.509618
  H     -1.724574   -0.380969    2.400433

 Total Charge           Charge          ....    0
 Multiplicity           Mult            ....    1
 Number of Electrons    NEL             ....   68
 Basis Dimension        Dim             ....  345

ORBITAL ENERGIES
----------------

  NO   OCC          E(Eh)            E(eV)
   0   2.0000     -20.568715      -559.7032
   1   2.0000     -15.547879      -423.0793
   2   2.0000     -11.286610      -307.1243
   3   2.0000     -11.261303      -306.4356
   4   2.0000     -11.254409      -306.2480
   5   2.0000     -11.228007      -305.5296
   6   2.0000     -11.226834      -305.4977
   7   2.0000     -11.224526      -305.4349
   8   2.0000     -11.216186      -305.2079
   9   2.0000      -1.374098       -37.3911
  10   2.0000      -1.268881       -34.5280
  11   2.0000      -1.137261       -30.9464
  12   2.0000      -0.998672       -27.1752
  13   2.0000      -0.972799       -26.4712
  14   2.0000      -0.872410       -23.7395
  15   2.0000      -0.817707       -22.2509
  16   2.0000      -0.765215       -20.8226
  17   2.0000      -0.749105       -20.3842
  18   2.0000      -0.721926       -19.6446
  19   2.0000      -0.685764       -18.6606
  20   2.0000      -0.641936       -17.4680
  21   2.0000      -0.616226       -16.7684
  22   2.0000      -0.600213       -16.3326
  23   2.0000      -0.575885       -15.6706
  24   2.0000      -0.558698       -15.2029
  25   2.0000      -0.542397       -14.7594
  26   2.0000      -0.528091       -14.3701
  27   2.0000      -0.503251       -13.6942
  28   2.0000      -0.471987       -12.8434
  29   2.0000      -0.455053       -12.3826
  30   2.0000      -0.443782       -12.0759
  31   2.0000      -0.414429       -11.2772
  32   2.0000      -0.394242       -10.7279
  33   2.0000      -0.359603        -9.7853
  34   0.0000       0.125357         3.4111
  35   0.0000       0.153944         4.1890
  36   0.0000       0.160536         4.3684
  37   0.0000       0.179027         4.8716
  38   0.0000       0.181631         4.9424

MULLIKEN ATOMIC CHARGES
-----------------------
   0 O :   -0.473413
   1 C :   -0.045390
   2 C :    0.128478
   3 N :   -0.383994
   4 C :   -0.174552
   5 C :   -0.152105
   6 C :   -0.112848
   7 C :   -0.298321
   8 C :   -0.144800
   9 H :    0.320142
  10 H :    0.124548
  11 H :    0.117731
  12 H :    0.226889
  13 H :    0.106753
  14 H :    0.111463
  15 H :    0.112407
  16 H :    0.122244
  17 H :    0.125734
  18 H :    0.162412
  19 H :    0.126623
Sum of atomic charges:    0.0000000

LOEWDIN ATOMIC CHARGES
----------------------
   0 O :   -0.040148
   1 C :   -0.307844
   2 C :   -0.274143
   3 N :    0.029247
   4 C :   -0.229815
   5 C :   -0.213487
   6 C :   -0.189513
   7 C :   -0.199507
   8 C :   -0.161042
   9 H :    0.174141
  10 H :    0.137814
  11 H :    0.126231
  12 H :    0.171705
  13 H :    0.128851
  14 H :    0.143169
  15 H :    0.143537
  16 H :    0.140930
  17 H :    0.132124
  18 H :    0.142073
  19 H :    0.145678

  Mayer bond orders larger than 0.1
B(  0-O ,  1-C ) :   0.8962 B(  0-O ,  9-H ) :   0.8431 B(  1-C ,  2-C ) :   0.8681
B(  1-C , 10-H ) :   0.9316 B(  1-C , 11-H ) :   0.9435 B(  2-C ,  3-N ) :   0.9095
B(  2-C ,  4-C ) :   0.8876 B(  2-C ,  8-C ) :   0.8957 B(  3-N ,  4-C ) :   0.9511
B(  3-N , 12-H ) :   0.8643 B(  4-C ,  5-C ) :   0.9604 B(  4-C , 13-H ) :   0.9268
B(  5-C ,  6-C ) :   0.9701 B(  5-C , 14-H ) :   0.9225 B(  5-C , 15-H ) :   0.8994
B(  6-C ,  7-C ) :   0.8920 B(  6-C ,  8-C ) :   0.8656 B(  6-C , 16-H ) :   0.9349
B(  7-C ,  8-C ) :   0.8831 B(  7-C , 17-H ) :   0.9341 B(  7-C , 18-H ) :   0.9147
B(  8-C , 19-H ) :   0.9326

MP2 TOTAL ENERGY:     -402.430020187 Eh
FINAL SINGLE POINT ENERGY      -402.430020187300

DIPOLE MOMENT
-------------
                                X             Y             Z
Electronic contribution:      2.15367      -0.04791      -1.66265
Nuclear contribution   :     -2.25332       0.93479       1.97517
                        -----------------------------------------
Total Dipole Moment    :     -0.09965       0.88688       0.31251
                        -----------------------------------------
Magnitude (a.u.)       :      0.94560
Magnitude (Debye)      :      2.40352

                             ****ORCA TERMINATED NORMALLY****
TOTAL RUN TIME: 0 days 0 hours 18 minutes 51 seconds 47 msec
