                         Program Version 3.0.3 - RELEASE   -
|  1> ! RI-MP2 RIJK def2-TZVP def2-TZVP/C def2-TZVP/JK TIGHTSCF
|  2> % maxcore 2000
|  3> % mp2 density relaxed end
|  4> *xyz 0 1
|  5>  C       -0.1333079467     1.5276834513     0.0210541115
|  6>  C        0.0255861560     0.0149703927    -0.0478333088
|  7>  C        1.1724717251    -0.6282399029    -0.9529729820
|  8>  C        2.1188174428     0.3040786349    -1.6634828654
|  9>  O        2.1323823140     0.4677553054    -2.8591737718
| 10>  C        1.7100939963    -1.2917778985     0.3279337876
| 11>  O        2.0148104353    -0.2331924321     1.2483797926
| 12>  C        0.6561243752    -0.6996776893     1.1674264892
| 13>  C       -0.0098280247    -1.1468890940     2.4270079906
| 14>  H        0.7803547722     2.0006797391     0.3904022591
| 15>  H       -0.3638598713     1.9460339155    -0.9637688326
| 16>  H       -0.9522156125     1.7980663043     0.6963059065
| 17>  H       -0.9228270797    -0.4590845540    -0.3194275229
| 18>  H        0.7548334327    -1.3312430872    -1.6764825393
| 19>  H        2.8206494891     0.8497934010    -0.9984665389
| 20>  H        2.2710478362    -2.2142439124     0.4288541327
| 21>  H       -0.3130965241    -0.2862609065     3.0337285833
| 22>  H       -0.9063410531    -1.7342068402     2.2043439006
| 23>  H        0.6724759172    -1.7582831072     3.0232858682
| 24> *
| 25>
| 26>                          ****END OF INPUT****

CARTESIAN COORDINATES (ANGSTROEM)
---------------------------------
  C     -0.133308    1.527683    0.021054
  C      0.025586    0.014970   -0.047833
  C      1.172472   -0.628240   -0.952973
  C      2.118817    0.304079   -1.663483
  O      2.132382    0.467755   -2.859174
  C      1.710094   -1.291778    0.327934
  O      2.014810   -0.233192    1.248380
  C      0.656124   -0.699678    1.167426
  C     -0.009828   -1.146889    2.427008
  H      0.780355    2.000680    0.390402
  H     -0.363860    1.946034   -0.963769
  H     -0.952216    1.798066    0.696306
  H     -0.922827   -0.459085   -0.319428
  H      0.754833   -1.331243   -1.676483
  H      2.820649    0.849793   -0.998467
  H      2.271048   -2.214244    0.428854
  H     -0.313097   -0.286261    3.033729
  H     -0.906341   -1.734207    2.204344
  H      0.672476   -1.758283    3.023286

 Total Charge           Charge          ....    0
 Multiplicity           Mult            ....    1
 Number of Electrons    NEL             ....   68
 Basis Dimension        Dim             ....  339

ORBITAL ENERGIES
----------------

  NO   OCC          E(Eh)            E(eV)
   0   2.0000     -20.577803      -559.9505
   1   2.0000     -20.553464      -559.2882
   2   2.0000     -11.326007      -308.1963
   3   2.0000     -11.303018      -307.5708
   4   2.0000     -11.298876      -307.4580
   5   2.0000     -11.259222      -306.3790
   6   2.0000     -11.253025      -306.2104
   7   2.0000     -11.239594      -305.8449
   8   2.0000     -11.226012      -305.4753
   9   2.0000      -1.430574       -38.9279
  10   2.0000      -1.390359       -37.8336
  11   2.0000      -1.115258       -30.3477
  12   2.0000      -1.023332       -27.8463
  13   2.0000      -0.993271       -27.0283
  14   2.0000      -0.910286       -24.7701
  15   2.0000      -0.857688       -23.3389
  16   2.0000      -0.789702       -21.4889
  17   2.0000      -0.744528       -20.2596
  18   2.0000      -0.712304       -19.3828
  19   2.0000      -0.654881       -17.8202
  20   2.0000      -0.639270       -17.3954
  21   2.0000      -0.635474       -17.2921
  22   2.0000      -0.608583       -16.5604
  23   2.0000      -0.594273       -16.1710
  24   2.0000      -0.570884       -15.5346
  25   2.0000      -0.557668       -15.1749
  26   2.0000      -0.540382       -14.7045
  27   2.0000      -0.530317       -14.4307
  28   2.0000      -0.518380       -14.1058
  29   2.0000      -0.499298       -13.5866
  30   2.0000      -0.472620       -12.8606
  31   2.0000      -0.446353       -12.1459
  32   2.0000      -0.428358       -11.6562
  33   2.0000      -0.394173       -10.7260
  34   0.0000       0.117336         3.1929
  35   0.0000       0.133675         3.6375
  36   0.0000       0.153475         4.1763
  37   0.0000       0.162425         4.4198
  38   0.0000       0.175588         4.7780

MULLIKEN ATOMIC CHARGES
-----------------------
   0 C :   -0.440242
   1 C :   -0.065900
   2 C :    0.065550
   3 C :    0.008261
   4 O :   -0.266197
   5 C :   -0.058499
   6 O :   -0.336246
   7 C :    0.152989
   8 C :   -0.423925
   9 H :    0.150125
  10 H :    0.149451
  11 H :    0.135697
  12 H :    0.113828
  13 H :    0.123997
  14 H :    0.114496
  15 H :    0.143997
  16 H :    0.145305
  17 H :    0.138300
  18 H :    0.149013
Sum of atomic charges:   -0.0000000

LOEWDIN ATOMIC CHARGES
----------------------
   0 C :   -0.292764
   1 C :   -0.177127
   2 C :   -0.180989
   3 C :   -0.274361
   4 O :    0.129119
   5 C :   -0.201862
   6 O :    0.189243
   7 C :   -0.284542
   8 C :   -0.268446
   9 H :    0.130964
  10 H :    0.130474
  11 H :    0.127197
  12 H :    0.155729
  13 H :    0.158366
  14 H :    0.119225
  15 H :    0.133081
  16 H :    0.135014
  17 H :    0.133927
  18 H :    0.137753

  Mayer bond orders larger than 0.1
B(  0-C ,  1-C ) :   0.8845 B(  0-C ,  9-H ) :   0.9392 B(  0-C , 10-H ) :   0.9359
B(  0-C , 11-H ) :   0.9309 B(  1-C ,  2-C ) :   0.9133 B(  1-C ,  7-C ) :   0.9055
B(  1-C , 12-H ) :   0.9120 B(  2-C ,  3-C ) :   0.8260 B(  2-C ,  5-C ) :   0.8383
B(  2-C , 13-H ) :   0.8965 B(  3-C ,  4-O ) :   1.9696 B(  3-C , 14-H ) :   0.9527
B(  5-C ,  6-O ) :   0.8773 B(  5-C ,  7-C ) :   0.8588 B(  5-C , 15-H ) :   0.9239
B(  6-O ,  7-C ) :   0.8998 B(  7-C ,  8-C ) :   0.8739 B(  8-C , 16-H ) :   0.9358
B(  8-C , 17-H ) :   0.9386 B(  8-C , 18-H ) :   0.9365

MP2 TOTAL ENERGY:     -422.293087187 Eh
FINAL SINGLE POINT ENERGY      -422.293087186767

DIPOLE MOMENT
-------------
                                X             Y             Z
Electronic contribution:      5.70447      -1.05874      -4.85325
Nuclear contribution   :     -6.53783       0.41790       5.77406
                        -----------------------------------------
Total Dipole Moment    :     -0.83336      -0.64084       0.92081
                        -----------------------------------------
Magnitude (a.u.)       :      1.39752
Magnitude (Debye)      :      3.55221

                             ****ORCA TERMINATED NORMALLY****
TOTAL RUN TIME: 0 days 0 hours 19 minutes 52 seconds 360 msec
