                         Program Version 3.0.3 - RELEASE   -
|  1> ! RI-MP2 RIJK def2-TZVP def2-TZVP/C def2-TZVP/JK TIGHTSCF
|  2> % maxcore 2000
|  3> % mp2 density relaxed end
|  4> *xyz 0 1
|  5>  C       -0.0775509136     1.4427354659     0.0175268428
|  6>  C        0.0048939784    -0.0077317524     0.0002020138
|  7>  C        0.0861996711    -1.2106563944    -0.0162675887
|  8>  C        0.1572157492    -2.6207647769    -0.0335737193
|  9>  N        1.2501162180    -3.3801875740    -0.0734059114
| 10>  C        0.7426890185    -4.6426308878    -0.0754726695
| 11>  N        1.5561948031    -5.7529331460    -0.1720405056
| 12>  N       -0.5851139285    -4.7262435552    -0.0329589157
| 13>  N       -0.9376327917    -3.4142816461    -0.0114326873
| 14>  H        0.9218539957     1.8891991023    -0.0150144908
| 15>  H       -0.6402981459     1.8186506507    -0.8440666380
| 16>  H       -0.5753820607     1.8017838897     0.9250554286
| 17>  H        2.4850619720    -5.5929010191     0.1888862461
| 18>  H        1.1343372120    -6.5987908216     0.1823691241
| 19>  H       -1.9071832778    -3.1478922950     0.0210169708
| 20> *
| 21>
| 22>                          ****END OF INPUT****

CARTESIAN COORDINATES (ANGSTROEM)
---------------------------------
  C     -0.077551    1.442735    0.017527
  C      0.004894   -0.007732    0.000202
  C      0.086200   -1.210656   -0.016268
  C      0.157216   -2.620765   -0.033574
  N      1.250116   -3.380188   -0.073406
  C      0.742689   -4.642631   -0.075473
  N      1.556195   -5.752933   -0.172041
  N     -0.585114   -4.726244   -0.032959
  N     -0.937633   -3.414282   -0.011433
  H      0.921854    1.889199   -0.015014
  H     -0.640298    1.818651   -0.844067
  H     -0.575382    1.801784    0.925055
  H      2.485062   -5.592901    0.188886
  H      1.134337   -6.598791    0.182369
  H     -1.907183   -3.147892    0.021017

 Total Charge           Charge          ....    0
 Multiplicity           Mult            ....    1
 Number of Electrons    NEL             ....   64
 Basis Dimension        Dim             ....  315

ORBITAL ENERGIES
----------------

  NO   OCC          E(Eh)            E(eV)
   0   2.0000     -15.642156      -425.6447
   1   2.0000     -15.572845      -423.7586
   2   2.0000     -15.563911      -423.5155
   3   2.0000     -15.551021      -423.1648
   4   2.0000     -11.339290      -308.5578
   5   2.0000     -11.320434      -308.0447
   6   2.0000     -11.265653      -306.5540
   7   2.0000     -11.263104      -306.4846
   8   2.0000     -11.244771      -305.9858
   9   2.0000      -1.406920       -38.2842
  10   2.0000      -1.230486       -33.4832
  11   2.0000      -1.184070       -32.2202
  12   2.0000      -1.104175       -30.0461
  13   2.0000      -1.069149       -29.0930
  14   2.0000      -0.985407       -26.8143
  15   2.0000      -0.879642       -23.9363
  16   2.0000      -0.809277       -22.0215
  17   2.0000      -0.786557       -21.4033
  18   2.0000      -0.705828       -19.2066
  19   2.0000      -0.654533       -17.8108
  20   2.0000      -0.646731       -17.5984
  21   2.0000      -0.629707       -17.1352
  22   2.0000      -0.612653       -16.6711
  23   2.0000      -0.605870       -16.4866
  24   2.0000      -0.605428       -16.4745
  25   2.0000      -0.510525       -13.8921
  26   2.0000      -0.497477       -13.5370
  27   2.0000      -0.445240       -12.1156
  28   2.0000      -0.443874       -12.0784
  29   2.0000      -0.403850       -10.9893
  30   2.0000      -0.382606       -10.4112
  31   2.0000      -0.320370        -8.7177
  32   0.0000       0.105383         2.8676
  33   0.0000       0.124497         3.3877
  34   0.0000       0.144360         3.9282
  35   0.0000       0.147190         4.0053
  36   0.0000       0.172830         4.7030

MULLIKEN ATOMIC CHARGES
-----------------------
   0 C :   -0.465574
   1 C :    0.062005
   2 C :    0.065430
   3 C :    0.002100
   4 N :   -0.314083
   5 C :    0.261936
   6 N :   -0.509438
   7 N :   -0.241200
   8 N :   -0.150210
   9 H :    0.172130
  10 H :    0.166495
  11 H :    0.165953
  12 H :    0.263981
  13 H :    0.257841
  14 H :    0.262633
Sum of atomic charges:    0.0000000

LOEWDIN ATOMIC CHARGES
----------------------
   0 C :   -0.287609
   1 C :   -0.066058
   2 C :   -0.049945
   3 C :   -0.332721
   4 N :    0.122943
   5 C :   -0.464759
   6 N :   -0.068733
   7 N :    0.013654
   8 N :    0.156465
   9 H :    0.146983
  10 H :    0.144032
  11 H :    0.143780
  12 H :    0.175231
  13 H :    0.172664
  14 H :    0.194073

  Mayer bond orders larger than 0.1
B(  0-C ,  1-C ) :   0.8578 B(  0-C ,  9-H ) :   0.9397 B(  0-C , 10-H ) :   0.9426
B(  0-C , 11-H ) :   0.9427 B(  1-C ,  2-C ) :   2.6715 B(  1-C ,  3-C ) :  -0.1494
B(  2-C ,  3-C ) :   1.1264 B(  3-C ,  4-N ) :   1.4802 B(  3-C ,  8-N ) :   1.2582
B(  4-N ,  5-C ) :   1.3068 B(  5-C ,  6-N ) :   1.0753 B(  5-C ,  7-N ) :   1.5470
B(  6-N , 12-H ) :   0.8690 B(  6-N , 13-H ) :   0.8722 B(  7-N ,  8-N ) :   1.0592
B(  8-N , 14-H ) :   0.8619

MP2 TOTAL ENERGY:     -412.284372681 Eh
FINAL SINGLE POINT ENERGY      -412.284372681316

DIPOLE MOMENT
-------------
                                X             Y             Z
Electronic contribution:     -0.54968      -5.49395      -0.19925
Nuclear contribution   :     -0.06794       6.24841       0.65459
                        -----------------------------------------
Total Dipole Moment    :     -0.61762       0.75447       0.45534
                        -----------------------------------------
Magnitude (a.u.)       :      1.07611
Magnitude (Debye)      :      2.73525

                             ****ORCA TERMINATED NORMALLY****
TOTAL RUN TIME: 0 days 0 hours 14 minutes 2 seconds 972 msec
