                         Program Version 3.0.3 - RELEASE   -
|  1> ! RI-MP2 RIJK def2-TZVP def2-TZVP/C def2-TZVP/JK TIGHTSCF
|  2> % maxcore 2000
|  3> % mp2 density relaxed end
|  4> *xyz 0 1
|  5>  C       -0.0806974736     1.5673368062    -0.1562360228
|  6>  C       -0.0117285766     0.0501714808    -0.0468262945
|  7>  N       -1.2699233140    -0.6264675900     0.2545812804
|  8>  C        0.6952070335    -0.6823028786    -1.2108527311
|  9>  O        2.0339783341    -0.1882354345    -1.2804866416
| 10>  C        1.7422108228    -1.2178089770    -0.3375023003
| 11>  C        1.1218823228    -0.5552315037     0.9079949943
| 12>  C        1.9597294391     0.3497229859     1.6743828822
| 13>  N        2.6125231805     1.0794937184     2.2892922414
| 14>  H        0.8882455033     1.9870457403    -0.4363161717
| 15>  H       -0.8170097153     1.8549872446    -0.9152387227
| 16>  H       -0.3829798397     2.0124626750     0.7977822249
| 17>  H       -1.6601165426    -0.2538442706     1.1172875613
| 18>  H       -1.9495201834    -0.4122261044    -0.4720838739
| 19>  H        0.2512743377    -1.0864406469    -2.1131590692
| 20>  H        2.3255183904    -2.1288199796    -0.3817387016
| 21>  H        0.6615904109    -1.2973321959     1.5640665147
| 22> *
| 23>
| 24>                          ****END OF INPUT****

CARTESIAN COORDINATES (ANGSTROEM)
---------------------------------
  C     -0.080697    1.567337   -0.156236
  C     -0.011729    0.050171   -0.046826
  N     -1.269923   -0.626468    0.254581
  C      0.695207   -0.682303   -1.210853
  O      2.033978   -0.188235   -1.280487
  C      1.742211   -1.217809   -0.337502
  C      1.121882   -0.555232    0.907995
  C      1.959729    0.349723    1.674383
  N      2.612523    1.079494    2.289292
  H      0.888246    1.987046   -0.436316
  H     -0.817010    1.854987   -0.915239
  H     -0.382980    2.012463    0.797782
  H     -1.660117   -0.253844    1.117288
  H     -1.949520   -0.412226   -0.472084
  H      0.251274   -1.086441   -2.113159
  H      2.325518   -2.128820   -0.381739
  H      0.661590   -1.297332    1.564067

 Total Charge           Charge          ....    0
 Multiplicity           Mult            ....    1
 Number of Electrons    NEL             ....   66
 Basis Dimension        Dim             ....  327

ORBITAL ENERGIES
----------------

  NO   OCC          E(Eh)            E(eV)
   0   2.0000     -20.591088      -560.3120
   1   2.0000     -15.571228      -423.7147
   2   2.0000     -15.569027      -423.6548
   3   2.0000     -11.314887      -307.8937
   4   2.0000     -11.306807      -307.6739
   5   2.0000     -11.306026      -307.6526
   6   2.0000     -11.290875      -307.2403
   7   2.0000     -11.271723      -306.7192
   8   2.0000     -11.230212      -305.5896
   9   2.0000      -1.446405       -39.3587
  10   2.0000      -1.229415       -33.4541
  11   2.0000      -1.213754       -33.0279
  12   2.0000      -1.091721       -29.7072
  13   2.0000      -0.998807       -27.1789
  14   2.0000      -0.944385       -25.6980
  15   2.0000      -0.867055       -23.5938
  16   2.0000      -0.795340       -21.6423
  17   2.0000      -0.733269       -19.9533
  18   2.0000      -0.708458       -19.2781
  19   2.0000      -0.683922       -18.6105
  20   2.0000      -0.642979       -17.4964
  21   2.0000      -0.606653       -16.5079
  22   2.0000      -0.599077       -16.3017
  23   2.0000      -0.580096       -15.7852
  24   2.0000      -0.561167       -15.2701
  25   2.0000      -0.546519       -14.8715
  26   2.0000      -0.531813       -14.4714
  27   2.0000      -0.516814       -14.0632
  28   2.0000      -0.487402       -13.2629
  29   2.0000      -0.460818       -12.5395
  30   2.0000      -0.443935       -12.0801
  31   2.0000      -0.427664       -11.6373
  32   2.0000      -0.416353       -11.3295
  33   0.0000       0.115148         3.1333
  34   0.0000       0.144709         3.9377
  35   0.0000       0.154436         4.2024
  36   0.0000       0.166846         4.5401
  37   0.0000       0.169478         4.6117

MULLIKEN ATOMIC CHARGES
-----------------------
   0 C :   -0.412283
   1 C :    0.274054
   2 N :   -0.583717
   3 C :   -0.036711
   4 O :   -0.317260
   5 C :   -0.021098
   6 C :    0.002798
   7 C :   -0.225111
   8 N :   -0.050172
   9 H :    0.164719
  10 H :    0.126354
  11 H :    0.139237
  12 H :    0.238225
  13 H :    0.233472
  14 H :    0.153108
  15 H :    0.152100
  16 H :    0.162285
Sum of atomic charges:    0.0000000

LOEWDIN ATOMIC CHARGES
----------------------
   0 C :   -0.274969
   1 C :   -0.307976
   2 N :   -0.114892
   3 C :   -0.203712
   4 O :    0.197577
   5 C :   -0.203004
   6 C :   -0.162261
   7 C :   -0.170899
   8 N :    0.066491
   9 H :    0.139871
  10 H :    0.126603
  11 H :    0.130731
  12 H :    0.161943
  13 H :    0.161095
  14 H :    0.136076
  15 H :    0.136679
  16 H :    0.180648

  Mayer bond orders larger than 0.1
B(  0-C ,  1-C ) :   0.9554 B(  0-C ,  9-H ) :   0.9241 B(  0-C , 10-H ) :   0.9291
B(  0-C , 11-H ) :   0.9228 B(  1-C ,  2-N ) :   0.8860 B(  1-C ,  3-C ) :   0.8486
B(  1-C ,  6-C ) :   0.8841 B(  2-N , 12-H ) :   0.8834 B(  2-N , 13-H ) :   0.8841
B(  3-C ,  4-O ) :   0.9065 B(  3-C ,  5-C ) :   0.9358 B(  3-C , 14-H ) :   0.9055
B(  4-O ,  5-C ) :   0.9612 B(  5-C ,  6-C ) :   0.8710 B(  5-C , 15-H ) :   0.9237
B(  6-C ,  7-C ) :   0.9292 B(  6-C , 16-H ) :   0.8972 B(  7-C ,  8-N ) :   2.8559

MP2 TOTAL ENERGY:     -417.273286843 Eh
FINAL SINGLE POINT ENERGY      -417.273286843040

DIPOLE MOMENT
-------------
                                X             Y             Z
Electronic contribution:      6.05156      -1.48752       1.59179
Nuclear contribution   :     -7.63068       0.74584      -2.26540
                        -----------------------------------------
Total Dipole Moment    :     -1.57912      -0.74168      -0.67361
                        -----------------------------------------
Magnitude (a.u.)       :      1.87015
Magnitude (Debye)      :      4.75354

                             ****ORCA TERMINATED NORMALLY****
TOTAL RUN TIME: 0 days 0 hours 19 minutes 32 seconds 313 msec
