                         Program Version 3.0.3 - RELEASE   -
|  1> ! RI-MP2 RIJK def2-TZVP def2-TZVP/C def2-TZVP/JK TIGHTSCF
|  2> % maxcore 2000
|  3> % mp2 density relaxed end
|  4> *xyz 0 1
|  5>  C        0.1045101869     1.5229098849    -0.0208976872
|  6>  C       -0.0200578074    -0.0099336081    -0.0188539808
|  7>  C       -1.5074243445    -0.4058048184     0.0854748987
|  8>  C        0.5662166818    -0.5729431608    -1.3424913776
|  9>  C        0.8435745755    -2.0543953983    -1.3059208971
| 10>  C        1.1561851052    -2.6940962391    -0.1771763198
| 11>  C        1.2502514671    -1.9982789403     1.1282885615
| 12>  C        2.1889054178    -0.8027189697     1.2550279825
| 13>  C        0.7037508912    -0.5866909093     1.1968801622
| 14>  H        1.1543146448     1.8323437513    -0.0497168804
| 15>  H       -0.4017632625     1.9573185917    -0.8905754001
| 16>  H       -0.3478552219     1.9565607192     0.8779877240
| 17>  H       -2.0886172065     0.0393218418    -0.7296958281
| 18>  H       -1.6290521093    -1.4916857771     0.0376213192
| 19>  H       -1.9396977464    -0.0588678857     1.0305574809
| 20>  H       -0.1256423316    -0.3384246433    -2.1606037069
| 21>  H        1.4915749985    -0.0314654023    -1.5869709251
| 22>  H        0.8069349868    -2.5965363921    -2.2467734050
| 23>  H        1.3619686519    -3.7610786821    -0.1908490811
| 24>  H        1.1462092746    -2.6228273552     2.0096362439
| 25>  H        2.6909800200    -0.6475780856     2.2041604219
| 26>  H        2.7932617906    -0.5633136345     0.3868977180
| 27>  H        0.2393892875    -0.3098693467     2.1406627665
| 28> *
| 29>
| 30>                          ****END OF INPUT****

CARTESIAN COORDINATES (ANGSTROEM)
---------------------------------
  C      0.104510    1.522910   -0.020898
  C     -0.020058   -0.009934   -0.018854
  C     -1.507424   -0.405805    0.085475
  C      0.566217   -0.572943   -1.342491
  C      0.843575   -2.054395   -1.305921
  C      1.156185   -2.694096   -0.177176
  C      1.250251   -1.998279    1.128289
  C      2.188905   -0.802719    1.255028
  C      0.703751   -0.586691    1.196880
  H      1.154315    1.832344   -0.049717
  H     -0.401763    1.957319   -0.890575
  H     -0.347855    1.956561    0.877988
  H     -2.088617    0.039322   -0.729696
  H     -1.629052   -1.491686    0.037621
  H     -1.939698   -0.058868    1.030557
  H     -0.125642   -0.338425   -2.160604
  H      1.491575   -0.031465   -1.586971
  H      0.806935   -2.596536   -2.246773
  H      1.361969   -3.761079   -0.190849
  H      1.146209   -2.622827    2.009636
  H      2.690980   -0.647578    2.204160
  H      2.793262   -0.563314    0.386898
  H      0.239389   -0.309869    2.140663

 Total Charge           Charge          ....    0
 Multiplicity           Mult            ....    1
 Number of Electrons    NEL             ....   68
 Basis Dimension        Dim             ....  363

ORBITAL ENERGIES
----------------

  NO   OCC          E(Eh)            E(eV)
   0   2.0000     -11.235229      -305.7261
   1   2.0000     -11.227437      -305.5141
   2   2.0000     -11.225571      -305.4633
   3   2.0000     -11.222389      -305.3767
   4   2.0000     -11.220690      -305.3305
   5   2.0000     -11.220028      -305.3125
   6   2.0000     -11.216323      -305.2117
   7   2.0000     -11.208646      -305.0028
   8   2.0000     -11.205499      -304.9171
   9   2.0000      -1.167745       -31.7759
  10   2.0000      -1.072764       -29.1914
  11   2.0000      -1.040511       -28.3138
  12   2.0000      -0.929937       -25.3049
  13   2.0000      -0.923476       -25.1291
  14   2.0000      -0.837200       -22.7814
  15   2.0000      -0.826933       -22.5020
  16   2.0000      -0.760475       -20.6936
  17   2.0000      -0.684360       -18.6224
  18   2.0000      -0.664116       -18.0715
  19   2.0000      -0.634399       -17.2629
  20   2.0000      -0.608247       -16.5512
  21   2.0000      -0.589266       -16.0347
  22   2.0000      -0.586463       -15.9585
  23   2.0000      -0.544701       -14.8221
  24   2.0000      -0.540679       -14.7126
  25   2.0000      -0.522519       -14.2185
  26   2.0000      -0.515884       -14.0379
  27   2.0000      -0.497268       -13.5314
  28   2.0000      -0.478224       -13.0131
  29   2.0000      -0.474068       -12.9000
  30   2.0000      -0.440412       -11.9842
  31   2.0000      -0.428051       -11.6479
  32   2.0000      -0.397667       -10.8211
  33   2.0000      -0.324217        -8.8224
  34   0.0000       0.135380         3.6839
  35   0.0000       0.149529         4.0689
  36   0.0000       0.160373         4.3640
  37   0.0000       0.170448         4.6381
  38   0.0000       0.178071         4.8456

MULLIKEN ATOMIC CHARGES
-----------------------
   0 C :   -0.417722
   1 C :    0.142583
   2 C :   -0.448097
   3 C :   -0.232013
   4 C :   -0.162765
   5 C :   -0.239316
   6 C :    0.004824
   7 C :   -0.293822
   8 C :   -0.127372
   9 H :    0.130953
  10 H :    0.130384
  11 H :    0.127145
  12 H :    0.127134
  13 H :    0.150697
  14 H :    0.124584
  15 H :    0.123250
  16 H :    0.126763
  17 H :    0.116515
  18 H :    0.115325
  19 H :    0.120672
  20 H :    0.129888
  21 H :    0.135621
  22 H :    0.114768
Sum of atomic charges:    0.0000000

LOEWDIN ATOMIC CHARGES
----------------------
   0 C :   -0.267021
   1 C :   -0.297419
   2 C :   -0.262642
   3 C :   -0.209136
   4 C :   -0.170708
   5 C :   -0.157099
   6 C :   -0.187675
   7 C :   -0.188544
   8 C :   -0.163644
   9 H :    0.125191
  10 H :    0.124906
  11 H :    0.125127
  12 H :    0.123565
  13 H :    0.131085
  14 H :    0.123954
  15 H :    0.146309
  16 H :    0.148252
  17 H :    0.139859
  18 H :    0.144074
  19 H :    0.147871
  20 H :    0.131792
  21 H :    0.138475
  22 H :    0.153428

  Mayer bond orders larger than 0.1
B(  0-C ,  1-C ) :   0.8988 B(  0-C ,  9-H ) :   0.9366 B(  0-C , 10-H ) :   0.9381
B(  0-C , 11-H ) :   0.9377 B(  1-C ,  2-C ) :   0.8917 B(  1-C ,  3-C ) :   0.8955
B(  1-C ,  8-C ) :   0.9198 B(  2-C , 12-H ) :   0.9361 B(  2-C , 13-H ) :   0.9364
B(  2-C , 14-H ) :   0.9360 B(  3-C ,  4-C ) :   0.9310 B(  3-C , 15-H ) :   0.9270
B(  3-C , 16-H ) :   0.9088 B(  4-C ,  5-C ) :   1.7858 B(  4-C , 17-H ) :   0.9352
B(  5-C ,  6-C ) :   0.9587 B(  5-C , 18-H ) :   0.9358 B(  6-C ,  7-C ) :   0.8432
B(  6-C ,  8-C ) :   0.8545 B(  6-C , 19-H ) :   0.9294 B(  7-C ,  8-C ) :   0.8917
B(  7-C , 20-H ) :   0.9259 B(  7-C , 21-H ) :   0.9249 B(  8-C , 22-H ) :   0.9270

MP2 TOTAL ENERGY:     -350.517682636 Eh
FINAL SINGLE POINT ENERGY      -350.517682635965

DIPOLE MOMENT
-------------
                                X             Y             Z
Electronic contribution:      2.55255      -4.21403       0.42986
Nuclear contribution   :     -2.54805       4.30618      -0.34241
                        -----------------------------------------
Total Dipole Moment    :      0.00450       0.09216       0.08745
                        -----------------------------------------
Magnitude (a.u.)       :      0.12712
Magnitude (Debye)      :      0.32312

                             ****ORCA TERMINATED NORMALLY****
TOTAL RUN TIME: 0 days 0 hours 23 minutes 2 seconds 674 msec
