                         Program Version 3.0.3 - RELEASE   -
|  1> ! RI-MP2 RIJK def2-TZVP def2-TZVP/C def2-TZVP/JK TIGHTSCF
|  2> % maxcore 2000
|  3> % mp2 density relaxed end
|  4> *xyz 0 1
|  5>  N        0.0132119103     1.2756815171     0.0092580530
|  6>  N        1.0883838218     2.0800560253     0.0030792704
|  7>  N        2.2630354616     1.5317313496    -0.0113725520
|  8>  C        2.4280858801     0.1843879356    -0.0202550173
|  9>  C        1.3654966758    -0.6911757950    -0.0145858156
| 10>  C        1.0728392733    -2.0713785613    -0.0191962143
| 11>  C       -0.3175079331    -2.1364549763    -0.0058781737
| 12>  N       -0.9599039457    -0.9163880249     0.0069638354
| 13>  C        0.0484171525    -0.0663603652     0.0016733725
| 14>  H       -0.8703688543     1.7727442852     0.0205901227
| 15>  H        3.4651285978    -0.1353215430    -0.0321428159
| 16>  H        1.7677499025    -2.8958855149    -0.0304745140
| 17>  H       -0.9148767025    -3.0401296022    -0.0049012510
| 18> *
| 19>
| 20>                          ****END OF INPUT****

CARTESIAN COORDINATES (ANGSTROEM)
---------------------------------
  N      0.013212    1.275682    0.009258
  N      1.088384    2.080056    0.003079
  N      2.263035    1.531731   -0.011373
  C      2.428086    0.184388   -0.020255
  C      1.365497   -0.691176   -0.014586
  C      1.072839   -2.071379   -0.019196
  C     -0.317508   -2.136455   -0.005878
  N     -0.959904   -0.916388    0.006964
  C      0.048417   -0.066360    0.001673
  H     -0.870369    1.772744    0.020590
  H      3.465129   -0.135322   -0.032143
  H      1.767750   -2.895886   -0.030475
  H     -0.914877   -3.040130   -0.004901

 Total Charge           Charge          ....    0
 Multiplicity           Mult            ....    1
 Number of Electrons    NEL             ....   62
 Basis Dimension        Dim             ....  303

ORBITAL ENERGIES
----------------

  NO   OCC          E(Eh)            E(eV)
   0   2.0000     -15.696107      -427.1128
   1   2.0000     -15.695296      -427.0907
   2   2.0000     -15.633610      -425.4122
   3   2.0000     -15.553500      -423.2323
   4   2.0000     -11.338935      -308.5481
   5   2.0000     -11.308648      -307.7240
   6   2.0000     -11.285750      -307.1009
   7   2.0000     -11.274075      -306.7832
   8   2.0000     -11.228002      -305.5295
   9   2.0000      -1.449651       -39.4470
  10   2.0000      -1.302406       -35.4403
  11   2.0000      -1.249588       -34.0030
  12   2.0000      -1.113747       -30.3066
  13   2.0000      -1.049228       -28.5509
  14   2.0000      -0.945079       -25.7169
  15   2.0000      -0.911267       -24.7968
  16   2.0000      -0.834271       -22.7017
  17   2.0000      -0.772971       -21.0336
  18   2.0000      -0.747512       -20.3408
  19   2.0000      -0.681520       -18.5451
  20   2.0000      -0.668435       -18.1891
  21   2.0000      -0.651185       -17.7197
  22   2.0000      -0.603073       -16.4105
  23   2.0000      -0.563227       -15.3262
  24   2.0000      -0.546687       -14.8761
  25   2.0000      -0.530563       -14.4374
  26   2.0000      -0.492662       -13.4060
  27   2.0000      -0.454977       -12.3806
  28   2.0000      -0.447568       -12.1789
  29   2.0000      -0.364890        -9.9292
  30   2.0000      -0.316695        -8.6177
  31   0.0000       0.037983         1.0336
  32   0.0000       0.109429         2.9777
  33   0.0000       0.132601         3.6082
  34   0.0000       0.163356         4.4451
  35   0.0000       0.177016         4.8169

MULLIKEN ATOMIC CHARGES
-----------------------
   0 N :   -0.026010
   1 N :   -0.104062
   2 N :   -0.126315
   3 C :   -0.057665
   4 C :    0.024582
   5 C :   -0.220388
   6 C :   -0.025438
   7 N :   -0.282153
   8 C :    0.113475
   9 H :    0.280093
  10 H :    0.148377
  11 H :    0.140837
  12 H :    0.134667
Sum of atomic charges:   -0.0000000

LOEWDIN ATOMIC CHARGES
----------------------
   0 N :    0.190897
   1 N :   -0.023937
   2 N :    0.024989
   3 C :   -0.162249
   4 C :   -0.138416
   5 C :   -0.152975
   6 C :   -0.183090
   7 N :    0.099959
   8 C :   -0.296601
   9 H :    0.212876
  10 H :    0.149505
  11 H :    0.143820
  12 H :    0.135221

  Mayer bond orders larger than 0.1
B(  0-N ,  1-N ) :   1.0586 B(  0-N ,  8-C ) :   1.1816 B(  0-N ,  9-H ) :   0.8428
B(  1-N ,  2-N ) :   1.2169 B(  2-N ,  3-C ) :   1.3969 B(  3-C ,  4-C ) :   1.2222
B(  3-C , 10-H ) :   0.9421 B(  4-C ,  5-C ) :   1.2814 B(  4-C ,  8-C ) :   0.9966
B(  5-C ,  6-C ) :   1.3976 B(  5-C , 11-H ) :   0.9242 B(  6-C ,  7-N ) :   1.2731
B(  6-C , 12-H ) :   0.9400 B(  7-N ,  8-C ) :   1.5369

MP2 TOTAL ENERGY:     -411.078189346 Eh
FINAL SINGLE POINT ENERGY      -411.078189346098

DIPOLE MOMENT
-------------
                                X             Y             Z
Electronic contribution:     -0.33076       3.28949       0.02100
Nuclear contribution   :      0.34470      -3.81819      -0.02400
                        -----------------------------------------
Total Dipole Moment    :      0.01394      -0.52870      -0.00300
                        -----------------------------------------
Magnitude (a.u.)       :      0.52889
Magnitude (Debye)      :      1.34433

                             ****ORCA TERMINATED NORMALLY****
TOTAL RUN TIME: 0 days 0 hours 17 minutes 44 seconds 333 msec
