                         Program Version 3.0.3 - RELEASE   -
|  1> ! RI-MP2 RIJK def2-TZVP def2-TZVP/C def2-TZVP/JK TIGHTSCF
|  2> % maxcore 2000
|  3> % mp2 density relaxed end
|  4> *xyz 0 1
|  5>  C        0.0079871788     1.5790316799     0.0111358163
|  6>  C        0.0537118459     0.0402299720    -0.0563551148
|  7>  C        0.7857543444    -0.4451871312    -1.3224665352
|  8>  C        0.6643357656    -0.5380354125     1.1775036298
|  9>  C        0.2075784596    -1.3624442631     2.1624520116
| 10>  O       -1.0112717094    -1.9189878493     2.2961556188
| 11>  N        1.2209461411    -1.5613159590     3.0553630946
| 12>  N        2.2541727236    -0.9222863329     2.6880078294
| 13>  O        1.9428223498    -0.2535486036     1.4912434577
| 14>  H        1.0188407486     1.9943587719     0.0636195052
| 15>  H       -0.4804982687     1.9807775594    -0.8815609120
| 16>  H       -0.5460646878     1.9219735100     0.8894219984
| 17>  H       -0.9748512576    -0.3377621801    -0.0824870509
| 18>  H        1.8264764327    -0.1075902060    -1.3212467529
| 19>  H        0.7829236673    -1.5367466793    -1.3892388631
| 20>  H        0.2978716165    -0.0451325752    -2.2162517854
| 21>  H       -1.0031413703    -2.4466051208     3.1038639725
| 22> *
| 23>
| 24>                          ****END OF INPUT****

CARTESIAN COORDINATES (ANGSTROEM)
---------------------------------
  C      0.007987    1.579032    0.011136
  C      0.053712    0.040230   -0.056355
  C      0.785754   -0.445187   -1.322467
  C      0.664336   -0.538035    1.177504
  C      0.207578   -1.362444    2.162452
  O     -1.011272   -1.918988    2.296156
  N      1.220946   -1.561316    3.055363
  N      2.254173   -0.922286    2.688008
  O      1.942822   -0.253549    1.491243
  H      1.018841    1.994359    0.063620
  H     -0.480498    1.980778   -0.881561
  H     -0.546065    1.921974    0.889422
  H     -0.974851   -0.337762   -0.082487
  H      1.826476   -0.107590   -1.321247
  H      0.782924   -1.536747   -1.389239
  H      0.297872   -0.045133   -2.216252
  H     -1.003141   -2.446605    3.103864

 Total Charge           Charge          ....    0
 Multiplicity           Mult            ....    1
 Number of Electrons    NEL             ....   68
 Basis Dimension        Dim             ....  327

ORBITAL ENERGIES
----------------

  NO   OCC          E(Eh)            E(eV)
   0   2.0000     -20.660869      -562.2108
   1   2.0000     -20.610369      -560.8366
   2   2.0000     -15.690825      -426.9690
   3   2.0000     -15.636793      -425.4988
   4   2.0000     -11.328988      -308.2774
   5   2.0000     -11.314546      -307.8844
   6   2.0000     -11.262553      -306.4697
   7   2.0000     -11.230544      -305.5986
   8   2.0000     -11.230527      -305.5982
   9   2.0000      -1.533437       -41.7270
  10   2.0000      -1.432509       -38.9805
  11   2.0000      -1.306636       -35.5554
  12   2.0000      -1.122768       -30.5521
  13   2.0000      -1.056876       -28.7591
  14   2.0000      -0.946217       -25.7479
  15   2.0000      -0.903698       -24.5909
  16   2.0000      -0.867028       -23.5930
  17   2.0000      -0.807072       -21.9616
  18   2.0000      -0.766553       -20.8590
  19   2.0000      -0.695367       -18.9219
  20   2.0000      -0.672590       -18.3021
  21   2.0000      -0.638609       -17.3774
  22   2.0000      -0.622269       -16.9328
  23   2.0000      -0.603540       -16.4232
  24   2.0000      -0.600011       -16.3271
  25   2.0000      -0.576815       -15.6959
  26   2.0000      -0.551347       -15.0029
  27   2.0000      -0.550213       -14.9721
  28   2.0000      -0.512467       -13.9449
  29   2.0000      -0.504309       -13.7230
  30   2.0000      -0.500982       -13.6324
  31   2.0000      -0.479202       -13.0398
  32   2.0000      -0.471974       -12.8431
  33   2.0000      -0.343856        -9.3568
  34   0.0000       0.099637         2.7113
  35   0.0000       0.127155         3.4601
  36   0.0000       0.141590         3.8529
  37   0.0000       0.179421         4.8823
  38   0.0000       0.182156         4.9567

MULLIKEN ATOMIC CHARGES
-----------------------
   0 C :   -0.408839
   1 C :   -0.028972
   2 C :   -0.408838
   3 C :    0.108997
   4 C :    0.143268
   5 O :   -0.432789
   6 N :   -0.129736
   7 N :   -0.053756
   8 O :   -0.105966
   9 H :    0.142362
  10 H :    0.137081
  11 H :    0.141677
  12 H :    0.121907
  13 H :    0.142361
  14 H :    0.141683
  15 H :    0.137080
  16 H :    0.352482
Sum of atomic charges:    0.0000000

LOEWDIN ATOMIC CHARGES
----------------------
   0 C :   -0.278722
   1 C :   -0.273296
   2 C :   -0.278722
   3 C :   -0.254768
   4 C :   -0.398869
   5 O :    0.079188
   6 N :    0.014721
   7 N :   -0.035787
   8 O :    0.286666
   9 H :    0.128852
  10 H :    0.126130
  11 H :    0.127396
  12 H :    0.168762
  13 H :    0.128852
  14 H :    0.127399
  15 H :    0.126129
  16 H :    0.206068

  Mayer bond orders larger than 0.1
B(  0-C ,  1-C ) :   0.9107 B(  0-C ,  9-H ) :   0.9291 B(  0-C , 10-H ) :   0.9361
B(  0-C , 11-H ) :   0.9358 B(  1-C ,  2-C ) :   0.9107 B(  1-C ,  3-C ) :   0.9125
B(  1-C , 12-H ) :   0.9342 B(  2-C , 13-H ) :   0.9291 B(  2-C , 14-H ) :   0.9358
B(  2-C , 15-H ) :   0.9361 B(  3-C ,  4-C ) :   1.4437 B(  3-C ,  7-N ) :   0.1092
B(  3-C ,  8-O ) :   1.1086 B(  4-C ,  5-O ) :   1.1357 B(  4-C ,  6-N ) :   1.3061
B(  5-O , 16-H ) :   0.8129 B(  6-N ,  7-N ) :   1.3651 B(  7-N ,  8-O ) :   0.9003

MP2 TOTAL ENERGY:     -454.395665976 Eh
FINAL SINGLE POINT ENERGY      -454.395665976287

DIPOLE MOMENT
-------------
                                X             Y             Z
Electronic contribution:      3.15351      -5.74486      10.55855
Nuclear contribution   :     -4.11783       5.81459     -11.22547
                        -----------------------------------------
Total Dipole Moment    :     -0.96432       0.06973      -0.66692
                        -----------------------------------------
Magnitude (a.u.)       :      1.17454
Magnitude (Debye)      :      2.98546

                             ****ORCA TERMINATED NORMALLY****
TOTAL RUN TIME: 0 days 0 hours 16 minutes 12 seconds 438 msec
