                         Program Version 3.0.3 - RELEASE   -
|  1> ! RI-MP2 RIJK def2-TZVP def2-TZVP/C def2-TZVP/JK TIGHTSCF
|  2> % maxcore 2000
|  3> % mp2 density relaxed end
|  4> *xyz 0 1
|  5>  C        0.0345289518     1.5350273106     0.1745501243
|  6>  C       -0.0227610972     0.0215352084    -0.0792645110
|  7>  C       -1.4240173425    -0.5234612877    -0.0171304264
|  8>  C       -2.0850083604    -1.0574927930     1.2316811618
|  9>  O       -3.2533366462    -0.6410940433     1.8451211407
| 10>  C       -1.9273353271    -1.9981585739     0.0561383928
| 11>  C       -2.8753039711    -1.6960074162    -1.1276374889
| 12>  N       -3.8155650661    -0.5975837423    -0.7480699519
| 13>  C       -2.4222751378    -0.2969133093    -1.1914740449
| 14>  H        1.0612330748     1.9081742711     0.1080875596
| 15>  H       -0.5664372951     2.0833765110    -0.5590848530
| 16>  H       -0.3552205413     1.7790580307     1.1675697535
| 17>  H        0.4233206597    -0.2051015096    -1.0583347537
| 18>  H        0.5937767230    -0.5007643324     0.6624884548
| 19>  H       -1.3353530512    -1.2729785554     1.9931041599
| 20>  H       -3.8720740085    -0.4806394807     1.1106785855
| 21>  H       -1.3388723582    -2.9075026880     0.1024796468
| 22>  H       -3.1351385369    -2.3868685335    -1.9187254950
| 23>  H       -4.4324393164    -0.4331139386    -1.5423794914
| 24>  H       -2.2435260633     0.3481546823    -2.0424635134
| 25> *
| 26>
| 27>                          ****END OF INPUT****

CARTESIAN COORDINATES (ANGSTROEM)
---------------------------------
  C      0.034529    1.535027    0.174550
  C     -0.022761    0.021535   -0.079265
  C     -1.424017   -0.523461   -0.017130
  C     -2.085008   -1.057493    1.231681
  O     -3.253337   -0.641094    1.845121
  C     -1.927335   -1.998159    0.056138
  C     -2.875304   -1.696007   -1.127637
  N     -3.815565   -0.597584   -0.748070
  C     -2.422275   -0.296913   -1.191474
  H      1.061233    1.908174    0.108088
  H     -0.566437    2.083377   -0.559085
  H     -0.355221    1.779058    1.167570
  H      0.423321   -0.205102   -1.058335
  H      0.593777   -0.500764    0.662488
  H     -1.335353   -1.272979    1.993104
  H     -3.872074   -0.480639    1.110679
  H     -1.338872   -2.907503    0.102480
  H     -3.135139   -2.386869   -1.918725
  H     -4.432439   -0.433114   -1.542379
  H     -2.243526    0.348155   -2.042464

 Total Charge           Charge          ....    0
 Multiplicity           Mult            ....    1
 Number of Electrons    NEL             ....   68
 Basis Dimension        Dim             ....  345

ORBITAL ENERGIES
----------------

  NO   OCC          E(Eh)            E(eV)
   0   2.0000     -20.528679      -558.6138
   1   2.0000     -15.576688      -423.8632
   2   2.0000     -11.283842      -307.0489
   3   2.0000     -11.274736      -306.8012
   4   2.0000     -11.272645      -306.7443
   5   2.0000     -11.240999      -305.8831
   6   2.0000     -11.233278      -305.6730
   7   2.0000     -11.229616      -305.5734
   8   2.0000     -11.215398      -305.1865
   9   2.0000      -1.352015       -36.7902
  10   2.0000      -1.287044       -35.0223
  11   2.0000      -1.132682       -30.8218
  12   2.0000      -1.029667       -28.0187
  13   2.0000      -0.919864       -25.0308
  14   2.0000      -0.892511       -24.2865
  15   2.0000      -0.843916       -22.9641
  16   2.0000      -0.790004       -21.4971
  17   2.0000      -0.741522       -20.1778
  18   2.0000      -0.706206       -19.2169
  19   2.0000      -0.656264       -17.8579
  20   2.0000      -0.633575       -17.2405
  21   2.0000      -0.610709       -16.6182
  22   2.0000      -0.599149       -16.3037
  23   2.0000      -0.559415       -15.2225
  24   2.0000      -0.548203       -14.9174
  25   2.0000      -0.533644       -14.5212
  26   2.0000      -0.520357       -14.1596
  27   2.0000      -0.514722       -14.0063
  28   2.0000      -0.498662       -13.5693
  29   2.0000      -0.494226       -13.4486
  30   2.0000      -0.455782       -12.4024
  31   2.0000      -0.413347       -11.2478
  32   2.0000      -0.374842       -10.2000
  33   2.0000      -0.331490        -9.0203
  34   0.0000       0.128767         3.5039
  35   0.0000       0.141072         3.8388
  36   0.0000       0.157450         4.2844
  37   0.0000       0.175269         4.7693
  38   0.0000       0.184547         5.0218

MULLIKEN ATOMIC CHARGES
-----------------------
   0 C :   -0.395781
   1 C :   -0.225652
   2 C :    0.146075
   3 C :   -0.019303
   4 O :   -0.457487
   5 C :   -0.114576
   6 C :   -0.083908
   7 N :   -0.429124
   8 C :   -0.147646
   9 H :    0.133204
  10 H :    0.121751
  11 H :    0.140894
  12 H :    0.109809
  13 H :    0.112761
  14 H :    0.105555
  15 H :    0.352402
  16 H :    0.133295
  17 H :    0.149342
  18 H :    0.216619
  19 H :    0.151771
Sum of atomic charges:    0.0000000

LOEWDIN ATOMIC CHARGES
----------------------
   0 C :   -0.308302
   1 C :   -0.258895
   2 C :   -0.167795
   3 C :   -0.286073
   4 O :   -0.005018
   5 C :   -0.132783
   6 C :   -0.203670
   7 N :   -0.001714
   8 C :   -0.185797
   9 H :    0.120126
  10 H :    0.120239
  11 H :    0.126241
  12 H :    0.139435
  13 H :    0.143911
  14 H :    0.154191
  15 H :    0.167511
  16 H :    0.137470
  17 H :    0.133148
  18 H :    0.172427
  19 H :    0.135348

  Mayer bond orders larger than 0.1
B(  0-C ,  1-C ) :   0.9298 B(  0-C ,  9-H ) :   0.9385 B(  0-C , 10-H ) :   0.9380
B(  0-C , 11-H ) :   0.9371 B(  1-C ,  2-C ) :   0.9062 B(  1-C , 12-H ) :   0.9297
B(  1-C , 13-H ) :   0.9280 B(  2-C ,  3-C ) :   0.8667 B(  2-C ,  5-C ) :   0.7905
B(  2-C ,  8-C ) :   0.8370 B(  3-C ,  4-O ) :   1.0525 B(  3-C ,  5-C ) :   0.8471
B(  3-C , 14-H ) :   0.9674 B(  4-O , 15-H ) :   0.7799 B(  5-C ,  6-C ) :   0.8943
B(  5-C , 16-H ) :   0.9140 B(  6-C ,  7-N ) :   0.8789 B(  6-C ,  8-C ) :   1.0036
B(  6-C , 17-H ) :   0.9254 B(  7-N ,  8-C ) :   0.8662 B(  7-N , 18-H ) :   0.8684
B(  8-C , 19-H ) :   0.9185

MP2 TOTAL ENERGY:     -402.371233128 Eh
FINAL SINGLE POINT ENERGY      -402.371233128047

DIPOLE MOMENT
-------------
                                X             Y             Z
Electronic contribution:     -5.90388      -3.84442       0.88090
Nuclear contribution   :      6.28918       3.74209      -2.29393
                        -----------------------------------------
Total Dipole Moment    :      0.38530      -0.10233      -1.41304
                        -----------------------------------------
Magnitude (a.u.)       :      1.46820
Magnitude (Debye)      :      3.73186

                             ****ORCA TERMINATED NORMALLY****
TOTAL RUN TIME: 0 days 0 hours 18 minutes 56 seconds 797 msec
