                         Program Version 3.0.3 - RELEASE   -
|  1> ! RI-MP2 RIJK def2-TZVP def2-TZVP/C def2-TZVP/JK TIGHTSCF
|  2> % maxcore 2000
|  3> % mp2 density relaxed end
|  4> *xyz 0 1
|  5>  C       -0.0254256382     1.5293978052     0.1039915201
|  6>  C        1.2584958811     0.7507905747    -0.0777107697
|  7>  C       -0.0549104539     0.0356246250     0.0225996134
|  8>  C       -0.4515060693    -0.9994501909     1.0618067316
|  9>  N       -1.9166370494    -1.2052594183     0.9162696625
| 10>  C       -0.9748011067    -1.9063867322    -0.0013421503
| 11>  C       -0.6143327021    -0.8813859543    -1.0666270848
| 12>  C       -1.1949868249    -0.6225716685    -2.3788777417
| 13>  O        0.1173754261    -1.2055014460    -2.2329569796
| 14>  H       -0.2179879898     1.9894091415     1.0674639167
| 15>  H       -0.4071286465     2.0912998522    -0.7424608217
| 16>  H        1.7361928290     0.7592007231    -1.0516403603
| 17>  H        1.9431390474     0.6848653276     0.7616843922
| 18>  H        0.0664232620    -1.2409508839     1.9816816223
| 19>  H       -2.1935491840    -1.8888186105     1.6223266413
| 20>  H       -0.9453697700    -2.9848951351    -0.0868709813
| 21>  H       -1.9600148473    -1.2874894178    -2.7766550110
| 22>  H       -1.2071276238     0.3906863282    -2.7779421097
| 23> *
| 24>
| 25>                          ****END OF INPUT****

CARTESIAN COORDINATES (ANGSTROEM)
---------------------------------
  C     -0.025426    1.529398    0.103992
  C      1.258496    0.750791   -0.077711
  C     -0.054910    0.035625    0.022600
  C     -0.451506   -0.999450    1.061807
  N     -1.916637   -1.205259    0.916270
  C     -0.974801   -1.906387   -0.001342
  C     -0.614333   -0.881386   -1.066627
  C     -1.194987   -0.622572   -2.378878
  O      0.117375   -1.205501   -2.232957
  H     -0.217988    1.989409    1.067464
  H     -0.407129    2.091300   -0.742461
  H      1.736193    0.759201   -1.051640
  H      1.943139    0.684865    0.761684
  H      0.066423   -1.240951    1.981682
  H     -2.193549   -1.888819    1.622327
  H     -0.945370   -2.984895   -0.086871
  H     -1.960015   -1.287489   -2.776655
  H     -1.207128    0.390686   -2.777942

 Total Charge           Charge          ....    0
 Multiplicity           Mult            ....    1
 Number of Electrons    NEL             ....   66
 Basis Dimension        Dim             ....  333

ORBITAL ENERGIES
----------------

  NO   OCC          E(Eh)            E(eV)
   0   2.0000     -20.566950      -559.6552
   1   2.0000     -15.569364      -423.6639
   2   2.0000     -11.295789      -307.3741
   3   2.0000     -11.279271      -306.9246
   4   2.0000     -11.270153      -306.6764
   5   2.0000     -11.267796      -306.6123
   6   2.0000     -11.244823      -305.9872
   7   2.0000     -11.228869      -305.5531
   8   2.0000     -11.227958      -305.5283
   9   2.0000      -1.411866       -38.4188
  10   2.0000      -1.284894       -34.9637
  11   2.0000      -1.142955       -31.1014
  12   2.0000      -0.999605       -27.2006
  13   2.0000      -0.916192       -24.9309
  14   2.0000      -0.860043       -23.4030
  15   2.0000      -0.826413       -22.4878
  16   2.0000      -0.816120       -22.2078
  17   2.0000      -0.728618       -19.8267
  18   2.0000      -0.709676       -19.3113
  19   2.0000      -0.687303       -18.7025
  20   2.0000      -0.650832       -17.7100
  21   2.0000      -0.636389       -17.3170
  22   2.0000      -0.573492       -15.6055
  23   2.0000      -0.557404       -15.1677
  24   2.0000      -0.534656       -14.5487
  25   2.0000      -0.517010       -14.0685
  26   2.0000      -0.512381       -13.9426
  27   2.0000      -0.493215       -13.4211
  28   2.0000      -0.464205       -12.6316
  29   2.0000      -0.437285       -11.8991
  30   2.0000      -0.408946       -11.1280
  31   2.0000      -0.399064       -10.8591
  32   2.0000      -0.366064        -9.9611
  33   0.0000       0.139295         3.7904
  34   0.0000       0.153670         4.1816
  35   0.0000       0.161138         4.3848
  36   0.0000       0.174257         4.7418
  37   0.0000       0.191916         5.2223

MULLIKEN ATOMIC CHARGES
-----------------------
   0 C :   -0.295895
   1 C :   -0.294623
   2 C :    0.097289
   3 C :   -0.049670
   4 N :   -0.378628
   5 C :   -0.114237
   6 C :    0.172210
   7 C :   -0.078275
   8 O :   -0.331224
   9 H :    0.129206
  10 H :    0.130412
  11 H :    0.143068
  12 H :    0.128071
  13 H :    0.143964
  14 H :    0.217434
  15 H :    0.149669
  16 H :    0.117998
  17 H :    0.113232
Sum of atomic charges:    0.0000000

LOEWDIN ATOMIC CHARGES
----------------------
   0 C :   -0.196265
   1 C :   -0.190180
   2 C :   -0.178067
   3 C :   -0.183885
   4 N :    0.007635
   5 C :   -0.179406
   6 C :   -0.259468
   7 C :   -0.224103
   8 O :    0.172421
   9 H :    0.136502
  10 H :    0.135262
  11 H :    0.140065
  12 H :    0.134492
  13 H :    0.133208
  14 H :    0.171943
  15 H :    0.134729
  16 H :    0.123107
  17 H :    0.122011

  Mayer bond orders larger than 0.1
B(  0-C ,  1-C ) :   0.9459 B(  0-C ,  2-C ) :   0.8475 B(  0-C ,  9-H ) :   0.9199
B(  0-C , 10-H ) :   0.9235 B(  1-C ,  2-C ) :   0.8334 B(  1-C , 11-H ) :   0.9139
B(  1-C , 12-H ) :   0.9220 B(  2-C ,  3-C ) :   0.9116 B(  2-C ,  6-C ) :   0.9707
B(  3-C ,  4-N ) :   0.9389 B(  3-C ,  5-C ) :   0.9079 B(  3-C , 13-H ) :   0.9105
B(  4-N ,  5-C ) :   0.9372 B(  4-N , 14-H ) :   0.8674 B(  5-C ,  6-C ) :   0.8881
B(  5-C , 15-H ) :   0.9137 B(  6-C ,  7-C ) :   0.9537 B(  6-C ,  8-O ) :   0.8968
B(  7-C ,  8-O ) :   0.8905 B(  7-C , 16-H ) :   0.9137 B(  7-C , 17-H ) :   0.9070

MP2 TOTAL ENERGY:     -401.157066479 Eh
FINAL SINGLE POINT ENERGY      -401.157066479220

DIPOLE MOMENT
-------------
                                X             Y             Z
Electronic contribution:     -0.73084      -3.08089      -1.17745
Nuclear contribution   :      0.63769       2.89797       1.73372
                        -----------------------------------------
Total Dipole Moment    :     -0.09315      -0.18292       0.55627
                        -----------------------------------------
Magnitude (a.u.)       :      0.59294
Magnitude (Debye)      :      1.50712

                             ****ORCA TERMINATED NORMALLY****
TOTAL RUN TIME: 0 days 0 hours 18 minutes 55 seconds 387 msec
