                         Program Version 3.0.3 - RELEASE   -
|  1> ! RI-MP2 RIJK def2-TZVP def2-TZVP/C def2-TZVP/JK TIGHTSCF
|  2> % maxcore 2000
|  3> % mp2 density relaxed end
|  4> *xyz 0 1
|  5>  C       -1.0120886730     0.2763766757     0.4559058750
|  6>  N        0.2332230445    -0.3320619546     0.0067770501
|  7>  C        1.2679330816     0.5652370113    -0.4704045634
|  8>  C        1.4385376830    -0.1452392310     0.8424328914
|  9>  C        1.4094750676     0.5941013120     2.0741010767
| 10>  C        1.3956545102     1.1730361490     3.1338898822
| 11>  C        1.3815271203     1.8638941125     4.3894167379
| 12>  C        2.5331431531     2.7833999467     4.7705267172
| 13>  C        1.1977630615     3.3739802640     4.4327101695
| 14>  H       -0.8785196688     1.2484333559     0.9528957164
| 15>  H       -1.6625951623     0.4116449222    -0.4137754779
| 16>  H       -1.5104243579    -0.4002690627     1.1566073453
| 17>  H        1.8305878939     0.2346398567    -1.3398241513
| 18>  H        1.0845635720     1.6373582492    -0.4174289204
| 19>  H        2.0756422977    -1.0271691058     0.8563562121
| 20>  H        0.9314966238     1.3144563760     5.2116303384
| 21>  H        2.8505132863     2.7740831365     5.8071087288
| 22>  H        3.3353679207     2.8894540298     4.0503485507
| 23>  H        1.0905451778     3.8832095282     3.4825264620
| 24>  H        0.5884134779     3.7752234182     5.2346288494
| 25> *
| 26>
| 27>                          ****END OF INPUT****

CARTESIAN COORDINATES (ANGSTROEM)
---------------------------------
  C     -1.012089    0.276377    0.455906
  N      0.233223   -0.332062    0.006777
  C      1.267933    0.565237   -0.470405
  C      1.438538   -0.145239    0.842433
  C      1.409475    0.594101    2.074101
  C      1.395655    1.173036    3.133890
  C      1.381527    1.863894    4.389417
  C      2.533143    2.783400    4.770527
  C      1.197763    3.373980    4.432710
  H     -0.878520    1.248433    0.952896
  H     -1.662595    0.411645   -0.413775
  H     -1.510424   -0.400269    1.156607
  H      1.830588    0.234640   -1.339824
  H      1.084564    1.637358   -0.417429
  H      2.075642   -1.027169    0.856356
  H      0.931497    1.314456    5.211630
  H      2.850513    2.774083    5.807109
  H      3.335368    2.889454    4.050349
  H      1.090545    3.883210    3.482526
  H      0.588413    3.775223    5.234629

 Total Charge           Charge          ....    0
 Multiplicity           Mult            ....    1
 Number of Electrons    NEL             ....   66
 Basis Dimension        Dim             ....  345

ORBITAL ENERGIES
----------------

  NO   OCC          E(Eh)            E(eV)
   0   2.0000     -15.563635      -423.5080
   1   2.0000     -11.276690      -306.8543
   2   2.0000     -11.258583      -306.3616
   3   2.0000     -11.257121      -306.3218
   4   2.0000     -11.241473      -305.8960
   5   2.0000     -11.239495      -305.8422
   6   2.0000     -11.238760      -305.8222
   7   2.0000     -11.226322      -305.4838
   8   2.0000     -11.220114      -305.3148
   9   2.0000      -1.275912       -34.7193
  10   2.0000      -1.157743       -31.5038
  11   2.0000      -1.035377       -28.1740
  12   2.0000      -0.989171       -26.9167
  13   2.0000      -0.894681       -24.3455
  14   2.0000      -0.839278       -22.8379
  15   2.0000      -0.832432       -22.6516
  16   2.0000      -0.820521       -22.3275
  17   2.0000      -0.707369       -19.2485
  18   2.0000      -0.690396       -18.7866
  19   2.0000      -0.656564       -17.8660
  20   2.0000      -0.650692       -17.7062
  21   2.0000      -0.592909       -16.1339
  22   2.0000      -0.565525       -15.3887
  23   2.0000      -0.557975       -15.1833
  24   2.0000      -0.547741       -14.9048
  25   2.0000      -0.527116       -14.3436
  26   2.0000      -0.487694       -13.2708
  27   2.0000      -0.479774       -13.0553
  28   2.0000      -0.459874       -12.5138
  29   2.0000      -0.453337       -12.3359
  30   2.0000      -0.404241       -10.9999
  31   2.0000      -0.350102        -9.5267
  32   2.0000      -0.340303        -9.2601
  33   0.0000       0.145666         3.9638
  34   0.0000       0.149605         4.0710
  35   0.0000       0.161765         4.4019
  36   0.0000       0.168951         4.5974
  37   0.0000       0.182029         4.9533

MULLIKEN ATOMIC CHARGES
-----------------------
   0 C :   -0.293351
   1 N :   -0.191521
   2 C :   -0.128416
   3 C :   -0.210262
   4 C :    0.041374
   5 C :    0.022174
   6 C :   -0.242737
   7 C :   -0.232056
   8 C :   -0.231085
   9 H :    0.120464
  10 H :    0.138778
  11 H :    0.135979
  12 H :    0.128437
  13 H :    0.119000
  14 H :    0.135499
  15 H :    0.138943
  16 H :    0.134205
  17 H :    0.141542
  18 H :    0.138791
  19 H :    0.134243
Sum of atomic charges:    0.0000000

LOEWDIN ATOMIC CHARGES
----------------------
   0 C :   -0.325958
   1 N :    0.094591
   2 C :   -0.232348
   3 C :   -0.245269
   4 C :   -0.066269
   5 C :   -0.054386
   6 C :   -0.215550
   7 C :   -0.206620
   8 C :   -0.207994
   9 H :    0.111113
  10 H :    0.118601
  11 H :    0.119985
  12 H :    0.125022
  13 H :    0.127266
  14 H :    0.156516
  15 H :    0.161457
  16 H :    0.132732
  17 H :    0.137632
  18 H :    0.136848
  19 H :    0.132632

  Mayer bond orders larger than 0.1
B(  0-C ,  1-N ) :   0.8868 B(  0-C ,  9-H ) :   0.9279 B(  0-C , 10-H ) :   0.9362
B(  0-C , 11-H ) :   0.9388 B(  1-N ,  2-C ) :   0.8912 B(  1-N ,  3-C ) :   0.9438
B(  2-C ,  3-C ) :   0.9157 B(  2-C , 12-H ) :   0.9219 B(  2-C , 13-H ) :   0.9171
B(  3-C ,  4-C ) :   1.0608 B(  3-C ,  5-C ) :  -0.1032 B(  3-C , 14-H ) :   0.9290
B(  4-C ,  5-C ) :   2.5574 B(  4-C ,  6-C ) :  -0.1423 B(  5-C ,  6-C ) :   1.0945
B(  6-C ,  7-C ) :   0.8643 B(  6-C ,  8-C ) :   0.8610 B(  6-C , 15-H ) :   0.9336
B(  7-C ,  8-C ) :   0.9030 B(  7-C , 16-H ) :   0.9304 B(  7-C , 17-H ) :   0.9324
B(  8-C , 18-H ) :   0.9328 B(  8-C , 19-H ) :   0.9304

MP2 TOTAL ENERGY:     -365.259612475 Eh
FINAL SINGLE POINT ENERGY      -365.259612474526

DIPOLE MOMENT
-------------
                                X             Y             Z
Electronic contribution:      1.86762      -3.30859      -0.50599
Nuclear contribution   :     -1.81641       3.93256       0.85421
                        -----------------------------------------
Total Dipole Moment    :      0.05122       0.62397       0.34822
                        -----------------------------------------
Magnitude (a.u.)       :      0.71639
Magnitude (Debye)      :      1.82092

                             ****ORCA TERMINATED NORMALLY****
TOTAL RUN TIME: 0 days 0 hours 16 minutes 44 seconds 259 msec
