                         Program Version 3.0.3 - RELEASE   -
|  1> ! RI-MP2 RIJK def2-TZVP def2-TZVP/C def2-TZVP/JK TIGHTSCF
|  2> % maxcore 2000
|  3> % mp2 density relaxed end
|  4> *xyz 0 1
|  5>  O        0.0088844278     1.4341084098     0.0099148942
|  6>  C        0.0005343315     0.0362195661     0.0035573895
|  7>  C       -1.4499775039    -0.4264134103     0.0131359005
|  8>  O       -2.4023977936     0.2995740027     0.0236668266
|  9>  N       -1.6160091690    -1.8382581734     0.0083885313
| 10>  C       -0.6899980839    -2.8652762791    -0.0035084816
| 11>  N       -1.2798640236    -4.0223100439    -0.0037325543
| 12>  N       -2.6547331258    -3.7871872821     0.0081687504
| 13>  C       -2.8291983174    -2.5003091465     0.0150582774
| 14>  H        0.9240771156     1.7299431178     0.0011498053
| 15>  H        0.4864599832    -0.3933297914    -0.8888996926
| 16>  H        0.5007895281    -0.4014190583     0.8841110024
| 17>  H        0.3765199084    -2.7082297148    -0.0112906842
| 18>  H       -3.7673531375    -1.9708444665     0.0247814753
| 19> *
| 20>
| 21>                          ****END OF INPUT****

CARTESIAN COORDINATES (ANGSTROEM)
---------------------------------
  O      0.008884    1.434108    0.009915
  C      0.000534    0.036220    0.003557
  C     -1.449978   -0.426413    0.013136
  O     -2.402398    0.299574    0.023667
  N     -1.616009   -1.838258    0.008389
  C     -0.689998   -2.865276   -0.003508
  N     -1.279864   -4.022310   -0.003733
  N     -2.654733   -3.787187    0.008169
  C     -2.829198   -2.500309    0.015058
  H      0.924077    1.729943    0.001150
  H      0.486460   -0.393330   -0.888900
  H      0.500790   -0.401419    0.884111
  H      0.376520   -2.708230   -0.011291
  H     -3.767353   -1.970844    0.024781

 Total Charge           Charge          ....    0
 Multiplicity           Mult            ....    1
 Number of Electrons    NEL             ....   66
 Basis Dimension        Dim             ....  309

ORBITAL ENERGIES
----------------

  NO   OCC          E(Eh)            E(eV)
   0   2.0000     -20.599224      -560.5334
   1   2.0000     -20.582038      -560.0657
   2   2.0000     -15.661678      -426.1759
   3   2.0000     -15.604493      -424.6198
   4   2.0000     -15.599922      -424.4954
   5   2.0000     -11.407703      -310.4194
   6   2.0000     -11.339579      -308.5656
   7   2.0000     -11.331160      -308.3365
   8   2.0000     -11.322995      -308.1144
   9   2.0000      -1.457015       -39.6474
  10   2.0000      -1.411875       -38.4191
  11   2.0000      -1.401214       -38.1290
  12   2.0000      -1.248333       -33.9689
  13   2.0000      -1.120398       -30.4876
  14   2.0000      -1.034673       -28.1549
  15   2.0000      -0.907902       -24.7053
  16   2.0000      -0.860483       -23.4149
  17   2.0000      -0.814675       -22.1684
  18   2.0000      -0.769292       -20.9335
  19   2.0000      -0.713234       -19.4081
  20   2.0000      -0.705663       -19.2021
  21   2.0000      -0.681365       -18.5409
  22   2.0000      -0.663633       -18.0584
  23   2.0000      -0.653891       -17.7933
  24   2.0000      -0.631081       -17.1726
  25   2.0000      -0.571985       -15.5645
  26   2.0000      -0.564233       -15.3536
  27   2.0000      -0.513426       -13.9710
  28   2.0000      -0.496596       -13.5131
  29   2.0000      -0.469562       -12.7774
  30   2.0000      -0.454253       -12.3609
  31   2.0000      -0.442585       -12.0433
  32   2.0000      -0.390205       -10.6180
  33   0.0000       0.082840         2.2542
  34   0.0000       0.099194         2.6992
  35   0.0000       0.137085         3.7303
  36   0.0000       0.161281         4.3887
  37   0.0000       0.162475         4.4212

MULLIKEN ATOMIC CHARGES
-----------------------
   0 O :   -0.421744
   1 C :   -0.128658
   2 C :    0.268308
   3 O :   -0.249453
   4 N :   -0.085539
   5 C :   -0.023793
   6 N :   -0.160123
   7 N :   -0.154577
   8 C :    0.004975
   9 H :    0.327398
  10 H :    0.137419
  11 H :    0.137374
  12 H :    0.165163
  13 H :    0.183250
Sum of atomic charges:   -0.0000000

LOEWDIN ATOMIC CHARGES
----------------------
   0 O :   -0.003928
   1 C :   -0.334042
   2 C :   -0.358032
   3 O :    0.193478
   4 N :    0.245570
   5 C :   -0.297718
   6 N :    0.038420
   7 N :    0.040784
   8 C :   -0.265815
   9 H :    0.183708
  10 H :    0.135545
  11 H :    0.135533
  12 H :    0.139561
  13 H :    0.146935

  Mayer bond orders larger than 0.1
B(  0-O ,  1-C ) :   1.0585 B(  0-O ,  9-H ) :   0.8382 B(  1-C ,  2-C ) :   0.8970
B(  1-C , 10-H ) :   0.9116 B(  1-C , 11-H ) :   0.9117 B(  2-C ,  3-O ) :   1.9955
B(  2-C ,  4-N ) :   0.9498 B(  4-N ,  5-C ) :   1.0900 B(  4-N ,  8-C ) :   1.0652
B(  5-C ,  6-N ) :   1.6903 B(  5-C , 12-H ) :   0.9154 B(  6-N ,  7-N ) :   1.0088
B(  7-N ,  8-C ) :   1.6663 B(  8-C , 13-H ) :   0.9156

MP2 TOTAL ENERGY:     -469.268828371 Eh
FINAL SINGLE POINT ENERGY      -469.268828370867

DIPOLE MOMENT
-------------
                                X             Y             Z
Electronic contribution:     -3.43079      -1.97978       0.01946
Nuclear contribution   :      5.15044       3.17987      -0.02992
                        -----------------------------------------
Total Dipole Moment    :      1.71965       1.20009      -0.01046
                        -----------------------------------------
Magnitude (a.u.)       :      2.09702
Magnitude (Debye)      :      5.33021

                             ****ORCA TERMINATED NORMALLY****
TOTAL RUN TIME: 0 days 0 hours 14 minutes 28 seconds 669 msec
