                         Program Version 3.0.3 - RELEASE   -
|  1> ! RI-MP2 RIJK def2-TZVP def2-TZVP/C def2-TZVP/JK TIGHTSCF
|  2> % maxcore 2000
|  3> % mp2 density relaxed end
|  4> *xyz 0 1
|  5>  C       -0.0760184202     1.6635319316    -0.0225516684
|  6>  C        0.0320635020     0.1502288234    -0.0640155211
|  7>  C       -1.0869126321    -0.5464064707     0.6879769971
|  8>  O       -2.0606592063     0.0022100907     1.1328997048
|  9>  C        0.5281161498    -0.7560389713    -1.1451867986
| 10>  C        1.7973095035    -0.3633151632    -1.9219724077
| 11>  C        2.4374433299     0.9209345413    -1.4688089440
| 12>  C        2.4813272852    -0.2839649848    -0.5747803164
| 13>  N        1.2365341847    -0.7236249697     0.1733274257
| 14>  H       -0.1160705994     2.1102311192    -1.0174696050
| 15>  H       -1.0083766761     1.9070136120     0.4934636835
| 16>  H        0.7476881885     2.1133166490     0.5365767931
| 17>  H       -0.9240348512    -1.6385519494     0.8002752875
| 18>  H       -0.0346319624    -1.6399618003    -1.4388653452
| 19>  H        2.0998032317    -0.8913975529    -2.8157799982
| 20>  H        3.3967048217     1.0912698586    -1.9513611340
| 21>  H        1.8977344967     1.8291725494    -1.2583306500
| 22>  H        3.4058190940    -0.7243532229    -0.2252679531
| 23> *
| 24>
| 25>                          ****END OF INPUT****

CARTESIAN COORDINATES (ANGSTROEM)
---------------------------------
  C     -0.076018    1.663532   -0.022552
  C      0.032064    0.150229   -0.064016
  C     -1.086913   -0.546406    0.687977
  O     -2.060659    0.002210    1.132900
  C      0.528116   -0.756039   -1.145187
  C      1.797310   -0.363315   -1.921972
  C      2.437443    0.920935   -1.468809
  C      2.481327   -0.283965   -0.574780
  N      1.236534   -0.723625    0.173327
  H     -0.116071    2.110231   -1.017470
  H     -1.008377    1.907014    0.493464
  H      0.747688    2.113317    0.536577
  H     -0.924035   -1.638552    0.800275
  H     -0.034632   -1.639962   -1.438865
  H      2.099803   -0.891398   -2.815780
  H      3.396705    1.091270   -1.951361
  H      1.897734    1.829173   -1.258331
  H      3.405819   -0.724353   -0.225268

 Total Charge           Charge          ....    0
 Multiplicity           Mult            ....    1
 Number of Electrons    NEL             ....   66
 Basis Dimension        Dim             ....  333

ORBITAL ENERGIES
----------------

  NO   OCC          E(Eh)            E(eV)
   0   2.0000     -20.558541      -559.4264
   1   2.0000     -15.578655      -423.9168
   2   2.0000     -11.331853      -308.3554
   3   2.0000     -11.292218      -307.2769
   4   2.0000     -11.288070      -307.1640
   5   2.0000     -11.280703      -306.9635
   6   2.0000     -11.255524      -306.2784
   7   2.0000     -11.249702      -306.1200
   8   2.0000     -11.228002      -305.5295
   9   2.0000      -1.400125       -38.0993
  10   2.0000      -1.316761       -35.8309
  11   2.0000      -1.135291       -30.8928
  12   2.0000      -1.016335       -27.6559
  13   2.0000      -0.931383       -25.3442
  14   2.0000      -0.903169       -24.5765
  15   2.0000      -0.830470       -22.5982
  16   2.0000      -0.756708       -20.5911
  17   2.0000      -0.749347       -20.3908
  18   2.0000      -0.712973       -19.4010
  19   2.0000      -0.675407       -18.3788
  20   2.0000      -0.648992       -17.6600
  21   2.0000      -0.628468       -17.1015
  22   2.0000      -0.597306       -16.2535
  23   2.0000      -0.574512       -15.6333
  24   2.0000      -0.563657       -15.3379
  25   2.0000      -0.538949       -14.6655
  26   2.0000      -0.526655       -14.3310
  27   2.0000      -0.496023       -13.4975
  28   2.0000      -0.480758       -13.0821
  29   2.0000      -0.469075       -12.7642
  30   2.0000      -0.427637       -11.6366
  31   2.0000      -0.388716       -10.5775
  32   2.0000      -0.355804        -9.6819
  33   0.0000       0.127392         3.4665
  34   0.0000       0.144016         3.9189
  35   0.0000       0.150936         4.1072
  36   0.0000       0.155816         4.2400
  37   0.0000       0.172159         4.6847

MULLIKEN ATOMIC CHARGES
-----------------------
   0 C :   -0.458129
   1 C :    0.254179
   2 C :    0.027186
   3 O :   -0.267383
   4 C :   -0.072819
   5 C :   -0.200184
   6 C :   -0.245455
   7 C :   -0.061067
   8 N :   -0.291029
   9 H :    0.149306
  10 H :    0.181388
  11 H :    0.154567
  12 H :    0.109397
  13 H :    0.136439
  14 H :    0.148588
  15 H :    0.134510
  16 H :    0.155720
  17 H :    0.144785
Sum of atomic charges:    0.0000000

LOEWDIN ATOMIC CHARGES
----------------------
   0 C :   -0.272006
   1 C :   -0.263346
   2 C :   -0.253607
   3 O :    0.140323
   4 C :   -0.163088
   5 C :   -0.176076
   6 C :   -0.204210
   7 C :   -0.197311
   8 N :    0.155373
   9 H :    0.129432
  10 H :    0.141840
  11 H :    0.133233
  12 H :    0.127584
  13 H :    0.140949
  14 H :    0.141618
  15 H :    0.149846
  16 H :    0.132082
  17 H :    0.137363

  Mayer bond orders larger than 0.1
B(  0-C ,  1-C ) :   0.8227 B(  0-C ,  9-H ) :   0.9462 B(  0-C , 10-H ) :   0.9143
B(  0-C , 11-H ) :   0.9356 B(  1-C ,  2-C ) :   0.7973 B(  1-C ,  4-C ) :   0.8988
B(  1-C ,  8-N ) :   0.8023 B(  2-C ,  3-O ) :   1.9823 B(  2-C , 12-H ) :   0.9544
B(  4-C ,  5-C ) :   0.9256 B(  4-C ,  8-N ) :   0.8279 B(  4-C , 13-H ) :   0.8918
B(  5-C ,  6-C ) :   0.8891 B(  5-C ,  7-C ) :   0.8794 B(  5-C , 14-H ) :   0.9216
B(  6-C ,  7-C ) :   0.8908 B(  6-C , 15-H ) :   0.9246 B(  6-C , 16-H ) :   0.9048
B(  7-C ,  8-N ) :   0.9020 B(  7-C , 17-H ) :   0.9288

MP2 TOTAL ENERGY:     -401.160228194 Eh
FINAL SINGLE POINT ENERGY      -401.160228193822

DIPOLE MOMENT
-------------
                                X             Y             Z
Electronic contribution:     -3.27453      -3.57186       2.66061
Nuclear contribution   :      4.22929       3.65404      -3.64775
                        -----------------------------------------
Total Dipole Moment    :      0.95476       0.08218      -0.98714
                        -----------------------------------------
Magnitude (a.u.)       :      1.37578
Magnitude (Debye)      :      3.49695

                             ****ORCA TERMINATED NORMALLY****
TOTAL RUN TIME: 0 days 0 hours 18 minutes 27 seconds 338 msec
