                         Program Version 3.0.3 - RELEASE   -
|  1> ! RI-MP2 RIJK def2-TZVP def2-TZVP/C def2-TZVP/JK TIGHTSCF
|  2> % maxcore 2000
|  3> % mp2 density relaxed end
|  4> *xyz 0 1
|  5>  O       -0.1572800067    -0.0262976383    -0.1373304046
|  6>  C       -0.0354911868     1.1565063221     0.0652178408
|  7>  C        1.2944324047     1.8627847243     0.0164526181
|  8>  C        1.2418788979     3.2345000032    -0.7193700589
|  9>  O        0.5631185393     3.7744838175     0.4705624854
| 10>  C        1.4981948718     2.8823005345     1.1761831466
| 11>  C        2.8521024279     3.5654844080     0.9025488838
| 12>  C        3.7991577261     2.9812212903    -0.1143881453
| 13>  C        2.6516606928     3.8409143460    -0.5798183585
| 14>  H       -0.9039030409     1.8027749896     0.3020195587
| 15>  H        2.0663898981     1.1337259853    -0.2233556130
| 16>  H        0.6920711501     3.3880370072    -1.6472834225
| 17>  H        1.2131574199     2.6719655899     2.2064227925
| 18>  H        3.1893204560     4.3259240935     1.5957140153
| 19>  H        4.7756779541     3.4544753378    -0.1584971136
| 20>  H        3.8342820601     1.9181941376    -0.3166412299
| 21>  H        2.8354122055     4.8122441516    -1.0216493850
| 22> *
| 23>
| 24>                          ****END OF INPUT****

CARTESIAN COORDINATES (ANGSTROEM)
---------------------------------
  O     -0.157280   -0.026298   -0.137330
  C     -0.035491    1.156506    0.065218
  C      1.294432    1.862785    0.016453
  C      1.241879    3.234500   -0.719370
  O      0.563119    3.774484    0.470562
  C      1.498195    2.882301    1.176183
  C      2.852102    3.565484    0.902549
  C      3.799158    2.981221   -0.114388
  C      2.651661    3.840914   -0.579818
  H     -0.903903    1.802775    0.302020
  H      2.066390    1.133726   -0.223356
  H      0.692071    3.388037   -1.647283
  H      1.213157    2.671966    2.206423
  H      3.189320    4.325924    1.595714
  H      4.775678    3.454475   -0.158497
  H      3.834282    1.918194   -0.316641
  H      2.835412    4.812244   -1.021649

 Total Charge           Charge          ....    0
 Multiplicity           Mult            ....    1
 Number of Electrons    NEL             ....   66
 Basis Dimension        Dim             ....  327

ORBITAL ENERGIES
----------------

  NO   OCC          E(Eh)            E(eV)
   0   2.0000     -20.563696      -559.5666
   1   2.0000     -20.556510      -559.3711
   2   2.0000     -11.330024      -308.3056
   3   2.0000     -11.316023      -307.9246
   4   2.0000     -11.316006      -307.9242
   5   2.0000     -11.256568      -306.3068
   6   2.0000     -11.254065      -306.2387
   7   2.0000     -11.251158      -306.1596
   8   2.0000     -11.250574      -306.1437
   9   2.0000      -1.407729       -38.3063
  10   2.0000      -1.392612       -37.8949
  11   2.0000      -1.173418       -31.9303
  12   2.0000      -1.044389       -28.4193
  13   2.0000      -0.966009       -26.2864
  14   2.0000      -0.905028       -24.6271
  15   2.0000      -0.824174       -22.4269
  16   2.0000      -0.779730       -21.2175
  17   2.0000      -0.760027       -20.6814
  18   2.0000      -0.731561       -19.9068
  19   2.0000      -0.695093       -18.9144
  20   2.0000      -0.652950       -17.7677
  21   2.0000      -0.635928       -17.3045
  22   2.0000      -0.605674       -16.4812
  23   2.0000      -0.593719       -16.1559
  24   2.0000      -0.562124       -15.2962
  25   2.0000      -0.542751       -14.7690
  26   2.0000      -0.526340       -14.3224
  27   2.0000      -0.503166       -13.6919
  28   2.0000      -0.478696       -13.0260
  29   2.0000      -0.453001       -12.3268
  30   2.0000      -0.437806       -11.9133
  31   2.0000      -0.417735       -11.3671
  32   2.0000      -0.404375       -11.0036
  33   0.0000       0.124948         3.4000
  34   0.0000       0.142878         3.8879
  35   0.0000       0.151656         4.1268
  36   0.0000       0.162677         4.4267
  37   0.0000       0.165949         4.5157

MULLIKEN ATOMIC CHARGES
-----------------------
   0 O :   -0.263487
   1 C :   -0.010811
   2 C :    0.063206
   3 C :   -0.031048
   4 O :   -0.303379
   5 C :   -0.031099
   6 C :   -0.108659
   7 C :   -0.269064
   8 C :   -0.108660
   9 H :    0.114004
  10 H :    0.106589
  11 H :    0.140988
  12 H :    0.140997
  13 H :    0.141737
  14 H :    0.137753
  15 H :    0.139196
  16 H :    0.141737
Sum of atomic charges:    0.0000000

LOEWDIN ATOMIC CHARGES
----------------------
   0 O :    0.130777
   1 C :   -0.276489
   2 C :   -0.182210
   3 C :   -0.202719
   4 O :    0.150568
   5 C :   -0.202691
   6 C :   -0.168701
   7 C :   -0.195415
   8 C :   -0.168696
   9 H :    0.122957
  10 H :    0.149737
  11 H :    0.138495
  12 H :    0.138497
  13 H :    0.145792
  14 H :    0.142377
  15 H :    0.131929
  16 H :    0.145791

  Mayer bond orders larger than 0.1
B(  0-O ,  1-C ) :   1.9915 B(  1-C ,  2-C ) :   0.8207 B(  1-C ,  9-H ) :   0.9560
B(  2-C ,  3-C ) :   0.9048 B(  2-C ,  5-C ) :   0.9048 B(  2-C , 10-H ) :   0.9176
B(  3-C ,  4-O ) :   0.9112 B(  3-C ,  8-C ) :   0.9352 B(  3-C , 11-H ) :   0.9059
B(  4-O ,  5-C ) :   0.9113 B(  5-C ,  6-C ) :   0.9353 B(  5-C , 12-H ) :   0.9059
B(  6-C ,  7-C ) :   0.8907 B(  6-C ,  8-C ) :   0.8639 B(  6-C , 13-H ) :   0.9232
B(  7-C ,  8-C ) :   0.8907 B(  7-C , 14-H ) :   0.9211 B(  7-C , 15-H ) :   0.9041
B(  8-C , 16-H ) :   0.9232

MP2 TOTAL ENERGY:     -421.069057672 Eh
FINAL SINGLE POINT ENERGY      -421.069057671980

DIPOLE MOMENT
-------------
                                X             Y             Z
Electronic contribution:     -4.48279      -2.05134       0.22587
Nuclear contribution   :      5.43908       2.79767      -0.21704
                        -----------------------------------------
Total Dipole Moment    :      0.95629       0.74634       0.00883
                        -----------------------------------------
Magnitude (a.u.)       :      1.21309
Magnitude (Debye)      :      3.08343

                             ****ORCA TERMINATED NORMALLY****
TOTAL RUN TIME: 0 days 0 hours 16 minutes 46 seconds 199 msec
