                         Program Version 3.0.3 - RELEASE   -
|  1> ! RI-MP2 RIJK def2-TZVP def2-TZVP/C def2-TZVP/JK TIGHTSCF
|  2> % maxcore 2000
|  3> % mp2 density relaxed end
|  4> *xyz 0 1
|  5>  N       -0.0396957438    -1.1015371746    -0.0036756732
|  6>  C       -0.0021211905     0.0518463305     0.0019809744
|  7>  C       -0.0052529961     1.5137473788     0.0106093289
|  8>  O        1.3534436100     1.9534153034    -0.0019792512
|  9>  C        1.5192060230     3.2853839731     0.0033100344
| 10>  C        2.6813302224     3.9933953966    -0.0066040262
| 11>  O        2.3531235939     5.2899856808     0.0039091903
| 12>  N        0.9533998763     5.3702045341     0.0219870469
| 13>  N        0.4918651934     4.1878904079     0.0205062710
| 14>  H       -0.5448691127     1.8904853265    -0.8660290942
| 15>  H       -0.5251149441     1.8801383674     0.9034239765
| 16>  H        3.7237779982     3.7297017355    -0.0205595077
| 17> *
| 18>
| 19>                          ****END OF INPUT****

CARTESIAN COORDINATES (ANGSTROEM)
---------------------------------
  N     -0.039696   -1.101537   -0.003676
  C     -0.002121    0.051846    0.001981
  C     -0.005253    1.513747    0.010609
  O      1.353444    1.953415   -0.001979
  C      1.519206    3.285384    0.003310
  C      2.681330    3.993395   -0.006604
  O      2.353124    5.289986    0.003909
  N      0.953400    5.370205    0.021987
  N      0.491865    4.187890    0.020506
  H     -0.544869    1.890485   -0.866029
  H     -0.525115    1.880138    0.903424
  H      3.723778    3.729702   -0.020560

 Total Charge           Charge          ....    0
 Multiplicity           Mult            ....    1
 Number of Electrons    NEL             ....   64
 Basis Dimension        Dim             ....  297

ORBITAL ENERGIES
----------------

  NO   OCC          E(Eh)            E(eV)
   0   2.0000     -20.689824      -562.9987
   1   2.0000     -20.643074      -561.7266
   2   2.0000     -15.717471      -427.6941
   3   2.0000     -15.660207      -426.1359
   4   2.0000     -15.595510      -424.3754
   5   2.0000     -11.368125      -309.3424
   6   2.0000     -11.361222      -309.1546
   7   2.0000     -11.339434      -308.5617
   8   2.0000     -11.294163      -307.3298
   9   2.0000      -1.562086       -42.5065
  10   2.0000      -1.474956       -40.1356
  11   2.0000      -1.332285       -36.2533
  12   2.0000      -1.240346       -33.7515
  13   2.0000      -1.126035       -30.6410
  14   2.0000      -1.042549       -28.3692
  15   2.0000      -0.914845       -24.8942
  16   2.0000      -0.877995       -23.8914
  17   2.0000      -0.794432       -21.6176
  18   2.0000      -0.745923       -20.2976
  19   2.0000      -0.737053       -20.0562
  20   2.0000      -0.719956       -19.5910
  21   2.0000      -0.699067       -19.0226
  22   2.0000      -0.634979       -17.2786
  23   2.0000      -0.603879       -16.4324
  24   2.0000      -0.580556       -15.7977
  25   2.0000      -0.575352       -15.6561
  26   2.0000      -0.571283       -15.5454
  27   2.0000      -0.509019       -13.8511
  28   2.0000      -0.502228       -13.6663
  29   2.0000      -0.489636       -13.3237
  30   2.0000      -0.481052       -13.0901
  31   2.0000      -0.376760       -10.2522
  32   0.0000       0.073140         1.9902
  33   0.0000       0.120819         3.2877
  34   0.0000       0.139871         3.8061
  35   0.0000       0.156560         4.2602
  36   0.0000       0.165155         4.4941

MULLIKEN ATOMIC CHARGES
-----------------------
   0 N :   -0.042473
   1 C :   -0.138971
   2 C :    0.023532
   3 O :   -0.259151
   4 C :    0.186468
   5 C :   -0.042794
   6 O :   -0.066844
   7 N :   -0.067469
   8 N :   -0.118239
   9 H :    0.168440
  10 H :    0.168482
  11 H :    0.189018
Sum of atomic charges:    0.0000000

LOEWDIN ATOMIC CHARGES
----------------------
   0 N :    0.086107
   1 C :   -0.177303
   2 C :   -0.264822
   3 O :    0.264905
   4 C :   -0.397226
   5 C :   -0.250156
   6 O :    0.278120
   7 N :   -0.028853
   8 N :    0.028600
   9 H :    0.156652
  10 H :    0.156664
  11 H :    0.147311

  Mayer bond orders larger than 0.1
B(  0-N ,  1-C ) :   2.8462 B(  1-C ,  2-C ) :   0.9163 B(  2-C ,  3-O ) :   0.8780
B(  2-C ,  9-H ) :   0.9066 B(  2-C , 10-H ) :   0.9066 B(  3-O ,  4-C ) :   1.0759
B(  4-C ,  5-C ) :   1.4645 B(  4-C ,  8-N ) :   1.2236 B(  5-C ,  6-O ) :   1.1234
B(  5-C ,  7-N ) :   0.1332 B(  5-C , 11-H ) :   0.9074 B(  6-O ,  7-N ) :   0.9044
B(  7-N ,  8-N ) :   1.3235

MP2 TOTAL ENERGY:     -468.009137230 Eh
FINAL SINGLE POINT ENERGY      -468.009137230437

DIPOLE MOMENT
-------------
                                X             Y             Z
Electronic contribution:      0.97462       1.25747      -0.00374
Nuclear contribution   :     -0.46708      -0.77106      -0.00005
                        -----------------------------------------
Total Dipole Moment    :      0.50754       0.48641      -0.00379
                        -----------------------------------------
Magnitude (a.u.)       :      0.70300
Magnitude (Debye)      :      1.78688

                             ****ORCA TERMINATED NORMALLY****
TOTAL RUN TIME: 0 days 0 hours 12 minutes 41 seconds 241 msec
