                         Program Version 3.0.3 - RELEASE   -
|  1> ! RI-MP2 RIJK def2-TZVP def2-TZVP/C def2-TZVP/JK TIGHTSCF
|  2> % maxcore 2000
|  3> % mp2 density relaxed end
|  4> *xyz 0 1
|  5>  C        0.0173440802     1.4368502987     0.0451391108
|  6>  N       -0.0313930576    -0.0094564263    -0.0097352010
|  7>  C       -0.0248214433    -0.8185693418    -1.1399402476
|  8>  C        0.0162232297    -2.1268661539    -0.7711473096
|  9>  N        0.0464617672    -2.1323358197     0.6243171362
| 10>  C        0.0887472595    -2.8727124321     1.7842594198
| 11>  N        0.0952210085    -2.0667283157     2.8221629754
| 12>  N        0.0581728476    -0.7515676911     2.3891243135
| 13>  C        0.0262334721    -0.8383690035     1.0793427228
| 14>  H        1.0482703901     1.8071102635     0.0748440807
| 15>  H       -0.4867651344     1.8511832044    -0.8305595390
| 16>  H       -0.5000719790     1.7731080187     0.9458589742
| 17>  H       -0.0595760570    -0.3884975207    -2.1274989298
| 18>  H        0.0155742733    -3.0222005790    -1.3661802191
| 19>  H        0.1120579432    -3.9488717716     1.8153313726
| 20> *
| 21>
| 22>                          ****END OF INPUT****

CARTESIAN COORDINATES (ANGSTROEM)
---------------------------------
  C      0.017344    1.436850    0.045139
  N     -0.031393   -0.009456   -0.009735
  C     -0.024821   -0.818569   -1.139940
  C      0.016223   -2.126866   -0.771147
  N      0.046462   -2.132336    0.624317
  C      0.088747   -2.872712    1.784259
  N      0.095221   -2.066728    2.822163
  N      0.058173   -0.751568    2.389124
  C      0.026233   -0.838369    1.079343
  H      1.048270    1.807110    0.074844
  H     -0.486765    1.851183   -0.830560
  H     -0.500072    1.773108    0.945859
  H     -0.059576   -0.388498   -2.127499
  H      0.015574   -3.022201   -1.366180
  H      0.112058   -3.948872    1.815331

 Total Charge           Charge          ....    0
 Multiplicity           Mult            ....    1
 Number of Electrons    NEL             ....   64
 Basis Dimension        Dim             ....  315

ORBITAL ENERGIES
----------------

  NO   OCC          E(Eh)            E(eV)
   0   2.0000     -15.635470      -425.4628
   1   2.0000     -15.626748      -425.2254
   2   2.0000     -15.576885      -423.8686
   3   2.0000     -15.557247      -423.3342
   4   2.0000     -11.330693      -308.3238
   5   2.0000     -11.298390      -307.4448
   6   2.0000     -11.293263      -307.3053
   7   2.0000     -11.290554      -307.2316
   8   2.0000     -11.286279      -307.1153
   9   2.0000      -1.415965       -38.5304
  10   2.0000      -1.308751       -35.6129
  11   2.0000      -1.226325       -33.3700
  12   2.0000      -1.074426       -29.2366
  13   2.0000      -1.050831       -28.5946
  14   2.0000      -0.970060       -26.3967
  15   2.0000      -0.872139       -23.7321
  16   2.0000      -0.828189       -22.5362
  17   2.0000      -0.796235       -21.6667
  18   2.0000      -0.716006       -19.4835
  19   2.0000      -0.683615       -18.6021
  20   2.0000      -0.666979       -18.1494
  21   2.0000      -0.650267       -17.6947
  22   2.0000      -0.625929       -17.0324
  23   2.0000      -0.614694       -16.7267
  24   2.0000      -0.600461       -16.3394
  25   2.0000      -0.566390       -15.4122
  26   2.0000      -0.509540       -13.8653
  27   2.0000      -0.472049       -12.8451
  28   2.0000      -0.460592       -12.5334
  29   2.0000      -0.420448       -11.4410
  30   2.0000      -0.347130        -9.4459
  31   2.0000      -0.306050        -8.3280
  32   0.0000       0.132111         3.5949
  33   0.0000       0.133572         3.6347
  34   0.0000       0.152315         4.1447
  35   0.0000       0.161188         4.3862
  36   0.0000       0.175121         4.7653

MULLIKEN ATOMIC CHARGES
-----------------------
   0 C :   -0.325407
   1 N :   -0.084335
   2 C :   -0.094803
   3 C :   -0.152447
   4 N :   -0.068886
   5 C :   -0.036588
   6 N :   -0.188717
   7 N :   -0.193102
   8 C :    0.178786
   9 H :    0.153571
  10 H :    0.148259
  11 H :    0.178916
  12 H :    0.163712
  13 H :    0.167227
  14 H :    0.153813
Sum of atomic charges:   -0.0000000

LOEWDIN ATOMIC CHARGES
----------------------
   0 C :   -0.263588
   1 N :    0.223337
   2 C :   -0.196100
   3 C :   -0.203190
   4 N :    0.287763
   5 C :   -0.320254
   6 N :    0.022109
   7 N :    0.000689
   8 C :   -0.358997
   9 H :    0.124423
  10 H :    0.126630
  11 H :    0.137392
  12 H :    0.144352
  13 H :    0.142407
  14 H :    0.133025

  Mayer bond orders larger than 0.1
B(  0-C ,  1-N ) :   0.8619 B(  0-C ,  9-H ) :   0.9279 B(  0-C , 10-H ) :   0.9311
B(  0-C , 11-H ) :   0.9267 B(  1-N ,  2-C ) :   1.0964 B(  1-N ,  8-C ) :   1.0973
B(  2-C ,  3-C ) :   1.6034 B(  2-C , 12-H ) :   0.9115 B(  3-C ,  4-N ) :   1.0319
B(  3-C , 13-H ) :   0.9158 B(  4-N ,  5-C ) :   1.1015 B(  4-N ,  8-C ) :   1.0703
B(  5-C ,  6-N ) :   1.5847 B(  5-C , 14-H ) :   0.9245 B(  6-N ,  7-N ) :   1.0582
B(  7-N ,  8-C ) :   1.6526

MP2 TOTAL ENERGY:     -412.292257775 Eh
FINAL SINGLE POINT ENERGY      -412.292257775499

DIPOLE MOMENT
-------------
                                X             Y             Z
Electronic contribution:      0.01280      -4.10233       3.19475
Nuclear contribution   :     -0.06157       4.36922      -5.62498
                        -----------------------------------------
Total Dipole Moment    :     -0.04878       0.26689      -2.43023
                        -----------------------------------------
Magnitude (a.u.)       :      2.44533
Magnitude (Debye)      :      6.21553

                             ****ORCA TERMINATED NORMALLY****
TOTAL RUN TIME: 0 days 0 hours 18 minutes 7 seconds 150 msec
