                         Program Version 3.0.3 - RELEASE   -
|  1> ! RI-MP2 RIJK def2-TZVP def2-TZVP/C def2-TZVP/JK TIGHTSCF
|  2> % maxcore 2000
|  3> % mp2 density relaxed end
|  4> *xyz 0 1
|  5>  C       -0.1448295487     1.5118762750     0.0794880878
|  6>  C        0.0328825558    -0.0114125730     0.0132895671
|  7>  C        0.6182749419    -0.4615152923    -1.3658935989
|  8>  C        2.1616785733    -0.5716193197    -1.4006874738
|  9>  C        2.4909366152    -1.5693209936    -0.2971488116
| 10>  C        3.7380255619    -1.6247924686     0.6165896342
| 11>  O        2.8875129798    -1.3871444231     1.7940826737
| 12>  C        1.8296424027    -1.0907285329     0.9652082979
| 13>  N        0.8106061366    -0.4055518946     1.2061878080
| 14>  H        0.8126841970     2.0233733418    -0.0690425074
| 15>  H       -0.8419200336     1.8565780997    -0.6912555371
| 16>  H       -0.5294437037     1.8033634571     1.0596776526
| 17>  H       -0.9623792132    -0.4627114148     0.1121351668
| 18>  H        0.2086653352    -1.4448688617    -1.6278144274
| 19>  H        0.2694178459     0.2325189383    -2.1367719873
| 20>  H        2.5034790554    -0.8920549462    -2.3893400426
| 21>  H        2.6266932208     0.3983475640    -1.1878136227
| 22>  H        2.1723320879    -2.5776828926    -0.5792458492
| 23>  H        4.2622763947    -2.5796141997     0.6903606242
| 24>  H        4.4491749651    -0.8022524032     0.4957136457
| 25> *
| 26>
| 27>                          ****END OF INPUT****

CARTESIAN COORDINATES (ANGSTROEM)
---------------------------------
  C     -0.144830    1.511876    0.079488
  C      0.032883   -0.011413    0.013290
  C      0.618275   -0.461515   -1.365894
  C      2.161679   -0.571619   -1.400687
  C      2.490937   -1.569321   -0.297149
  C      3.738026   -1.624792    0.616590
  O      2.887513   -1.387144    1.794083
  C      1.829642   -1.090729    0.965208
  N      0.810606   -0.405552    1.206188
  H      0.812684    2.023373   -0.069043
  H     -0.841920    1.856578   -0.691256
  H     -0.529444    1.803363    1.059678
  H     -0.962379   -0.462711    0.112135
  H      0.208665   -1.444869   -1.627814
  H      0.269418    0.232519   -2.136772
  H      2.503479   -0.892055   -2.389340
  H      2.626693    0.398348   -1.187814
  H      2.172332   -2.577683   -0.579246
  H      4.262276   -2.579614    0.690361
  H      4.449175   -0.802252    0.495714

 Total Charge           Charge          ....    0
 Multiplicity           Mult            ....    1
 Number of Electrons    NEL             ....   68
 Basis Dimension        Dim             ....  345

ORBITAL ENERGIES
----------------

  NO   OCC          E(Eh)            E(eV)
   0   2.0000     -20.582463      -560.0773
   1   2.0000     -15.534977      -422.7282
   2   2.0000     -11.323879      -308.1384
   3   2.0000     -11.302440      -307.5550
   4   2.0000     -11.260580      -306.4160
   5   2.0000     -11.252541      -306.1972
   6   2.0000     -11.242948      -305.9362
   7   2.0000     -11.231954      -305.6370
   8   2.0000     -11.208343      -304.9945
   9   2.0000      -1.424965       -38.7753
  10   2.0000      -1.224399       -33.3176
  11   2.0000      -1.092057       -29.7164
  12   2.0000      -1.034008       -28.1368
  13   2.0000      -0.973377       -26.4869
  14   2.0000      -0.899882       -24.4870
  15   2.0000      -0.855842       -23.2886
  16   2.0000      -0.804230       -21.8842
  17   2.0000      -0.730077       -19.8664
  18   2.0000      -0.680634       -18.5210
  19   2.0000      -0.665426       -18.1072
  20   2.0000      -0.647251       -17.6126
  21   2.0000      -0.620769       -16.8920
  22   2.0000      -0.598630       -16.2895
  23   2.0000      -0.566020       -15.4022
  24   2.0000      -0.549492       -14.9524
  25   2.0000      -0.540553       -14.7092
  26   2.0000      -0.525325       -14.2948
  27   2.0000      -0.517005       -14.0684
  28   2.0000      -0.499979       -13.6051
  29   2.0000      -0.490964       -13.3598
  30   2.0000      -0.475404       -12.9364
  31   2.0000      -0.463802       -12.6207
  32   2.0000      -0.391240       -10.6462
  33   2.0000      -0.375077       -10.2064
  34   0.0000       0.126698         3.4476
  35   0.0000       0.145565         3.9610
  36   0.0000       0.149210         4.0602
  37   0.0000       0.169890         4.6229
  38   0.0000       0.184624         5.0239

MULLIKEN ATOMIC CHARGES
-----------------------
   0 C :   -0.402629
   1 C :    0.073523
   2 C :   -0.243634
   3 C :   -0.236180
   4 C :   -0.168476
   5 C :   -0.008232
   6 O :   -0.255271
   7 C :    0.105939
   8 N :   -0.200647
   9 H :    0.116035
  10 H :    0.120318
  11 H :    0.144526
  12 H :    0.099584
  13 H :    0.121584
  14 H :    0.130841
  15 H :    0.130513
  16 H :    0.123806
  17 H :    0.123884
  18 H :    0.117738
  19 H :    0.106779
Sum of atomic charges:    0.0000000

LOEWDIN ATOMIC CHARGES
----------------------
   0 C :   -0.296234
   1 C :   -0.293024
   2 C :   -0.233663
   3 C :   -0.235720
   4 C :   -0.214002
   5 C :   -0.206411
   6 O :    0.218903
   7 C :   -0.357780
   8 N :    0.132364
   9 H :    0.121306
  10 H :    0.120055
  11 H :    0.127616
  12 H :    0.147211
  13 H :    0.139782
  14 H :    0.142003
  15 H :    0.135885
  16 H :    0.142615
  17 H :    0.163046
  18 H :    0.121377
  19 H :    0.124673

  Mayer bond orders larger than 0.1
B(  0-C ,  1-C ) :   0.9245 B(  0-C ,  9-H ) :   0.9323 B(  0-C , 10-H ) :   0.9356
B(  0-C , 11-H ) :   0.9373 B(  1-C ,  2-C ) :   0.8959 B(  1-C ,  8-N ) :   0.8797
B(  1-C , 12-H ) :   0.9235 B(  2-C ,  3-C ) :   0.9058 B(  2-C , 13-H ) :   0.9311
B(  2-C , 14-H ) :   0.9261 B(  3-C ,  4-C ) :   0.9151 B(  3-C , 15-H ) :   0.9316
B(  3-C , 16-H ) :   0.9260 B(  4-C ,  5-C ) :   0.9678 B(  4-C ,  7-C ) :   0.9558
B(  4-C , 17-H ) :   0.9020 B(  5-C ,  6-O ) :   0.9010 B(  5-C , 18-H ) :   0.9174
B(  5-C , 19-H ) :   0.9003 B(  6-O ,  7-C ) :   1.0933 B(  7-C ,  8-N ) :   1.9127

MP2 TOTAL ENERGY:     -402.459214002 Eh
FINAL SINGLE POINT ENERGY      -402.459214001749

DIPOLE MOMENT
-------------
                                X             Y             Z
Electronic contribution:      2.95562      -4.25903       6.33010
Nuclear contribution   :     -2.55141       3.97739      -7.76125
                        -----------------------------------------
Total Dipole Moment    :      0.40421      -0.28163      -1.43114
                        -----------------------------------------
Magnitude (a.u.)       :      1.51356
Magnitude (Debye)      :      3.84717

                             ****ORCA TERMINATED NORMALLY****
TOTAL RUN TIME: 0 days 0 hours 19 minutes 17 seconds 639 msec
