                         Program Version 3.0.3 - RELEASE   -
|  1> ! RI-MP2 RIJK def2-TZVP def2-TZVP/C def2-TZVP/JK TIGHTSCF
|  2> % maxcore 2000
|  3> % mp2 density relaxed end
|  4> *xyz 0 1
|  5>  C       -0.0397851554     1.5808886768     0.1667450947
|  6>  C       -0.0650708325     0.0714907076    -0.0836179133
|  7>  N       -1.3971754227    -0.5004272854     0.0026669286
|  8>  C       -2.1600173543    -0.6978913876     1.1790822334
|  9>  C       -3.3226061153    -1.2157131749     0.7695097729
| 10>  O       -4.4150733121    -1.6030893883     1.4381188468
| 11>  O       -3.3436474290    -1.3521158630    -0.5913431664
| 12>  C       -2.1138253417    -0.8924216677    -1.0901813258
| 13>  O       -1.8339218854    -0.8851029211    -2.2597392627
| 14>  H        0.9860365278     1.9552142864     0.0971796618
| 15>  H       -0.6495105629     2.1053568460    -0.5741406429
| 16>  H       -0.4227597529     1.8267670088     1.1620367719
| 17>  H        0.2939642792    -0.1576003957    -1.0896870337
| 18>  H        0.5847649086    -0.4479338021     0.6305608346
| 19>  H       -1.7956244267    -0.4643446654     2.1619035131
| 20>  H       -5.0484436845    -1.9502467244     0.7985592471
| 21> *
| 22>
| 23>                          ****END OF INPUT****

CARTESIAN COORDINATES (ANGSTROEM)
---------------------------------
  C     -0.039785    1.580889    0.166745
  C     -0.065071    0.071491   -0.083618
  N     -1.397175   -0.500427    0.002667
  C     -2.160017   -0.697891    1.179082
  C     -3.322606   -1.215713    0.769510
  O     -4.415073   -1.603089    1.438119
  O     -3.343647   -1.352116   -0.591343
  C     -2.113825   -0.892422   -1.090181
  O     -1.833922   -0.885103   -2.259739
  H      0.986037    1.955214    0.097180
  H     -0.649511    2.105357   -0.574141
  H     -0.422760    1.826767    1.162037
  H      0.293964   -0.157600   -1.089687
  H      0.584765   -0.447934    0.630561
  H     -1.795624   -0.464345    2.161904
  H     -5.048444   -1.950247    0.798559

 Total Charge           Charge          ....    0
 Multiplicity           Mult            ....    1
 Number of Electrons    NEL             ....   68
 Basis Dimension        Dim             ....  321

ORBITAL ENERGIES
----------------

  NO   OCC          E(Eh)            E(eV)
   0   2.0000     -20.637697      -561.5803
   1   2.0000     -20.623497      -561.1939
   2   2.0000     -20.531100      -558.6796
   3   2.0000     -15.613799      -424.8731
   4   2.0000     -11.410569      -310.4974
   5   2.0000     -11.371939      -309.4462
   6   2.0000     -11.282314      -307.0074
   7   2.0000     -11.269448      -306.6573
   8   2.0000     -11.231879      -305.6350
   9   2.0000      -1.511567       -41.1318
  10   2.0000      -1.435435       -39.0602
  11   2.0000      -1.373356       -37.3709
  12   2.0000      -1.277922       -34.7740
  13   2.0000      -1.062904       -28.9231
  14   2.0000      -1.012507       -27.5517
  15   2.0000      -0.902950       -24.5705
  16   2.0000      -0.854745       -23.2588
  17   2.0000      -0.824154       -22.4264
  18   2.0000      -0.767635       -20.8884
  19   2.0000      -0.704831       -19.1794
  20   2.0000      -0.694675       -18.9031
  21   2.0000      -0.657812       -17.9000
  22   2.0000      -0.644503       -17.5378
  23   2.0000      -0.624209       -16.9856
  24   2.0000      -0.610395       -16.6097
  25   2.0000      -0.606189       -16.4953
  26   2.0000      -0.589415       -16.0388
  27   2.0000      -0.572404       -15.5759
  28   2.0000      -0.540809       -14.7162
  29   2.0000      -0.513572       -13.9750
  30   2.0000      -0.511474       -13.9179
  31   2.0000      -0.465062       -12.6550
  32   2.0000      -0.463362       -12.6087
  33   2.0000      -0.311947        -8.4885
  34   0.0000       0.129646         3.5278
  35   0.0000       0.135559         3.6888
  36   0.0000       0.163602         4.4518
  37   0.0000       0.170991         4.6529
  38   0.0000       0.188904         5.1403

MULLIKEN ATOMIC CHARGES
-----------------------
   0 C :   -0.385898
   1 C :   -0.169319
   2 N :   -0.051112
   3 C :   -0.218561
   4 C :    0.300929
   5 O :   -0.420838
   6 O :   -0.239587
   7 C :    0.303343
   8 O :   -0.347874
   9 H :    0.136041
  10 H :    0.144877
  11 H :    0.129682
  12 H :    0.164905
  13 H :    0.132995
  14 H :    0.166035
  15 H :    0.354381
Sum of atomic charges:    0.0000000

LOEWDIN ATOMIC CHARGES
----------------------
   0 C :   -0.309358
   1 C :   -0.267233
   2 N :    0.222653
   3 C :   -0.215058
   4 C :   -0.415542
   5 O :    0.093223
   6 O :    0.298653
   7 C :   -0.513832
   8 O :    0.087088
   9 H :    0.127039
  10 H :    0.128385
  11 H :    0.121881
  12 H :    0.151524
  13 H :    0.136798
  14 H :    0.144883
  15 H :    0.208896

  Mayer bond orders larger than 0.1
B(  0-C ,  1-C ) :   0.9273 B(  0-C ,  9-H ) :   0.9334 B(  0-C , 10-H ) :   0.9346
B(  0-C , 11-H ) :   0.9351 B(  1-C ,  2-N ) :   0.8495 B(  1-C , 12-H ) :   0.9192
B(  1-C , 13-H ) :   0.9337 B(  2-N ,  3-C ) :   0.9567 B(  2-N ,  7-C ) :   1.1726
B(  3-C ,  4-C ) :   1.6836 B(  3-C , 14-H ) :   0.9102 B(  4-C ,  5-O ) :   1.1184
B(  4-C ,  6-O ) :   1.0291 B(  5-O , 15-H ) :   0.8126 B(  6-O ,  7-C ) :   0.9853
B(  7-C ,  8-O ) :   1.9659

MP2 TOTAL ENERGY:     -474.320736869 Eh
FINAL SINGLE POINT ENERGY      -474.320736869073

DIPOLE MOMENT
-------------
                                X             Y             Z
Electronic contribution:     -7.85339      -6.43334      -2.19014
Nuclear contribution   :      8.09464       6.70049       3.38099
                        -----------------------------------------
Total Dipole Moment    :      0.24125       0.26716       1.19085
                        -----------------------------------------
Magnitude (a.u.)       :      1.24407
Magnitude (Debye)      :      3.16217

                             ****ORCA TERMINATED NORMALLY****
TOTAL RUN TIME: 0 days 0 hours 15 minutes 4 seconds 715 msec
