                         Program Version 3.0.3 - RELEASE   -
|  1> ! RI-MP2 RIJK def2-TZVP def2-TZVP/C def2-TZVP/JK TIGHTSCF
|  2> % maxcore 2000
|  3> % mp2 density relaxed end
|  4> *xyz 0 1
|  5>  C       -0.0809173947     1.6272581272     0.0657812538
|  6>  C        0.0637651689     0.1113324129     0.0867602439
|  7>  C       -1.1296296594    -0.6262956339    -0.4637227686
|  8>  O       -2.1288533320    -0.1098035526    -0.8923591099
|  9>  C        1.3111462976    -0.7225480423    -0.2127376842
| 10>  C        2.6224571746    -0.1536299747     0.4168985439
| 11>  O        2.3445263516     1.0576662079     1.1257831413
| 12>  C        2.0315188826    -0.1916843043     1.7487816327
| 13>  C        0.6968193895    -0.7620766706     1.1718673085
| 14>  H        0.6940147027     2.0981168715    -0.5392482429
| 15>  H       -1.0578702113     1.8675809635    -0.3614193857
| 16>  H       -0.0201017364     2.0521606553     1.0678191823
| 17>  H       -1.0244453278    -1.7357687182    -0.4486134078
| 18>  H        1.3168369809    -1.5004146452    -0.9665784313
| 19>  H        3.6320523819    -0.3177834821     0.0621505676
| 20>  H        2.4498618810    -0.3939275260     2.7266171733
| 21>  H        0.1585161404    -1.5749278287     1.6439760433
| 22> *
| 23>
| 24>                          ****END OF INPUT****

CARTESIAN COORDINATES (ANGSTROEM)
---------------------------------
  C     -0.080917    1.627258    0.065781
  C      0.063765    0.111332    0.086760
  C     -1.129630   -0.626296   -0.463723
  O     -2.128853   -0.109804   -0.892359
  C      1.311146   -0.722548   -0.212738
  C      2.622457   -0.153630    0.416899
  O      2.344526    1.057666    1.125783
  C      2.031519   -0.191684    1.748782
  C      0.696819   -0.762077    1.171867
  H      0.694015    2.098117   -0.539248
  H     -1.057870    1.867581   -0.361419
  H     -0.020102    2.052161    1.067819
  H     -1.024445   -1.735769   -0.448613
  H      1.316837   -1.500415   -0.966578
  H      3.632052   -0.317783    0.062151
  H      2.449862   -0.393928    2.726617
  H      0.158516   -1.574928    1.643976

 Total Charge           Charge          ....    0
 Multiplicity           Mult            ....    1
 Number of Electrons    NEL             ....   66
 Basis Dimension        Dim             ....  327

ORBITAL ENERGIES
----------------

  NO   OCC          E(Eh)            E(eV)
   0   2.0000     -20.584547      -560.1340
   1   2.0000     -20.556624      -559.3742
   2   2.0000     -11.335119      -308.4443
   3   2.0000     -11.308376      -307.7165
   4   2.0000     -11.307537      -307.6937
   5   2.0000     -11.271370      -306.7096
   6   2.0000     -11.265780      -306.5575
   7   2.0000     -11.265147      -306.5402
   8   2.0000     -11.209197      -305.0178
   9   2.0000      -1.438371       -39.1401
  10   2.0000      -1.397999       -38.0415
  11   2.0000      -1.191727       -32.4285
  12   2.0000      -1.016054       -27.6482
  13   2.0000      -0.931225       -25.3399
  14   2.0000      -0.908161       -24.7123
  15   2.0000      -0.859196       -23.3799
  16   2.0000      -0.771799       -21.0017
  17   2.0000      -0.754482       -20.5305
  18   2.0000      -0.736345       -20.0370
  19   2.0000      -0.676459       -18.4074
  20   2.0000      -0.660583       -17.9754
  21   2.0000      -0.620517       -16.8851
  22   2.0000      -0.590710       -16.0740
  23   2.0000      -0.587816       -15.9953
  24   2.0000      -0.552599       -15.0370
  25   2.0000      -0.539546       -14.6818
  26   2.0000      -0.533141       -14.5075
  27   2.0000      -0.517788       -14.0897
  28   2.0000      -0.504000       -13.7145
  29   2.0000      -0.442596       -12.0436
  30   2.0000      -0.424765       -11.5585
  31   2.0000      -0.423369       -11.5205
  32   2.0000      -0.371370       -10.1055
  33   0.0000       0.122830         3.3424
  34   0.0000       0.143353         3.9008
  35   0.0000       0.147331         4.0091
  36   0.0000       0.164482         4.4758
  37   0.0000       0.167386         4.5548

MULLIKEN ATOMIC CHARGES
-----------------------
   0 C :   -0.382817
   1 C :    0.128164
   2 C :    0.042549
   3 O :   -0.265154
   4 C :   -0.143213
   5 C :   -0.029051
   6 O :   -0.305122
   7 C :   -0.029070
   8 C :   -0.143204
   9 H :    0.134183
  10 H :    0.159851
  11 H :    0.134149
  12 H :    0.087614
  13 H :    0.150700
  14 H :    0.154860
  15 H :    0.154858
  16 H :    0.150701
Sum of atomic charges:   -0.0000000

LOEWDIN ATOMIC CHARGES
----------------------
   0 C :   -0.264207
   1 C :   -0.203905
   2 C :   -0.260304
   3 O :    0.138294
   4 C :   -0.127087
   5 C :   -0.214751
   6 O :    0.199503
   7 C :   -0.214761
   8 C :   -0.127090
   9 H :    0.129921
  10 H :    0.133463
  11 H :    0.129924
  12 H :    0.122783
  13 H :    0.143863
  14 H :    0.135244
  15 H :    0.135245
  16 H :    0.143863

  Mayer bond orders larger than 0.1
B(  0-C ,  1-C ) :   0.8666 B(  0-C ,  9-H ) :   0.9382 B(  0-C , 10-H ) :   0.9179
B(  0-C , 11-H ) :   0.9382 B(  1-C ,  2-C ) :   0.8258 B(  1-C ,  4-C ) :   0.8412
B(  1-C ,  8-C ) :   0.8412 B(  2-C ,  3-O ) :   1.9916 B(  2-C , 12-H ) :   0.9565
B(  4-C ,  5-C ) :   0.8428 B(  4-C ,  8-C ) :   0.8625 B(  4-C , 13-H ) :   0.9120
B(  5-C ,  6-O ) :   0.9158 B(  5-C ,  7-C ) :   1.0057 B(  5-C , 14-H ) :   0.9233
B(  6-O ,  7-C ) :   0.9158 B(  7-C ,  8-C ) :   0.8428 B(  7-C , 15-H ) :   0.9233
B(  8-C , 16-H ) :   0.9120

MP2 TOTAL ENERGY:     -421.032245351 Eh
FINAL SINGLE POINT ENERGY      -421.032245350648

DIPOLE MOMENT
-------------
                                X             Y             Z
Electronic contribution:     -0.13810      -0.99742      -0.08966
Nuclear contribution   :      1.16547       0.05088       0.51848
                        -----------------------------------------
Total Dipole Moment    :      1.02737      -0.94654       0.42881
                        -----------------------------------------
Magnitude (a.u.)       :      1.46127
Magnitude (Debye)      :      3.71425

                             ****ORCA TERMINATED NORMALLY****
TOTAL RUN TIME: 0 days 0 hours 16 minutes 38 seconds 872 msec
