                         Program Version 3.0.3 - RELEASE   -
|  1> ! RI-MP2 RIJK def2-TZVP def2-TZVP/C def2-TZVP/JK TIGHTSCF
|  2> % maxcore 2000
|  3> % mp2 density relaxed end
|  4> *xyz 0 1
|  5>  C        0.0031060083     1.4074618919     0.0086898712
|  6>  O       -0.0243129290    -0.0207614873     0.0048717090
|  7>  C       -1.2303996560    -0.6089398991     0.0121645362
|  8>  C       -1.2613935410    -2.0190794852     0.0082237214
|  9>  N       -2.4048707070    -2.6806431442     0.0148117729
| 10>  C       -3.5308121456    -1.9471821209     0.0253838499
| 11>  C       -3.4904983230    -0.5636210533     0.0291584327
| 12>  N       -2.3355203395     0.1182600804     0.0225583683
| 13>  H        1.0594784283     1.6777887268     0.0012788192
| 14>  H       -0.5000063569     1.8122157810    -0.8740416273
| 15>  H       -0.4862433680     1.8071985327     0.9013942013
| 16>  H       -0.3329331726    -2.5829922968    -0.0003901607
| 17>  H       -4.4737897278    -2.4845846581     0.0308486665
| 18>  H       -4.4040198303     0.0253004621     0.0377264494
| 19> *
| 20>
| 21>                          ****END OF INPUT****

CARTESIAN COORDINATES (ANGSTROEM)
---------------------------------
  C      0.003106    1.407462    0.008690
  O     -0.024313   -0.020761    0.004872
  C     -1.230400   -0.608940    0.012165
  C     -1.261394   -2.019079    0.008224
  N     -2.404871   -2.680643    0.014812
  C     -3.530812   -1.947182    0.025384
  C     -3.490498   -0.563621    0.029158
  N     -2.335520    0.118260    0.022558
  H      1.059478    1.677789    0.001279
  H     -0.500006    1.812216   -0.874042
  H     -0.486243    1.807199    0.901394
  H     -0.332933   -2.582992   -0.000390
  H     -4.473790   -2.484585    0.030849
  H     -4.404020    0.025300    0.037726

 Total Charge           Charge          ....    0
 Multiplicity           Mult            ....    1
 Number of Electrons    NEL             ....   58
 Basis Dimension        Dim             ....  284

ORBITAL ENERGIES
----------------

  NO   OCC          E(Eh)            E(eV)
   0   2.0000     -20.598822      -560.5225
   1   2.0000     -15.592718      -424.2994
   2   2.0000     -15.582146      -424.0117
   3   2.0000     -11.346239      -308.7469
   4   2.0000     -11.285849      -307.1036
   5   2.0000     -11.284542      -307.0680
   6   2.0000     -11.277989      -306.8897
   7   2.0000     -11.267703      -306.6098
   8   2.0000      -1.437094       -39.1053
   9   2.0000      -1.299773       -35.3686
  10   2.0000      -1.216969       -33.1154
  11   2.0000      -1.050307       -28.5803
  12   2.0000      -0.967557       -26.3286
  13   2.0000      -0.898940       -24.4614
  14   2.0000      -0.860004       -23.4019
  15   2.0000      -0.739052       -20.1106
  16   2.0000      -0.722988       -19.6735
  17   2.0000      -0.694630       -18.9019
  18   2.0000      -0.669407       -18.2155
  19   2.0000      -0.627779       -17.0827
  20   2.0000      -0.607914       -16.5422
  21   2.0000      -0.573709       -15.6114
  22   2.0000      -0.568336       -15.4652
  23   2.0000      -0.525912       -14.3108
  24   2.0000      -0.499544       -13.5933
  25   2.0000      -0.495244       -13.4763
  26   2.0000      -0.435013       -11.8373
  27   2.0000      -0.415014       -11.2931
  28   2.0000      -0.333640        -9.0788
  29   0.0000       0.086679         2.3587
  30   0.0000       0.128395         3.4938
  31   0.0000       0.149932         4.0798
  32   0.0000       0.172911         4.7051
  33   0.0000       0.184608         5.0234

MULLIKEN ATOMIC CHARGES
-----------------------
   0 C :   -0.201884
   1 O :   -0.265024
   2 C :    0.300676
   3 C :   -0.052038
   4 N :   -0.244840
   5 C :   -0.028998
   6 C :   -0.049129
   7 N :   -0.286166
   8 H :    0.146966
   9 H :    0.134009
  10 H :    0.133998
  11 H :    0.141567
  12 H :    0.137944
  13 H :    0.132920
Sum of atomic charges:    0.0000000

LOEWDIN ATOMIC CHARGES
----------------------
   0 C :   -0.315672
   1 O :    0.237914
   2 C :   -0.351978
   3 C :   -0.181313
   4 N :    0.138608
   5 C :   -0.228431
   6 C :   -0.219801
   7 N :    0.153360
   8 H :    0.115013
   9 H :    0.112219
  10 H :    0.112217
  11 H :    0.145716
  12 H :    0.141013
  13 H :    0.141136

  Mayer bond orders larger than 0.1
B(  0-C ,  1-O ) :   0.8412 B(  0-C ,  8-H ) :   0.9334 B(  0-C ,  9-H ) :   0.9348
B(  0-C , 10-H ) :   0.9348 B(  1-O ,  2-C ) :   1.1193 B(  2-C ,  3-C ) :   1.2182
B(  2-C ,  7-N ) :   1.3327 B(  3-C ,  4-N ) :   1.4651 B(  3-C , 11-H ) :   0.9335
B(  4-N ,  5-C ) :   1.3198 B(  5-C ,  6-C ) :   1.3643 B(  5-C , 12-H ) :   0.9306
B(  6-C ,  7-N ) :   1.3544 B(  6-C , 13-H ) :   0.9300

MP2 TOTAL ENERGY:     -378.119554047 Eh
FINAL SINGLE POINT ENERGY      -378.119554046846

DIPOLE MOMENT
-------------
                                X             Y             Z
Electronic contribution:     -1.18264      -3.69774      -0.00164
Nuclear contribution   :      1.16958       4.37330       0.00364
                        -----------------------------------------
Total Dipole Moment    :     -0.01307       0.67556       0.00200
                        -----------------------------------------
Magnitude (a.u.)       :      0.67569
Magnitude (Debye)      :      1.71747

                             ****ORCA TERMINATED NORMALLY****
TOTAL RUN TIME: 0 days 0 hours 10 minutes 12 seconds 648 msec
