                         Program Version 3.0.3 - RELEASE   -
|  1> ! RI-MP2 RIJK def2-TZVP def2-TZVP/C def2-TZVP/JK TIGHTSCF
|  2> % maxcore 2000
|  3> % mp2 density relaxed end
|  4> *xyz 0 1
|  5>  N       -0.6737747328    -0.6962221015    -0.2252540234
|  6>  C       -0.2499665293     0.3682047398    -0.3711220857
|  7>  C        0.2880098835     1.7139980041    -0.5380200450
|  8>  C        1.7098187905     1.8614680470     0.0641026270
|  9>  C        2.7194449364     1.1691844947    -0.7415029850
| 10>  N        3.5272207271     0.6546712069    -1.3872859220
| 11>  C        2.1255763970     3.3247075875     0.2495101963
| 12>  C        1.6817995720     4.4176335477    -0.6204214408
| 13>  O        1.1111912265     4.2174905265     0.6823304804
| 14>  H        0.2949042131     1.9627684709    -1.6032029258
| 15>  H       -0.3617766103     2.4321921737    -0.0285202210
| 16>  H        1.7035779791     1.3983621999     1.0584086795
| 17>  H        3.0804109502     3.4329240704     0.7632637175
| 18>  H        2.3076589340     5.3011944514    -0.7220951781
| 19>  H        1.0123362331     4.2255335610    -1.4555322437
| 20> *
| 21>
| 22>                          ****END OF INPUT****

CARTESIAN COORDINATES (ANGSTROEM)
---------------------------------
  N     -0.673775   -0.696222   -0.225254
  C     -0.249967    0.368205   -0.371122
  C      0.288010    1.713998   -0.538020
  C      1.709819    1.861468    0.064103
  C      2.719445    1.169184   -0.741503
  N      3.527221    0.654671   -1.387286
  C      2.125576    3.324708    0.249510
  C      1.681800    4.417634   -0.620421
  O      1.111191    4.217491    0.682330
  H      0.294904    1.962768   -1.603203
  H     -0.361777    2.432192   -0.028520
  H      1.703578    1.398362    1.058409
  H      3.080411    3.432924    0.763264
  H      2.307659    5.301194   -0.722095
  H      1.012336    4.225534   -1.455532

 Total Charge           Charge          ....    0
 Multiplicity           Mult            ....    1
 Number of Electrons    NEL             ....   64
 Basis Dimension        Dim             ....  315

ORBITAL ENERGIES
----------------

  NO   OCC          E(Eh)            E(eV)
   0   2.0000     -20.611744      -560.8741
   1   2.0000     -15.595502      -424.3752
   2   2.0000     -15.587596      -424.1601
   3   2.0000     -11.339650      -308.5676
   4   2.0000     -11.330905      -308.3296
   5   2.0000     -11.323679      -308.1330
   6   2.0000     -11.316008      -307.9242
   7   2.0000     -11.295852      -307.3758
   8   2.0000     -11.290504      -307.2302
   9   2.0000      -1.457647       -39.6646
  10   2.0000      -1.246598       -33.9217
  11   2.0000      -1.235220       -33.6120
  12   2.0000      -1.143437       -31.1145
  13   2.0000      -1.015808       -27.6415
  14   2.0000      -0.955257       -25.9939
  15   2.0000      -0.872696       -23.7473
  16   2.0000      -0.778931       -21.1958
  17   2.0000      -0.740539       -20.1511
  18   2.0000      -0.711043       -19.3485
  19   2.0000      -0.689258       -18.7557
  20   2.0000      -0.642575       -17.4854
  21   2.0000      -0.616046       -16.7635
  22   2.0000      -0.599337       -16.3088
  23   2.0000      -0.582341       -15.8463
  24   2.0000      -0.570636       -15.5278
  25   2.0000      -0.566896       -15.4260
  26   2.0000      -0.506528       -13.7833
  27   2.0000      -0.496056       -13.4984
  28   2.0000      -0.485288       -13.2054
  29   2.0000      -0.476968       -12.9790
  30   2.0000      -0.475364       -12.9353
  31   2.0000      -0.465467       -12.6660
  32   0.0000       0.107669         2.9298
  33   0.0000       0.125770         3.4224
  34   0.0000       0.134009         3.6466
  35   0.0000       0.151185         4.1139
  36   0.0000       0.155061         4.2194

MULLIKEN ATOMIC CHARGES
-----------------------
   0 N :   -0.038415
   1 C :   -0.192186
   2 C :   -0.137690
   3 C :    0.064254
   4 C :   -0.234640
   5 N :   -0.039979
   6 C :    0.032438
   7 C :   -0.080546
   8 O :   -0.321103
   9 H :    0.164946
  10 H :    0.198113
  11 H :    0.160314
  12 H :    0.153285
  13 H :    0.140452
  14 H :    0.130757
Sum of atomic charges:   -0.0000000

LOEWDIN ATOMIC CHARGES
----------------------
   0 N :    0.074861
   1 C :   -0.187244
   2 C :   -0.200291
   3 C :   -0.210073
   4 C :   -0.161109
   5 N :    0.084314
   6 C :   -0.262277
   7 C :   -0.242492
   8 O :    0.161142
   9 H :    0.170720
  10 H :    0.177623
  11 H :    0.191378
  12 H :    0.151028
  13 H :    0.127825
  14 H :    0.124596

  Mayer bond orders larger than 0.1
B(  0-N ,  1-C ) :   2.8690 B(  1-C ,  2-C ) :   0.9560 B(  2-C ,  3-C ) :   0.8783
B(  2-C ,  9-H ) :   0.8880 B(  2-C , 10-H ) :   0.8980 B(  3-C ,  4-C ) :   0.9224
B(  3-C ,  6-C ) :   0.8734 B(  3-C , 11-H ) :   0.9017 B(  4-C ,  5-N ) :   2.8497
B(  6-C ,  7-C ) :   0.9737 B(  6-C ,  8-O ) :   0.9361 B(  6-C , 12-H ) :   0.9154
B(  7-C ,  8-O ) :   0.8711 B(  7-C , 13-H ) :   0.9205 B(  7-C , 14-H ) :   0.9148

MP2 TOTAL ENERGY:     -416.097458614 Eh
FINAL SINGLE POINT ENERGY      -416.097458614184

DIPOLE MOMENT
-------------
                                X             Y             Z
Electronic contribution:      0.12063      -4.60949       0.25847
Nuclear contribution   :     -0.07851       6.53372      -0.14181
                        -----------------------------------------
Total Dipole Moment    :      0.04212       1.92423       0.11666
                        -----------------------------------------
Magnitude (a.u.)       :      1.92822
Magnitude (Debye)      :      4.90115

                             ****ORCA TERMINATED NORMALLY****
TOTAL RUN TIME: 0 days 0 hours 13 minutes 32 seconds 336 msec
