                         Program Version 3.0.3 - RELEASE   -
|  1> ! RI-MP2 RIJK def2-TZVP def2-TZVP/C def2-TZVP/JK TIGHTSCF
|  2> % maxcore 2000
|  3> % mp2 density relaxed end
|  4> *xyz 0 1
|  5>  C        0.1156798317     1.5156292326     0.0879528840
|  6>  C       -0.0440384387     0.0021173359    -0.0309011131
|  7>  C       -1.4947609941    -0.4615808581    -0.0337577215
|  8>  O       -2.4173356985     0.3161189099    -0.1179650004
|  9>  C       -1.7310906960    -1.9729931710     0.0773411238
| 10>  C       -1.6645963527    -2.3933468700     1.5617482000
| 11>  C       -3.0836333630    -2.3631346668    -0.5549786983
| 12>  C       -3.1803388856    -3.8588406092    -0.7391226952
| 13>  O       -3.9556155011    -4.5823791676    -0.1685964309
| 14>  H        1.1704208396     1.7987832480     0.0341807131
| 15>  H       -0.4248649507     2.0257532048    -0.7125565572
| 16>  H       -0.2903153031     1.8784458394     1.0361423013
| 17>  H        0.4042664796    -0.3671938022    -0.9653974655
| 18>  H        0.4963547579    -0.5244971640     0.7660227298
| 19>  H       -0.9170398292    -2.4809111664    -0.4587594957
| 20>  H       -2.4224014640    -1.8580568049     2.1422956351
| 21>  H       -1.8576662503    -3.4646010597     1.6670054993
| 22>  H       -0.6849412292    -2.1830291081     1.9997011659
| 23>  H       -3.9143646113    -2.0142402711     0.0616827213
| 24>  H       -3.1688819669    -1.8896380255    -1.5412077047
| 25>  H       -2.4392847344    -4.2771952861    -1.4628874310
| 26> *
| 27>
| 28>                          ****END OF INPUT****

CARTESIAN COORDINATES (ANGSTROEM)
---------------------------------
  C      0.115680    1.515629    0.087953
  C     -0.044038    0.002117   -0.030901
  C     -1.494761   -0.461581   -0.033758
  O     -2.417336    0.316119   -0.117965
  C     -1.731091   -1.972993    0.077341
  C     -1.664596   -2.393347    1.561748
  C     -3.083633   -2.363135   -0.554979
  C     -3.180339   -3.858841   -0.739123
  O     -3.955616   -4.582379   -0.168596
  H      1.170421    1.798783    0.034181
  H     -0.424865    2.025753   -0.712557
  H     -0.290315    1.878446    1.036142
  H      0.404266   -0.367194   -0.965397
  H      0.496355   -0.524497    0.766023
  H     -0.917040   -2.480911   -0.458759
  H     -2.422401   -1.858057    2.142296
  H     -1.857666   -3.464601    1.667005
  H     -0.684941   -2.183029    1.999701
  H     -3.914365   -2.014240    0.061683
  H     -3.168882   -1.889638   -1.541208
  H     -2.439285   -4.277195   -1.462887

 Total Charge           Charge          ....    0
 Multiplicity           Mult            ....    1
 Number of Electrons    NEL             ....   70
 Basis Dimension        Dim             ....  351

ORBITAL ENERGIES
----------------

  NO   OCC          E(Eh)            E(eV)
   0   2.0000     -20.560683      -559.4846
   1   2.0000     -20.553152      -559.2797
   2   2.0000     -11.336841      -308.4911
   3   2.0000     -11.335316      -308.4496
   4   2.0000     -11.264301      -306.5172
   5   2.0000     -11.248751      -306.0941
   6   2.0000     -11.244186      -305.9698
   7   2.0000     -11.239505      -305.8425
   8   2.0000     -11.224341      -305.4299
   9   2.0000      -1.399482       -38.0818
  10   2.0000      -1.398187       -38.0466
  11   2.0000      -1.111495       -30.2453
  12   2.0000      -1.058023       -28.7903
  13   2.0000      -0.985665       -26.8213
  14   2.0000      -0.919347       -25.0167
  15   2.0000      -0.855915       -23.2906
  16   2.0000      -0.794720       -21.6254
  17   2.0000      -0.737400       -20.0657
  18   2.0000      -0.684823       -18.6350
  19   2.0000      -0.673378       -18.3235
  20   2.0000      -0.647963       -17.6320
  21   2.0000      -0.639262       -17.3952
  22   2.0000      -0.627033       -17.0624
  23   2.0000      -0.608336       -16.5537
  24   2.0000      -0.574455       -15.6317
  25   2.0000      -0.561375       -15.2758
  26   2.0000      -0.543677       -14.7942
  27   2.0000      -0.538781       -14.6610
  28   2.0000      -0.526327       -14.3221
  29   2.0000      -0.519940       -14.1483
  30   2.0000      -0.500396       -13.6165
  31   2.0000      -0.497476       -13.5370
  32   2.0000      -0.485194       -13.2028
  33   2.0000      -0.429466       -11.6864
  34   2.0000      -0.409128       -11.1329
  35   0.0000       0.113152         3.0790
  36   0.0000       0.129454         3.5226
  37   0.0000       0.142617         3.8808
  38   0.0000       0.146853         3.9961
  39   0.0000       0.156650         4.2627

MULLIKEN ATOMIC CHARGES
-----------------------
   0 C :   -0.369085
   1 C :   -0.252936
   2 C :    0.198541
   3 O :   -0.290238
   4 C :   -0.103692
   5 C :   -0.434382
   6 C :   -0.127582
   7 C :    0.084691
   8 O :   -0.260215
   9 H :    0.134546
  10 H :    0.140066
  11 H :    0.130729
  12 H :    0.134903
  13 H :    0.132981
  14 H :    0.106811
  15 H :    0.148741
  16 H :    0.154660
  17 H :    0.134504
  18 H :    0.128987
  19 H :    0.138645
  20 H :    0.069325
Sum of atomic charges:   -0.0000000

LOEWDIN ATOMIC CHARGES
----------------------
   0 C :   -0.310131
   1 C :   -0.267755
   2 C :   -0.303706
   3 O :    0.164370
   4 C :   -0.249585
   5 C :   -0.275283
   6 C :   -0.234683
   7 C :   -0.299551
   8 O :    0.133049
   9 H :    0.121953
  10 H :    0.128421
  11 H :    0.126608
  12 H :    0.153413
  13 H :    0.148139
  14 H :    0.159320
  15 H :    0.132972
  16 H :    0.131752
  17 H :    0.123270
  18 H :    0.152959
  19 H :    0.156118
  20 H :    0.108349

  Mayer bond orders larger than 0.1
B(  0-C ,  1-C ) :   0.9397 B(  0-C ,  9-H ) :   0.9386 B(  0-C , 10-H ) :   0.9346
B(  0-C , 11-H ) :   0.9370 B(  1-C ,  2-C ) :   0.9271 B(  1-C , 12-H ) :   0.9042
B(  1-C , 13-H ) :   0.9176 B(  2-C ,  3-O ) :   1.9723 B(  2-C ,  4-C ) :   0.8783
B(  4-C ,  5-C ) :   0.9034 B(  4-C ,  6-C ) :   0.8950 B(  4-C , 14-H ) :   0.9288
B(  5-C , 15-H ) :   0.9328 B(  5-C , 16-H ) :   0.9300 B(  5-C , 17-H ) :   0.9323
B(  6-C ,  7-C ) :   0.8612 B(  6-C , 18-H ) :   0.9013 B(  6-C , 19-H ) :   0.9190
B(  7-C ,  8-O ) :   2.0035 B(  7-C , 20-H ) :   0.9368

MP2 TOTAL ENERGY:     -423.548769657 Eh
FINAL SINGLE POINT ENERGY      -423.548769656723

DIPOLE MOMENT
-------------
                                X             Y             Z
Electronic contribution:     -7.26004      -4.50290      -2.39189
Nuclear contribution   :      8.67526       4.68596       2.18972
                        -----------------------------------------
Total Dipole Moment    :      1.41522       0.18306      -0.20217
                        -----------------------------------------
Magnitude (a.u.)       :      1.44126
Magnitude (Debye)      :      3.66340

                             ****ORCA TERMINATED NORMALLY****
TOTAL RUN TIME: 0 days 0 hours 16 minutes 35 seconds 103 msec
