                         Program Version 3.0.3 - RELEASE   -
|  1> ! RI-MP2 RIJK def2-TZVP def2-TZVP/C def2-TZVP/JK TIGHTSCF
|  2> % maxcore 2000
|  3> % mp2 density relaxed end
|  4> *xyz 0 1
|  5>  C        0.0613004555     1.3540062516     0.4775741852
|  6>  C       -0.0261879391    -0.0115368142    -0.1538064943
|  7>  O        0.9388517326    -0.5481432136    -0.6769969487
|  8>  C       -1.3326111983    -0.7324403136    -0.1011085563
|  9>  C       -1.6104824149    -1.7434915366    -1.2390772090
| 10>  C       -1.2012736148    -2.3212132331     0.0514018642
| 11>  O        0.0177784501    -2.8863511155     0.2785497822
| 12>  C       -2.4541054699    -0.0994321423     0.5230574721
| 13>  N       -3.3650625599     0.4023486084     1.0326656345
| 14>  H        1.0762562249     1.7374859834     0.3748457593
| 15>  H       -0.6514782141     2.0392603109     0.0064693127
| 16>  H       -0.2149279002     1.2993372897     1.5362209263
| 17>  H       -2.6457000067    -1.8256907486    -1.5491571729
| 18>  H       -0.8742158516    -1.7195188384    -2.0354923334
| 19>  H       -1.9656843956    -2.7482923863     0.6913904886
| 20>  H        0.6779020219    -2.3707860717    -0.2196180707
| 21> *
| 22>
| 23>                          ****END OF INPUT****

CARTESIAN COORDINATES (ANGSTROEM)
---------------------------------
  C      0.061300    1.354006    0.477574
  C     -0.026188   -0.011537   -0.153806
  O      0.938852   -0.548143   -0.676997
  C     -1.332611   -0.732440   -0.101109
  C     -1.610482   -1.743492   -1.239077
  C     -1.201274   -2.321213    0.051402
  O      0.017778   -2.886351    0.278550
  C     -2.454105   -0.099432    0.523057
  N     -3.365063    0.402349    1.032666
  H      1.076256    1.737486    0.374846
  H     -0.651478    2.039260    0.006469
  H     -0.214928    1.299337    1.536221
  H     -2.645700   -1.825691   -1.549157
  H     -0.874216   -1.719519   -2.035492
  H     -1.965684   -2.748292    0.691390
  H      0.677902   -2.370786   -0.219618

 Total Charge           Charge          ....    0
 Multiplicity           Mult            ....    1
 Number of Electrons    NEL             ....   66
 Basis Dimension        Dim             ....  321

ORBITAL ENERGIES
----------------

  NO   OCC          E(Eh)            E(eV)
   0   2.0000     -20.586380      -560.1839
   1   2.0000     -20.574304      -559.8553
   2   2.0000     -15.583685      -424.0536
   3   2.0000     -11.372920      -309.4729
   4   2.0000     -11.345469      -308.7259
   5   2.0000     -11.304202      -307.6030
   6   2.0000     -11.289513      -307.2033
   7   2.0000     -11.281590      -306.9877
   8   2.0000     -11.254412      -306.2481
   9   2.0000      -1.429371       -38.8952
  10   2.0000      -1.402151       -38.1545
  11   2.0000      -1.237153       -33.6646
  12   2.0000      -1.176243       -32.0072
  13   2.0000      -1.048039       -28.5186
  14   2.0000      -0.947506       -25.7830
  15   2.0000      -0.873158       -23.7598
  16   2.0000      -0.822409       -22.3789
  17   2.0000      -0.760958       -20.7067
  18   2.0000      -0.711938       -19.3728
  19   2.0000      -0.665705       -18.1148
  20   2.0000      -0.652470       -17.7546
  21   2.0000      -0.635698       -17.2982
  22   2.0000      -0.619394       -16.8546
  23   2.0000      -0.597015       -16.2456
  24   2.0000      -0.592326       -16.1180
  25   2.0000      -0.574439       -15.6313
  26   2.0000      -0.566573       -15.4172
  27   2.0000      -0.535370       -14.5682
  28   2.0000      -0.519262       -14.1298
  29   2.0000      -0.500182       -13.6107
  30   2.0000      -0.468747       -12.7553
  31   2.0000      -0.438880       -11.9425
  32   2.0000      -0.399752       -10.8778
  33   0.0000       0.104417         2.8413
  34   0.0000       0.127159         3.4602
  35   0.0000       0.145918         3.9706
  36   0.0000       0.154286         4.1983
  37   0.0000       0.164304         4.4709

MULLIKEN ATOMIC CHARGES
-----------------------
   0 C :   -0.423158
   1 C :    0.268338
   2 O :   -0.372192
   3 C :    0.074593
   4 C :   -0.233159
   5 C :    0.045083
   6 O :   -0.421922
   7 C :   -0.223978
   8 N :   -0.047863
   9 H :    0.162564
  10 H :    0.165519
  11 H :    0.166636
  12 H :    0.163173
  13 H :    0.168093
  14 H :    0.157401
  15 H :    0.350872
Sum of atomic charges:    0.0000000

LOEWDIN ATOMIC CHARGES
----------------------
   0 C :   -0.257003
   1 C :   -0.302365
   2 O :    0.124285
   3 C :   -0.186744
   4 C :   -0.147327
   5 C :   -0.266214
   6 O :    0.049108
   7 C :   -0.168246
   8 N :    0.069721
   9 H :    0.138156
  10 H :    0.147685
  11 H :    0.149020
  12 H :    0.150571
  13 H :    0.153540
  14 H :    0.156186
  15 H :    0.189628

  Mayer bond orders larger than 0.1
B(  0-C ,  1-C ) :   0.9548 B(  0-C ,  9-H ) :   0.9351 B(  0-C , 10-H ) :   0.9106
B(  0-C , 11-H ) :   0.9103 B(  1-C ,  2-O ) :   1.7317 B(  1-C ,  3-C ) :   0.9552
B(  3-C ,  4-C ) :   0.7733 B(  3-C ,  5-C ) :   0.7259 B(  3-C ,  7-C ) :   0.8753
B(  4-C ,  5-C ) :   0.9443 B(  4-C , 12-H ) :   0.9111 B(  4-C , 13-H ) :   0.9078
B(  5-C ,  6-O ) :   1.0847 B(  5-C , 14-H ) :   0.9339 B(  6-O , 15-H ) :   0.7809
B(  7-C ,  8-N ) :   2.8603

MP2 TOTAL ENERGY:     -437.183813144 Eh
FINAL SINGLE POINT ENERGY      -437.183813143574

DIPOLE MOMENT
-------------
                                X             Y             Z
Electronic contribution:     -1.45125      -1.59231       0.58033
Nuclear contribution   :      1.76564       1.63034      -1.20483
                        -----------------------------------------
Total Dipole Moment    :      0.31439       0.03803      -0.62450
                        -----------------------------------------
Magnitude (a.u.)       :      0.70020
Magnitude (Debye)      :      1.77978

                             ****ORCA TERMINATED NORMALLY****
TOTAL RUN TIME: 0 days 0 hours 17 minutes 5 seconds 963 msec
