                         Program Version 3.0.3 - RELEASE   -
|  1> ! RI-MP2 RIJK def2-TZVP def2-TZVP/C def2-TZVP/JK TIGHTSCF
|  2> % maxcore 2000
|  3> % mp2 density relaxed end
|  4> *xyz 0 1
|  5>  C        0.1406231056     1.6289757995     0.1321725250
|  6>  C        0.1251276344     0.1000636017     0.0321079789
|  7>  C        0.7158944664    -0.4611827870    -1.2815696596
|  8>  C       -0.0808943091    -0.0567968913    -2.5202104358
|  9>  O        2.0674222327     0.0406036586    -1.3227461541
| 10>  C        2.9026594755    -0.4544645814    -2.2610472933
| 11>  N        4.0528552294     0.0442469858    -2.3986874034
| 12>  C        0.7588403279    -1.9826788328    -1.1024128951
| 13>  O       -0.0484712258    -2.7476022984    -1.5585707135
| 14>  H        1.1527277714     2.0160638225    -0.0028871565
| 15>  H       -0.5086339512     2.0934794459    -0.6153387780
| 16>  H       -0.2178568786     1.9389678658     1.1179819119
| 17>  H        0.7012008239    -0.3205457450     0.8652037852
| 18>  H       -0.8970695994    -0.2826902697     0.1260625594
| 19>  H       -0.0974796969     1.0293464668    -2.6268447746
| 20>  H        0.3525455994    -0.4862358398    -3.4272098782
| 21>  H       -1.1041413902    -0.4291939871    -2.4390592376
| 22>  H        2.4879079904    -1.2933182652    -2.8362946590
| 23>  H        4.5642273816    -0.4517417339    -3.1257470126
| 24>  H        1.6017819428    -2.3253094251    -0.4593696692
| 25> *
| 26>
| 27>                          ****END OF INPUT****

CARTESIAN COORDINATES (ANGSTROEM)
---------------------------------
  C      0.140623    1.628976    0.132173
  C      0.125128    0.100064    0.032108
  C      0.715894   -0.461183   -1.281570
  C     -0.080894   -0.056797   -2.520210
  O      2.067422    0.040604   -1.322746
  C      2.902659   -0.454465   -2.261047
  N      4.052855    0.044247   -2.398687
  C      0.758840   -1.982679   -1.102413
  O     -0.048471   -2.747602   -1.558571
  H      1.152728    2.016064   -0.002887
  H     -0.508634    2.093479   -0.615339
  H     -0.217857    1.938968    1.117982
  H      0.701201   -0.320546    0.865204
  H     -0.897070   -0.282690    0.126063
  H     -0.097480    1.029346   -2.626845
  H      0.352546   -0.486236   -3.427210
  H     -1.104141   -0.429194   -2.439059
  H      2.487908   -1.293318   -2.836295
  H      4.564227   -0.451742   -3.125747
  H      1.601782   -2.325309   -0.459370

 Total Charge           Charge          ....    0
 Multiplicity           Mult            ....    1
 Number of Electrons    NEL             ....   70
 Basis Dimension        Dim             ....  345

ORBITAL ENERGIES
----------------

  NO   OCC          E(Eh)            E(eV)
   0   2.0000     -20.602768      -560.6298
   1   2.0000     -20.579048      -559.9844
   2   2.0000     -15.549237      -423.1163
   3   2.0000     -11.347925      -308.7927
   4   2.0000     -11.347795      -308.7892
   5   2.0000     -11.323609      -308.1311
   6   2.0000     -11.248124      -306.0770
   7   2.0000     -11.236644      -305.7646
   8   2.0000     -11.224930      -305.4459
   9   2.0000      -1.441963       -39.2378
  10   2.0000      -1.416126       -38.5347
  11   2.0000      -1.210292       -32.9337
  12   2.0000      -1.099464       -29.9179
  13   2.0000      -1.007496       -27.4154
  14   2.0000      -0.940024       -25.5794
  15   2.0000      -0.866211       -23.5708
  16   2.0000      -0.843667       -22.9573
  17   2.0000      -0.776583       -21.1319
  18   2.0000      -0.733331       -19.9549
  19   2.0000      -0.690310       -18.7843
  20   2.0000      -0.677000       -18.4221
  21   2.0000      -0.652819       -17.7641
  22   2.0000      -0.633862       -17.2483
  23   2.0000      -0.601926       -16.3792
  24   2.0000      -0.579186       -15.7605
  25   2.0000      -0.571793       -15.5593
  26   2.0000      -0.563121       -15.3233
  27   2.0000      -0.545902       -14.8547
  28   2.0000      -0.535833       -14.5808
  29   2.0000      -0.519827       -14.1452
  30   2.0000      -0.504681       -13.7331
  31   2.0000      -0.488026       -13.2799
  32   2.0000      -0.446793       -12.1579
  33   2.0000      -0.433919       -11.8075
  34   2.0000      -0.407142       -11.0789
  35   0.0000       0.110286         3.0010
  36   0.0000       0.130694         3.5564
  37   0.0000       0.148186         4.0323
  38   0.0000       0.152886         4.1602
  39   0.0000       0.171104         4.6560

MULLIKEN ATOMIC CHARGES
-----------------------
   0 C :   -0.425969
   1 C :   -0.193001
   2 C :    0.205991
   3 C :   -0.424705
   4 O :   -0.224662
   5 C :    0.035528
   6 N :   -0.334570
   7 C :    0.032412
   8 O :   -0.244562
   9 H :    0.163141
  10 H :    0.127168
  11 H :    0.141043
  12 H :    0.122361
  13 H :    0.128887
  14 H :    0.156526
  15 H :    0.134512
  16 H :    0.155539
  17 H :    0.102179
  18 H :    0.227733
  19 H :    0.114449
Sum of atomic charges:    0.0000000

LOEWDIN ATOMIC CHARGES
----------------------
   0 C :   -0.309532
   1 C :   -0.240804
   2 C :   -0.364558
   3 C :   -0.260204
   4 O :    0.281790
   5 C :   -0.401191
   6 N :   -0.074975
   7 C :   -0.268318
   8 O :    0.153863
   9 H :    0.131013
  10 H :    0.120987
  11 H :    0.125391
  12 H :    0.147478
  13 H :    0.148121
  14 H :    0.133303
  15 H :    0.129737
  16 H :    0.139524
  17 H :    0.115755
  18 H :    0.169100
  19 H :    0.123518

  Mayer bond orders larger than 0.1
B(  0-C ,  1-C ) :   0.9162 B(  0-C ,  9-H ) :   0.9335 B(  0-C , 10-H ) :   0.9381
B(  0-C , 11-H ) :   0.9367 B(  1-C ,  2-C ) :   0.8866 B(  1-C , 12-H ) :   0.9244
B(  1-C , 13-H ) :   0.9247 B(  2-C ,  3-C ) :   0.9349 B(  2-C ,  4-O ) :   0.8547
B(  2-C ,  7-C ) :   0.8196 B(  3-C , 14-H ) :   0.9397 B(  3-C , 15-H ) :   0.9200
B(  3-C , 16-H ) :   0.9218 B(  4-O ,  5-C ) :   1.0418 B(  5-C ,  6-N ) :   1.9737
B(  5-C , 17-H ) :   0.9207 B(  6-N , 18-H ) :   0.8491 B(  7-C ,  8-O ) :   2.0174
B(  7-C , 19-H ) :   0.9465

MP2 TOTAL ENERGY:     -439.569892572 Eh
FINAL SINGLE POINT ENERGY      -439.569892572437

DIPOLE MOMENT
-------------
                                X             Y             Z
Electronic contribution:      4.13562      -5.92593      -1.69653
Nuclear contribution   :     -4.59292       5.83986       1.56647
                        -----------------------------------------
Total Dipole Moment    :     -0.45730      -0.08606      -0.13006
                        -----------------------------------------
Magnitude (a.u.)       :      0.48316
Magnitude (Debye)      :      1.22811

                             ****ORCA TERMINATED NORMALLY****
TOTAL RUN TIME: 0 days 0 hours 17 minutes 16 seconds 985 msec
