                         Program Version 3.0.3 - RELEASE   -
|  1> ! RI-MP2 RIJK def2-TZVP def2-TZVP/C def2-TZVP/JK TIGHTSCF
|  2> % maxcore 2000
|  3> % mp2 density relaxed end
|  4> *xyz 0 1
|  5>  C       -0.4563350523     1.1748184322     0.0400291507
|  6>  O        0.1763823701    -0.1033569337    -0.0167491890
|  7>  C        0.8898609580    -0.4675513776     1.0698774921
|  8>  C        1.5073196526    -1.8298818207     0.8775913687
|  9>  N        0.9709077406     0.3049998654     2.0739336335
| 10>  C        1.7571409437    -0.1315382886     3.2292239466
| 11>  C        3.2028200426     0.0202608776     3.0445299406
| 12>  C        4.3889800770     0.1500466437     2.8802670617
| 13>  C        5.8233033278     0.3171298652     2.6921709563
| 14>  H        0.2827049377     1.9684542209     0.1800165474
| 15>  H       -0.9707280526     1.2909358345    -0.9151268950
| 16>  H       -1.1681345884     1.2205771038     0.8690396079
| 17>  H        1.3051490130    -2.2010151364    -0.1268953072
| 18>  H        2.5868647156    -1.7781200786     1.0423739786
| 19>  H        1.0979797734    -2.5397471623     1.6043862904
| 20>  H        1.4434568807     0.4774217312     4.0850792136
| 21>  H        1.5386578784    -1.1755946730     3.5050901923
| 22>  H        6.3542907277    -0.6370438634     2.7829006266
| 23>  H        6.0475274133     0.7271019608     1.7011097678
| 24>  H        6.2451954010     1.0027662690     3.4354109465
| 25> *
| 26>
| 27>                          ****END OF INPUT****

CARTESIAN COORDINATES (ANGSTROEM)
---------------------------------
  C     -0.456335    1.174818    0.040029
  O      0.176382   -0.103357   -0.016749
  C      0.889861   -0.467551    1.069877
  C      1.507320   -1.829882    0.877591
  N      0.970908    0.305000    2.073934
  C      1.757141   -0.131538    3.229224
  C      3.202820    0.020261    3.044530
  C      4.388980    0.150047    2.880267
  C      5.823303    0.317130    2.692171
  H      0.282705    1.968454    0.180017
  H     -0.970728    1.290936   -0.915127
  H     -1.168135    1.220577    0.869040
  H      1.305149   -2.201015   -0.126895
  H      2.586865   -1.778120    1.042374
  H      1.097980   -2.539747    1.604386
  H      1.443457    0.477422    4.085079
  H      1.538658   -1.175595    3.505090
  H      6.354291   -0.637044    2.782901
  H      6.047527    0.727102    1.701110
  H      6.245195    1.002766    3.435411

 Total Charge           Charge          ....    0
 Multiplicity           Mult            ....    1
 Number of Electrons    NEL             ....   68
 Basis Dimension        Dim             ....  345

ORBITAL ENERGIES
----------------

  NO   OCC          E(Eh)            E(eV)
   0   2.0000     -20.584827      -560.1416
   1   2.0000     -15.532153      -422.6514
   2   2.0000     -11.333866      -308.4102
   3   2.0000     -11.273019      -306.7544
   4   2.0000     -11.269728      -306.6649
   5   2.0000     -11.244803      -305.9867
   6   2.0000     -11.232574      -305.6539
   7   2.0000     -11.220358      -305.3215
   8   2.0000     -11.214294      -305.1564
   9   2.0000      -1.419978       -38.6396
  10   2.0000      -1.214165       -33.0391
  11   2.0000      -1.058630       -28.8068
  12   2.0000      -1.019734       -27.7484
  13   2.0000      -0.982512       -26.7355
  14   2.0000      -0.933067       -25.3900
  15   2.0000      -0.911771       -24.8105
  16   2.0000      -0.752481       -20.4760
  17   2.0000      -0.686166       -18.6715
  18   2.0000      -0.668235       -18.1836
  19   2.0000      -0.665347       -18.1050
  20   2.0000      -0.643734       -17.5169
  21   2.0000      -0.610112       -16.6020
  22   2.0000      -0.591382       -16.0923
  23   2.0000      -0.584607       -15.9080
  24   2.0000      -0.578930       -15.7535
  25   2.0000      -0.575429       -15.6582
  26   2.0000      -0.568251       -15.4629
  27   2.0000      -0.545297       -14.8383
  28   2.0000      -0.509237       -13.8570
  29   2.0000      -0.491407       -13.3719
  30   2.0000      -0.416311       -11.3284
  31   2.0000      -0.389215       -10.5911
  32   2.0000      -0.364644        -9.9225
  33   2.0000      -0.361012        -9.8236
  34   0.0000       0.130916         3.5624
  35   0.0000       0.151354         4.1185
  36   0.0000       0.167572         4.5599
  37   0.0000       0.175521         4.7762
  38   0.0000       0.183567         4.9951

MULLIKEN ATOMIC CHARGES
-----------------------
   0 C :   -0.194286
   1 O :   -0.265666
   2 C :    0.241773
   3 C :   -0.415082
   4 N :   -0.282692
   5 C :   -0.188335
   6 C :   -0.064896
   7 C :    0.016174
   8 C :   -0.481818
   9 H :    0.132544
  10 H :    0.137771
  11 H :    0.127978
  12 H :    0.155896
  13 H :    0.164129
  14 H :    0.145013
  15 H :    0.149289
  16 H :    0.138028
  17 H :    0.159699
  18 H :    0.162328
  19 H :    0.162152
Sum of atomic charges:   -0.0000000

LOEWDIN ATOMIC CHARGES
----------------------
   0 C :   -0.323026
   1 O :    0.227370
   2 C :   -0.400627
   3 C :   -0.272934
   4 N :    0.088209
   5 C :   -0.283448
   6 C :   -0.092088
   7 C :   -0.108965
   8 C :   -0.295977
   9 H :    0.111855
  10 H :    0.111152
  11 H :    0.110604
  12 H :    0.135289
  13 H :    0.141849
  14 H :    0.137216
  15 H :    0.148926
  16 H :    0.142930
  17 H :    0.139563
  18 H :    0.141151
  19 H :    0.140951

  Mayer bond orders larger than 0.1
B(  0-C ,  1-O ) :   0.8490 B(  0-C ,  9-H ) :   0.9367 B(  0-C , 10-H ) :   0.9319
B(  0-C , 11-H ) :   0.9361 B(  1-O ,  2-C ) :   1.1155 B(  2-C ,  3-C ) :   0.9126
B(  2-C ,  4-N ) :   1.7659 B(  3-C , 12-H ) :   0.9296 B(  3-C , 13-H ) :   0.9210
B(  3-C , 14-H ) :   0.9235 B(  4-N ,  5-C ) :   0.9037 B(  5-C ,  6-C ) :   0.9449
B(  5-C , 15-H ) :   0.9246 B(  5-C , 16-H ) :   0.9655 B(  6-C ,  7-C ) :   2.6990
B(  7-C ,  8-C ) :   0.8766 B(  8-C , 17-H ) :   0.9478 B(  8-C , 18-H ) :   0.9435
B(  8-C , 19-H ) :   0.9485

MP2 TOTAL ENERGY:     -402.419690446 Eh
FINAL SINGLE POINT ENERGY      -402.419690446154

DIPOLE MOMENT
-------------
                                X             Y             Z
Electronic contribution:     -2.54127       0.58314       0.50340
Nuclear contribution   :      2.84155      -0.86111      -0.56444
                        -----------------------------------------
Total Dipole Moment    :      0.30028      -0.27797      -0.06104
                        -----------------------------------------
Magnitude (a.u.)       :      0.41372
Magnitude (Debye)      :      1.05159

                             ****ORCA TERMINATED NORMALLY****
TOTAL RUN TIME: 0 days 0 hours 14 minutes 49 seconds 698 msec
