                         Program Version 3.0.3 - RELEASE   -
|  1> ! RI-MP2 RIJK def2-TZVP def2-TZVP/C def2-TZVP/JK TIGHTSCF
|  2> % maxcore 2000
|  3> % mp2 density relaxed end
|  4> *xyz 0 1
|  5>  C        0.0435182643     1.5871234791     0.0013312714
|  6>  C       -0.0327964189     0.0615005801    -0.0932140181
|  7>  C       -1.4472096844    -0.4821942192     0.1543691012
|  8>  C       -1.5205226519    -2.0014032502     0.0162192160
|  9>  C       -2.8643446902    -2.7518154357     0.1201143748
| 10>  C       -3.7547506229    -2.4022258194    -1.0182199081
| 11>  C       -2.6434661086    -3.4200134725    -1.2605196405
| 12>  C       -1.3376400515    -2.6902440370    -1.3694357855
| 13>  O       -0.4234780187    -2.7287650402    -2.1457591102
| 14>  H        1.0631210170     1.9458598100    -0.1699655736
| 15>  H       -0.6050840644     2.0633135404    -0.7425807182
| 16>  H       -0.2729010386     1.9410025068     0.9892064802
| 17>  H        0.3118958735    -0.2735640453    -1.0778669794
| 18>  H        0.6556168539    -0.3867950264     0.6355770523
| 19>  H       -1.7830077879    -0.1964058763     1.1607972998
| 20>  H       -2.1459389149    -0.0061199477    -0.5450973493
| 21>  H       -0.7806090658    -2.4660651833     0.6824997827
| 22>  H       -3.2286377675    -3.2412643271     1.0138782832
| 23>  H       -4.7476406929    -2.8401853814    -1.0042791124
| 24>  H       -3.7134048436    -1.4244955569    -1.4879516919
| 25>  H       -2.8635610160    -4.4218837077    -1.6068057945
| 26> *
| 27>
| 28>                          ****END OF INPUT****

CARTESIAN COORDINATES (ANGSTROEM)
---------------------------------
  C      0.043518    1.587123    0.001331
  C     -0.032796    0.061501   -0.093214
  C     -1.447210   -0.482194    0.154369
  C     -1.520523   -2.001403    0.016219
  C     -2.864345   -2.751815    0.120114
  C     -3.754751   -2.402226   -1.018220
  C     -2.643466   -3.420013   -1.260520
  C     -1.337640   -2.690244   -1.369436
  O     -0.423478   -2.728765   -2.145759
  H      1.063121    1.945860   -0.169966
  H     -0.605084    2.063314   -0.742581
  H     -0.272901    1.941003    0.989206
  H      0.311896   -0.273564   -1.077867
  H      0.655617   -0.386795    0.635577
  H     -1.783008   -0.196406    1.160797
  H     -2.145939   -0.006120   -0.545097
  H     -0.780609   -2.466065    0.682500
  H     -3.228638   -3.241264    1.013878
  H     -4.747641   -2.840185   -1.004279
  H     -3.713405   -1.424496   -1.487952
  H     -2.863561   -4.421884   -1.606806

 Total Charge           Charge          ....    0
 Multiplicity           Mult            ....    1
 Number of Electrons    NEL             ....   68
 Basis Dimension        Dim             ....  351

ORBITAL ENERGIES
----------------

  NO   OCC          E(Eh)            E(eV)
   0   2.0000     -20.543259      -559.0105
   1   2.0000     -11.329709      -308.2970
   2   2.0000     -11.257879      -306.3425
   3   2.0000     -11.254257      -306.2439
   4   2.0000     -11.250110      -306.1311
   5   2.0000     -11.248071      -306.0756
   6   2.0000     -11.228482      -305.5425
   7   2.0000     -11.218168      -305.2619
   8   2.0000     -11.212252      -305.1009
   9   2.0000      -1.387300       -37.7504
  10   2.0000      -1.207581       -32.8599
  11   2.0000      -1.072876       -29.1944
  12   2.0000      -0.995694       -27.0942
  13   2.0000      -0.922984       -25.1157
  14   2.0000      -0.869784       -23.6680
  15   2.0000      -0.811332       -22.0775
  16   2.0000      -0.794133       -21.6094
  17   2.0000      -0.724211       -19.7068
  18   2.0000      -0.684599       -18.6289
  19   2.0000      -0.653188       -17.7742
  20   2.0000      -0.634163       -17.2565
  21   2.0000      -0.613890       -16.7048
  22   2.0000      -0.581749       -15.8302
  23   2.0000      -0.569968       -15.5096
  24   2.0000      -0.562007       -15.2930
  25   2.0000      -0.536544       -14.6001
  26   2.0000      -0.531168       -14.4538
  27   2.0000      -0.515196       -14.0192
  28   2.0000      -0.485109       -13.2005
  29   2.0000      -0.471938       -12.8421
  30   2.0000      -0.466249       -12.6873
  31   2.0000      -0.441659       -12.0182
  32   2.0000      -0.403770       -10.9871
  33   2.0000      -0.387928       -10.5561
  34   0.0000       0.125281         3.4091
  35   0.0000       0.145035         3.9466
  36   0.0000       0.152246         4.1428
  37   0.0000       0.165841         4.5128
  38   0.0000       0.172018         4.6808

MULLIKEN ATOMIC CHARGES
-----------------------
   0 C :   -0.384305
   1 C :   -0.207502
   2 C :   -0.243310
   3 C :   -0.061615
   4 C :   -0.090510
   5 C :   -0.266797
   6 C :   -0.123986
   7 C :    0.113174
   8 O :   -0.268959
   9 H :    0.135487
  10 H :    0.122515
  11 H :    0.118939
  12 H :    0.139032
  13 H :    0.103577
  14 H :    0.117039
  15 H :    0.101207
  16 H :    0.116399
  17 H :    0.144527
  18 H :    0.141049
  19 H :    0.146329
  20 H :    0.147711
Sum of atomic charges:   -0.0000000

LOEWDIN ATOMIC CHARGES
----------------------
   0 C :   -0.321354
   1 C :   -0.290426
   2 C :   -0.246280
   3 C :   -0.180647
   4 C :   -0.147085
   5 C :   -0.188627
   6 C :   -0.135119
   7 C :   -0.288380
   8 O :    0.152739
   9 H :    0.121397
  10 H :    0.120132
  11 H :    0.119224
  12 H :    0.142511
  13 H :    0.135022
  14 H :    0.140468
  15 H :    0.138567
  16 H :    0.168171
  17 H :    0.139712
  18 H :    0.143856
  19 H :    0.134173
  20 H :    0.141947

  Mayer bond orders larger than 0.1
B(  0-C ,  1-C ) :   0.9148 B(  0-C ,  9-H ) :   0.9435 B(  0-C , 10-H ) :   0.9400
B(  0-C , 11-H ) :   0.9381 B(  1-C ,  2-C ) :   0.9256 B(  1-C , 12-H ) :   0.9331
B(  1-C , 13-H ) :   0.9321 B(  2-C ,  3-C ) :   0.9098 B(  2-C , 14-H ) :   0.9331
B(  2-C , 15-H ) :   0.9268 B(  3-C ,  4-C ) :   0.9145 B(  3-C ,  7-C ) :   0.8848
B(  3-C , 16-H ) :   0.8956 B(  4-C ,  5-C ) :   0.9049 B(  4-C ,  6-C ) :   0.8355
B(  4-C , 17-H ) :   0.9191 B(  5-C ,  6-C ) :   0.8375 B(  5-C , 18-H ) :   0.9268
B(  5-C , 19-H ) :   0.9219 B(  6-C ,  7-C ) :   0.9421 B(  6-C , 20-H ) :   0.9157
B(  7-C ,  8-O ) :   2.0130

MP2 TOTAL ENERGY:     -386.402399252 Eh
FINAL SINGLE POINT ENERGY      -386.402399251934

DIPOLE MOMENT
-------------
                                X             Y             Z
Electronic contribution:     -0.95685      -9.20880      -4.22837
Nuclear contribution   :      0.05704       9.23511       5.02298
                        -----------------------------------------
Total Dipole Moment    :     -0.89980       0.02632       0.79461
                        -----------------------------------------
Magnitude (a.u.)       :      1.20073
Magnitude (Debye)      :      3.05200

                             ****ORCA TERMINATED NORMALLY****
TOTAL RUN TIME: 0 days 0 hours 18 minutes 33 seconds 94 msec
