                         Program Version 3.0.3 - RELEASE   -
|  1> ! RI-MP2 RIJK def2-TZVP def2-TZVP/C def2-TZVP/JK TIGHTSCF
|  2> % maxcore 2000
|  3> % mp2 density relaxed end
|  4> *xyz 0 1
|  5>  C        0.7521120779     1.4200723550     0.0744319815
|  6>  O        1.4596354885     0.1925661891    -0.0374663641
|  7>  C        0.0190868652     0.1316967897     0.0320818630
|  8>  C       -0.4974881103    -0.4580790202     1.3274349698
|  9>  C       -2.0094129477    -0.3347563538     1.5251145203
| 10>  O       -2.7257288014    -1.2713717573     0.7436148041
| 11>  C       -3.0177786999    -0.8776704041    -0.5767034288
| 12>  C       -1.8607121353    -0.6366599771    -1.5135070452
| 13>  C       -0.6163515112    -0.2279509148    -1.2627151998
| 14>  H        0.8541631401     1.9420296905     1.0260780152
| 15>  H        0.7752728739     2.0586913177    -0.8079574387
| 16>  H       -0.2462453518    -1.5244175130     1.3578543206
| 17>  H        0.0246199689     0.0218555887     2.1621609653
| 18>  H       -2.2547781418    -0.5659451868     2.5667625992
| 19>  H       -2.3563217190     0.6916954447     1.3220105687
| 20>  H       -3.6355361576    -1.6854670179    -0.9844862997
| 21>  H       -3.6554642533     0.0276318100    -0.5724075350
| 22>  H       -2.1288787402    -0.7791375440    -2.5593316465
| 23>  H        0.0549922346    -0.0830024565    -2.1062252000
| 24> *
| 25>
| 26>                          ****END OF INPUT****

CARTESIAN COORDINATES (ANGSTROEM)
---------------------------------
  C      0.752112    1.420072    0.074432
  O      1.459635    0.192566   -0.037466
  C      0.019087    0.131697    0.032082
  C     -0.497488   -0.458079    1.327435
  C     -2.009413   -0.334756    1.525115
  O     -2.725729   -1.271372    0.743615
  C     -3.017779   -0.877670   -0.576703
  C     -1.860712   -0.636660   -1.513507
  C     -0.616352   -0.227951   -1.262715
  H      0.854163    1.942030    1.026078
  H      0.775273    2.058691   -0.807957
  H     -0.246245   -1.524418    1.357854
  H      0.024620    0.021856    2.162161
  H     -2.254778   -0.565945    2.566763
  H     -2.356322    0.691695    1.322011
  H     -3.635536   -1.685467   -0.984486
  H     -3.655464    0.027632   -0.572408
  H     -2.128879   -0.779138   -2.559332
  H      0.054992   -0.083002   -2.106225

 Total Charge           Charge          ....    0
 Multiplicity           Mult            ....    1
 Number of Electrons    NEL             ....   68
 Basis Dimension        Dim             ....  339

ORBITAL ENERGIES
----------------

  NO   OCC          E(Eh)            E(eV)
   0   2.0000     -20.568991      -559.7107
   1   2.0000     -20.559256      -559.4458
   2   2.0000     -11.298725      -307.4539
   3   2.0000     -11.287569      -307.1504
   4   2.0000     -11.285345      -307.0898
   5   2.0000     -11.282770      -307.0198
   6   2.0000     -11.240060      -305.8576
   7   2.0000     -11.237624      -305.7913
   8   2.0000     -11.230812      -305.6059
   9   2.0000      -1.414197       -38.4823
  10   2.0000      -1.382145       -37.6101
  11   2.0000      -1.083957       -29.4960
  12   2.0000      -1.056540       -28.7499
  13   2.0000      -0.938717       -25.5438
  14   2.0000      -0.925141       -25.1744
  15   2.0000      -0.887449       -24.1487
  16   2.0000      -0.805906       -21.9298
  17   2.0000      -0.736423       -20.0391
  18   2.0000      -0.697412       -18.9775
  19   2.0000      -0.691194       -18.8084
  20   2.0000      -0.650994       -17.7144
  21   2.0000      -0.636719       -17.3260
  22   2.0000      -0.616296       -16.7703
  23   2.0000      -0.604001       -16.4357
  24   2.0000      -0.576389       -15.6843
  25   2.0000      -0.561060       -15.2672
  26   2.0000      -0.529561       -14.4101
  27   2.0000      -0.525831       -14.3086
  28   2.0000      -0.494748       -13.4628
  29   2.0000      -0.480069       -13.0633
  30   2.0000      -0.461635       -12.5617
  31   2.0000      -0.441796       -12.0219
  32   2.0000      -0.423119       -11.5136
  33   2.0000      -0.352929        -9.6037
  34   0.0000       0.131264         3.5719
  35   0.0000       0.147941         4.0257
  36   0.0000       0.156526         4.2593
  37   0.0000       0.168900         4.5960
  38   0.0000       0.180404         4.9090

MULLIKEN ATOMIC CHARGES
-----------------------
   0 C :   -0.095351
   1 O :   -0.326574
   2 C :    0.251721
   3 C :   -0.196969
   4 C :   -0.083843
   5 O :   -0.307283
   6 C :   -0.029792
   7 C :   -0.164057
   8 C :   -0.265084
   9 H :    0.112580
  10 H :    0.117864
  11 H :    0.122586
  12 H :    0.123598
  13 H :    0.129007
  14 H :    0.105076
  15 H :    0.134247
  16 H :    0.108873
  17 H :    0.125493
  18 H :    0.137911
Sum of atomic charges:   -0.0000000

LOEWDIN ATOMIC CHARGES
----------------------
   0 C :   -0.246133
   1 O :    0.169365
   2 C :   -0.306282
   3 C :   -0.223352
   4 C :   -0.309782
   5 O :    0.162681
   6 C :   -0.320516
   7 C :   -0.170041
   8 C :   -0.138316
   9 H :    0.120361
  10 H :    0.121269
  11 H :    0.153883
  12 H :    0.149761
  13 H :    0.131875
  14 H :    0.124096
  15 H :    0.139543
  16 H :    0.130198
  17 H :    0.151560
  18 H :    0.159829

  Mayer bond orders larger than 0.1
B(  0-C ,  1-O ) :   0.9084 B(  0-C ,  2-C ) :   0.9610 B(  0-C ,  9-H ) :   0.9055
B(  0-C , 10-H ) :   0.9062 B(  1-O ,  2-C ) :   0.8307 B(  2-C ,  3-C ) :   0.8943
B(  2-C ,  8-C ) :   0.9396 B(  3-C ,  4-C ) :   0.9227 B(  3-C , 11-H ) :   0.9109
B(  3-C , 12-H ) :   0.9233 B(  4-C ,  5-O ) :   0.9076 B(  4-C , 13-H ) :   0.9266
B(  4-C , 14-H ) :   0.9326 B(  5-O ,  6-C ) :   0.9707 B(  6-C ,  7-C ) :   0.8850
B(  6-C , 15-H ) :   0.9339 B(  6-C , 16-H ) :   0.9430 B(  7-C ,  8-C ) :   1.8095
B(  7-C , 17-H ) :   0.9104 B(  8-C , 18-H ) :   0.9211

MP2 TOTAL ENERGY:     -422.288127974 Eh
FINAL SINGLE POINT ENERGY      -422.288127973833

DIPOLE MOMENT
-------------
                                X             Y             Z
Electronic contribution:      2.32852      -1.49936      -0.78737
Nuclear contribution   :     -2.87480       2.24246       0.73255
                        -----------------------------------------
Total Dipole Moment    :     -0.54628       0.74311      -0.05481
                        -----------------------------------------
Magnitude (a.u.)       :      0.92392
Magnitude (Debye)      :      2.34843

                             ****ORCA TERMINATED NORMALLY****
TOTAL RUN TIME: 0 days 0 hours 17 minutes 46 seconds 358 msec
