                         Program Version 3.0.3 - RELEASE   -
|  1> ! RI-MP2 RIJK def2-TZVP def2-TZVP/C def2-TZVP/JK TIGHTSCF
|  2> % maxcore 2000
|  3> % mp2 density relaxed end
|  4> *xyz 0 1
|  5>  C       -0.0889377901     1.5515442515     0.0890044564
|  6>  C        0.0492997508     0.0382940494     0.0545697322
|  7>  C       -1.1626676751    -0.6473258624    -0.5636854092
|  8>  C        1.3520607761    -0.6913586732    -0.2569011068
|  9>  C        2.5885278707    -0.0377312261     0.3427293829
| 10>  O        2.9591011984     1.1957690765    -0.2405568157
| 11>  C        1.9180590037    -0.0524824525     1.7639624822
| 12>  C        0.7169164002    -0.7715831631     1.1381781890
| 13>  O        0.1402210101    -1.8928489156     1.7185018372
| 14>  H        0.8031761756     2.0505258829     0.4639837524
| 15>  H       -0.2678141210     1.9346224319    -0.9222481667
| 16>  H       -0.9471250388     1.8447589520     0.7068848901
| 17>  H       -1.3012890491    -0.3175875540    -1.5990558377
| 18>  H       -1.0658872217    -1.7349852814    -0.5559586175
| 19>  H       -2.0764797707    -0.3893458631    -0.0142438837
| 20>  H        1.3786307827    -1.4392759708    -1.0411589286
| 21>  H        3.4334747788    -0.7389206400     0.3218231577
| 22>  H        3.7617920083     1.5017910852     0.1937381356
| 23>  H        2.4533808281    -0.6926098723     2.4689781848
| 24>  H        1.7327928415     0.9214484014     2.2269404559
| 25>  H       -0.6174561884    -1.6078601061     2.2412336893
| 26> *
| 27>
| 28>                          ****END OF INPUT****

CARTESIAN COORDINATES (ANGSTROEM)
---------------------------------
  C     -0.088938    1.551544    0.089004
  C      0.049300    0.038294    0.054570
  C     -1.162668   -0.647326   -0.563685
  C      1.352061   -0.691359   -0.256901
  C      2.588528   -0.037731    0.342729
  O      2.959101    1.195769   -0.240557
  C      1.918059   -0.052482    1.763962
  C      0.716916   -0.771583    1.138178
  O      0.140221   -1.892849    1.718502
  H      0.803176    2.050526    0.463984
  H     -0.267814    1.934622   -0.922248
  H     -0.947125    1.844759    0.706885
  H     -1.301289   -0.317588   -1.599056
  H     -1.065887   -1.734985   -0.555959
  H     -2.076480   -0.389346   -0.014244
  H      1.378631   -1.439276   -1.041159
  H      3.433475   -0.738921    0.321823
  H      3.761792    1.501791    0.193738
  H      2.453381   -0.692610    2.468978
  H      1.732793    0.921448    2.226940
  H     -0.617456   -1.607860    2.241234

 Total Charge           Charge          ....    0
 Multiplicity           Mult            ....    1
 Number of Electrons    NEL             ....   70
 Basis Dimension        Dim             ....  351

ORBITAL ENERGIES
----------------

  NO   OCC          E(Eh)            E(eV)
   0   2.0000     -20.565405      -559.6131
   1   2.0000     -20.554913      -559.3276
   2   2.0000     -11.284609      -307.0698
   3   2.0000     -11.284592      -307.0694
   4   2.0000     -11.239454      -305.8411
   5   2.0000     -11.223460      -305.4059
   6   2.0000     -11.221584      -305.3548
   7   2.0000     -11.213230      -305.1275
   8   2.0000     -11.205350      -304.9131
   9   2.0000      -1.376756       -37.4634
  10   2.0000      -1.361574       -37.0503
  11   2.0000      -1.178156       -32.0592
  12   2.0000      -1.034390       -28.1472
  13   2.0000      -0.938013       -25.5246
  14   2.0000      -0.915429       -24.9101
  15   2.0000      -0.882648       -24.0181
  16   2.0000      -0.758995       -20.6533
  17   2.0000      -0.737076       -20.0569
  18   2.0000      -0.697329       -18.9753
  19   2.0000      -0.683176       -18.5902
  20   2.0000      -0.635892       -17.3035
  21   2.0000      -0.631686       -17.1891
  22   2.0000      -0.583961       -15.8904
  23   2.0000      -0.582170       -15.8417
  24   2.0000      -0.567205       -15.4344
  25   2.0000      -0.555245       -15.1090
  26   2.0000      -0.539064       -14.6687
  27   2.0000      -0.528299       -14.3757
  28   2.0000      -0.521749       -14.1975
  29   2.0000      -0.497676       -13.5425
  30   2.0000      -0.477194       -12.9851
  31   2.0000      -0.461667       -12.5626
  32   2.0000      -0.428160       -11.6508
  33   2.0000      -0.376536       -10.2461
  34   2.0000      -0.368301       -10.0220
  35   0.0000       0.127028         3.4566
  36   0.0000       0.137480         3.7410
  37   0.0000       0.171004         4.6533
  38   0.0000       0.173056         4.7091
  39   0.0000       0.179448         4.8830

MULLIKEN ATOMIC CHARGES
-----------------------
   0 C :   -0.352853
   1 C :    0.047971
   2 C :   -0.469941
   3 C :   -0.167883
   4 C :    0.032974
   5 O :   -0.461287
   6 C :   -0.246141
   7 C :    0.158094
   8 O :   -0.456134
   9 H :    0.143574
  10 H :    0.124210
  11 H :    0.114158
  12 H :    0.137747
  13 H :    0.159173
  14 H :    0.127099
  15 H :    0.136359
  16 H :    0.095156
  17 H :    0.313917
  18 H :    0.116719
  19 H :    0.119605
  20 H :    0.327483
Sum of atomic charges:   -0.0000000

LOEWDIN ATOMIC CHARGES
----------------------
   0 C :   -0.265152
   1 C :   -0.245810
   2 C :   -0.264623
   3 C :   -0.116100
   4 C :   -0.304060
   5 O :   -0.019300
   6 C :   -0.189630
   7 C :   -0.294024
   8 O :    0.028692
   9 H :    0.127720
  10 H :    0.129550
  11 H :    0.122716
  12 H :    0.128421
  13 H :    0.132839
  14 H :    0.124568
  15 H :    0.142117
  16 H :    0.135192
  17 H :    0.174411
  18 H :    0.136993
  19 H :    0.128585
  20 H :    0.186896

  Mayer bond orders larger than 0.1
B(  0-C ,  1-C ) :   0.8928 B(  0-C ,  9-H ) :   0.9296 B(  0-C , 10-H ) :   0.9337
B(  0-C , 11-H ) :   0.9312 B(  1-C ,  2-C ) :   0.8872 B(  1-C ,  3-C ) :   0.8523
B(  1-C ,  7-C ) :   0.9016 B(  2-C , 12-H ) :   0.9428 B(  2-C , 13-H ) :   0.9277
B(  2-C , 14-H ) :   0.9399 B(  3-C ,  4-C ) :   0.9119 B(  3-C ,  7-C ) :   0.7874
B(  3-C , 15-H ) :   0.9104 B(  4-C ,  5-O ) :   1.0786 B(  4-C ,  6-C ) :   0.9458
B(  4-C , 16-H ) :   0.9427 B(  5-O , 17-H ) :   0.8452 B(  6-C ,  7-C ) :   0.9745
B(  6-C , 18-H ) :   0.9074 B(  6-C , 19-H ) :   0.9058 B(  7-C ,  8-O ) :   1.0246
B(  8-O , 20-H ) :   0.8371

MP2 TOTAL ENERGY:     -423.494422887 Eh
FINAL SINGLE POINT ENERGY      -423.494422886562

DIPOLE MOMENT
-------------
                                X             Y             Z
Electronic contribution:      3.88429      -2.52549       1.49708
Nuclear contribution   :     -3.81502       2.74968      -0.96217
                        -----------------------------------------
Total Dipole Moment    :      0.06927       0.22419       0.53491
                        -----------------------------------------
Magnitude (a.u.)       :      0.58411
Magnitude (Debye)      :      1.48469

                             ****ORCA TERMINATED NORMALLY****
TOTAL RUN TIME: 0 days 0 hours 18 minutes 55 seconds 16 msec
