                         Program Version 3.0.3 - RELEASE   -
|  1> ! RI-MP2 RIJK def2-TZVP def2-TZVP/C def2-TZVP/JK TIGHTSCF
|  2> % maxcore 2000
|  3> % mp2 density relaxed end
|  4> *xyz 0 1
|  5>  C        0.0113913384     1.5686025918     0.0341791729
|  6>  C       -0.0579390812     0.0380475962     0.0109463978
|  7>  O       -1.3913194005    -0.4297997143    -0.0207250409
|  8>  C        0.7405302576    -0.5491906116    -1.1659568496
|  9>  O        0.3961753802    -0.4853145616    -2.3229327865
| 10>  C        1.9345042844    -1.2444887190    -0.6186365002
| 11>  C        1.8858128542    -1.2657668095     0.7233431043
| 12>  C        0.6690580812    -0.5639504135     1.2306795581
| 13>  O        0.3340952073    -0.4658411986     2.3831334680
| 14>  H        1.0426938925     1.9307170409     0.1024582732
| 15>  H       -0.4326711744     1.9678486256    -0.8827285068
| 16>  H       -0.5485202588     1.9326252015     0.8988352214
| 17>  H       -1.6894897492    -0.3414237912    -0.9359445697
| 18>  H        2.6936703235    -1.6819701294    -1.2560252585
| 19>  H        2.6014908550    -1.7209326372     1.3977681964
| 20> *
| 21>
| 22>                          ****END OF INPUT****

CARTESIAN COORDINATES (ANGSTROEM)
---------------------------------
  C      0.011391    1.568603    0.034179
  C     -0.057939    0.038048    0.010946
  O     -1.391319   -0.429800   -0.020725
  C      0.740530   -0.549191   -1.165957
  O      0.396175   -0.485315   -2.322933
  C      1.934504   -1.244489   -0.618637
  C      1.885813   -1.265767    0.723343
  C      0.669058   -0.563950    1.230680
  O      0.334095   -0.465841    2.383133
  H      1.042694    1.930717    0.102458
  H     -0.432671    1.967849   -0.882729
  H     -0.548520    1.932625    0.898835
  H     -1.689490   -0.341424   -0.935945
  H      2.693670   -1.681970   -1.256025
  H      2.601491   -1.720933    1.397768

 Total Charge           Charge          ....    0
 Multiplicity           Mult            ....    1
 Number of Electrons    NEL             ....   66
 Basis Dimension        Dim             ....  315

ORBITAL ENERGIES
----------------

  NO   OCC          E(Eh)            E(eV)
   0   2.0000     -20.582275      -560.0722
   1   2.0000     -20.579685      -560.0017
   2   2.0000     -20.573735      -559.8398
   3   2.0000     -11.360055      -309.1228
   4   2.0000     -11.355644      -309.0028
   5   2.0000     -11.322930      -308.1126
   6   2.0000     -11.293912      -307.3230
   7   2.0000     -11.291676      -307.2621
   8   2.0000     -11.243448      -305.9498
   9   2.0000      -1.429034       -38.8860
  10   2.0000      -1.414545       -38.4917
  11   2.0000      -1.383622       -37.6503
  12   2.0000      -1.169294       -31.8181
  13   2.0000      -1.047061       -28.4920
  14   2.0000      -0.924815       -25.1655
  15   2.0000      -0.923011       -25.1164
  16   2.0000      -0.795965       -21.6593
  17   2.0000      -0.771367       -20.9900
  18   2.0000      -0.716499       -19.4969
  19   2.0000      -0.691897       -18.8275
  20   2.0000      -0.658971       -17.9315
  21   2.0000      -0.650095       -17.6900
  22   2.0000      -0.635038       -17.2803
  23   2.0000      -0.618698       -16.8356
  24   2.0000      -0.605338       -16.4721
  25   2.0000      -0.572833       -15.5876
  26   2.0000      -0.559357       -15.2209
  27   2.0000      -0.545874       -14.8540
  28   2.0000      -0.539801       -14.6887
  29   2.0000      -0.504512       -13.7285
  30   2.0000      -0.442732       -12.0473
  31   2.0000      -0.424555       -11.5527
  32   2.0000      -0.418562       -11.3896
  33   0.0000       0.036194         0.9849
  34   0.0000       0.122513         3.3337
  35   0.0000       0.137807         3.7499
  36   0.0000       0.152579         4.1519
  37   0.0000       0.173059         4.7092

MULLIKEN ATOMIC CHARGES
-----------------------
   0 C :   -0.424884
   1 C :    0.294427
   2 O :   -0.461136
   3 C :    0.132822
   4 O :   -0.274809
   5 C :   -0.146183
   6 C :   -0.147841
   7 C :    0.179768
   8 O :   -0.248375
   9 H :    0.131367
  10 H :    0.143012
  11 H :    0.161953
  12 H :    0.331862
  13 H :    0.163729
  14 H :    0.164287
Sum of atomic charges:    0.0000000

LOEWDIN ATOMIC CHARGES
----------------------
   0 C :   -0.255430
   1 C :   -0.345418
   2 O :    0.035411
   3 C :   -0.282946
   4 O :    0.164817
   5 C :   -0.069972
   6 C :   -0.062693
   7 C :   -0.269723
   8 O :    0.188691
   9 H :    0.133072
  10 H :    0.133145
  11 H :    0.139586
  12 H :    0.188418
  13 H :    0.151443
  14 H :    0.151600

  Mayer bond orders larger than 0.1
B(  0-C ,  1-C ) :   0.8937 B(  0-C ,  9-H ) :   0.9158 B(  0-C , 10-H ) :   0.9233
B(  0-C , 11-H ) :   0.9348 B(  1-C ,  2-O ) :   0.9279 B(  1-C ,  3-C ) :   0.8361
B(  1-C ,  7-C ) :   0.7988 B(  2-O , 12-H ) :   0.8241 B(  3-C ,  4-O ) :   1.9810
B(  3-C ,  5-C ) :   0.9861 B(  5-C ,  6-C ) :   1.5749 B(  5-C , 13-H ) :   0.9013
B(  6-C ,  7-C ) :   0.9874 B(  6-C , 14-H ) :   0.9036 B(  7-C ,  8-O ) :   2.0070

MP2 TOTAL ENERGY:     -457.062990477 Eh
FINAL SINGLE POINT ENERGY      -457.062990476543

DIPOLE MOMENT
-------------
                                X             Y             Z
Electronic contribution:      0.08144      -3.87133       0.31635
Nuclear contribution   :      0.93937       3.92648      -0.74699
                        -----------------------------------------
Total Dipole Moment    :      1.02081       0.05515      -0.43064
                        -----------------------------------------
Magnitude (a.u.)       :      1.10930
Magnitude (Debye)      :      2.81962

                             ****ORCA TERMINATED NORMALLY****
TOTAL RUN TIME: 0 days 0 hours 16 minutes 58 seconds 377 msec
