                         Program Version 3.0.3 - RELEASE   -
|  1> ! RI-MP2 RIJK def2-TZVP def2-TZVP/C def2-TZVP/JK TIGHTSCF
|  2> % maxcore 2000
|  3> % mp2 density relaxed end
|  4> *xyz 0 1
|  5>  C       -0.0624151582     1.5135427971    -0.0723982403
|  6>  C       -0.0262336664    -0.0168763692     0.0210586984
|  7>  C        0.8654218177    -0.4781638105     1.1816286938
|  8>  C       -1.4557310444    -0.5810009562     0.1568473467
|  9>  O       -2.2739707642    -0.1190327732    -0.9278506813
| 10>  C       -2.8583049877    -1.2137845585    -1.6244605726
| 11>  C       -2.3496809476    -2.4399360043    -0.9222454701
| 12>  C       -1.5672241575    -2.0827095239     0.0889024722
| 13>  H        0.9414407354     1.9172033848    -0.2401115171
| 14>  H       -0.7099964716     1.8368986648    -0.8899204075
| 15>  H       -0.4462769241     1.9516637972     0.8572531931
| 16>  H        0.3819868159    -0.4144004969    -0.9179400555
| 17>  H        0.4468959687    -0.1677089274     2.1469346111
| 18>  H        0.9886091095    -1.5652731178     1.2033751169
| 19>  H        1.8629773236    -0.0350266354     1.1006378808
| 20>  H       -1.8799926237    -0.1965606593     1.1025180890
| 21>  H       -3.9573671443    -1.1384170546    -1.5887398062
| 22>  H       -2.5691888104    -1.1828858309    -2.6870303907
| 23>  H       -2.6118869340    -3.4470331383    -1.2208572079
| 24>  H       -1.0709397365    -2.7447838175     0.7857836672
| 25> *
| 26>
| 27>                          ****END OF INPUT****

CARTESIAN COORDINATES (ANGSTROEM)
---------------------------------
  C     -0.062415    1.513543   -0.072398
  C     -0.026234   -0.016876    0.021059
  C      0.865422   -0.478164    1.181629
  C     -1.455731   -0.581001    0.156847
  O     -2.273971   -0.119033   -0.927851
  C     -2.858305   -1.213785   -1.624461
  C     -2.349681   -2.439936   -0.922245
  C     -1.567224   -2.082710    0.088902
  H      0.941441    1.917203   -0.240112
  H     -0.709996    1.836899   -0.889920
  H     -0.446277    1.951664    0.857253
  H      0.381987   -0.414400   -0.917940
  H      0.446896   -0.167709    2.146935
  H      0.988609   -1.565273    1.203375
  H      1.862977   -0.035027    1.100638
  H     -1.879993   -0.196561    1.102518
  H     -3.957367   -1.138417   -1.588740
  H     -2.569189   -1.182886   -2.687030
  H     -2.611887   -3.447033   -1.220857
  H     -1.070940   -2.744784    0.785784

 Total Charge           Charge          ....    0
 Multiplicity           Mult            ....    1
 Number of Electrons    NEL             ....   62
 Basis Dimension        Dim             ....  320

ORBITAL ENERGIES
----------------

  NO   OCC          E(Eh)            E(eV)
   0   2.0000     -20.546151      -559.0892
   1   2.0000     -11.278511      -306.9039
   2   2.0000     -11.276859      -306.8589
   3   2.0000     -11.232486      -305.6515
   4   2.0000     -11.229376      -305.5669
   5   2.0000     -11.224065      -305.4223
   6   2.0000     -11.214187      -305.1535
   7   2.0000     -11.203140      -304.8529
   8   2.0000      -1.372539       -37.3487
   9   2.0000      -1.084791       -29.5187
  10   2.0000      -1.064177       -28.9577
  11   2.0000      -0.970193       -26.4003
  12   2.0000      -0.925147       -25.1745
  13   2.0000      -0.839919       -22.8554
  14   2.0000      -0.774094       -21.0642
  15   2.0000      -0.756312       -20.5803
  16   2.0000      -0.698342       -19.0028
  17   2.0000      -0.650319       -17.6961
  18   2.0000      -0.620353       -16.8807
  19   2.0000      -0.588993       -16.0273
  20   2.0000      -0.584203       -15.8970
  21   2.0000      -0.558024       -15.1846
  22   2.0000      -0.539449       -14.6792
  23   2.0000      -0.530116       -14.4252
  24   2.0000      -0.526057       -14.3147
  25   2.0000      -0.494019       -13.4429
  26   2.0000      -0.481498       -13.1022
  27   2.0000      -0.466243       -12.6871
  28   2.0000      -0.458172       -12.4675
  29   2.0000      -0.427782       -11.6405
  30   2.0000      -0.349597        -9.5130
  31   0.0000       0.139491         3.7958
  32   0.0000       0.155095         4.2203
  33   0.0000       0.161027         4.3818
  34   0.0000       0.172953         4.7063
  35   0.0000       0.177161         4.8208

MULLIKEN ATOMIC CHARGES
-----------------------
   0 C :   -0.399023
   1 C :   -0.009396
   2 C :   -0.437142
   3 C :    0.148607
   4 O :   -0.336955
   5 C :    0.008902
   6 C :   -0.169408
   7 C :   -0.247274
   8 H :    0.126412
   9 H :    0.151160
  10 H :    0.114198
  11 H :    0.083248
  12 H :    0.126339
  13 H :    0.128929
  14 H :    0.135021
  15 H :    0.093850
  16 H :    0.104698
  17 H :    0.104154
  18 H :    0.136552
  19 H :    0.137129
Sum of atomic charges:   -0.0000000

LOEWDIN ATOMIC CHARGES
----------------------
   0 C :   -0.294347
   1 C :   -0.287536
   2 C :   -0.293797
   3 C :   -0.269828
   4 O :    0.172952
   5 C :   -0.289660
   6 C :   -0.164174
   7 C :   -0.145820
   8 H :    0.121259
   9 H :    0.127888
  10 H :    0.122498
  11 H :    0.152495
  12 H :    0.124141
  13 H :    0.120373
  14 H :    0.125519
  15 H :    0.145014
  16 H :    0.125787
  17 H :    0.125332
  18 H :    0.139785
  19 H :    0.142119

  Mayer bond orders larger than 0.1
B(  0-C ,  1-C ) :   0.9216 B(  0-C ,  8-H ) :   0.9391 B(  0-C ,  9-H ) :   0.9366
B(  0-C , 10-H ) :   0.9283 B(  1-C ,  2-C ) :   0.9059 B(  1-C ,  3-C ) :   0.9080
B(  1-C , 11-H ) :   0.9178 B(  2-C , 12-H ) :   0.9321 B(  2-C , 13-H ) :   0.9396
B(  2-C , 14-H ) :   0.9365 B(  3-C ,  4-O ) :   0.9067 B(  3-C ,  7-C ) :   0.9293
B(  3-C , 15-H ) :   0.9078 B(  4-O ,  5-C ) :   0.9474 B(  5-C ,  6-C ) :   0.9804
B(  5-C , 16-H ) :   0.9165 B(  5-C , 17-H ) :   0.9086 B(  6-C ,  7-C ) :   1.8046
B(  6-C , 18-H ) :   0.9168 B(  7-C , 19-H ) :   0.9178

MP2 TOTAL ENERGY:     -348.402140071 Eh
FINAL SINGLE POINT ENERGY      -348.402140070717

DIPOLE MOMENT
-------------
                                X             Y             Z
Electronic contribution:     -5.29905      -2.81710      -2.53613
Nuclear contribution   :      5.40323       2.24547       2.59988
                        -----------------------------------------
Total Dipole Moment    :      0.10417      -0.57163       0.06374
                        -----------------------------------------
Magnitude (a.u.)       :      0.58454
Magnitude (Debye)      :      1.48577

                             ****ORCA TERMINATED NORMALLY****
TOTAL RUN TIME: 0 days 0 hours 13 minutes 12 seconds 520 msec
