                         Program Version 3.0.3 - RELEASE   -
|  1> ! RI-MP2 RIJK def2-TZVP def2-TZVP/C def2-TZVP/JK TIGHTSCF
|  2> % maxcore 2000
|  3> % mp2 density relaxed end
|  4> *xyz 0 1
|  5>  O        0.2464397775     1.4282197701    -0.1271903800
|  6>  C        0.1605359704     0.0241629053    -0.0540477955
|  7>  C        0.2916781989    -0.6209282393     1.4158554565
|  8>  C       -1.2658445428    -0.5636011874     1.4746203742
|  9>  C       -2.6046544652    -1.3819220541     1.4006249916
| 10>  C       -2.8446490088    -0.3955214037     0.1552793592
| 11>  C       -3.0031448027     0.9554164522     0.8595980910
| 12>  C       -1.8276046272     0.8308671720     1.8731877247
| 13>  C       -1.2914826736    -0.5773411044    -0.0351728813
| 14>  H        1.1639889408     1.6781224186     0.0235119193
| 15>  H        0.8155540048    -0.4363372380    -0.8071204839
| 16>  H        0.7058882527    -1.6307899791     1.3533440004
| 17>  H        0.8519870549    -0.0438516060     2.1588310441
| 18>  H       -2.4781978442    -2.4215387883     1.0930188192
| 19>  H       -3.3176099547    -1.3091752581     2.2294689496
| 20>  H       -3.5576737292    -0.6512075945    -0.6310434222
| 21>  H       -2.8761392988     1.7980722336     0.1753582739
| 22>  H       -3.9810717975     1.0516726882     1.3410007042
| 23>  H       -2.1647626319     0.8207072098     2.9150523636
| 24>  H       -1.0982576059     1.6296449376     1.7553823324
| 25>  H       -1.1386382176    -1.6062705446    -0.3815103312
| 26> *
| 27>
| 28>                          ****END OF INPUT****

CARTESIAN COORDINATES (ANGSTROEM)
---------------------------------
  O      0.246440    1.428220   -0.127190
  C      0.160536    0.024163   -0.054048
  C      0.291678   -0.620928    1.415855
  C     -1.265845   -0.563601    1.474620
  C     -2.604654   -1.381922    1.400625
  C     -2.844649   -0.395521    0.155279
  C     -3.003145    0.955416    0.859598
  C     -1.827605    0.830867    1.873188
  C     -1.291483   -0.577341   -0.035173
  H      1.163989    1.678122    0.023512
  H      0.815554   -0.436337   -0.807120
  H      0.705888   -1.630790    1.353344
  H      0.851987   -0.043852    2.158831
  H     -2.478198   -2.421539    1.093019
  H     -3.317610   -1.309175    2.229469
  H     -3.557674   -0.651208   -0.631043
  H     -2.876139    1.798072    0.175358
  H     -3.981072    1.051673    1.341001
  H     -2.164763    0.820707    2.915052
  H     -1.098258    1.629645    1.755382
  H     -1.138638   -1.606271   -0.381510

 Total Charge           Charge          ....    0
 Multiplicity           Mult            ....    1
 Number of Electrons    NEL             ....   68
 Basis Dimension        Dim             ....  351

ORBITAL ENERGIES
----------------

  NO   OCC          E(Eh)            E(eV)
   0   2.0000     -20.558392      -559.4223
   1   2.0000     -11.292931      -307.2963
   2   2.0000     -11.240082      -305.8582
   3   2.0000     -11.232146      -305.6422
   4   2.0000     -11.229329      -305.5656
   5   2.0000     -11.222126      -305.3696
   6   2.0000     -11.212974      -305.1205
   7   2.0000     -11.208629      -305.0023
   8   2.0000     -11.203688      -304.8679
   9   2.0000      -1.366859       -37.1941
  10   2.0000      -1.191904       -32.4333
  11   2.0000      -1.046523       -28.4773
  12   2.0000      -0.966665       -26.3043
  13   2.0000      -0.914528       -24.8856
  14   2.0000      -0.862112       -23.4593
  15   2.0000      -0.822825       -22.3902
  16   2.0000      -0.749502       -20.3950
  17   2.0000      -0.722314       -19.6552
  18   2.0000      -0.688203       -18.7270
  19   2.0000      -0.645605       -17.5678
  20   2.0000      -0.620986       -16.8979
  21   2.0000      -0.608411       -16.5557
  22   2.0000      -0.591013       -16.0823
  23   2.0000      -0.569739       -15.5034
  24   2.0000      -0.529746       -14.4151
  25   2.0000      -0.514476       -13.9996
  26   2.0000      -0.498600       -13.5676
  27   2.0000      -0.486128       -13.2282
  28   2.0000      -0.463381       -12.6092
  29   2.0000      -0.454374       -12.3641
  30   2.0000      -0.427861       -11.6427
  31   2.0000      -0.419229       -11.4078
  32   2.0000      -0.404810       -11.0154
  33   2.0000      -0.349260        -9.5039
  34   0.0000       0.131879         3.5886
  35   0.0000       0.155001         4.2178
  36   0.0000       0.157565         4.2876
  37   0.0000       0.165671         4.5081
  38   0.0000       0.188990         5.1427

MULLIKEN ATOMIC CHARGES
-----------------------
   0 O :   -0.461623
   1 C :    0.048823
   2 C :   -0.308310
   3 C :    0.094752
   4 C :   -0.245341
   5 C :   -0.038436
   6 C :   -0.250802
   7 C :   -0.248899
   8 C :   -0.144904
   9 H :    0.318333
  10 H :    0.092296
  11 H :    0.116168
  12 H :    0.123708
  13 H :    0.120637
  14 H :    0.111419
  15 H :    0.118221
  16 H :    0.120593
  17 H :    0.110658
  18 H :    0.113278
  19 H :    0.118630
  20 H :    0.090801
Sum of atomic charges:   -0.0000000

LOEWDIN ATOMIC CHARGES
----------------------
   0 O :   -0.013014
   1 C :   -0.287519
   2 C :   -0.192190
   3 C :   -0.210173
   4 C :   -0.172431
   5 C :   -0.175350
   6 C :   -0.230284
   7 C :   -0.202338
   8 C :   -0.159852
   9 H :    0.176890
  10 H :    0.119648
  11 H :    0.134474
  12 H :    0.123916
  13 H :    0.133196
  14 H :    0.124276
  15 H :    0.129147
  16 H :    0.136745
  17 H :    0.131622
  18 H :    0.132147
  19 H :    0.136168
  20 H :    0.164924

  Mayer bond orders larger than 0.1
B(  0-O ,  1-C ) :   1.0308 B(  0-O ,  9-H ) :   0.8402 B(  1-C ,  2-C ) :   0.9261
B(  1-C ,  8-C ) :   0.8504 B(  1-C , 10-H ) :   0.9463 B(  2-C ,  3-C ) :   0.8823
B(  2-C , 11-H ) :   0.9097 B(  2-C , 12-H ) :   0.9220 B(  3-C ,  4-C ) :   0.9024
B(  3-C ,  7-C ) :   0.9156 B(  3-C ,  8-C ) :   0.8849 B(  4-C ,  5-C ) :   0.9077
B(  4-C , 13-H ) :   0.9211 B(  4-C , 14-H ) :   0.9191 B(  5-C ,  6-C ) :   0.9350
B(  5-C ,  8-C ) :   0.8980 B(  5-C , 15-H ) :   0.9122 B(  6-C ,  7-C ) :   0.9760
B(  6-C , 16-H ) :   0.9195 B(  6-C , 17-H ) :   0.9232 B(  7-C , 18-H ) :   0.9313
B(  7-C , 19-H ) :   0.9012 B(  8-C , 20-H ) :   0.9303

MP2 TOTAL ENERGY:     -386.332501603 Eh
FINAL SINGLE POINT ENERGY      -386.332501603115

DIPOLE MOMENT
-------------
                                X             Y             Z
Electronic contribution:      1.82438       0.86113      -1.87132
Nuclear contribution   :     -1.30740      -1.11720       1.95671
                        -----------------------------------------
Total Dipole Moment    :      0.51697      -0.25607       0.08539
                        -----------------------------------------
Magnitude (a.u.)       :      0.58320
Magnitude (Debye)      :      1.48238

                             ****ORCA TERMINATED NORMALLY****
TOTAL RUN TIME: 0 days 0 hours 20 minutes 51 seconds 366 msec
