                         Program Version 3.0.3 - RELEASE   -
|  1> ! RI-MP2 RIJK def2-TZVP def2-TZVP/C def2-TZVP/JK TIGHTSCF
|  2> % maxcore 2000
|  3> % mp2 density relaxed end
|  4> *xyz 0 1
|  5>  O       -0.0217403598     1.1620492853     0.2641228524
|  6>  N       -0.0000465645    -0.2415891139     0.3143751263
|  7>  C       -1.1262966408    -0.7370337529     0.0070140240
|  8>  C       -2.5210559083    -0.2834330627    -0.3688972313
|  9>  N       -2.9299394728    -1.7308321316    -0.4429656432
| 10>  C       -1.5845727858    -2.1415861797     0.0198470975
| 11>  C       -0.8052554640    -3.3767246762    -0.3669467082
| 12>  C       -1.1522481445    -3.1303419490     1.0806106550
| 13>  O       -0.1995731243    -2.7685265405     2.0236282388
| 14>  H        0.8891504134     1.3925239631     0.4766112581
| 15>  H       -3.0159214613     0.3117788375     0.4065826115
| 16>  H       -2.6103786728     0.2380901602    -1.3266545668
| 17>  H       -3.6525727334    -1.9507793848     0.2363100788
| 18>  H       -1.3545532794    -4.1523244321    -0.8915393287
| 19>  H        0.2224256852    -3.2310122625    -0.6857824731
| 20>  H       -1.9200763906    -3.7626219695     1.5192282239
| 21>  H        0.2247025438    -1.9482973507     1.7291712551
| 22> *
| 23>
| 24>                          ****END OF INPUT****

CARTESIAN COORDINATES (ANGSTROEM)
---------------------------------
  O     -0.021740    1.162049    0.264123
  N     -0.000047   -0.241589    0.314375
  C     -1.126297   -0.737034    0.007014
  C     -2.521056   -0.283433   -0.368897
  N     -2.929939   -1.730832   -0.442966
  C     -1.584573   -2.141586    0.019847
  C     -0.805255   -3.376725   -0.366947
  C     -1.152248   -3.130342    1.080611
  O     -0.199573   -2.768527    2.023628
  H      0.889150    1.392524    0.476611
  H     -3.015921    0.311779    0.406583
  H     -2.610379    0.238090   -1.326655
  H     -3.652573   -1.950779    0.236310
  H     -1.354553   -4.152324   -0.891539
  H      0.222426   -3.231012   -0.685782
  H     -1.920076   -3.762622    1.519228
  H      0.224703   -1.948297    1.729171

 Total Charge           Charge          ....    0
 Multiplicity           Mult            ....    1
 Number of Electrons    NEL             ....   68
 Basis Dimension        Dim             ....  327

ORBITAL ENERGIES
----------------

  NO   OCC          E(Eh)            E(eV)
   0   2.0000     -20.603972      -560.6626
   1   2.0000     -20.561503      -559.5069
   2   2.0000     -15.627961      -425.2584
   3   2.0000     -15.567620      -423.6165
   4   2.0000     -11.298419      -307.4456
   5   2.0000     -11.294268      -307.3327
   6   2.0000     -11.280499      -306.9580
   7   2.0000     -11.280342      -306.9537
   8   2.0000     -11.235031      -305.7207
   9   2.0000      -1.429936       -38.9105
  10   2.0000      -1.376022       -37.4435
  11   2.0000      -1.267734       -34.4968
  12   2.0000      -1.153934       -31.4001
  13   2.0000      -1.114289       -30.3214
  14   2.0000      -0.941076       -25.6080
  15   2.0000      -0.877094       -23.8669
  16   2.0000      -0.838475       -22.8161
  17   2.0000      -0.742127       -20.1943
  18   2.0000      -0.722354       -19.6563
  19   2.0000      -0.701685       -19.0938
  20   2.0000      -0.670163       -18.2361
  21   2.0000      -0.657270       -17.8852
  22   2.0000      -0.614446       -16.7199
  23   2.0000      -0.599983       -16.3264
  24   2.0000      -0.587775       -15.9942
  25   2.0000      -0.569065       -15.4851
  26   2.0000      -0.563351       -15.3296
  27   2.0000      -0.542041       -14.7497
  28   2.0000      -0.528002       -14.3677
  29   2.0000      -0.479027       -13.0350
  30   2.0000      -0.451088       -12.2747
  31   2.0000      -0.420493       -11.4422
  32   2.0000      -0.398408       -10.8412
  33   2.0000      -0.357603        -9.7309
  34   0.0000       0.126598         3.4449
  35   0.0000       0.138126         3.7586
  36   0.0000       0.144937         3.9439
  37   0.0000       0.163947         4.4612
  38   0.0000       0.174757         4.7554

MULLIKEN ATOMIC CHARGES
-----------------------
   0 O :   -0.367239
   1 N :   -0.152773
   2 C :    0.057348
   3 C :   -0.124496
   4 N :   -0.302613
   5 C :   -0.014994
   6 C :   -0.213113
   7 C :    0.004026
   8 O :   -0.451338
   9 H :    0.339799
  10 H :    0.140113
  11 H :    0.133938
  12 H :    0.214663
  13 H :    0.130285
  14 H :    0.142801
  15 H :    0.128572
  16 H :    0.335020
Sum of atomic charges:    0.0000000

LOEWDIN ATOMIC CHARGES
----------------------
   0 O :   -0.069427
   1 N :    0.004265
   2 C :   -0.247428
   3 C :   -0.213033
   4 N :    0.020384
   5 C :   -0.246951
   6 C :   -0.179198
   7 C :   -0.295218
   8 O :    0.009791
   9 H :    0.172263
  10 H :    0.135513
  11 H :    0.137640
  12 H :    0.163093
  13 H :    0.142283
  14 H :    0.142649
  15 H :    0.143621
  16 H :    0.179753

  Mayer bond orders larger than 0.1
B(  0-O ,  1-N ) :   0.8130 B(  0-O ,  9-H ) :   0.8419 B(  1-N ,  2-C ) :   1.7407
B(  2-C ,  3-C ) :   0.9543 B(  2-C ,  5-C ) :   0.9509 B(  3-C ,  4-N ) :   0.9631
B(  3-C , 10-H ) :   0.9145 B(  3-C , 11-H ) :   0.8959 B(  4-N ,  5-C ) :   0.9794
B(  4-N , 12-H ) :   0.8743 B(  5-C ,  6-C ) :   0.8066 B(  5-C ,  7-C ) :   0.8679
B(  6-C ,  7-C ) :   0.8784 B(  6-C , 13-H ) :   0.9032 B(  6-C , 14-H ) :   0.9130
B(  7-C ,  8-O ) :   1.0180 B(  7-C , 15-H ) :   0.9336 B(  8-O , 16-H ) :   0.8086

MP2 TOTAL ENERGY:     -454.306933392 Eh
FINAL SINGLE POINT ENERGY      -454.306933392381

DIPOLE MOMENT
-------------
                                X             Y             Z
Electronic contribution:      1.94905       2.01233       0.92703
Nuclear contribution   :     -2.16620      -1.56907      -0.99274
                        -----------------------------------------
Total Dipole Moment    :     -0.21716       0.44325      -0.06570
                        -----------------------------------------
Magnitude (a.u.)       :      0.49794
Magnitude (Debye)      :      1.26567

                             ****ORCA TERMINATED NORMALLY****
TOTAL RUN TIME: 0 days 0 hours 15 minutes 9 seconds 171 msec
