                         Program Version 3.0.3 - RELEASE   -
|  1> ! RI-MP2 RIJK def2-TZVP def2-TZVP/C def2-TZVP/JK TIGHTSCF
|  2> % maxcore 2000
|  3> % mp2 density relaxed end
|  4> *xyz 0 1
|  5>  O        0.3145393892     1.2438777471     0.0769109676
|  6>  C       -0.0230034440    -0.0985237603    -0.0797564416
|  7>  C       -0.5288877466    -0.9471445035     1.0618224427
|  8>  C       -1.4531137667    -0.5852988098    -0.0912727580
|  9>  C       -2.6202398935     0.3589583187     0.1056340874
| 10>  O       -2.2447054777     1.3124878108     1.0961977705
| 11>  C       -3.1804108962     0.9168973420    -1.2395858949
| 12>  C       -4.2841058837    -0.1747986815    -1.1904621104
| 13>  C       -3.9801956106    -0.3723232679     0.3197846971
| 14>  H       -0.4133112716     1.6580222429     0.5621096582
| 15>  H        0.6594268880    -0.5688706882    -0.7815056171
| 16>  H       -0.1884913025    -1.9727578134     1.1594569980
| 17>  H       -0.7085157232    -0.4337537509     1.9999546246
| 18>  H       -1.6819972373    -1.3783500248    -0.7985671256
| 19>  H       -2.9517380223     1.9605049955     1.1743814838
| 20>  H       -3.5991145909     1.9201326890    -1.1025994174
| 21>  H       -2.4993893270     0.9379567047    -2.0929855174
| 22>  H       -5.2972919793     0.1309768117    -1.4570487079
| 23>  H       -4.0242741050    -1.0542337383    -1.7846149548
| 24>  H       -3.9436060909    -1.3881917307     0.7198875285
| 25>  H       -4.6476109083     0.2266330868     0.9489874769
| 26> *
| 27>
| 28>                          ****END OF INPUT****

CARTESIAN COORDINATES (ANGSTROEM)
---------------------------------
  O      0.314539    1.243878    0.076911
  C     -0.023003   -0.098524   -0.079756
  C     -0.528888   -0.947145    1.061822
  C     -1.453114   -0.585299   -0.091273
  C     -2.620240    0.358958    0.105634
  O     -2.244705    1.312488    1.096198
  C     -3.180411    0.916897   -1.239586
  C     -4.284106   -0.174799   -1.190462
  C     -3.980196   -0.372323    0.319785
  H     -0.413311    1.658022    0.562110
  H      0.659427   -0.568871   -0.781506
  H     -0.188491   -1.972758    1.159457
  H     -0.708516   -0.433754    1.999955
  H     -1.681997   -1.378350   -0.798567
  H     -2.951738    1.960505    1.174381
  H     -3.599115    1.920133   -1.102599
  H     -2.499389    0.937957   -2.092986
  H     -5.297292    0.130977   -1.457049
  H     -4.024274   -1.054234   -1.784615
  H     -3.943606   -1.388192    0.719888
  H     -4.647611    0.226633    0.948987

 Total Charge           Charge          ....    0
 Multiplicity           Mult            ....    1
 Number of Electrons    NEL             ....   70
 Basis Dimension        Dim             ....  351

ORBITAL ENERGIES
----------------

  NO   OCC          E(Eh)            E(eV)
   0   2.0000     -20.574401      -559.8579
   1   2.0000     -20.537522      -558.8544
   2   2.0000     -11.298386      -307.4447
   3   2.0000     -11.274427      -306.7928
   4   2.0000     -11.231300      -305.6192
   5   2.0000     -11.228829      -305.5520
   6   2.0000     -11.228710      -305.5487
   7   2.0000     -11.228471      -305.5422
   8   2.0000     -11.215183      -305.1806
   9   2.0000      -1.385529       -37.7022
  10   2.0000      -1.348975       -36.7075
  11   2.0000      -1.142900       -31.0999
  12   2.0000      -1.105633       -30.0858
  13   2.0000      -0.916500       -24.9392
  14   2.0000      -0.912892       -24.8411
  15   2.0000      -0.820473       -22.3262
  16   2.0000      -0.816992       -22.2315
  17   2.0000      -0.758554       -20.6413
  18   2.0000      -0.709689       -19.3116
  19   2.0000      -0.675956       -18.3937
  20   2.0000      -0.654618       -17.8131
  21   2.0000      -0.633233       -17.2311
  22   2.0000      -0.606471       -16.5029
  23   2.0000      -0.597396       -16.2560
  24   2.0000      -0.558772       -15.2050
  25   2.0000      -0.547236       -14.8911
  26   2.0000      -0.543822       -14.7982
  27   2.0000      -0.541945       -14.7471
  28   2.0000      -0.521224       -14.1832
  29   2.0000      -0.479784       -13.0556
  30   2.0000      -0.473361       -12.8808
  31   2.0000      -0.450749       -12.2655
  32   2.0000      -0.447265       -12.1707
  33   2.0000      -0.393021       -10.6947
  34   2.0000      -0.367309        -9.9950
  35   0.0000       0.124570         3.3897
  36   0.0000       0.143784         3.9126
  37   0.0000       0.159233         4.3330
  38   0.0000       0.168338         4.5807
  39   0.0000       0.188545         5.1306

MULLIKEN ATOMIC CHARGES
-----------------------
   0 O :   -0.468260
   1 C :    0.034075
   2 C :   -0.253990
   3 C :   -0.219065
   4 C :    0.233296
   5 O :   -0.498386
   6 C :   -0.223606
   7 C :   -0.261754
   8 C :   -0.223720
   9 H :    0.337470
  10 H :    0.114068
  11 H :    0.125966
  12 H :    0.141261
  13 H :    0.129046
  14 H :    0.320137
  15 H :    0.103531
  16 H :    0.132489
  17 H :    0.118859
  18 H :    0.126870
  19 H :    0.126813
  20 H :    0.104901
Sum of atomic charges:    0.0000000

LOEWDIN ATOMIC CHARGES
----------------------
   0 O :   -0.007787
   1 C :   -0.311979
   2 C :   -0.213605
   3 C :   -0.187420
   4 C :   -0.336489
   5 O :    0.007222
   6 C :   -0.203567
   7 C :   -0.243719
   8 C :   -0.204580
   9 H :    0.173161
  10 H :    0.138360
  11 H :    0.128832
  12 H :    0.140873
  13 H :    0.156866
  14 H :    0.176358
  15 H :    0.133380
  16 H :    0.132628
  17 H :    0.124161
  18 H :    0.133051
  19 H :    0.130386
  20 H :    0.133868

  Mayer bond orders larger than 0.1
B(  0-O ,  1-C ) :   1.0249 B(  0-O ,  9-H ) :   0.8071 B(  1-C ,  2-C ) :   0.8833
B(  1-C ,  3-C ) :   0.8916 B(  1-C , 10-H ) :   0.9507 B(  2-C ,  3-C ) :   0.8635
B(  2-C , 11-H ) :   0.9188 B(  2-C , 12-H ) :   0.9141 B(  3-C ,  4-C ) :   0.8941
B(  3-C , 13-H ) :   0.9083 B(  4-C ,  5-O ) :   0.9193 B(  4-C ,  6-C ) :   0.8894
B(  4-C ,  8-C ) :   0.8759 B(  5-O , 14-H ) :   0.8342 B(  6-C ,  7-C ) :   0.9568
B(  6-C , 15-H ) :   0.9143 B(  6-C , 16-H ) :   0.9258 B(  7-C ,  8-C ) :   0.9521
B(  7-C , 17-H ) :   0.9261 B(  7-C , 18-H ) :   0.9277 B(  8-C , 19-H ) :   0.9262
B(  8-C , 20-H ) :   0.9160

MP2 TOTAL ENERGY:     -423.494965015 Eh
FINAL SINGLE POINT ENERGY      -423.494965014800

DIPOLE MOMENT
-------------
                                X             Y             Z
Electronic contribution:      3.95095       2.40345       1.59993
Nuclear contribution   :     -5.19458      -2.57739      -1.69116
                        -----------------------------------------
Total Dipole Moment    :     -1.24364      -0.17394      -0.09122
                        -----------------------------------------
Magnitude (a.u.)       :      1.25905
Magnitude (Debye)      :      3.20025

                             ****ORCA TERMINATED NORMALLY****
TOTAL RUN TIME: 0 days 0 hours 17 minutes 44 seconds 295 msec
