                         Program Version 3.0.3 - RELEASE   -
|  1> ! RI-MP2 RIJK def2-TZVP def2-TZVP/C def2-TZVP/JK TIGHTSCF
|  2> % maxcore 2000
|  3> % mp2 density relaxed end
|  4> *xyz 0 1
|  5>  C       -0.0264462380     1.4672628638     0.0107693999
|  6>  C        0.0104017765     0.0145305571     0.0025920111
|  7>  C        0.0546492397    -1.1908060611    -0.0042422408
|  8>  C        0.0676537001    -2.6157625676    -0.0119818713
|  9>  N        1.2511377826    -3.2551977675    -0.0223363498
| 10>  C        1.2032420331    -4.5853196113    -0.0292293341
| 11>  C        0.0022623205    -5.2911303526    -0.0260216597
| 12>  N       -1.1783854566    -4.6665851379    -0.0157706268
| 13>  C       -1.1400030951    -3.3383113034    -0.0088370737
| 14>  H        0.9848482198     1.8871313353     0.0035389484
| 15>  H       -0.5571154152     1.8537791122    -0.8664303761
| 16>  H       -0.5404622149     1.8442158062     0.9019419585
| 17>  H        2.1559011428    -5.1094675050    -0.0376152938
| 18>  H       -0.0100617346    -6.3776107200    -0.0318031370
| 19>  H       -2.0889915408    -2.8094758982    -0.0004532847
| 20> *
| 21>
| 22>                          ****END OF INPUT****

CARTESIAN COORDINATES (ANGSTROEM)
---------------------------------
  C     -0.026446    1.467263    0.010769
  C      0.010402    0.014531    0.002592
  C      0.054649   -1.190806   -0.004242
  C      0.067654   -2.615763   -0.011982
  N      1.251138   -3.255198   -0.022336
  C      1.203242   -4.585320   -0.029229
  C      0.002262   -5.291130   -0.026022
  N     -1.178385   -4.666585   -0.015771
  C     -1.140003   -3.338311   -0.008837
  H      0.984848    1.887131    0.003539
  H     -0.557115    1.853779   -0.866430
  H     -0.540462    1.844216    0.901942
  H      2.155901   -5.109468   -0.037615
  H     -0.010062   -6.377611   -0.031803
  H     -2.088992   -2.809476   -0.000453

 Total Charge           Charge          ....    0
 Multiplicity           Mult            ....    1
 Number of Electrons    NEL             ....   62
 Basis Dimension        Dim             ....  315

ORBITAL ENERGIES
----------------

  NO   OCC          E(Eh)            E(eV)
   0   2.0000     -15.593828      -424.3296
   1   2.0000     -15.593527      -424.3214
   2   2.0000     -11.307376      -307.6893
   3   2.0000     -11.286779      -307.1289
   4   2.0000     -11.284862      -307.0767
   5   2.0000     -11.283634      -307.0433
   6   2.0000     -11.255828      -306.2867
   7   2.0000     -11.245098      -305.9947
   8   2.0000     -11.230322      -305.5926
   9   2.0000      -1.311576       -35.6898
  10   2.0000      -1.223783       -33.3008
  11   2.0000      -1.090401       -29.6713
  12   2.0000      -1.049644       -28.5623
  13   2.0000      -0.971900       -26.4468
  14   2.0000      -0.904283       -24.6068
  15   2.0000      -0.893703       -24.3189
  16   2.0000      -0.751111       -20.4388
  17   2.0000      -0.713303       -19.4100
  18   2.0000      -0.700953       -19.0739
  19   2.0000      -0.643318       -17.5056
  20   2.0000      -0.618335       -16.8257
  21   2.0000      -0.598275       -16.2799
  22   2.0000      -0.596256       -16.2250
  23   2.0000      -0.582134       -15.8407
  24   2.0000      -0.564575       -15.3629
  25   2.0000      -0.500829       -13.6283
  26   2.0000      -0.455036       -12.3822
  27   2.0000      -0.418043       -11.3755
  28   2.0000      -0.414611       -11.2821
  29   2.0000      -0.388880       -10.5820
  30   2.0000      -0.329524        -8.9668
  31   0.0000       0.069871         1.9013
  32   0.0000       0.097803         2.6614
  33   0.0000       0.134685         3.6650
  34   0.0000       0.164720         4.4823
  35   0.0000       0.178374         4.8538

MULLIKEN ATOMIC CHARGES
-----------------------
   0 C :   -0.471200
   1 C :    0.077107
   2 C :    0.060363
   3 C :    0.010597
   4 N :   -0.251492
   5 C :   -0.034090
   6 C :   -0.012601
   7 N :   -0.236765
   8 C :   -0.061333
   9 H :    0.170055
  10 H :    0.166704
  11 H :    0.166714
  12 H :    0.135770
  13 H :    0.138451
  14 H :    0.141721
Sum of atomic charges:    0.0000000

LOEWDIN ATOMIC CHARGES
----------------------
   0 C :   -0.288132
   1 C :   -0.064363
   2 C :   -0.038006
   3 C :   -0.217878
   4 N :    0.181642
   5 C :   -0.209298
   6 C :   -0.212820
   7 N :    0.145389
   8 C :   -0.163232
   9 H :    0.145163
  10 H :    0.144312
  11 H :    0.144323
  12 H :    0.143117
  13 H :    0.141794
  14 H :    0.147989

  Mayer bond orders larger than 0.1
B(  0-C ,  1-C ) :   0.8514 B(  0-C ,  9-H ) :   0.9438 B(  0-C , 10-H ) :   0.9423
B(  0-C , 11-H ) :   0.9423 B(  1-C ,  2-C ) :   2.6346 B(  1-C ,  3-C ) :  -0.1622
B(  2-C ,  3-C ) :   1.1138 B(  3-C ,  4-N ) :   1.3559 B(  3-C ,  8-C ) :   1.2749
B(  4-N ,  5-C ) :   1.4111 B(  5-C ,  6-C ) :   1.3061 B(  5-C , 12-H ) :   0.9301
B(  6-C ,  7-N ) :   1.3615 B(  6-C , 13-H ) :   0.9282 B(  7-N ,  8-C ) :   1.4173
B(  8-C , 14-H ) :   0.9332

MP2 TOTAL ENERGY:     -378.995655435 Eh
FINAL SINGLE POINT ENERGY      -378.995655435084

DIPOLE MOMENT
-------------
                                X             Y             Z
Electronic contribution:      0.19108      -5.96080      -0.03369
Nuclear contribution   :     -0.19648       6.41073       0.03623
                        -----------------------------------------
Total Dipole Moment    :     -0.00539       0.44993       0.00254
                        -----------------------------------------
Magnitude (a.u.)       :      0.44997
Magnitude (Debye)      :      1.14374

                             ****ORCA TERMINATED NORMALLY****
TOTAL RUN TIME: 0 days 0 hours 13 minutes 23 seconds 234 msec
