                         Program Version 3.0.3 - RELEASE   -
|  1> ! RI-MP2 RIJK def2-TZVP def2-TZVP/C def2-TZVP/JK TIGHTSCF
|  2> % maxcore 2000
|  3> % mp2 density relaxed end
|  4> *xyz 0 1
|  5>  C       -0.0251851926     1.6357633993     0.0175950420
|  6>  C       -0.0267930356     0.1196791736    -0.0023219877
|  7>  C        1.2085949169    -0.6272291227    -0.5667797345
|  8>  O        1.9960929206    -0.2000478603     0.6054104149
|  9>  C        0.6889280328    -0.6500047196     1.1551342308
| 10>  C        0.4739837515    -0.5977133305     2.6337121998
| 11>  C        0.8129624107    -1.9115691027     0.2253459215
| 12>  C       -0.3413151900    -2.7078208933    -0.1263645641
| 13>  C       -1.2954419817    -3.3843645939    -0.4086244230
| 14>  H        0.9537712444     2.0164382999     0.3163664508
| 15>  H       -0.2683588883     2.0370721000    -0.9720895136
| 16>  H       -0.7774655097     2.0173868439     0.7166782810
| 17>  H       -0.9919123856    -0.2996622601    -0.2989252121
| 18>  H        1.6844254106    -0.5605773534    -1.5453831717
| 19>  H        0.4888689937     0.4366818938     2.9905283649
| 20>  H       -0.4957351560    -1.0388709190     2.8841400735
| 21>  H        1.2565089812    -1.1568428681     3.1552576988
| 22>  H        1.6847634817    -2.5185482956     0.4797117514
| 23>  H       -2.1372537146    -3.9802611915    -0.6614608827
| 24> *
| 25>
| 26>                          ****END OF INPUT****

CARTESIAN COORDINATES (ANGSTROEM)
---------------------------------
  C     -0.025185    1.635763    0.017595
  C     -0.026793    0.119679   -0.002322
  C      1.208595   -0.627229   -0.566780
  O      1.996093   -0.200048    0.605410
  C      0.688928   -0.650005    1.155134
  C      0.473984   -0.597713    2.633712
  C      0.812962   -1.911569    0.225346
  C     -0.341315   -2.707821   -0.126365
  C     -1.295442   -3.384365   -0.408624
  H      0.953771    2.016438    0.316366
  H     -0.268359    2.037072   -0.972090
  H     -0.777466    2.017387    0.716678
  H     -0.991912   -0.299662   -0.298925
  H      1.684425   -0.560577   -1.545383
  H      0.488869    0.436682    2.990528
  H     -0.495735   -1.038871    2.884140
  H      1.256509   -1.156843    3.155258
  H      1.684763   -2.518548    0.479712
  H     -2.137254   -3.980261   -0.661461

 Total Charge           Charge          ....    0
 Multiplicity           Mult            ....    1
 Number of Electrons    NEL             ....   66
 Basis Dimension        Dim             ....  339

ORBITAL ENERGIES
----------------

  NO   OCC          E(Eh)            E(eV)
   0   2.0000     -20.549727      -559.1865
   1   2.0000     -11.311225      -307.7941
   2   2.0000     -11.304485      -307.6107
   3   2.0000     -11.263370      -306.4919
   4   2.0000     -11.242124      -305.9137
   5   2.0000     -11.240032      -305.8568
   6   2.0000     -11.229587      -305.5726
   7   2.0000     -11.228298      -305.5375
   8   2.0000     -11.215146      -305.1796
   9   2.0000      -1.399985       -38.0955
  10   2.0000      -1.104207       -30.0470
  11   2.0000      -1.039066       -28.2744
  12   2.0000      -1.009687       -27.4750
  13   2.0000      -0.986951       -26.8563
  14   2.0000      -0.884248       -24.0616
  15   2.0000      -0.839423       -22.8419
  16   2.0000      -0.763935       -20.7877
  17   2.0000      -0.708401       -19.2766
  18   2.0000      -0.667883       -18.1740
  19   2.0000      -0.659187       -17.9374
  20   2.0000      -0.626375       -17.0445
  21   2.0000      -0.602668       -16.3994
  22   2.0000      -0.592517       -16.1232
  23   2.0000      -0.555780       -15.1235
  24   2.0000      -0.544714       -14.8224
  25   2.0000      -0.520722       -14.1696
  26   2.0000      -0.506445       -13.7811
  27   2.0000      -0.483149       -13.1472
  28   2.0000      -0.472338       -12.8530
  29   2.0000      -0.438098       -11.9213
  30   2.0000      -0.428446       -11.6586
  31   2.0000      -0.385483       -10.4895
  32   2.0000      -0.380126       -10.3437
  33   0.0000       0.137817         3.7502
  34   0.0000       0.154805         4.2125
  35   0.0000       0.159753         4.3471
  36   0.0000       0.164880         4.4866
  37   0.0000       0.175802         4.7838

MULLIKEN ATOMIC CHARGES
-----------------------
   0 C :   -0.470806
   1 C :    0.037764
   2 C :   -0.043487
   3 O :   -0.319264
   4 C :    0.074579
   5 C :   -0.430401
   6 C :   -0.148848
   7 C :   -0.004262
   8 C :   -0.154933
   9 H :    0.160739
  10 H :    0.135852
  11 H :    0.132095
  12 H :    0.123117
  13 H :    0.139858
  14 H :    0.149694
  15 H :    0.149076
  16 H :    0.147834
  17 H :    0.129652
  18 H :    0.191743
Sum of atomic charges:    0.0000000

LOEWDIN ATOMIC CHARGES
----------------------
   0 C :   -0.297458
   1 C :   -0.189648
   2 C :   -0.178530
   3 O :    0.148145
   4 C :   -0.244366
   5 C :   -0.265823
   6 C :   -0.158028
   7 C :   -0.094331
   8 C :   -0.093244
   9 H :    0.132998
  10 H :    0.126792
  11 H :    0.125763
  12 H :    0.153660
  13 H :    0.127051
  14 H :    0.136093
  15 H :    0.139217
  16 H :    0.136987
  17 H :    0.167399
  18 H :    0.127324

  Mayer bond orders larger than 0.1
B(  0-C ,  1-C ) :   0.8844 B(  0-C ,  9-H ) :   0.9387 B(  0-C , 10-H ) :   0.9356
B(  0-C , 11-H ) :   0.9364 B(  1-C ,  2-C ) :   0.9329 B(  1-C ,  4-C ) :   0.8746
B(  1-C , 12-H ) :   0.8967 B(  2-C ,  3-O ) :   0.9069 B(  2-C ,  6-C ) :   0.9269
B(  2-C , 13-H ) :   0.8822 B(  3-O ,  4-C ) :   0.9067 B(  4-C ,  5-C ) :   0.8196
B(  4-C ,  6-C ) :   0.8765 B(  5-C , 14-H ) :   0.9386 B(  5-C , 15-H ) :   0.9380
B(  5-C , 16-H ) :   0.9384 B(  6-C ,  7-C ) :   1.0218 B(  6-C , 17-H ) :   0.9370
B(  7-C ,  8-C ) :   2.6302 B(  8-C , 18-H ) :   0.8949

MP2 TOTAL ENERGY:     -385.115970492 Eh
FINAL SINGLE POINT ENERGY      -385.115970491715

DIPOLE MOMENT
-------------
                                X             Y             Z
Electronic contribution:      1.97637      -5.18372      -2.64437
Nuclear contribution   :     -2.60578       5.12521       2.63955
                        -----------------------------------------
Total Dipole Moment    :     -0.62941      -0.05851      -0.00482
                        -----------------------------------------
Magnitude (a.u.)       :      0.63214
Magnitude (Debye)      :      1.60678

                             ****ORCA TERMINATED NORMALLY****
TOTAL RUN TIME: 0 days 0 hours 19 minutes 42 seconds 453 msec
