                         Program Version 3.0.3 - RELEASE   -
|  1> ! RI-MP2 RIJK def2-TZVP def2-TZVP/C def2-TZVP/JK TIGHTSCF
|  2> % maxcore 2000
|  3> % mp2 density relaxed end
|  4> *xyz 0 1
|  5>  N       -0.1272674913     1.2645692924    -0.4048020783
|  6>  C       -0.0221880877     0.0983288257     0.0611657660
|  7>  N       -1.1356264460    -0.7248703336     0.1621655648
|  8>  N       -1.1597110301    -1.9707140221     0.6332807266
|  9>  C       -0.0469145234    -2.4788218495     1.0408968816
| 10>  C        1.2278937242    -1.7604353053     1.0112337629
| 11>  O        2.2895429662    -2.1716637831     1.3721951422
| 12>  O        1.1472330187    -0.4635707079     0.5004821551
| 13>  H        0.7721291962     1.7393462732    -0.4135951536
| 14>  H       -2.0149669301    -0.3449609483    -0.1519135277
| 15>  H       -0.0546376066    -3.4899003116     1.4255454205
| 16> *
| 17>
| 18>                          ****END OF INPUT****

CARTESIAN COORDINATES (ANGSTROEM)
---------------------------------
  N     -0.127267    1.264569   -0.404802
  C     -0.022188    0.098329    0.061166
  N     -1.135626   -0.724870    0.162166
  N     -1.159711   -1.970714    0.633281
  C     -0.046915   -2.478822    1.040897
  C      1.227894   -1.760435    1.011234
  O      2.289543   -2.171664    1.372195
  O      1.147233   -0.463571    0.500482
  H      0.772129    1.739346   -0.413595
  H     -2.014967   -0.344961   -0.151914
  H     -0.054638   -3.489900    1.425545

 Total Charge           Charge          ....    0
 Multiplicity           Mult            ....    1
 Number of Electrons    NEL             ....   58
 Basis Dimension        Dim             ....  266

ORBITAL ENERGIES
----------------

  NO   OCC          E(Eh)            E(eV)
   0   2.0000     -20.657565      -562.1209
   1   2.0000     -20.583995      -560.1190
   2   2.0000     -15.685323      -426.8193
   3   2.0000     -15.664895      -426.2635
   4   2.0000     -15.554959      -423.2720
   5   2.0000     -11.426394      -310.9280
   6   2.0000     -11.415142      -310.6218
   7   2.0000     -11.312426      -307.8268
   8   2.0000      -1.518227       -41.3130
   9   2.0000      -1.428064       -38.8596
  10   2.0000      -1.391643       -37.8685
  11   2.0000      -1.250120       -34.0175
  12   2.0000      -1.148630       -31.2558
  13   2.0000      -0.977621       -26.6024
  14   2.0000      -0.929084       -25.2817
  15   2.0000      -0.821091       -22.3430
  16   2.0000      -0.815177       -22.1821
  17   2.0000      -0.711789       -19.3688
  18   2.0000      -0.711662       -19.3653
  19   2.0000      -0.684325       -18.6214
  20   2.0000      -0.657082       -17.8801
  21   2.0000      -0.626048       -17.0356
  22   2.0000      -0.610908       -16.6237
  23   2.0000      -0.567549       -15.4438
  24   2.0000      -0.551076       -14.9955
  25   2.0000      -0.483200       -13.1485
  26   2.0000      -0.469035       -12.7631
  27   2.0000      -0.461817       -12.5667
  28   2.0000      -0.376004       -10.2316
  29   0.0000       0.051090         1.3902
  30   0.0000       0.130565         3.5529
  31   0.0000       0.163797         4.4571
  32   0.0000       0.164267         4.4699
  33   0.0000       0.167789         4.5658

MULLIKEN ATOMIC CHARGES
-----------------------
   0 N :   -0.400388
   1 C :    0.265953
   2 N :   -0.164936
   3 N :   -0.108879
   4 C :   -0.132903
   5 C :    0.281393
   6 O :   -0.247109
   7 O :   -0.191131
   8 H :    0.243945
   9 H :    0.283187
  10 H :    0.170869
Sum of atomic charges:    0.0000000

LOEWDIN ATOMIC CHARGES
----------------------
   0 N :   -0.065828
   1 C :   -0.477611
   2 N :    0.095185
   3 N :    0.090860
   4 C :   -0.229832
   5 C :   -0.444971
   6 O :    0.180114
   7 O :    0.314249
   8 H :    0.177638
   9 H :    0.205461
  10 H :    0.154734

  Mayer bond orders larger than 0.1
B(  0-N ,  1-C ) :   1.9696 B(  0-N ,  8-H ) :   0.8492 B(  1-C ,  2-N ) :   1.0396
B(  1-C ,  7-O ) :   1.0471 B(  2-N ,  3-N ) :   0.9955 B(  2-N ,  9-H ) :   0.8621
B(  3-N ,  4-C ) :   1.6703 B(  4-C ,  5-C ) :   1.0204 B(  4-C , 10-H ) :   0.9109
B(  5-C ,  6-O ) :   2.0244 B(  5-C ,  7-O ) :   0.9978

MP2 TOTAL ENERGY:     -430.052094937 Eh
FINAL SINGLE POINT ENERGY      -430.052094937188

DIPOLE MOMENT
-------------
                                X             Y             Z
Electronic contribution:      1.34899      -0.99748       0.64037
Nuclear contribution   :     -2.03136       0.87256      -0.72375
                        -----------------------------------------
Total Dipole Moment    :     -0.68237      -0.12492      -0.08337
                        -----------------------------------------
Magnitude (a.u.)       :      0.69870
Magnitude (Debye)      :      1.77596

                             ****ORCA TERMINATED NORMALLY****
TOTAL RUN TIME: 0 days 0 hours 8 minutes 18 seconds 653 msec
