                         Program Version 3.0.3 - RELEASE   -
|  1> ! RI-MP2 RIJK def2-TZVP def2-TZVP/C def2-TZVP/JK TIGHTSCF
|  2> % maxcore 2000
|  3> % mp2 density relaxed end
|  4> *xyz 0 1
|  5>  C       -0.2343428832     1.4594573460     0.0321304711
|  6>  C        0.1191754839     0.0008258298    -0.0109344365
|  7>  O       -0.6401104629    -0.8671402441     0.8491300569
|  8>  C        0.7742671916    -0.7767238034     1.0549568916
|  9>  C        1.5568808269    -1.9167892687     0.4170928277
| 10>  O        0.7357402416    -2.8710013329    -0.2605905941
| 11>  C        1.3596194711    -1.8425204226    -1.0378613733
| 12>  C        0.4073162721    -0.6835134878    -1.3675100592
| 13>  O       -0.7739256170    -1.1046785431    -2.0127101173
| 14>  H        0.5829123655     2.0727940521    -0.3617241789
| 15>  H       -1.1227942370     1.6461504543    -0.5805182543
| 16>  H       -0.4489123904     1.7726981344     1.0568513327
| 17>  H        1.0929587461    -0.3558963910     2.0048960488
| 18>  H        2.4516512805    -2.3065410125     0.8934307516
| 19>  H        2.0833673338    -2.1876042320    -1.7720130027
| 20>  H        0.9012558597     0.0220029579    -2.0443582249
| 21>  H       -1.1864567724    -1.7295598764    -1.4008180394
| 22> *
| 23>
| 24>                          ****END OF INPUT****

CARTESIAN COORDINATES (ANGSTROEM)
---------------------------------
  C     -0.234343    1.459457    0.032130
  C      0.119175    0.000826   -0.010934
  O     -0.640110   -0.867140    0.849130
  C      0.774267   -0.776724    1.054957
  C      1.556881   -1.916789    0.417093
  O      0.735740   -2.871001   -0.260591
  C      1.359619   -1.842520   -1.037861
  C      0.407316   -0.683513   -1.367510
  O     -0.773926   -1.104679   -2.012710
  H      0.582912    2.072794   -0.361724
  H     -1.122794    1.646150   -0.580518
  H     -0.448912    1.772698    1.056851
  H      1.092959   -0.355896    2.004896
  H      2.451651   -2.306541    0.893431
  H      2.083367   -2.187604   -1.772013
  H      0.901256    0.022003   -2.044358
  H     -1.186457   -1.729560   -1.400818

 Total Charge           Charge          ....    0
 Multiplicity           Mult            ....    1
 Number of Electrons    NEL             ....   68
 Basis Dimension        Dim             ....  327

ORBITAL ENERGIES
----------------

  NO   OCC          E(Eh)            E(eV)
   0   2.0000     -20.581367      -560.0475
   1   2.0000     -20.576875      -559.9252
   2   2.0000     -20.559173      -559.4436
   3   2.0000     -11.302913      -307.5679
   4   2.0000     -11.300327      -307.4975
   5   2.0000     -11.299499      -307.4750
   6   2.0000     -11.298112      -307.4373
   7   2.0000     -11.295021      -307.3531
   8   2.0000     -11.233683      -305.6841
   9   2.0000      -1.446620       -39.3645
  10   2.0000      -1.406901       -38.2837
  11   2.0000      -1.364632       -37.1335
  12   2.0000      -1.057915       -28.7873
  13   2.0000      -1.003532       -27.3075
  14   2.0000      -0.960069       -26.1248
  15   2.0000      -0.874882       -23.8067
  16   2.0000      -0.816002       -22.2045
  17   2.0000      -0.795774       -21.6541
  18   2.0000      -0.747695       -20.3458
  19   2.0000      -0.683599       -18.6017
  20   2.0000      -0.652436       -17.7537
  21   2.0000      -0.638846       -17.3839
  22   2.0000      -0.625550       -17.0221
  23   2.0000      -0.599763       -16.3204
  24   2.0000      -0.580493       -15.7960
  25   2.0000      -0.561526       -15.2799
  26   2.0000      -0.557087       -15.1591
  27   2.0000      -0.528284       -14.3753
  28   2.0000      -0.510664       -13.8959
  29   2.0000      -0.500172       -13.6104
  30   2.0000      -0.494587       -13.4584
  31   2.0000      -0.442225       -12.0336
  32   2.0000      -0.424423       -11.5491
  33   2.0000      -0.409404       -11.1404
  34   0.0000       0.137238         3.7344
  35   0.0000       0.158014         4.2998
  36   0.0000       0.164031         4.4635
  37   0.0000       0.165528         4.5043
  38   0.0000       0.177905         4.8410

MULLIKEN ATOMIC CHARGES
-----------------------
   0 C :   -0.436089
   1 C :    0.167026
   2 O :   -0.320069
   3 C :   -0.010884
   4 C :   -0.003950
   5 O :   -0.313820
   6 C :    0.006381
   7 C :    0.097685
   8 O :   -0.465139
   9 H :    0.132398
  10 H :    0.155531
  11 H :    0.144822
  12 H :    0.134202
  13 H :    0.133699
  14 H :    0.133670
  15 H :    0.101562
  16 H :    0.342975
Sum of atomic charges:    0.0000000

LOEWDIN ATOMIC CHARGES
----------------------
   0 C :   -0.267028
   1 C :   -0.296709
   2 O :    0.195836
   3 C :   -0.220039
   4 C :   -0.237465
   5 O :    0.182854
   6 C :   -0.230489
   7 C :   -0.283634
   8 O :   -0.001487
   9 H :    0.131784
  10 H :    0.138469
  11 H :    0.134683
  12 H :    0.138780
  13 H :    0.137505
  14 H :    0.135269
  15 H :    0.153222
  16 H :    0.188450

  Mayer bond orders larger than 0.1
B(  0-C ,  1-C ) :   0.8826 B(  0-C ,  9-H ) :   0.9293 B(  0-C , 10-H ) :   0.9376
B(  0-C , 11-H ) :   0.9381 B(  1-C ,  2-O ) :   0.8795 B(  1-C ,  3-C ) :   0.9863
B(  1-C ,  7-C ) :   0.9149 B(  2-O ,  3-C ) :   0.8907 B(  3-C ,  4-C ) :   0.8804
B(  3-C , 12-H ) :   0.9087 B(  4-C ,  5-O ) :   0.9220 B(  4-C ,  6-C ) :   0.9777
B(  4-C , 13-H ) :   0.9218 B(  5-O ,  6-C ) :   0.8788 B(  6-C ,  7-C ) :   0.9272
B(  6-C , 14-H ) :   0.9236 B(  7-C ,  8-O ) :   0.9647 B(  7-C , 15-H ) :   0.9271
B(  8-O , 16-H ) :   0.8189

MP2 TOTAL ENERGY:     -458.193972896 Eh
FINAL SINGLE POINT ENERGY      -458.193972895797

DIPOLE MOMENT
-------------
                                X             Y             Z
Electronic contribution:     -0.49587      -5.46697       0.31148
Nuclear contribution   :      1.63675       6.21767       0.03003
                        -----------------------------------------
Total Dipole Moment    :      1.14088       0.75070       0.34151
                        -----------------------------------------
Magnitude (a.u.)       :      1.40776
Magnitude (Debye)      :      3.57825

                             ****ORCA TERMINATED NORMALLY****
TOTAL RUN TIME: 0 days 0 hours 16 minutes 47 seconds 990 msec
