                         Program Version 3.0.3 - RELEASE   -
|  1> ! RI-MP2 RIJK def2-TZVP def2-TZVP/C def2-TZVP/JK TIGHTSCF
|  2> % maxcore 2000
|  3> % mp2 density relaxed end
|  4> *xyz 0 1
|  5>  N       -0.0024463336     1.3288965269    -0.2252737035
|  6>  C        0.0312222116     0.0459758137     0.2265493033
|  7>  O        1.0213175730    -0.4993452085     0.6714975931
|  8>  C       -1.2473272980    -0.6500655016     0.1431229487
|  9>  C       -2.2659414700    -1.3079508785     0.1120734104
| 10>  C       -3.4093905533    -2.0294129729     0.0708820404
| 11>  C       -4.4383224187    -2.6740924626     0.0300972444
| 12>  C       -5.6629926698    -3.4318470214     0.0136828943
| 13>  O       -6.0943704372    -4.0004782858    -0.9626033491
| 14>  H        0.8539555938     1.8590338132    -0.2204234040
| 15>  H       -0.8329919532     1.7300907506    -0.6249948387
| 16>  H       -6.1922231245    -3.4542258030     0.9869172907
| 17> *
| 18>
| 19>                          ****END OF INPUT****

CARTESIAN COORDINATES (ANGSTROEM)
---------------------------------
  N     -0.002446    1.328897   -0.225274
  C      0.031222    0.045976    0.226549
  O      1.021318   -0.499345    0.671498
  C     -1.247327   -0.650066    0.143123
  C     -2.265941   -1.307951    0.112073
  C     -3.409391   -2.029413    0.070882
  C     -4.438322   -2.674092    0.030097
  C     -5.662993   -3.431847    0.013683
  O     -6.094370   -4.000478   -0.962603
  H      0.853956    1.859034   -0.220423
  H     -0.832992    1.730091   -0.624995
  H     -6.192223   -3.454226    0.986917

 Total Charge           Charge          ....    0
 Multiplicity           Mult            ....    1
 Number of Electrons    NEL             ....   62
 Basis Dimension        Dim             ....  297

ORBITAL ENERGIES
----------------

  NO   OCC          E(Eh)            E(eV)
   0   2.0000     -20.589626      -560.2722
   1   2.0000     -20.549415      -559.1780
   2   2.0000     -15.612103      -424.8269
   3   2.0000     -11.402256      -310.2712
   4   2.0000     -11.379097      -309.6410
   5   2.0000     -11.305420      -307.6361
   6   2.0000     -11.300710      -307.5079
   7   2.0000     -11.291791      -307.2653
   8   2.0000     -11.289663      -307.2074
   9   2.0000      -1.423840       -38.7446
  10   2.0000      -1.413819       -38.4720
  11   2.0000      -1.243263       -33.8309
  12   2.0000      -1.132067       -30.8051
  13   2.0000      -1.069845       -29.1120
  14   2.0000      -0.961024       -26.1508
  15   2.0000      -0.908046       -24.7092
  16   2.0000      -0.836131       -22.7523
  17   2.0000      -0.778348       -21.1799
  18   2.0000      -0.739151       -20.1133
  19   2.0000      -0.715661       -19.4741
  20   2.0000      -0.678079       -18.4515
  21   2.0000      -0.642449       -17.4819
  22   2.0000      -0.613275       -16.6881
  23   2.0000      -0.578846       -15.7512
  24   2.0000      -0.518490       -14.1088
  25   2.0000      -0.514891       -14.0109
  26   2.0000      -0.475947       -12.9512
  27   2.0000      -0.472931       -12.8691
  28   2.0000      -0.441711       -12.0196
  29   2.0000      -0.394281       -10.7289
  30   2.0000      -0.393010       -10.6944
  31   0.0000       0.030640         0.8337
  32   0.0000       0.052398         1.4258
  33   0.0000       0.115932         3.1547
  34   0.0000       0.145743         3.9659
  35   0.0000       0.158857         4.3227

MULLIKEN ATOMIC CHARGES
-----------------------
   0 N :   -0.466130
   1 C :    0.251850
   2 O :   -0.301909
   3 C :    0.009492
   4 C :   -0.017980
   5 C :   -0.002180
   6 C :    0.045116
   7 C :    0.059892
   8 O :   -0.237838
   9 H :    0.270454
  10 H :    0.272277
  11 H :    0.116955
Sum of atomic charges:    0.0000000

LOEWDIN ATOMIC CHARGES
----------------------
   0 N :    0.006729
   1 C :   -0.483473
   2 O :    0.123882
   3 C :    0.038266
   4 C :   -0.027470
   5 C :   -0.018391
   6 C :   -0.001857
   7 C :   -0.288557
   8 O :    0.162802
   9 H :    0.180112
  10 H :    0.179214
  11 H :    0.128743

  Mayer bond orders larger than 0.1
B(  0-N ,  1-C ) :   1.2418 B(  0-N ,  3-C ) :  -0.1015 B(  0-N ,  9-H ) :   0.8563
B(  0-N , 10-H ) :   0.8648 B(  1-C ,  2-O ) :   2.0216 B(  1-C ,  3-C ) :   0.8319
B(  3-C ,  4-C ) :   2.6084 B(  3-C ,  6-C ) :   0.1087 B(  4-C ,  5-C ) :   1.3053
B(  5-C ,  6-C ) :   2.5704 B(  6-C ,  7-C ) :   0.8154 B(  6-C , 11-H ) :  -0.1010
B(  7-C ,  8-O ) :   2.0016 B(  7-C , 11-H ) :   0.9973

MP2 TOTAL ENERGY:     -434.718139283 Eh
FINAL SINGLE POINT ENERGY      -434.718139283335

DIPOLE MOMENT
-------------
                                X             Y             Z
Electronic contribution:     -1.28364      -2.59012      -0.03526
Nuclear contribution   :      0.99526       4.16007       0.13913
                        -----------------------------------------
Total Dipole Moment    :     -0.28837       1.56995       0.10387
                        -----------------------------------------
Magnitude (a.u.)       :      1.59959
Magnitude (Debye)      :      4.06584

                             ****ORCA TERMINATED NORMALLY****
TOTAL RUN TIME: 0 days 0 hours 10 minutes 12 seconds 581 msec
