                         Program Version 3.0.3 - RELEASE   -
|  1> ! RI-MP2 RIJK def2-TZVP def2-TZVP/C def2-TZVP/JK TIGHTSCF
|  2> % maxcore 2000
|  3> % mp2 density relaxed end
|  4> *xyz 0 1
|  5>  O       -0.7301324338     0.9351367354     0.6872773841
|  6>  C        0.2167262659     0.8170678857    -0.0506503220
|  7>  C        1.3918588838     1.7437058280    -0.0591016728
|  8>  C        1.5157248873     2.8225810117     1.0471531711
|  9>  N        1.8038389440     3.8750062371     0.0346321322
| 10>  C        1.5298186077     2.9515567825    -1.0813746848
| 11>  C        2.8422324316     2.2501415287    -1.5355451960
| 12>  O        3.7343397999     2.4873884122    -2.2953530653
| 13>  N        2.6205007460     1.2106739452    -0.6391628789
| 14>  H        0.2750456230     0.0093947067    -0.8129855295
| 15>  H        0.5563524810     2.9389498781     1.5598435160
| 16>  H        2.3132746855     2.6765220408     1.7816926643
| 17>  H        1.1726677543     4.6649302985     0.0731462279
| 18>  H        0.7848527379     3.2317228944    -1.8263303866
| 19>  H        3.2924335258     0.5712558250    -0.2355000997
| 20> *
| 21>
| 22>                          ****END OF INPUT****

CARTESIAN COORDINATES (ANGSTROEM)
---------------------------------
  O     -0.730132    0.935137    0.687277
  C      0.216726    0.817068   -0.050650
  C      1.391859    1.743706   -0.059102
  C      1.515725    2.822581    1.047153
  N      1.803839    3.875006    0.034632
  C      1.529819    2.951557   -1.081375
  C      2.842232    2.250142   -1.535545
  O      3.734340    2.487388   -2.295353
  N      2.620501    1.210674   -0.639163
  H      0.275046    0.009395   -0.812986
  H      0.556352    2.938950    1.559844
  H      2.313275    2.676522    1.781693
  H      1.172668    4.664930    0.073146
  H      0.784853    3.231723   -1.826330
  H      3.292434    0.571256   -0.235500

 Total Charge           Charge          ....    0
 Multiplicity           Mult            ....    1
 Number of Electrons    NEL             ....   66
 Basis Dimension        Dim             ....  315

ORBITAL ENERGIES
----------------

  NO   OCC          E(Eh)            E(eV)
   0   2.0000     -20.580319      -560.0190
   1   2.0000     -20.545504      -559.0716
   2   2.0000     -15.607230      -424.6943
   3   2.0000     -15.576238      -423.8510
   4   2.0000     -11.367964      -309.3380
   5   2.0000     -11.352945      -308.9293
   6   2.0000     -11.308619      -307.7232
   7   2.0000     -11.307811      -307.7012
   8   2.0000     -11.281302      -306.9798
   9   2.0000      -1.418924       -38.6109
  10   2.0000      -1.408402       -38.3246
  11   2.0000      -1.316210       -35.8159
  12   2.0000      -1.221427       -33.2367
  13   2.0000      -1.010237       -27.4899
  14   2.0000      -0.979424       -26.6515
  15   2.0000      -0.905477       -24.6393
  16   2.0000      -0.803219       -21.8567
  17   2.0000      -0.771423       -20.9915
  18   2.0000      -0.735794       -20.0220
  19   2.0000      -0.712972       -19.4010
  20   2.0000      -0.684585       -18.6285
  21   2.0000      -0.665340       -18.1048
  22   2.0000      -0.621656       -16.9161
  23   2.0000      -0.611330       -16.6351
  24   2.0000      -0.604384       -16.4461
  25   2.0000      -0.567472       -15.4417
  26   2.0000      -0.543421       -14.7872
  27   2.0000      -0.541633       -14.7386
  28   2.0000      -0.482129       -13.1194
  29   2.0000      -0.460908       -12.5419
  30   2.0000      -0.455119       -12.3844
  31   2.0000      -0.412633       -11.2283
  32   2.0000      -0.391962       -10.6658
  33   0.0000       0.091535         2.4908
  34   0.0000       0.122421         3.3313
  35   0.0000       0.131200         3.5701
  36   0.0000       0.165116         4.4930
  37   0.0000       0.171994         4.6802

MULLIKEN ATOMIC CHARGES
-----------------------
   0 O :   -0.265149
   1 C :    0.058243
   2 C :    0.169656
   3 C :   -0.155290
   4 N :   -0.345370
   5 C :   -0.013117
   6 C :    0.202178
   7 O :   -0.281050
   8 N :   -0.338145
   9 H :    0.100215
  10 H :    0.152923
  11 H :    0.108200
  12 H :    0.219932
  13 H :    0.143514
  14 H :    0.243261
Sum of atomic charges:    0.0000000

LOEWDIN ATOMIC CHARGES
----------------------
   0 O :    0.141890
   1 C :   -0.268401
   2 C :   -0.259065
   3 C :   -0.215902
   4 N :    0.004073
   5 C :   -0.152932
   6 C :   -0.407354
   7 O :    0.133622
   8 N :    0.159953
   9 H :    0.120560
  10 H :    0.135964
  11 H :    0.126043
  12 H :    0.165680
  13 H :    0.138849
  14 H :    0.177020

  Mayer bond orders larger than 0.1
B(  0-O ,  1-C ) :   1.9749 B(  1-C ,  2-C ) :   0.8808 B(  1-C ,  9-H ) :   0.9411
B(  2-C ,  3-C ) :   0.9245 B(  2-C ,  5-C ) :   0.8270 B(  2-C ,  8-N ) :   0.8850
B(  3-C ,  4-N ) :   0.9567 B(  3-C , 10-H ) :   0.8991 B(  3-C , 11-H ) :   0.9073
B(  4-N ,  5-C ) :   0.9768 B(  4-N , 12-H ) :   0.8726 B(  5-C ,  6-C ) :   0.8224
B(  5-C , 13-H ) :   0.8871 B(  6-C ,  7-O ) :   2.0473 B(  6-C ,  8-N ) :   1.1387
B(  8-N , 14-H ) :   0.8517

MP2 TOTAL ENERGY:     -453.192822073 Eh
FINAL SINGLE POINT ENERGY      -453.192822072851

DIPOLE MOMENT
-------------
                                X             Y             Z
Electronic contribution:      0.96963      -1.51551      -2.32518
Nuclear contribution   :     -1.43058       1.28178       2.89909
                        -----------------------------------------
Total Dipole Moment    :     -0.46095      -0.23373       0.57391
                        -----------------------------------------
Magnitude (a.u.)       :      0.77232
Magnitude (Debye)      :      1.96307

                             ****ORCA TERMINATED NORMALLY****
TOTAL RUN TIME: 0 days 0 hours 15 minutes 14 seconds 310 msec
