                         Program Version 3.0.3 - RELEASE   -
|  1> ! RI-MP2 RIJK def2-TZVP def2-TZVP/C def2-TZVP/JK TIGHTSCF
|  2> % maxcore 2000
|  3> % mp2 density relaxed end
|  4> *xyz 0 1
|  5>  C       -0.2379471822     1.5172201889     0.0249592627
|  6>  C       -0.0024111501     0.0402128439     0.0043841149
|  7>  C        0.0496052114    -0.8017707718    -1.0590440424
|  8>  O        0.2825154906    -2.0628629432    -0.6679226857
|  9>  N        0.3936150093    -2.0828194430     0.7181566274
| 10>  C        0.2254832887    -0.8407279646     1.1141483976
| 11>  C        0.2781480724    -0.4748582248     2.5441234098
| 12>  C       -0.2464629718    -1.4338851051     3.5975700001
| 13>  C        1.2279367599    -1.1968835192     3.4827064315
| 14>  H        0.6059776385     2.0555446903     0.4707774097
| 15>  H       -0.3786115720     1.9045119985    -0.9875413787
| 16>  H       -1.1304596394     1.7767416448     0.6053405150
| 17>  H       -0.0574908608    -0.6505778743    -2.1226746356
| 18>  H        0.1231169418     0.5815002971     2.7327258091
| 19>  H       -0.7784970546    -1.0094463978     4.4417283415
| 20>  H       -0.6352567401    -2.3775498769     3.2333464356
| 21>  H        1.8318593089    -1.9808977782     3.0412060788
| 22>  H        1.7222145697    -0.6073185049     4.2468423486
| 23> *
| 24>
| 25>                          ****END OF INPUT****

CARTESIAN COORDINATES (ANGSTROEM)
---------------------------------
  C     -0.237947    1.517220    0.024959
  C     -0.002411    0.040213    0.004384
  C      0.049605   -0.801771   -1.059044
  O      0.282515   -2.062863   -0.667923
  N      0.393615   -2.082819    0.718157
  C      0.225483   -0.840728    1.114148
  C      0.278148   -0.474858    2.544123
  C     -0.246463   -1.433885    3.597570
  C      1.227937   -1.196884    3.482706
  H      0.605978    2.055545    0.470777
  H     -0.378612    1.904512   -0.987541
  H     -1.130460    1.776742    0.605341
  H     -0.057491   -0.650578   -2.122675
  H      0.123117    0.581500    2.732726
  H     -0.778497   -1.009446    4.441728
  H     -0.635257   -2.377550    3.233346
  H      1.831859   -1.980898    3.041206
  H      1.722215   -0.607319    4.246842

 Total Charge           Charge          ....    0
 Multiplicity           Mult            ....    1
 Number of Electrons    NEL             ....   66
 Basis Dimension        Dim             ....  333

ORBITAL ENERGIES
----------------

  NO   OCC          E(Eh)            E(eV)
   0   2.0000     -20.632151      -561.4294
   1   2.0000     -15.603688      -424.5979
   2   2.0000     -11.301937      -307.5413
   3   2.0000     -11.277694      -306.8816
   4   2.0000     -11.246981      -306.0459
   5   2.0000     -11.240473      -305.8688
   6   2.0000     -11.238554      -305.8166
   7   2.0000     -11.234476      -305.7056
   8   2.0000     -11.233786      -305.6869
   9   2.0000      -1.481936       -40.3255
  10   2.0000      -1.184148       -32.2223
  11   2.0000      -1.121609       -30.5205
  12   2.0000      -1.087148       -29.5828
  13   2.0000      -0.958938       -26.0940
  14   2.0000      -0.886085       -24.1116
  15   2.0000      -0.827665       -22.5219
  16   2.0000      -0.806375       -21.9426
  17   2.0000      -0.753749       -20.5105
  18   2.0000      -0.704444       -19.1689
  19   2.0000      -0.666082       -18.1250
  20   2.0000      -0.650998       -17.7145
  21   2.0000      -0.619931       -16.8692
  22   2.0000      -0.594050       -16.1649
  23   2.0000      -0.579557       -15.7705
  24   2.0000      -0.569725       -15.5030
  25   2.0000      -0.537268       -14.6198
  26   2.0000      -0.524168       -14.2633
  27   2.0000      -0.523182       -14.2365
  28   2.0000      -0.471060       -12.8182
  29   2.0000      -0.467493       -12.7211
  30   2.0000      -0.432335       -11.7644
  31   2.0000      -0.371665       -10.1135
  32   2.0000      -0.351754        -9.5717
  33   0.0000       0.123894         3.3713
  34   0.0000       0.130750         3.5579
  35   0.0000       0.161654         4.3988
  36   0.0000       0.171357         4.6629
  37   0.0000       0.175769         4.7829

MULLIKEN ATOMIC CHARGES
-----------------------
   0 C :   -0.423285
   1 C :   -0.101948
   2 C :   -0.006333
   3 O :   -0.116089
   4 N :   -0.129033
   5 C :    0.088087
   6 C :   -0.113396
   7 C :   -0.250877
   8 C :   -0.250810
   9 H :    0.152200
  10 H :    0.144084
  11 H :    0.152204
  12 H :    0.154419
  13 H :    0.133570
  14 H :    0.131916
  15 H :    0.151711
  16 H :    0.151691
  17 H :    0.131891
Sum of atomic charges:   -0.0000000

LOEWDIN ATOMIC CHARGES
----------------------
   0 C :   -0.268481
   1 C :   -0.195647
   2 C :   -0.248263
   3 O :    0.273201
   4 N :    0.056379
   5 C :   -0.242875
   6 C :   -0.189769
   7 C :   -0.211125
   8 C :   -0.211158
   9 H :    0.133762
  10 H :    0.134262
  11 H :    0.133767
  12 H :    0.138043
  13 H :    0.154797
  14 H :    0.131120
  15 H :    0.140434
  16 H :    0.140429
  17 H :    0.131126

  Mayer bond orders larger than 0.1
B(  0-C ,  1-C ) :   0.8600 B(  0-C ,  9-H ) :   0.9379 B(  0-C , 10-H ) :   0.9379
B(  0-C , 11-H ) :   0.9378 B(  1-C ,  2-C ) :   1.5482 B(  1-C ,  5-C ) :   1.1759
B(  2-C ,  3-O ) :   1.1178 B(  2-C ,  4-N ) :   0.1021 B(  2-C , 12-H ) :   0.9199
B(  3-O ,  4-N ) :   0.8800 B(  4-N ,  5-C ) :   1.5642 B(  5-C ,  6-C ) :   0.9464
B(  6-C ,  7-C ) :   0.8462 B(  6-C ,  8-C ) :   0.8462 B(  6-C , 13-H ) :   0.9300
B(  7-C ,  8-C ) :   0.9118 B(  7-C , 14-H ) :   0.9303 B(  7-C , 15-H ) :   0.9279
B(  8-C , 16-H ) :   0.9279 B(  8-C , 17-H ) :   0.9303

MP2 TOTAL ENERGY:     -401.235393198 Eh
FINAL SINGLE POINT ENERGY      -401.235393198380

DIPOLE MOMENT
-------------
                                X             Y             Z
Electronic contribution:      0.42906      -5.39342      -5.59728
Nuclear contribution   :     -0.61959       6.59783       5.63139
                        -----------------------------------------
Total Dipole Moment    :     -0.19052       1.20442       0.03412
                        -----------------------------------------
Magnitude (a.u.)       :      1.21987
Magnitude (Debye)      :      3.10067

                             ****ORCA TERMINATED NORMALLY****
TOTAL RUN TIME: 0 days 0 hours 18 minutes 18 seconds 282 msec
