                         Program Version 3.0.3 - RELEASE   -
|  1> ! RI-MP2 RIJK def2-TZVP def2-TZVP/C def2-TZVP/JK TIGHTSCF
|  2> % maxcore 2000
|  3> % mp2 density relaxed end
|  4> *xyz 0 1
|  5>  C       -0.5821210523     1.3114006923     0.0144447943
|  6>  O        0.8439713860     1.1648734047    -0.0003227805
|  7>  C        0.0445741782    -0.0136353126     0.0013550138
|  8>  C        0.0985352126    -0.9161623566     1.2402049586
|  9>  C       -0.4004505991    -2.2504430394     0.7296129000
| 10>  O       -1.6363175296    -2.1570443742     0.0066291265
| 11>  C       -0.4148916388    -2.2427378663    -0.7414172895
| 12>  C        0.0741113889    -0.9031310044    -1.2477021628
| 13>  H       -1.0015174644     1.7028817651     0.9406189032
| 14>  H       -1.0195800253     1.7125139124    -0.8991672814
| 15>  H        1.1355029642    -1.0119062430     1.5852109164
| 16>  H       -0.4963915029    -0.5254796161     2.0705459438
| 17>  H       -0.2674851450    -3.1573268315     1.3134003743
| 18>  H       -0.2935070027    -3.1434440286    -1.3371688060
| 19>  H       -0.5369604633    -0.5038323269    -2.0620660464
| 20>  H        1.1040968835    -0.9951489150    -1.6139818042
| 21> *
| 22>
| 23>                          ****END OF INPUT****

CARTESIAN COORDINATES (ANGSTROEM)
---------------------------------
  C     -0.582121    1.311401    0.014445
  O      0.843971    1.164873   -0.000323
  C      0.044574   -0.013635    0.001355
  C      0.098535   -0.916162    1.240205
  C     -0.400451   -2.250443    0.729613
  O     -1.636318   -2.157044    0.006629
  C     -0.414892   -2.242738   -0.741417
  C      0.074111   -0.903131   -1.247702
  H     -1.001517    1.702882    0.940619
  H     -1.019580    1.712514   -0.899167
  H      1.135503   -1.011906    1.585211
  H     -0.496392   -0.525480    2.070546
  H     -0.267485   -3.157327    1.313400
  H     -0.293507   -3.143444   -1.337169
  H     -0.536960   -0.503832   -2.062066
  H      1.104097   -0.995149   -1.613982

 Total Charge           Charge          ....    0
 Multiplicity           Mult            ....    1
 Number of Electrons    NEL             ....   60
 Basis Dimension        Dim             ....  296

ORBITAL ENERGIES
----------------

  NO   OCC          E(Eh)            E(eV)
   0   2.0000     -20.570021      -559.7387
   1   2.0000     -20.566952      -559.6552
   2   2.0000     -11.296458      -307.3922
   3   2.0000     -11.291047      -307.2450
   4   2.0000     -11.290253      -307.2234
   5   2.0000     -11.280814      -306.9666
   6   2.0000     -11.238283      -305.8092
   7   2.0000     -11.238263      -305.8087
   8   2.0000      -1.419743       -38.6332
   9   2.0000      -1.410067       -38.3699
  10   2.0000      -1.085513       -29.5383
  11   2.0000      -0.996452       -27.1148
  12   2.0000      -0.925162       -25.1749
  13   2.0000      -0.885528       -24.0964
  14   2.0000      -0.803049       -21.8521
  15   2.0000      -0.774515       -21.0756
  16   2.0000      -0.722344       -19.6560
  17   2.0000      -0.667167       -18.1545
  18   2.0000      -0.648321       -17.6417
  19   2.0000      -0.619180       -16.8488
  20   2.0000      -0.595546       -16.2056
  21   2.0000      -0.595408       -16.2019
  22   2.0000      -0.542537       -14.7632
  23   2.0000      -0.534631       -14.5480
  24   2.0000      -0.523439       -14.2435
  25   2.0000      -0.498599       -13.5676
  26   2.0000      -0.448838       -12.2135
  27   2.0000      -0.441459       -12.0127
  28   2.0000      -0.437442       -11.9034
  29   2.0000      -0.416742       -11.3401
  30   0.0000       0.141707         3.8560
  31   0.0000       0.163841         4.4583
  32   0.0000       0.166549         4.5320
  33   0.0000       0.184651         5.0246
  34   0.0000       0.189692         5.1618

MULLIKEN ATOMIC CHARGES
-----------------------
   0 C :   -0.101855
   1 O :   -0.336557
   2 C :    0.157529
   3 C :   -0.175287
   4 C :   -0.015656
   5 O :   -0.325848
   6 C :   -0.015656
   7 C :   -0.175287
   8 H :    0.114465
   9 H :    0.114465
  10 H :    0.122635
  11 H :    0.126933
  12 H :    0.130275
  13 H :    0.130275
  14 H :    0.126933
  15 H :    0.122635
Sum of atomic charges:    0.0000000

LOEWDIN ATOMIC CHARGES
----------------------
   0 C :   -0.237148
   1 O :    0.163211
   2 C :   -0.303995
   3 C :   -0.194299
   4 C :   -0.254798
   5 O :    0.166277
   6 C :   -0.254798
   7 C :   -0.194299
   8 H :    0.120734
   9 H :    0.120734
  10 H :    0.152943
  11 H :    0.146216
  12 H :    0.135032
  13 H :    0.135032
  14 H :    0.146216
  15 H :    0.152943

  Mayer bond orders larger than 0.1
B(  0-C ,  1-O ) :   0.8897 B(  0-C ,  2-C ) :   0.9789 B(  0-C ,  8-H ) :   0.9136
B(  0-C ,  9-H ) :   0.9136 B(  1-O ,  2-C ) :   0.9198 B(  2-C ,  3-C ) :   0.9133
B(  2-C ,  7-C ) :   0.9133 B(  3-C ,  4-C ) :   0.9188 B(  3-C , 10-H ) :   0.9059
B(  3-C , 11-H ) :   0.9125 B(  4-C ,  5-O ) :   0.9178 B(  4-C ,  6-C ) :   0.9368
B(  4-C , 12-H ) :   0.9275 B(  5-O ,  6-C ) :   0.9178 B(  6-C ,  7-C ) :   0.9188
B(  6-C , 13-H ) :   0.9275 B(  7-C , 14-H ) :   0.9125 B(  7-C , 15-H ) :   0.9059

MP2 TOTAL ENERGY:     -383.076381244 Eh
FINAL SINGLE POINT ENERGY      -383.076381243865

DIPOLE MOMENT
-------------
                                X             Y             Z
Electronic contribution:     -0.48231      -0.29969       0.00317
Nuclear contribution   :      0.59519      -0.05491      -0.00613
                        -----------------------------------------
Total Dipole Moment    :      0.11288      -0.35461      -0.00296
                        -----------------------------------------
Magnitude (a.u.)       :      0.37215
Magnitude (Debye)      :      0.94594

                             ****ORCA TERMINATED NORMALLY****
TOTAL RUN TIME: 0 days 0 hours 10 minutes 59 seconds 671 msec
