                         Program Version 3.0.3 - RELEASE   -
|  1> ! RI-MP2 RIJK def2-TZVP def2-TZVP/C def2-TZVP/JK TIGHTSCF
|  2> % maxcore 2000
|  3> % mp2 density relaxed end
|  4> *xyz 0 1
|  5>  C        0.0025014585     1.4797098960     0.0960172231
|  6>  C        0.0335104877    -0.0372454878     0.0177682850
|  7>  C        0.6944310719    -0.5560734238    -1.2606919084
|  8>  O        0.7858138922    -1.9706806188    -1.2547449474
|  9>  C        1.5074623944    -2.4273813384    -0.1193301942
| 10>  C        0.8786982173    -1.9120463293     1.1526630541
| 11>  C       -0.2010906677    -2.6947310365     1.8583810642
| 12>  C        1.1753513879    -2.5299315684     2.4778300080
| 13>  O        0.7666866523    -0.5112393314     1.1528879402
| 14>  H        1.0163435122     1.8886982329     0.0455277733
| 15>  H       -0.5846121131     1.8972756342    -0.7276098007
| 16>  H       -0.4469920252     1.8000647788     1.0394908427
| 17>  H       -0.9896687190    -0.4438329743     0.0627345124
| 18>  H        0.1043724985    -0.2835886747    -2.1410171240
| 19>  H        1.6981618115    -0.1066116029    -1.3551034215
| 20>  H        1.4966589995    -3.5200905805    -0.1559632204
| 21>  H        2.5539054123    -2.0820249704    -0.1749378340
| 22>  H       -1.0106262726    -2.1243145845     2.2992294335
| 23>  H       -0.4839711844    -3.6664370376     1.4681480484
| 24>  H        1.8389607409    -3.3876295523     2.5133723935
| 25>  H        1.2667404751    -1.8479568503     3.3154956921
| 26> *
| 27>
| 28>                          ****END OF INPUT****

CARTESIAN COORDINATES (ANGSTROEM)
---------------------------------
  C      0.002501    1.479710    0.096017
  C      0.033510   -0.037245    0.017768
  C      0.694431   -0.556073   -1.260692
  O      0.785814   -1.970681   -1.254745
  C      1.507462   -2.427381   -0.119330
  C      0.878698   -1.912046    1.152663
  C     -0.201091   -2.694731    1.858381
  C      1.175351   -2.529932    2.477830
  O      0.766687   -0.511239    1.152888
  H      1.016344    1.888698    0.045528
  H     -0.584612    1.897276   -0.727610
  H     -0.446992    1.800065    1.039491
  H     -0.989669   -0.443833    0.062735
  H      0.104372   -0.283589   -2.141017
  H      1.698162   -0.106612   -1.355103
  H      1.496659   -3.520091   -0.155963
  H      2.553905   -2.082025   -0.174938
  H     -1.010626   -2.124315    2.299229
  H     -0.483971   -3.666437    1.468148
  H      1.838961   -3.387630    2.513372
  H      1.266740   -1.847957    3.315496

 Total Charge           Charge          ....    0
 Multiplicity           Mult            ....    1
 Number of Electrons    NEL             ....   70
 Basis Dimension        Dim             ....  351

ORBITAL ENERGIES
----------------

  NO   OCC          E(Eh)            E(eV)
   0   2.0000     -20.558707      -559.4309
   1   2.0000     -20.556314      -559.3657
   2   2.0000     -11.284038      -307.0543
   3   2.0000     -11.280071      -306.9463
   4   2.0000     -11.277125      -306.8662
   5   2.0000     -11.273672      -306.7722
   6   2.0000     -11.227096      -305.5048
   7   2.0000     -11.225140      -305.4516
   8   2.0000     -11.219025      -305.2852
   9   2.0000      -1.400961       -38.1221
  10   2.0000      -1.358923       -36.9782
  11   2.0000      -1.141576       -31.0639
  12   2.0000      -1.040347       -28.3093
  13   2.0000      -0.964278       -26.2393
  14   2.0000      -0.905477       -24.6393
  15   2.0000      -0.841145       -22.8887
  16   2.0000      -0.817501       -22.2453
  17   2.0000      -0.759505       -20.6672
  18   2.0000      -0.688165       -18.7259
  19   2.0000      -0.681991       -18.5579
  20   2.0000      -0.658929       -17.9304
  21   2.0000      -0.648862       -17.6564
  22   2.0000      -0.599440       -16.3116
  23   2.0000      -0.597499       -16.2588
  24   2.0000      -0.565855       -15.3977
  25   2.0000      -0.559436       -15.2230
  26   2.0000      -0.537018       -14.6130
  27   2.0000      -0.529426       -14.4064
  28   2.0000      -0.528591       -14.3837
  29   2.0000      -0.516532       -14.0556
  30   2.0000      -0.475130       -12.9289
  31   2.0000      -0.457572       -12.4512
  32   2.0000      -0.437837       -11.9141
  33   2.0000      -0.400490       -10.8979
  34   2.0000      -0.384725       -10.4689
  35   0.0000       0.140874         3.8334
  36   0.0000       0.156869         4.2686
  37   0.0000       0.162836         4.4310
  38   0.0000       0.177187         4.8215
  39   0.0000       0.187417         5.0999

MULLIKEN ATOMIC CHARGES
-----------------------
   0 C :   -0.370089
   1 C :    0.076589
   2 C :   -0.068166
   3 O :   -0.309610
   4 C :   -0.032763
   5 C :    0.162545
   6 C :   -0.309869
   7 C :   -0.271523
   8 O :   -0.292438
   9 H :    0.130785
  10 H :    0.126073
  11 H :    0.140468
  12 H :    0.069740
  13 H :    0.123924
  14 H :    0.086747
  15 H :    0.119319
  16 H :    0.087966
  17 H :    0.133049
  18 H :    0.131219
  19 H :    0.132396
  20 H :    0.133637
Sum of atomic charges:   -0.0000000

LOEWDIN ATOMIC CHARGES
----------------------
   0 C :   -0.289272
   1 C :   -0.342817
   2 C :   -0.302379
   3 O :    0.155155
   4 C :   -0.276358
   5 C :   -0.355673
   6 C :   -0.209596
   7 C :   -0.201428
   8 O :    0.228862
   9 H :    0.127338
  10 H :    0.128134
  11 H :    0.128862
  12 H :    0.139066
  13 H :    0.133759
  14 H :    0.124447
  15 H :    0.137590
  16 H :    0.128139
  17 H :    0.137148
  18 H :    0.133321
  19 H :    0.135068
  20 H :    0.140634

  Mayer bond orders larger than 0.1
B(  0-C ,  1-C ) :   0.9088 B(  0-C ,  9-H ) :   0.9321 B(  0-C , 10-H ) :   0.9328
B(  0-C , 11-H ) :   0.9349 B(  1-C ,  2-C ) :   0.9489 B(  1-C ,  8-O ) :   0.9075
B(  1-C , 12-H ) :   0.9178 B(  2-C ,  3-O ) :   0.9381 B(  2-C , 13-H ) :   0.9166
B(  2-C , 14-H ) :   0.9261 B(  3-O ,  4-C ) :   0.9425 B(  4-C ,  5-C ) :   0.9542
B(  4-C , 15-H ) :   0.9088 B(  4-C , 16-H ) :   0.9226 B(  5-C ,  6-C ) :   0.8658
B(  5-C ,  7-C ) :   0.8608 B(  5-C ,  8-O ) :   0.9973 B(  6-C ,  7-C ) :   0.9271
B(  6-C , 17-H ) :   0.9193 B(  6-C , 18-H ) :   0.9172 B(  7-C , 19-H ) :   0.9243
B(  7-C , 20-H ) :   0.9112

MP2 TOTAL ENERGY:     -423.507918859 Eh
FINAL SINGLE POINT ENERGY      -423.507918859003

DIPOLE MOMENT
-------------
                                X             Y             Z
Electronic contribution:      0.94380      -2.44903      -0.87314
Nuclear contribution   :     -1.00519       2.55147       0.93267
                        -----------------------------------------
Total Dipole Moment    :     -0.06139       0.10244       0.05953
                        -----------------------------------------
Magnitude (a.u.)       :      0.13344
Magnitude (Debye)      :      0.33918

                             ****ORCA TERMINATED NORMALLY****
TOTAL RUN TIME: 0 days 0 hours 17 minutes 49 seconds 216 msec
