                         Program Version 3.0.3 - RELEASE   -
|  1> ! RI-MP2 RIJK def2-TZVP def2-TZVP/C def2-TZVP/JK TIGHTSCF
|  2> % maxcore 2000
|  3> % mp2 density relaxed end
|  4> *xyz 0 1
|  5>  O       -0.0121001503    -0.0014743542     0.0015816137
|  6>  C       -0.0073461696     1.1994545269     0.0087688376
|  7>  C        1.3168828928     1.9899884653    -0.0006827204
|  8>  O        2.3961031845     1.4311960753    -0.0155582220
|  9>  C        1.2017613295     3.4452203535     0.0091735659
| 10>  N        0.0941414863     4.1789769975     0.0253611077
| 11>  C        0.5143852768     5.4722241589     0.0285490240
| 12>  C        1.8973083184     5.5316738330     0.0141038977
| 13>  N        2.3154251438     4.2379548322     0.0019225523
| 14>  H       -0.9291108350     1.8103446462     0.0222733074
| 15>  H       -0.1816335325     6.2970243025     0.0408980344
| 16>  H        2.5854787032     6.3608620179     0.0116627988
| 17>  H        3.2578961822     3.8791491650    -0.0103146971
| 18> *
| 19>
| 20>                          ****END OF INPUT****

CARTESIAN COORDINATES (ANGSTROEM)
---------------------------------
  O     -0.012100   -0.001474    0.001582
  C     -0.007346    1.199455    0.008769
  C      1.316883    1.989988   -0.000683
  O      2.396103    1.431196   -0.015558
  C      1.201761    3.445220    0.009174
  N      0.094141    4.178977    0.025361
  C      0.514385    5.472224    0.028549
  C      1.897308    5.531674    0.014104
  N      2.315425    4.237955    0.001923
  H     -0.929111    1.810345    0.022273
  H     -0.181634    6.297024    0.040898
  H      2.585479    6.360862    0.011663
  H      3.257896    3.879149   -0.010315

 Total Charge           Charge          ....    0
 Multiplicity           Mult            ....    1
 Number of Electrons    NEL             ....   64
 Basis Dimension        Dim             ....  303

ORBITAL ENERGIES
----------------

  NO   OCC          E(Eh)            E(eV)
   0   2.0000     -20.585900      -560.1708
   1   2.0000     -20.583596      -560.1081
   2   2.0000     -15.653990      -425.9667
   3   2.0000     -15.591936      -424.2781
   4   2.0000     -11.366141      -309.2884
   5   2.0000     -11.349882      -308.8460
   6   2.0000     -11.324050      -308.1431
   7   2.0000     -11.301260      -307.5229
   8   2.0000     -11.275115      -306.8115
   9   2.0000      -1.434786       -39.0425
  10   2.0000      -1.406785       -38.2806
  11   2.0000      -1.374372       -37.3986
  12   2.0000      -1.206742       -32.8371
  13   2.0000      -1.065215       -28.9860
  14   2.0000      -0.961787       -26.1715
  15   2.0000      -0.863855       -23.5067
  16   2.0000      -0.846858       -23.0442
  17   2.0000      -0.805260       -21.9122
  18   2.0000      -0.753668       -20.5083
  19   2.0000      -0.690770       -18.7968
  20   2.0000      -0.674043       -18.3416
  21   2.0000      -0.646244       -17.5852
  22   2.0000      -0.642964       -17.4960
  23   2.0000      -0.633352       -17.2344
  24   2.0000      -0.615526       -16.7493
  25   2.0000      -0.578491       -15.7415
  26   2.0000      -0.520957       -14.1760
  27   2.0000      -0.510304       -13.8861
  28   2.0000      -0.484796       -13.1920
  29   2.0000      -0.436662       -11.8822
  30   2.0000      -0.426048       -11.5933
  31   2.0000      -0.347886        -9.4664
  32   0.0000       0.026576         0.7232
  33   0.0000       0.127976         3.4824
  34   0.0000       0.137661         3.7460
  35   0.0000       0.163240         4.4420
  36   0.0000       0.166861         4.5405

MULLIKEN ATOMIC CHARGES
-----------------------
   0 O :   -0.217964
   1 C :    0.066260
   2 C :    0.200797
   3 O :   -0.295098
   4 C :    0.179781
   5 N :   -0.294038
   6 C :   -0.072806
   7 C :   -0.060220
   8 N :   -0.233132
   9 H :    0.133540
  10 H :    0.150282
  11 H :    0.167750
  12 H :    0.274848
Sum of atomic charges:   -0.0000000

LOEWDIN ATOMIC CHARGES
----------------------
   0 O :    0.176095
   1 C :   -0.248020
   2 C :   -0.315997
   3 O :    0.167291
   4 C :   -0.305301
   5 N :    0.126140
   6 C :   -0.239028
   7 C :   -0.209472
   8 N :    0.235133
   9 H :    0.125162
  10 H :    0.137976
  11 H :    0.140787
  12 H :    0.209234

  Mayer bond orders larger than 0.1
B(  0-O ,  1-C ) :   1.9928 B(  1-C ,  2-C ) :   0.8830 B(  1-C ,  9-H ) :   0.9276
B(  2-C ,  3-O ) :   1.8680 B(  2-C ,  4-C ) :   0.8564 B(  4-C ,  5-N ) :   1.4163
B(  4-C ,  8-N ) :   1.1327 B(  5-N ,  6-C ) :   1.3218 B(  6-C ,  7-C ) :   1.4242
B(  6-C , 10-H ) :   0.9365 B(  7-C ,  8-N ) :   1.1774 B(  7-C , 11-H ) :   0.9075
B(  8-N , 12-H ) :   0.8469

MP2 TOTAL ENERGY:     -452.054604320 Eh
FINAL SINGLE POINT ENERGY      -452.054604320233

DIPOLE MOMENT
-------------
                                X             Y             Z
Electronic contribution:      0.38764      -3.93894      -0.02750
Nuclear contribution   :      0.33782       5.93663       0.03164
                        -----------------------------------------
Total Dipole Moment    :      0.72547       1.99769       0.00415
                        -----------------------------------------
Magnitude (a.u.)       :      2.12534
Magnitude (Debye)      :      5.40219

                             ****ORCA TERMINATED NORMALLY****
TOTAL RUN TIME: 0 days 0 hours 12 minutes 8 seconds 784 msec
