                         Program Version 3.0.3 - RELEASE   -
|  1> ! RI-MP2 RIJK def2-TZVP def2-TZVP/C def2-TZVP/JK TIGHTSCF
|  2> % maxcore 2000
|  3> % mp2 density relaxed end
|  4> *xyz 0 1
|  5>  C       -0.2023331739     1.6203166970    -0.1106826140
|  6>  C       -0.0310078698     0.1149422879     0.0114464194
|  7>  C        1.1776545653    -0.5933982759    -0.6964056075
|  8>  C        2.1858243415    -0.1657272582     0.4141598001
|  9>  C        2.5499520279    -1.5638235931     0.9244268974
| 10>  O        2.3896691098    -1.5444702241     2.3653312466
| 11>  C        1.1715623712    -0.7863002851     2.5973039662
| 12>  C        0.8317504372    -0.4785812670     1.1550944249
| 13>  C        1.1586399256    -1.7708311069     0.3199694320
| 14>  H        0.7456689127     2.1493241048     0.0292107310
| 15>  H       -0.5909751154     1.8854375141    -1.0999524314
| 16>  H       -0.9111200459     1.9992829510     0.6336642009
| 17>  H       -0.9888686862    -0.4007957772    -0.1313212402
| 18>  H        1.3716540717    -0.6570665261    -1.7675638857
| 19>  H        2.7473105465     0.7642676110     0.4968574179
| 20>  H        3.4518593913    -2.1274322509     0.6882037730
| 21>  H        0.4365926844    -1.4141555013     3.1137301445
| 22>  H        1.3953851050     0.0925291984     3.2122537707
| 23>  H        0.5294060311    -2.6612003882     0.2958607844
| 24> *
| 25>
| 26>                          ****END OF INPUT****

CARTESIAN COORDINATES (ANGSTROEM)
---------------------------------
  C     -0.202333    1.620317   -0.110683
  C     -0.031008    0.114942    0.011446
  C      1.177655   -0.593398   -0.696406
  C      2.185824   -0.165727    0.414160
  C      2.549952   -1.563824    0.924427
  O      2.389669   -1.544470    2.365331
  C      1.171562   -0.786300    2.597304
  C      0.831750   -0.478581    1.155094
  C      1.158640   -1.770831    0.319969
  H      0.745669    2.149324    0.029211
  H     -0.590975    1.885438   -1.099952
  H     -0.911120    1.999283    0.633664
  H     -0.988869   -0.400796   -0.131321
  H      1.371654   -0.657067   -1.767564
  H      2.747311    0.764268    0.496857
  H      3.451859   -2.127432    0.688204
  H      0.436593   -1.414156    3.113730
  H      1.395385    0.092529    3.212254
  H      0.529406   -2.661200    0.295861

 Total Charge           Charge          ....    0
 Multiplicity           Mult            ....    1
 Number of Electrons    NEL             ....   66
 Basis Dimension        Dim             ....  339

ORBITAL ENERGIES
----------------

  NO   OCC          E(Eh)            E(eV)
   0   2.0000     -20.544833      -559.0533
   1   2.0000     -11.281383      -306.9820
   2   2.0000     -11.275319      -306.8170
   3   2.0000     -11.250965      -306.1543
   4   2.0000     -11.248630      -306.0908
   5   2.0000     -11.248117      -306.0768
   6   2.0000     -11.234980      -305.7194
   7   2.0000     -11.234765      -305.7135
   8   2.0000     -11.218864      -305.2808
   9   2.0000      -1.372331       -37.3430
  10   2.0000      -1.233300       -33.5598
  11   2.0000      -1.032379       -28.0924
  12   2.0000      -0.972534       -26.4640
  13   2.0000      -0.918224       -24.9862
  14   2.0000      -0.875864       -23.8335
  15   2.0000      -0.829758       -22.5789
  16   2.0000      -0.771295       -20.9880
  17   2.0000      -0.692500       -18.8439
  18   2.0000      -0.674282       -18.3482
  19   2.0000      -0.671020       -18.2594
  20   2.0000      -0.632433       -17.2094
  21   2.0000      -0.597243       -16.2518
  22   2.0000      -0.580609       -15.7992
  23   2.0000      -0.551203       -14.9990
  24   2.0000      -0.543642       -14.7932
  25   2.0000      -0.520280       -14.1575
  26   2.0000      -0.505446       -13.7539
  27   2.0000      -0.461049       -12.5458
  28   2.0000      -0.442139       -12.0312
  29   2.0000      -0.438180       -11.9235
  30   2.0000      -0.423965       -11.5367
  31   2.0000      -0.392075       -10.6689
  32   2.0000      -0.388992       -10.5850
  33   0.0000       0.135914         3.6984
  34   0.0000       0.159452         4.3389
  35   0.0000       0.165264         4.4971
  36   0.0000       0.169739         4.6188
  37   0.0000       0.192596         5.2408

MULLIKEN ATOMIC CHARGES
-----------------------
   0 C :   -0.416568
   1 C :   -0.012245
   2 C :   -0.126015
   3 C :   -0.174263
   4 C :    0.058373
   5 O :   -0.326986
   6 C :   -0.047038
   7 C :   -0.021804
   8 C :   -0.146929
   9 H :    0.130472
  10 H :    0.134603
  11 H :    0.133098
  12 H :    0.099958
  13 H :    0.131183
  14 H :    0.126608
  15 H :    0.122687
  16 H :    0.105492
  17 H :    0.106281
  18 H :    0.123093
Sum of atomic charges:    0.0000000

LOEWDIN ATOMIC CHARGES
----------------------
   0 C :   -0.293675
   1 C :   -0.187754
   2 C :   -0.120595
   3 C :   -0.100462
   4 C :   -0.238040
   5 O :    0.140780
   6 C :   -0.250936
   7 C :   -0.144994
   8 C :   -0.097344
   9 H :    0.126470
  10 H :    0.126228
  11 H :    0.125697
  12 H :    0.145145
  13 H :    0.126291
  14 H :    0.130176
  15 H :    0.131115
  16 H :    0.125072
  17 H :    0.125011
  18 H :    0.131815

  Mayer bond orders larger than 0.1
B(  0-C ,  1-C ) :   0.9097 B(  0-C ,  9-H ) :   0.9373 B(  0-C , 10-H ) :   0.9362
B(  0-C , 11-H ) :   0.9364 B(  1-C ,  2-C ) :   0.8987 B(  1-C ,  7-C ) :   0.8199
B(  1-C , 12-H ) :   0.9190 B(  2-C ,  3-C ) :   0.8421 B(  2-C ,  8-C ) :   0.8503
B(  2-C , 13-H ) :   0.8939 B(  3-C ,  4-C ) :   0.8936 B(  3-C ,  7-C ) :   0.8253
B(  3-C , 14-H ) :   0.9133 B(  4-C ,  5-O ) :   0.9258 B(  4-C ,  8-C ) :   0.8977
B(  4-C , 15-H ) :   0.9258 B(  5-O ,  6-C ) :   0.9624 B(  6-C ,  7-C ) :   0.9613
B(  6-C , 16-H ) :   0.9135 B(  6-C , 17-H ) :   0.9187 B(  7-C ,  8-C ) :   0.8304
B(  8-C , 18-H ) :   0.9157

MP2 TOTAL ENERGY:     -385.122851021 Eh
FINAL SINGLE POINT ENERGY      -385.122851020526

DIPOLE MOMENT
-------------
                                X             Y             Z
Electronic contribution:      3.53046      -4.54644       1.95598
Nuclear contribution   :     -4.02787       4.90689      -2.43097
                        -----------------------------------------
Total Dipole Moment    :     -0.49741       0.36045      -0.47499
                        -----------------------------------------
Magnitude (a.u.)       :      0.77650
Magnitude (Debye)      :      1.97370

                             ****ORCA TERMINATED NORMALLY****
TOTAL RUN TIME: 0 days 0 hours 18 minutes 33 seconds 529 msec
