                         Program Version 3.0.3 - RELEASE   -
|  1> ! RI-MP2 RIJK def2-TZVP def2-TZVP/C def2-TZVP/JK TIGHTSCF
|  2> % maxcore 2000
|  3> % mp2 density relaxed end
|  4> *xyz 0 1
|  5>  O        0.0887878541     1.4010825311    -0.0979158157
|  6>  C        0.0692900696     0.0347224277     0.0158492508
|  7>  C        0.0343600272    -0.7976567379    -1.0818676711
|  8>  N        0.0175302906    -0.4547539573    -2.4360546089
|  9>  C       -0.0171890542    -1.3303320333    -3.4717134647
| 10>  O       -0.0396888933    -2.5462264642    -3.3591918392
| 11>  N        0.0166070212    -2.0939194004    -0.6344615424
| 12>  C        0.0415002947    -2.0988829807     0.7327803272
| 13>  C        0.0737244986    -0.7902521855     1.1714951284
| 14>  H        0.1558662939     1.7825707522     0.7813521269
| 15>  H        0.0349511079     0.5340252220    -2.6346246065
| 16>  H       -0.0232611334    -0.8161408329    -4.4488244586
| 17>  H       -0.0089077287    -2.8694045675    -1.2793006619
| 18>  H        0.0336586822    -3.0238976272     1.2843261472
| 19>  H        0.0969667797    -0.4616198961     2.1994486285
| 20> *
| 21>
| 22>                          ****END OF INPUT****

CARTESIAN COORDINATES (ANGSTROEM)
---------------------------------
  O      0.088788    1.401083   -0.097916
  C      0.069290    0.034722    0.015849
  C      0.034360   -0.797657   -1.081868
  N      0.017530   -0.454754   -2.436055
  C     -0.017189   -1.330332   -3.471713
  O     -0.039689   -2.546226   -3.359192
  N      0.016607   -2.093919   -0.634462
  C      0.041500   -2.098883    0.732780
  C      0.073724   -0.790252    1.171495
  H      0.155866    1.782571    0.781352
  H      0.034951    0.534025   -2.634625
  H     -0.023261   -0.816141   -4.448824
  H     -0.008908   -2.869405   -1.279301
  H      0.033659   -3.023898    1.284326
  H      0.096967   -0.461620    2.199449

 Total Charge           Charge          ....    0
 Multiplicity           Mult            ....    1
 Number of Electrons    NEL             ....   66
 Basis Dimension        Dim             ....  315

ORBITAL ENERGIES
----------------

  NO   OCC          E(Eh)            E(eV)
   0   2.0000     -20.585679      -560.1648
   1   2.0000     -20.538157      -558.8717
   2   2.0000     -15.617482      -424.9733
   3   2.0000     -15.600791      -424.5191
   4   2.0000     -11.366731      -309.3045
   5   2.0000     -11.291921      -307.2688
   6   2.0000     -11.274995      -306.8082
   7   2.0000     -11.256462      -306.3039
   8   2.0000     -11.216919      -305.2279
   9   2.0000      -1.401905       -38.1478
  10   2.0000      -1.395262       -37.9670
  11   2.0000      -1.306801       -35.5599
  12   2.0000      -1.243123       -33.8271
  13   2.0000      -1.044223       -28.4148
  14   2.0000      -0.988441       -26.8969
  15   2.0000      -0.866450       -23.5773
  16   2.0000      -0.820315       -22.3219
  17   2.0000      -0.792822       -21.5738
  18   2.0000      -0.759560       -20.6687
  19   2.0000      -0.715793       -19.4777
  20   2.0000      -0.670708       -18.2509
  21   2.0000      -0.642194       -17.4750
  22   2.0000      -0.630205       -17.1487
  23   2.0000      -0.625132       -17.0107
  24   2.0000      -0.598773       -16.2934
  25   2.0000      -0.579843       -15.7783
  26   2.0000      -0.576613       -15.6904
  27   2.0000      -0.539986       -14.6938
  28   2.0000      -0.523109       -14.2345
  29   2.0000      -0.455821       -12.4035
  30   2.0000      -0.449575       -12.2336
  31   2.0000      -0.341121        -9.2824
  32   2.0000      -0.271368        -7.3843
  33   0.0000       0.130827         3.5600
  34   0.0000       0.141018         3.8373
  35   0.0000       0.144441         3.9304
  36   0.0000       0.167392         4.5550
  37   0.0000       0.183684         4.9983

MULLIKEN ATOMIC CHARGES
-----------------------
   0 O :   -0.471912
   1 C :    0.057844
   2 C :    0.228057
   3 N :   -0.300899
   4 C :    0.217919
   5 O :   -0.414115
   6 N :   -0.250250
   7 C :   -0.128998
   8 C :   -0.195004
   9 H :    0.340997
  10 H :    0.264707
  11 H :    0.097489
  12 H :    0.277487
  13 H :    0.148779
  14 H :    0.127901
Sum of atomic charges:   -0.0000000

LOEWDIN ATOMIC CHARGES
----------------------
   0 O :    0.038089
   1 C :   -0.299567
   2 C :   -0.263743
   3 N :    0.150559
   4 C :   -0.419171
   5 O :    0.036933
   6 N :    0.205740
   7 C :   -0.237835
   8 C :   -0.201995
   9 H :    0.193948
  10 H :    0.208305
  11 H :    0.116401
  12 H :    0.199602
  13 H :    0.134125
  14 H :    0.138609

  Mayer bond orders larger than 0.1
B(  0-O ,  1-C ) :   1.0792 B(  0-O ,  9-H ) :   0.8335 B(  1-C ,  2-C ) :   1.4682
B(  1-C ,  8-C ) :   1.2883 B(  2-C ,  3-N ) :   0.9557 B(  2-C ,  6-N ) :   1.1240
B(  3-N ,  4-C ) :   1.1566 B(  3-N , 10-H ) :   0.8603 B(  4-C ,  5-O ) :   1.7895
B(  4-C , 11-H ) :   0.9322 B(  6-N ,  7-C ) :   1.1660 B(  6-N , 12-H ) :   0.8346
B(  7-C ,  8-C ) :   1.4170 B(  7-C , 13-H ) :   0.9191 B(  8-C , 14-H ) :   0.9273

MP2 TOTAL ENERGY:     -453.261147057 Eh
FINAL SINGLE POINT ENERGY      -453.261147056744

DIPOLE MOMENT
-------------
                                X             Y             Z
Electronic contribution:     -0.03970       0.11372      -1.70589
Nuclear contribution   :      0.09348       0.75356       2.11539
                        -----------------------------------------
Total Dipole Moment    :      0.05378       0.86728       0.40950
                        -----------------------------------------
Magnitude (a.u.)       :      0.96060
Magnitude (Debye)      :      2.44166

                             ****ORCA TERMINATED NORMALLY****
TOTAL RUN TIME: 0 days 0 hours 15 minutes 9 seconds 897 msec
