                         Program Version 3.0.3 - RELEASE   -
|  1> ! RI-MP2 RIJK def2-TZVP def2-TZVP/C def2-TZVP/JK TIGHTSCF
|  2> % maxcore 2000
|  3> % mp2 density relaxed end
|  4> *xyz 0 1
|  5>  C        0.0421233606     1.5082958174     0.0179111608
|  6>  C       -0.0587669904    -0.0282730213    -0.0499034280
|  7>  C       -1.5366698653    -0.4760753772    -0.0430350913
|  8>  O       -2.2467385683     0.0095589581     1.0701439501
|  9>  C        0.7604268172    -0.6263641754    -1.2061199843
| 10>  C        2.1355418666    -0.8629957274    -0.5642080103
| 11>  O        1.8774559845    -1.0786542502     0.8381786018
| 12>  C        0.6492029201    -0.6253264001     1.1706134408
| 13>  O        0.2167513494    -0.7125706938     2.2919184510
| 14>  H        1.0805534889     1.8488793695     0.0792146904
| 15>  H       -0.4076315167     1.9452931977    -0.8796369869
| 16>  H       -0.5003662605     1.8814112434     0.8880197890
| 17>  H       -2.0349311171    -0.0839032204    -0.9376072457
| 18>  H       -1.5739058408    -1.5771035587    -0.1030167173
| 19>  H       -1.7395446092    -0.2588704783     1.8514380596
| 20>  H        0.3273825431    -1.5804818710    -1.5259939939
| 21>  H        0.8185946369     0.0284641513    -2.0782095376
| 22>  H        2.6549478814    -1.7456861679    -0.9416247585
| 23>  H        2.7984673394     0.0032353644    -0.6635211696
| 24> *
| 25>
| 26>                          ****END OF INPUT****

CARTESIAN COORDINATES (ANGSTROEM)
---------------------------------
  C      0.042123    1.508296    0.017911
  C     -0.058767   -0.028273   -0.049903
  C     -1.536670   -0.476075   -0.043035
  O     -2.246739    0.009559    1.070144
  C      0.760427   -0.626364   -1.206120
  C      2.135542   -0.862996   -0.564208
  O      1.877456   -1.078654    0.838179
  C      0.649203   -0.625326    1.170613
  O      0.216751   -0.712571    2.291918
  H      1.080553    1.848879    0.079215
  H     -0.407632    1.945293   -0.879637
  H     -0.500366    1.881411    0.888020
  H     -2.034931   -0.083903   -0.937607
  H     -1.573906   -1.577104   -0.103017
  H     -1.739545   -0.258870    1.851438
  H      0.327383   -1.580482   -1.525994
  H      0.818595    0.028464   -2.078210
  H      2.654948   -1.745686   -0.941625
  H      2.798467    0.003235   -0.663521

 Total Charge           Charge          ....    0
 Multiplicity           Mult            ....    1
 Number of Electrons    NEL             ....   70
 Basis Dimension        Dim             ....  339

ORBITAL ENERGIES
----------------

  NO   OCC          E(Eh)            E(eV)
   0   2.0000     -20.612117      -560.8842
   1   2.0000     -20.551787      -559.2426
   2   2.0000     -20.549048      -559.1680
   3   2.0000     -11.385905      -309.8262
   4   2.0000     -11.310978      -307.7874
   5   2.0000     -11.288508      -307.1759
   6   2.0000     -11.269008      -306.6453
   7   2.0000     -11.257295      -306.3266
   8   2.0000     -11.237597      -305.7906
   9   2.0000      -1.470282       -40.0084
  10   2.0000      -1.379018       -37.5250
  11   2.0000      -1.358198       -36.9584
  12   2.0000      -1.126803       -30.6619
  13   2.0000      -1.021872       -27.8066
  14   2.0000      -0.946766       -25.7628
  15   2.0000      -0.912705       -24.8360
  16   2.0000      -0.845902       -23.0182
  17   2.0000      -0.767173       -20.8758
  18   2.0000      -0.710824       -19.3425
  19   2.0000      -0.699229       -19.0270
  20   2.0000      -0.679019       -18.4771
  21   2.0000      -0.662168       -18.0185
  22   2.0000      -0.631465       -17.1830
  23   2.0000      -0.613156       -16.6848
  24   2.0000      -0.606502       -16.5038
  25   2.0000      -0.577121       -15.7043
  26   2.0000      -0.569869       -15.5069
  27   2.0000      -0.558240       -15.1905
  28   2.0000      -0.547075       -14.8867
  29   2.0000      -0.527263       -14.3475
  30   2.0000      -0.500920       -13.6307
  31   2.0000      -0.483736       -13.1631
  32   2.0000      -0.464866       -12.6496
  33   2.0000      -0.441103       -12.0030
  34   2.0000      -0.435188       -11.8421
  35   0.0000       0.121666         3.3107
  36   0.0000       0.148040         4.0284
  37   0.0000       0.153541         4.1781
  38   0.0000       0.164684         4.4813
  39   0.0000       0.168927         4.5967

MULLIKEN ATOMIC CHARGES
-----------------------
   0 C :   -0.426309
   1 C :    0.011304
   2 C :   -0.007821
   3 O :   -0.476549
   4 C :   -0.291484
   5 C :   -0.051013
   6 O :   -0.210296
   7 C :    0.269750
   8 O :   -0.335525
   9 H :    0.138658
  10 H :    0.136510
  11 H :    0.162812
  12 H :    0.112421
  13 H :    0.103230
  14 H :    0.337931
  15 H :    0.131138
  16 H :    0.140493
  17 H :    0.133397
  18 H :    0.121354
Sum of atomic charges:    0.0000000

LOEWDIN ATOMIC CHARGES
----------------------
   0 C :   -0.250124
   1 C :   -0.285860
   2 C :   -0.307850
   3 O :   -0.032231
   4 C :   -0.210786
   5 C :   -0.256161
   6 O :    0.267956
   7 C :   -0.430547
   8 O :    0.123944
   9 H :    0.128299
  10 H :    0.130715
  11 H :    0.137553
  12 H :    0.133433
  13 H :    0.123683
  14 H :    0.179264
  15 H :    0.146479
  16 H :    0.144789
  17 H :    0.130208
  18 H :    0.127237

  Mayer bond orders larger than 0.1
B(  0-C ,  1-C ) :   0.9135 B(  0-C ,  9-H ) :   0.9237 B(  0-C , 10-H ) :   0.9318
B(  0-C , 11-H ) :   0.9263 B(  1-C ,  2-C ) :   0.9193 B(  1-C ,  4-C ) :   0.8838
B(  1-C ,  7-C ) :   0.8924 B(  2-C ,  3-O ) :   0.9597 B(  2-C , 12-H ) :   0.9296
B(  2-C , 13-H ) :   0.9124 B(  3-O , 14-H ) :   0.8097 B(  4-C ,  5-C ) :   0.9576
B(  4-C , 15-H ) :   0.9180 B(  4-C , 16-H ) :   0.9259 B(  5-C ,  6-O ) :   0.8619
B(  5-C , 17-H ) :   0.9303 B(  5-C , 18-H ) :   0.9255 B(  6-O ,  7-C ) :   1.1518
B(  7-C ,  8-O ) :   1.9067

MP2 TOTAL ENERGY:     -459.484979239 Eh
FINAL SINGLE POINT ENERGY      -459.484979238933

DIPOLE MOMENT
-------------
                                X             Y             Z
Electronic contribution:      1.08590      -3.31679       6.29895
Nuclear contribution   :     -0.32669       3.40356      -7.94778
                        -----------------------------------------
Total Dipole Moment    :      0.75921       0.08677      -1.64883
                        -----------------------------------------
Magnitude (a.u.)       :      1.81730
Magnitude (Debye)      :      4.61921

                             ****ORCA TERMINATED NORMALLY****
TOTAL RUN TIME: 0 days 0 hours 19 minutes 15 seconds 521 msec
