                         Program Version 3.0.3 - RELEASE   -
|  1> ! RI-MP2 RIJK def2-TZVP def2-TZVP/C def2-TZVP/JK TIGHTSCF
|  2> % maxcore 2000
|  3> % mp2 density relaxed end
|  4> *xyz 0 1
|  5>  C       -0.1229240997     1.4058359900     0.0608113861
|  6>  O        0.1335404049     0.0295330838    -0.0802008382
|  7>  C        0.7053573772    -0.5759916473     1.0724084808
|  8>  C       -0.2759297813    -0.8641623300     2.1900627518
|  9>  C       -0.1134571114    -2.0905570284     2.6804337934
| 10>  C        0.9881177118    -2.8461259408     1.9798688198
| 11>  C        1.2804922308    -1.9785152629     0.7243222481
| 12>  C        0.6177086280    -2.5767288900    -0.5179510960
| 13>  O        1.2130511987    -3.8525732174    -0.7364723953
| 14>  H        0.7894614399     1.9631719590     0.3270578607
| 15>  H       -0.4881832807     1.7681470586    -0.9035890420
| 16>  H       -0.8868881025     1.6172971515     0.8239620267
| 17>  H        1.5101611710     0.0861413258     1.4396331051
| 18>  H       -0.9807130878    -0.1249645674     2.5530825234
| 19>  H       -0.6740331170    -2.5110781633     3.5089580855
| 20>  H        1.8730124175    -2.9297781024     2.6249638362
| 21>  H        0.7128372513    -3.8690820529     1.7051788085
| 22>  H        2.3538206025    -1.9223341397     0.5230155541
| 23>  H       -0.4671800221    -2.6655263966    -0.3555531025
| 24>  H        0.7711305137    -1.9121900125    -1.3759331378
| 25>  H        0.7929270951    -4.2457514369    -1.5063946386
| 26> *
| 27>
| 28>                          ****END OF INPUT****

CARTESIAN COORDINATES (ANGSTROEM)
---------------------------------
  C     -0.122924    1.405836    0.060811
  O      0.133540    0.029533   -0.080201
  C      0.705357   -0.575992    1.072408
  C     -0.275930   -0.864162    2.190063
  C     -0.113457   -2.090557    2.680434
  C      0.988118   -2.846126    1.979869
  C      1.280492   -1.978515    0.724322
  C      0.617709   -2.576729   -0.517951
  O      1.213051   -3.852573   -0.736472
  H      0.789461    1.963172    0.327058
  H     -0.488183    1.768147   -0.903589
  H     -0.886888    1.617297    0.823962
  H      1.510161    0.086141    1.439633
  H     -0.980713   -0.124965    2.553083
  H     -0.674033   -2.511078    3.508958
  H      1.873012   -2.929778    2.624964
  H      0.712837   -3.869082    1.705179
  H      2.353821   -1.922334    0.523016
  H     -0.467180   -2.665526   -0.355553
  H      0.771131   -1.912190   -1.375933
  H      0.792927   -4.245751   -1.506395

 Total Charge           Charge          ....    0
 Multiplicity           Mult            ....    1
 Number of Electrons    NEL             ....   70
 Basis Dimension        Dim             ....  351

ORBITAL ENERGIES
----------------

  NO   OCC          E(Eh)            E(eV)
   0   2.0000     -20.553852      -559.2987
   1   2.0000     -20.546709      -559.1044
   2   2.0000     -11.281200      -306.9771
   3   2.0000     -11.271608      -306.7161
   4   2.0000     -11.261786      -306.4488
   5   2.0000     -11.227065      -305.5040
   6   2.0000     -11.222873      -305.3899
   7   2.0000     -11.218854      -305.2806
   8   2.0000     -11.217740      -305.2502
   9   2.0000      -1.375280       -37.4233
  10   2.0000      -1.350206       -36.7410
  11   2.0000      -1.130361       -30.7587
  12   2.0000      -1.000763       -27.2321
  13   2.0000      -0.965138       -26.2627
  14   2.0000      -0.904454       -24.6114
  15   2.0000      -0.876540       -23.8519
  16   2.0000      -0.759288       -20.6613
  17   2.0000      -0.738786       -20.1034
  18   2.0000      -0.703334       -19.1387
  19   2.0000      -0.668128       -18.1807
  20   2.0000      -0.663678       -18.0596
  21   2.0000      -0.630329       -17.1521
  22   2.0000      -0.620203       -16.8766
  23   2.0000      -0.605083       -16.4651
  24   2.0000      -0.576914       -15.6986
  25   2.0000      -0.540142       -14.6980
  26   2.0000      -0.535658       -14.5760
  27   2.0000      -0.514158       -13.9909
  28   2.0000      -0.493351       -13.4248
  29   2.0000      -0.484371       -13.1804
  30   2.0000      -0.472001       -12.8438
  31   2.0000      -0.459630       -12.5072
  32   2.0000      -0.432996       -11.7824
  33   2.0000      -0.415693       -11.3116
  34   2.0000      -0.350249        -9.5308
  35   0.0000       0.139777         3.8035
  36   0.0000       0.149122         4.0578
  37   0.0000       0.154425         4.2021
  38   0.0000       0.166972         4.5435
  39   0.0000       0.176425         4.8008

MULLIKEN ATOMIC CHARGES
-----------------------
   0 C :   -0.232538
   1 O :   -0.305899
   2 C :    0.144334
   3 C :   -0.242507
   4 C :   -0.172338
   5 C :   -0.199614
   6 C :    0.017569
   7 C :   -0.129885
   8 O :   -0.472534
   9 H :    0.112823
  10 H :    0.139024
  11 H :    0.111421
  12 H :    0.078823
  13 H :    0.125383
  14 H :    0.126370
  15 H :    0.118746
  16 H :    0.146400
  17 H :    0.095499
  18 H :    0.107845
  19 H :    0.114927
  20 H :    0.316151
Sum of atomic charges:   -0.0000000

LOEWDIN ATOMIC CHARGES
----------------------
   0 C :   -0.360594
   1 O :    0.156530
   2 C :   -0.275117
   3 C :   -0.151307
   4 C :   -0.150925
   5 C :   -0.216279
   6 C :   -0.204000
   7 C :   -0.325511
   8 O :   -0.052634
   9 H :    0.101983
  10 H :    0.113698
  11 H :    0.100706
  12 H :    0.139211
  13 H :    0.135925
  14 H :    0.136198
  15 H :    0.142218
  16 H :    0.145138
  17 H :    0.151137
  18 H :    0.121997
  19 H :    0.120668
  20 H :    0.170958

  Mayer bond orders larger than 0.1
B(  0-C ,  1-O ) :   0.9263 B(  0-C ,  9-H ) :   0.9355 B(  0-C , 10-H ) :   0.9404
B(  0-C , 11-H ) :   0.9354 B(  1-O ,  2-C ) :   0.9061 B(  2-C ,  3-C ) :   0.9193
B(  2-C ,  6-C ) :   0.9134 B(  2-C , 12-H ) :   0.9261 B(  3-C ,  4-C ) :   1.7706
B(  3-C , 13-H ) :   0.9193 B(  4-C ,  5-C ) :   0.9413 B(  4-C , 14-H ) :   0.9266
B(  5-C ,  6-C ) :   0.9216 B(  5-C , 15-H ) :   0.9108 B(  5-C , 16-H ) :   0.9267
B(  6-C ,  7-C ) :   0.9337 B(  6-C , 17-H ) :   0.9199 B(  7-C ,  8-O ) :   0.9936
B(  7-C , 18-H ) :   0.9235 B(  7-C , 19-H ) :   0.9239 B(  8-O , 20-H ) :   0.8493

MP2 TOTAL ENERGY:     -423.511278110 Eh
FINAL SINGLE POINT ENERGY      -423.511278110166

DIPOLE MOMENT
-------------
                                X             Y             Z
Electronic contribution:      0.31580      -2.46026      -0.41282
Nuclear contribution   :     -0.62747       2.88147       0.42960
                        -----------------------------------------
Total Dipole Moment    :     -0.31167       0.42121       0.01677
                        -----------------------------------------
Magnitude (a.u.)       :      0.52425
Magnitude (Debye)      :      1.33254

                             ****ORCA TERMINATED NORMALLY****
TOTAL RUN TIME: 0 days 0 hours 27 minutes 48 seconds 755 msec
