                         Program Version 3.0.3 - RELEASE   -
|  1> ! RI-MP2 RIJK def2-TZVP def2-TZVP/C def2-TZVP/JK TIGHTSCF
|  2> % maxcore 2000
|  3> % mp2 density relaxed end
|  4> *xyz 0 1
|  5>  O       -0.0405485961    -0.0449621957    -0.0417415353
|  6>  C       -0.0324139075     1.1396741113     0.0776325585
|  7>  C       -0.9665249657     2.3711214427     0.0802824863
|  8>  C       -0.0100350258     3.0023425399     1.1262993281
|  9>  C        0.9321692287     2.3586761062     0.0686918536
| 10>  C        2.4331877998     2.4565146532    -0.0602914705
| 11>  C        2.9224319947     1.8576077955    -1.2976816013
| 12>  C        3.2960974078     1.3700974852    -2.3300042457
| 13>  N       -0.0220458855     2.9471187313    -0.9738018736
| 14>  H       -2.0466026959     2.4650412906    -0.0021572178
| 15>  H       -0.0052378961     4.0934856547     1.0962505546
| 16>  H       -0.0066837083     2.5906198855     2.1363133764
| 17>  H        2.7289598626     3.5121010651    -0.0140148024
| 18>  H        2.8912810064     1.9618706639     0.8055738735
| 19>  H        3.6393167809     0.9309051658    -3.2339069049
| 20>  H       -0.0198809599     2.3781751348    -1.8258915196
| 21> *
| 22>
| 23>                          ****END OF INPUT****

CARTESIAN COORDINATES (ANGSTROEM)
---------------------------------
  O     -0.040549   -0.044962   -0.041742
  C     -0.032414    1.139674    0.077633
  C     -0.966525    2.371121    0.080282
  C     -0.010035    3.002343    1.126299
  C      0.932169    2.358676    0.068692
  C      2.433188    2.456515   -0.060291
  C      2.922432    1.857608   -1.297682
  C      3.296097    1.370097   -2.330004
  N     -0.022046    2.947119   -0.973802
  H     -2.046603    2.465041   -0.002157
  H     -0.005238    4.093486    1.096251
  H     -0.006684    2.590620    2.136313
  H      2.728960    3.512101   -0.014015
  H      2.891281    1.961871    0.805574
  H      3.639317    0.930905   -3.233907
  H     -0.019881    2.378175   -1.825892

 Total Charge           Charge          ....    0
 Multiplicity           Mult            ....    1
 Number of Electrons    NEL             ....   64
 Basis Dimension        Dim             ....  321

ORBITAL ENERGIES
----------------

  NO   OCC          E(Eh)            E(eV)
   0   2.0000     -20.561534      -559.5078
   1   2.0000     -15.585693      -424.1083
   2   2.0000     -11.348772      -308.8158
   3   2.0000     -11.306474      -307.6648
   4   2.0000     -11.296433      -307.3916
   5   2.0000     -11.273983      -306.7807
   6   2.0000     -11.260516      -306.4142
   7   2.0000     -11.242629      -305.9275
   8   2.0000     -11.230086      -305.5862
   9   2.0000      -1.410095       -38.3706
  10   2.0000      -1.305823       -35.5333
  11   2.0000      -1.086910       -29.5763
  12   2.0000      -1.026886       -27.9430
  13   2.0000      -0.991888       -26.9907
  14   2.0000      -0.884115       -24.0580
  15   2.0000      -0.868960       -23.6456
  16   2.0000      -0.739957       -20.1352
  17   2.0000      -0.729540       -19.8518
  18   2.0000      -0.687585       -18.7101
  19   2.0000      -0.672024       -18.2867
  20   2.0000      -0.650994       -17.7145
  21   2.0000      -0.637224       -17.3398
  22   2.0000      -0.596951       -16.2439
  23   2.0000      -0.588647       -16.0179
  24   2.0000      -0.536934       -14.6107
  25   2.0000      -0.513973       -13.9859
  26   2.0000      -0.499613       -13.5952
  27   2.0000      -0.497031       -13.5249
  28   2.0000      -0.422442       -11.4952
  29   2.0000      -0.408148       -11.1063
  30   2.0000      -0.395991       -10.7755
  31   2.0000      -0.389036       -10.5862
  32   0.0000       0.129181         3.5152
  33   0.0000       0.145516         3.9597
  34   0.0000       0.152944         4.1618
  35   0.0000       0.166110         4.5201
  36   0.0000       0.167708         4.5636

MULLIKEN ATOMIC CHARGES
-----------------------
   0 O :   -0.241718
   1 C :    0.192975
   2 C :   -0.110056
   3 C :   -0.137592
   4 C :   -0.066680
   5 C :   -0.312565
   6 C :   -0.034840
   7 C :   -0.152986
   8 N :   -0.282900
   9 H :    0.158285
  10 H :    0.123826
  11 H :    0.133586
  12 H :    0.155805
  13 H :    0.155751
  14 H :    0.193813
  15 H :    0.225294
Sum of atomic charges:   -0.0000000

LOEWDIN ATOMIC CHARGES
----------------------
   0 O :    0.164439
   1 C :   -0.284275
   2 C :   -0.186906
   3 C :   -0.172346
   4 C :   -0.222278
   5 C :   -0.212542
   6 C :   -0.102564
   7 C :   -0.093712
   8 N :    0.067407
   9 H :    0.128869
  10 H :    0.142131
  11 H :    0.134800
  12 H :    0.168971
  13 H :    0.170226
  14 H :    0.128240
  15 H :    0.169540

  Mayer bond orders larger than 0.1
B(  0-O ,  1-C ) :   2.0708 B(  1-C ,  2-C ) :   0.9185 B(  1-C ,  4-C ) :   0.8829
B(  2-C ,  3-C ) :   0.8884 B(  2-C ,  8-N ) :   0.9588 B(  2-C ,  9-H ) :   0.8823
B(  3-C ,  4-C ) :   0.8562 B(  3-C , 10-H ) :   0.8983 B(  3-C , 11-H ) :   0.9173
B(  4-C ,  5-C ) :   0.8539 B(  4-C ,  8-N ) :   0.9597 B(  5-C ,  6-C ) :   1.0963
B(  5-C , 12-H ) :   0.9298 B(  5-C , 13-H ) :   0.9181 B(  6-C ,  7-C ) :   2.6105
B(  7-C , 14-H ) :   0.8994 B(  8-N , 15-H ) :   0.8838

MP2 TOTAL ENERGY:     -399.960737432 Eh
FINAL SINGLE POINT ENERGY      -399.960737431984

DIPOLE MOMENT
-------------
                                X             Y             Z
Electronic contribution:     -0.75370      -3.49019      -1.08178
Nuclear contribution   :      0.79414       4.14309       1.38047
                        -----------------------------------------
Total Dipole Moment    :      0.04043       0.65290       0.29869
                        -----------------------------------------
Magnitude (a.u.)       :      0.71912
Magnitude (Debye)      :      1.82786

                             ****ORCA TERMINATED NORMALLY****
TOTAL RUN TIME: 0 days 0 hours 15 minutes 27 seconds 544 msec
