                         Program Version 3.0.3 - RELEASE   -
|  1> ! RI-MP2 RIJK def2-TZVP def2-TZVP/C def2-TZVP/JK TIGHTSCF
|  2> % maxcore 2000
|  3> % mp2 density relaxed end
|  4> *xyz 0 1
|  5>  C        0.1788631967     1.4011316608    -0.4816780019
|  6>  C        1.4922193242     1.6164777727     0.3201549514
|  7>  C        1.4010394018     0.1480828597     0.7906959375
|  8>  C       -0.0798272816     0.1130139767     0.3496484210
|  9>  C        2.3327924973    -0.9712406951     0.2934112405
| 10>  C        3.7196078994    -0.5322287774     0.8356894208
| 11>  C        3.1041142616    -0.7171639482     2.2220735426
| 12>  C        2.0560589541    -1.6237260877     1.7029595932
| 13>  N        1.6626677469    -0.2731533144     2.2036877233
| 14>  H       -0.5757213535     2.1878549961    -0.4231310754
| 15>  H        0.3693707352     1.1832616309    -1.5359150663
| 16>  H        2.3860720254     1.9173686203    -0.2333230193
| 17>  H        1.3560443142     2.3005723315     1.1630629419
| 18>  H       -0.7378240486     0.2986194673     1.2031131116
| 19>  H       -0.4289523291    -0.7782144145    -0.1789479870
| 20>  H        2.2267931804    -1.4243756096    -0.6912137853
| 21>  H        4.4860885842    -1.2894011995     0.6500514251
| 22>  H        4.0946913988     0.4543591965     0.5440592683
| 23>  H        3.5873535639    -0.7100269632     3.1901727381
| 24>  H        1.6303296387    -2.5550430130     2.0507097598
| 25> *
| 26>
| 27>                          ****END OF INPUT****

CARTESIAN COORDINATES (ANGSTROEM)
---------------------------------
  C      0.178863    1.401132   -0.481678
  C      1.492219    1.616478    0.320155
  C      1.401039    0.148083    0.790696
  C     -0.079827    0.113014    0.349648
  C      2.332792   -0.971241    0.293411
  C      3.719608   -0.532229    0.835689
  C      3.104114   -0.717164    2.222074
  C      2.056059   -1.623726    1.702960
  N      1.662668   -0.273153    2.203688
  H     -0.575721    2.187855   -0.423131
  H      0.369371    1.183262   -1.535915
  H      2.386072    1.917369   -0.233323
  H      1.356044    2.300572    1.163063
  H     -0.737824    0.298619    1.203113
  H     -0.428952   -0.778214   -0.178948
  H      2.226793   -1.424376   -0.691214
  H      4.486089   -1.289401    0.650051
  H      4.094691    0.454359    0.544059
  H      3.587354   -0.710027    3.190173
  H      1.630330   -2.555043    2.050710

 Total Charge           Charge          ....    0
 Multiplicity           Mult            ....    1
 Number of Electrons    NEL             ....   66
 Basis Dimension        Dim             ....  345

ORBITAL ENERGIES
----------------

  NO   OCC          E(Eh)            E(eV)
   0   2.0000     -15.555177      -423.2779
   1   2.0000     -11.259307      -306.3813
   2   2.0000     -11.258517      -306.3598
   3   2.0000     -11.258134      -306.3494
   4   2.0000     -11.241241      -305.8897
   5   2.0000     -11.231373      -305.6212
   6   2.0000     -11.219268      -305.2918
   7   2.0000     -11.214781      -305.1697
   8   2.0000     -11.214656      -305.1663
   9   2.0000      -1.312831       -35.7239
  10   2.0000      -1.118867       -30.4459
  11   2.0000      -1.025601       -27.9080
  12   2.0000      -0.946903       -25.7665
  13   2.0000      -0.901857       -24.5408
  14   2.0000      -0.868048       -23.6208
  15   2.0000      -0.804108       -21.8809
  16   2.0000      -0.751839       -20.4586
  17   2.0000      -0.697207       -18.9720
  18   2.0000      -0.694289       -18.8926
  19   2.0000      -0.647761       -17.6265
  20   2.0000      -0.633657       -17.2427
  21   2.0000      -0.596777       -16.2391
  22   2.0000      -0.566370       -15.4117
  23   2.0000      -0.538720       -14.6593
  24   2.0000      -0.521303       -14.1854
  25   2.0000      -0.485932       -13.2229
  26   2.0000      -0.482368       -13.1259
  27   2.0000      -0.471824       -12.8390
  28   2.0000      -0.448288       -12.1985
  29   2.0000      -0.436437       -11.8760
  30   2.0000      -0.417036       -11.3481
  31   2.0000      -0.396043       -10.7769
  32   2.0000      -0.363306        -9.8861
  33   0.0000       0.139672         3.8007
  34   0.0000       0.158610         4.3160
  35   0.0000       0.165950         4.5157
  36   0.0000       0.179663         4.8889
  37   0.0000       0.181387         4.9358

MULLIKEN ATOMIC CHARGES
-----------------------
   0 C :   -0.221778
   1 C :   -0.235798
   2 C :    0.118836
   3 C :   -0.270125
   4 C :   -0.066824
   5 C :   -0.221511
   6 C :   -0.064735
   7 C :   -0.168072
   8 N :   -0.230480
   9 H :    0.118254
  10 H :    0.113875
  11 H :    0.112347
  12 H :    0.124505
  13 H :    0.125078
  14 H :    0.114059
  15 H :    0.135341
  16 H :    0.121877
  17 H :    0.110836
  18 H :    0.136872
  19 H :    0.147443
Sum of atomic charges:   -0.0000000

LOEWDIN ATOMIC CHARGES
----------------------
   0 C :   -0.238567
   1 C :   -0.203605
   2 C :   -0.262438
   3 C :   -0.193882
   4 C :   -0.142603
   5 C :   -0.204914
   6 C :   -0.208776
   7 C :   -0.159994
   8 N :    0.158572
   9 H :    0.123919
  10 H :    0.131312
  11 H :    0.126107
  12 H :    0.142373
  13 H :    0.141431
  14 H :    0.126859
  15 H :    0.133940
  16 H :    0.142120
  17 H :    0.124638
  18 H :    0.133887
  19 H :    0.129622

  Mayer bond orders larger than 0.1
B(  0-C ,  1-C ) :   0.9554 B(  0-C ,  3-C ) :   0.9506 B(  0-C ,  9-H ) :   0.9290
B(  0-C , 10-H ) :   0.9232 B(  1-C ,  2-C ) :   0.8981 B(  1-C , 11-H ) :   0.9234
B(  1-C , 12-H ) :   0.9177 B(  2-C ,  3-C ) :   0.9076 B(  2-C ,  4-C ) :   0.8923
B(  2-C ,  8-N ) :   0.9484 B(  3-C , 13-H ) :   0.9218 B(  3-C , 14-H ) :   0.9236
B(  4-C ,  5-C ) :   0.9304 B(  4-C ,  7-C ) :   0.9199 B(  4-C , 15-H ) :   0.8997
B(  5-C ,  6-C ) :   0.9145 B(  5-C , 16-H ) :   0.9190 B(  5-C , 17-H ) :   0.9161
B(  6-C ,  7-C ) :   0.8882 B(  6-C ,  8-N ) :   0.8697 B(  6-C , 18-H ) :   0.9330
B(  7-C ,  8-N ) :   0.8759 B(  7-C , 19-H ) :   0.8986

MP2 TOTAL ENERGY:     -365.272507326 Eh
FINAL SINGLE POINT ENERGY      -365.272507325681

DIPOLE MOMENT
-------------
                                X             Y             Z
Electronic contribution:      1.15544      -2.50338       3.35569
Nuclear contribution   :     -0.83527       2.25424      -3.90106
                        -----------------------------------------
Total Dipole Moment    :      0.32017      -0.24913      -0.54538
                        -----------------------------------------
Magnitude (a.u.)       :      0.67972
Magnitude (Debye)      :      1.72770

                             ****ORCA TERMINATED NORMALLY****
TOTAL RUN TIME: 0 days 0 hours 21 minutes 3 seconds 338 msec
