                         Program Version 3.0.3 - RELEASE   -
|  1> ! RI-MP2 RIJK def2-TZVP def2-TZVP/C def2-TZVP/JK TIGHTSCF
|  2> % maxcore 2000
|  3> % mp2 density relaxed end
|  4> *xyz 0 1
|  5>  C        0.0521814689     1.5385162800    -0.0034255544
|  6>  C        0.0063172239     0.0117184130    -0.0372072246
|  7>  N        0.7030480945    -0.4996563573    -1.2115850599
|  8>  C        0.7157913466    -1.9487313339    -1.3335102569
|  9>  C        1.4336506566    -2.5614614293    -0.1472171631
| 10>  N        2.5914179453    -1.8234129327     0.3473407865
| 11>  C        1.3464836438    -1.8589899397     1.1659769550
| 12>  C        0.5564108799    -0.5891689484     1.2652103624
| 13>  O        0.2625356811    -0.1216076024     2.3426858363
| 14>  H        1.0882399892     1.8834026378    -0.0599103888
| 15>  H       -0.4998447041     1.9612003135    -0.8492375092
| 16>  H       -0.3945775140     1.9004634183     0.9239352529
| 17>  H       -1.0610342374    -0.3030536774    -0.0176558884
| 18>  H        0.3223762930    -0.0763785226    -2.0491775056
| 19>  H       -0.2946965135    -2.4015016803    -1.3867614993
| 20>  H        1.2394923575    -2.2127928858    -2.2595063390
| 21>  H        1.4570921147    -3.6487844310    -0.1257021100
| 22>  H        3.2588177094    -2.4629558881     0.7722116616
| 23>  H        1.3629401145    -2.4283948338     2.0907094743
| 24> *
| 25>
| 26>                          ****END OF INPUT****

CARTESIAN COORDINATES (ANGSTROEM)
---------------------------------
  C      0.052181    1.538516   -0.003426
  C      0.006317    0.011718   -0.037207
  N      0.703048   -0.499656   -1.211585
  C      0.715791   -1.948731   -1.333510
  C      1.433651   -2.561461   -0.147217
  N      2.591418   -1.823413    0.347341
  C      1.346484   -1.858990    1.165977
  C      0.556411   -0.589169    1.265210
  O      0.262536   -0.121608    2.342686
  H      1.088240    1.883403   -0.059910
  H     -0.499845    1.961200   -0.849238
  H     -0.394578    1.900463    0.923935
  H     -1.061034   -0.303054   -0.017656
  H      0.322376   -0.076379   -2.049178
  H     -0.294697   -2.401502   -1.386761
  H      1.239492   -2.212793   -2.259506
  H      1.457092   -3.648784   -0.125702
  H      3.258818   -2.462956    0.772212
  H      1.362940   -2.428395    2.090709

 Total Charge           Charge          ....    0
 Multiplicity           Mult            ....    1
 Number of Electrons    NEL             ....   68
 Basis Dimension        Dim             ....  339

ORBITAL ENERGIES
----------------

  NO   OCC          E(Eh)            E(eV)
   0   2.0000     -20.543090      -559.0059
   1   2.0000     -15.575124      -423.8207
   2   2.0000     -15.551216      -423.1701
   3   2.0000     -11.328258      -308.2576
   4   2.0000     -11.278343      -306.8993
   5   2.0000     -11.271414      -306.7108
   6   2.0000     -11.269981      -306.6718
   7   2.0000     -11.266190      -306.5686
   8   2.0000     -11.216080      -305.2051
   9   2.0000      -1.388432       -37.7811
  10   2.0000      -1.285945       -34.9923
  11   2.0000      -1.216013       -33.0894
  12   2.0000      -1.036923       -28.2161
  13   2.0000      -0.963532       -26.2190
  14   2.0000      -0.943556       -25.6755
  15   2.0000      -0.855616       -23.2825
  16   2.0000      -0.817283       -22.2394
  17   2.0000      -0.738876       -20.1058
  18   2.0000      -0.706546       -19.2261
  19   2.0000      -0.675176       -18.3725
  20   2.0000      -0.646994       -17.6056
  21   2.0000      -0.630515       -17.1572
  22   2.0000      -0.613962       -16.7067
  23   2.0000      -0.606504       -16.5038
  24   2.0000      -0.553552       -15.0629
  25   2.0000      -0.545646       -14.8478
  26   2.0000      -0.532491       -14.4898
  27   2.0000      -0.509148       -13.8546
  28   2.0000      -0.503038       -13.6884
  29   2.0000      -0.482208       -13.1215
  30   2.0000      -0.472731       -12.8637
  31   2.0000      -0.421555       -11.4711
  32   2.0000      -0.400728       -10.9044
  33   2.0000      -0.369044       -10.0422
  34   0.0000       0.115772         3.1503
  35   0.0000       0.135871         3.6972
  36   0.0000       0.143007         3.8914
  37   0.0000       0.170987         4.6528
  38   0.0000       0.174267         4.7420

MULLIKEN ATOMIC CHARGES
-----------------------
   0 C :   -0.421156
   1 C :    0.075671
   2 N :   -0.342554
   3 C :   -0.134773
   4 C :    0.014776
   5 N :   -0.381118
   6 C :   -0.101783
   7 C :    0.142815
   8 O :   -0.282398
   9 H :    0.141771
  10 H :    0.127067
  11 H :    0.152787
  12 H :    0.089660
  13 H :    0.204358
  14 H :    0.094715
  15 H :    0.121946
  16 H :    0.134396
  17 H :    0.224268
  18 H :    0.139553
Sum of atomic charges:   -0.0000000

LOEWDIN ATOMIC CHARGES
----------------------
   0 C :   -0.285585
   1 C :   -0.295356
   2 N :    0.011315
   3 C :   -0.290192
   4 C :   -0.258969
   5 N :    0.025425
   6 C :   -0.211061
   7 C :   -0.283653
   8 O :    0.159275
   9 H :    0.130717
  10 H :    0.121045
  11 H :    0.133316
  12 H :    0.150264
  13 H :    0.172767
  14 H :    0.123605
  15 H :    0.138114
  16 H :    0.140496
  17 H :    0.172213
  18 H :    0.146263

  Mayer bond orders larger than 0.1
B(  0-C ,  1-C ) :   0.8962 B(  0-C ,  9-H ) :   0.9384 B(  0-C , 10-H ) :   0.9370
B(  0-C , 11-H ) :   0.9308 B(  1-C ,  2-N ) :   0.9302 B(  1-C ,  7-C ) :   0.8787
B(  1-C , 12-H ) :   0.8978 B(  2-N ,  3-C ) :   0.9855 B(  2-N , 13-H ) :   0.8784
B(  3-C ,  4-C ) :   0.9411 B(  3-C , 14-H ) :   0.9349 B(  3-C , 15-H ) :   0.9114
B(  4-C ,  5-N ) :   0.9157 B(  4-C ,  6-C ) :   0.8516 B(  4-C , 16-H ) :   0.9181
B(  5-N ,  6-C ) :   0.8957 B(  5-N , 17-H ) :   0.8622 B(  6-C ,  7-C ) :   0.9485
B(  6-C , 18-H ) :   0.9296 B(  7-C ,  8-O ) :   1.9938

MP2 TOTAL ENERGY:     -418.492815741 Eh
FINAL SINGLE POINT ENERGY      -418.492815741217

DIPOLE MOMENT
-------------
                                X             Y             Z
Electronic contribution:      1.58656      -1.67944       4.35559
Nuclear contribution   :     -1.82282       0.67888      -5.23266
                        -----------------------------------------
Total Dipole Moment    :     -0.23625      -1.00057      -0.87707
                        -----------------------------------------
Magnitude (a.u.)       :      1.35137
Magnitude (Debye)      :      3.43491

                             ****ORCA TERMINATED NORMALLY****
TOTAL RUN TIME: 0 days 0 hours 19 minutes 49 seconds 648 msec
