                         Program Version 3.0.3 - RELEASE   -
|  1> ! RI-MP2 RIJK def2-TZVP def2-TZVP/C def2-TZVP/JK TIGHTSCF
|  2> % maxcore 2000
|  3> % mp2 density relaxed end
|  4> *xyz 0 1
|  5>  C       -0.0758447314     1.6441016383    -0.0437760922
|  6>  C       -0.0142040028     0.1128112214     0.0110196031
|  7>  C        0.7401202887    -0.3833641582     1.2601367740
|  8>  C        2.2053670296    -0.0009170841     1.2361218197
|  9>  O        2.7868637953     0.5597376832     2.1270542929
| 10>  C       -1.4278053540    -0.5172423084    -0.0201456951
| 11>  C       -2.1702696355    -0.1893455299    -1.2355572206
| 12>  N       -2.7392331368     0.0765684687    -2.2056387877
| 13>  H        0.9282329541     2.0783259433    -0.0549582007
| 14>  H       -0.6015058625     1.9855528487    -0.9394626102
| 15>  H       -0.5986060993     2.0448343213     0.8323381870
| 16>  H        0.5217336263    -0.2479148567    -0.8769184245
| 17>  H        0.2931081805     0.0027467182     2.1819485248
| 18>  H        0.7005071223    -1.4822490534     1.2975953010
| 19>  H        2.7359473913    -0.2940134386     0.2989953432
| 20>  H       -1.3582208391    -1.6083183041     0.0558715394
| 21>  H       -2.0086878369    -0.1763726495     0.8456665259
| 22> *
| 23>
| 24>                          ****END OF INPUT****

CARTESIAN COORDINATES (ANGSTROEM)
---------------------------------
  C     -0.075845    1.644102   -0.043776
  C     -0.014204    0.112811    0.011020
  C      0.740120   -0.383364    1.260137
  C      2.205367   -0.000917    1.236122
  O      2.786864    0.559738    2.127054
  C     -1.427805   -0.517242   -0.020146
  C     -2.170270   -0.189346   -1.235557
  N     -2.739233    0.076568   -2.205639
  H      0.928233    2.078326   -0.054958
  H     -0.601506    1.985553   -0.939463
  H     -0.598606    2.044834    0.832338
  H      0.521734   -0.247915   -0.876918
  H      0.293108    0.002747    2.181949
  H      0.700507   -1.482249    1.297595
  H      2.735947   -0.294013    0.298995
  H     -1.358221   -1.608318    0.055872
  H     -2.008688   -0.176373    0.845667

 Total Charge           Charge          ....    0
 Multiplicity           Mult            ....    1
 Number of Electrons    NEL             ....   60
 Basis Dimension        Dim             ....  302

ORBITAL ENERGIES
----------------

  NO   OCC          E(Eh)            E(eV)
   0   2.0000     -20.571221      -559.7714
   1   2.0000     -15.576939      -423.8701
   2   2.0000     -11.346764      -308.7611
   3   2.0000     -11.294890      -307.3496
   4   2.0000     -11.281178      -306.9765
   5   2.0000     -11.279576      -306.9329
   6   2.0000     -11.262066      -306.4564
   7   2.0000     -11.239768      -305.8496
   8   2.0000      -1.410406       -38.3791
   9   2.0000      -1.227466       -33.4011
  10   2.0000      -1.139827       -31.0163
  11   2.0000      -1.030166       -28.0322
  12   2.0000      -0.982041       -26.7227
  13   2.0000      -0.849525       -23.1168
  14   2.0000      -0.806693       -21.9512
  15   2.0000      -0.716354       -19.4930
  16   2.0000      -0.686249       -18.6738
  17   2.0000      -0.664901       -18.0929
  18   2.0000      -0.653133       -17.7726
  19   2.0000      -0.629810       -17.1380
  20   2.0000      -0.596620       -16.2349
  21   2.0000      -0.575194       -15.6518
  22   2.0000      -0.560640       -15.2558
  23   2.0000      -0.547269       -14.8920
  24   2.0000      -0.534851       -14.5540
  25   2.0000      -0.511083       -13.9073
  26   2.0000      -0.500693       -13.6245
  27   2.0000      -0.466002       -12.6806
  28   2.0000      -0.465294       -12.6613
  29   2.0000      -0.432653       -11.7731
  30   0.0000       0.106721         2.9040
  31   0.0000       0.124804         3.3961
  32   0.0000       0.136792         3.7223
  33   0.0000       0.150938         4.1072
  34   0.0000       0.159970         4.3530

MULLIKEN ATOMIC CHARGES
-----------------------
   0 C :   -0.425874
   1 C :   -0.132104
   2 C :   -0.134441
   3 C :    0.077904
   4 O :   -0.252658
   5 C :   -0.111309
   6 C :   -0.189636
   7 N :   -0.052114
   8 H :    0.148394
   9 H :    0.165152
  10 H :    0.131179
  11 H :    0.116794
  12 H :    0.126462
  13 H :    0.134348
  14 H :    0.079095
  15 H :    0.158382
  16 H :    0.160427
Sum of atomic charges:    0.0000000

LOEWDIN ATOMIC CHARGES
----------------------
   0 C :   -0.279236
   1 C :   -0.268115
   2 C :   -0.240312
   3 C :   -0.296461
   4 O :    0.139708
   5 C :   -0.225230
   6 C :   -0.193674
   7 N :    0.059482
   8 H :    0.130460
   9 H :    0.134194
  10 H :    0.129503
  11 H :    0.159889
  12 H :    0.149611
  13 H :    0.155158
  14 H :    0.112032
  15 H :    0.165437
  16 H :    0.167555

  Mayer bond orders larger than 0.1
B(  0-C ,  1-C ) :   0.9320 B(  0-C ,  8-H ) :   0.9315 B(  0-C ,  9-H ) :   0.9324
B(  0-C , 10-H ) :   0.9248 B(  1-C ,  2-C ) :   0.8931 B(  1-C ,  5-C ) :   0.9005
B(  1-C , 11-H ) :   0.9279 B(  2-C ,  3-C ) :   0.8665 B(  2-C , 12-H ) :   0.8955
B(  2-C , 13-H ) :   0.9155 B(  3-C ,  4-O ) :   2.0107 B(  3-C , 14-H ) :   0.9397
B(  5-C ,  6-C ) :   0.9342 B(  5-C , 15-H ) :   0.9059 B(  5-C , 16-H ) :   0.9043
B(  6-C ,  7-N ) :   2.8756

MP2 TOTAL ENERGY:     -363.270013938 Eh
FINAL SINGLE POINT ENERGY      -363.270013937555

DIPOLE MOMENT
-------------
                                X             Y             Z
Electronic contribution:     -0.54943      -1.28221      -1.25263
Nuclear contribution   :      0.75946       0.61934       1.81221
                        -----------------------------------------
Total Dipole Moment    :      0.21003      -0.66287       0.55959
                        -----------------------------------------
Magnitude (a.u.)       :      0.89255
Magnitude (Debye)      :      2.26869

                             ****ORCA TERMINATED NORMALLY****
TOTAL RUN TIME: 0 days 0 hours 11 minutes 39 seconds 770 msec
