                         Program Version 3.0.3 - RELEASE   -
|  1> ! RI-MP2 RIJK def2-TZVP def2-TZVP/C def2-TZVP/JK TIGHTSCF
|  2> % maxcore 2000
|  3> % mp2 density relaxed end
|  4> *xyz 0 1
|  5>  C        0.1104829182    -1.2907760098     0.1740813738
|  6>  C        0.0447847787    -0.0936979854     0.0856836966
|  7>  C       -0.0329062019     1.3647057605     0.0026658806
|  8>  C       -0.7978245726     1.9369384676     1.2300292833
|  9>  C       -1.3281764544     3.3643534422     1.0406692358
| 10>  C       -0.2775003807     4.4743639909     0.9003144785
| 11>  C        0.5996396871     4.3823197546    -0.3633151855
| 12>  C        1.6137496961     3.2633404011    -0.3465843005
| 13>  C        1.3533103250     1.9677544446    -0.1829310310
| 14>  H        0.1645585858    -2.3489433998     0.2417896095
| 15>  H       -0.6345947856     1.6112393779    -0.8872818395
| 16>  H       -1.6474027875     1.2758817960     1.4309475731
| 17>  H       -0.1420335829     1.8833307995     2.1065573343
| 18>  H       -1.9847279616     3.3831880090     0.1585286878
| 19>  H       -1.9710211719     3.6013811033     1.8970030334
| 20>  H       -0.8010466749     5.4380701584     0.8862792232
| 21>  H        0.3702589447     4.4849589789     1.7859496860
| 22>  H       -0.0575445284     4.2777343331    -1.2402532604
| 23>  H        1.1245954170     5.3333882139    -0.4977542638
| 24>  H        2.6538360554     3.5533819508    -0.4770842136
| 25>  H        2.1754183144     1.2584515027    -0.1844235616
| 26> *
| 27>
| 28>                          ****END OF INPUT****

CARTESIAN COORDINATES (ANGSTROEM)
---------------------------------
  C      0.110483   -1.290776    0.174081
  C      0.044785   -0.093698    0.085684
  C     -0.032906    1.364706    0.002666
  C     -0.797825    1.936938    1.230029
  C     -1.328176    3.364353    1.040669
  C     -0.277500    4.474364    0.900314
  C      0.599640    4.382320   -0.363315
  C      1.613750    3.263340   -0.346584
  C      1.353310    1.967754   -0.182931
  H      0.164559   -2.348943    0.241790
  H     -0.634595    1.611239   -0.887282
  H     -1.647403    1.275882    1.430948
  H     -0.142034    1.883331    2.106557
  H     -1.984728    3.383188    0.158529
  H     -1.971021    3.601381    1.897003
  H     -0.801047    5.438070    0.886279
  H      0.370259    4.484959    1.785950
  H     -0.057545    4.277734   -1.240253
  H      1.124595    5.333388   -0.497754
  H      2.653836    3.553382   -0.477084
  H      2.175418    1.258452   -0.184424

 Total Charge           Charge          ....    0
 Multiplicity           Mult            ....    1
 Number of Electrons    NEL             ....   66
 Basis Dimension        Dim             ....  351

ORBITAL ENERGIES
----------------

  NO   OCC          E(Eh)            E(eV)
   0   2.0000     -11.258442      -306.3578
   1   2.0000     -11.229501      -305.5703
   2   2.0000     -11.227875      -305.5260
   3   2.0000     -11.227825      -305.5246
   4   2.0000     -11.227436      -305.5141
   5   2.0000     -11.225683      -305.4664
   6   2.0000     -11.223905      -305.4180
   7   2.0000     -11.223302      -305.4016
   8   2.0000     -11.216924      -305.2280
   9   2.0000      -1.128176       -30.6992
  10   2.0000      -1.062734       -28.9185
  11   2.0000      -1.037404       -28.2292
  12   2.0000      -0.997791       -27.1513
  13   2.0000      -0.906105       -24.6564
  14   2.0000      -0.879474       -23.9317
  15   2.0000      -0.780046       -21.2261
  16   2.0000      -0.732939       -19.9443
  17   2.0000      -0.711010       -19.3476
  18   2.0000      -0.673909       -18.3380
  19   2.0000      -0.639851       -17.4112
  20   2.0000      -0.609682       -16.5903
  21   2.0000      -0.595541       -16.2055
  22   2.0000      -0.581524       -15.8241
  23   2.0000      -0.566001       -15.4017
  24   2.0000      -0.528906       -14.3923
  25   2.0000      -0.514167       -13.9912
  26   2.0000      -0.485730       -13.2174
  27   2.0000      -0.472966       -12.8700
  28   2.0000      -0.464462       -12.6387
  29   2.0000      -0.453464       -12.3394
  30   2.0000      -0.385779       -10.4976
  31   2.0000      -0.384306       -10.4575
  32   2.0000      -0.346343        -9.4245
  33   0.0000       0.134808         3.6683
  34   0.0000       0.138633         3.7724
  35   0.0000       0.155529         4.2321
  36   0.0000       0.163045         4.4367
  37   0.0000       0.166507         4.5309

MULLIKEN ATOMIC CHARGES
-----------------------
   0 C :   -0.110030
   1 C :   -0.039657
   2 C :   -0.137002
   3 C :   -0.205434
   4 C :   -0.239655
   5 C :   -0.190062
   6 C :   -0.207350
   7 C :   -0.146611
   8 C :   -0.243481
   9 H :    0.189675
  10 H :    0.113586
  11 H :    0.131891
  12 H :    0.116065
  13 H :    0.108391
  14 H :    0.125570
  15 H :    0.120353
  16 H :    0.108906
  17 H :    0.118598
  18 H :    0.130640
  19 H :    0.123431
  20 H :    0.132173
Sum of atomic charges:    0.0000000

LOEWDIN ATOMIC CHARGES
----------------------
   0 C :   -0.104735
   1 C :   -0.086676
   2 C :   -0.223045
   3 C :   -0.220148
   4 C :   -0.269531
   5 C :   -0.262831
   6 C :   -0.255367
   7 C :   -0.172176
   8 C :   -0.140593
   9 H :    0.125897
  10 H :    0.178399
  11 H :    0.146074
  12 H :    0.143698
  13 H :    0.138011
  14 H :    0.140706
  15 H :    0.138127
  16 H :    0.139323
  17 H :    0.146227
  18 H :    0.142121
  19 H :    0.144821
  20 H :    0.151699

  Mayer bond orders larger than 0.1
B(  0-C ,  1-C ) :   2.5928 B(  0-C ,  2-C ) :  -0.1245 B(  0-C ,  9-H ) :   0.8841
B(  1-C ,  2-C ) :   1.1717 B(  2-C ,  3-C ) :   0.9114 B(  2-C ,  8-C ) :   0.9219
B(  2-C , 10-H ) :   0.9024 B(  3-C ,  4-C ) :   0.9232 B(  3-C , 11-H ) :   0.9310
B(  3-C , 12-H ) :   0.9190 B(  4-C ,  5-C ) :   0.9284 B(  4-C , 13-H ) :   0.9342
B(  4-C , 14-H ) :   0.9305 B(  5-C ,  6-C ) :   0.9100 B(  5-C , 15-H ) :   0.9331
B(  5-C , 16-H ) :   0.9275 B(  6-C ,  7-C ) :   0.9237 B(  6-C , 17-H ) :   0.9243
B(  6-C , 18-H ) :   0.9355 B(  7-C ,  8-C ) :   1.7809 B(  7-C , 19-H ) :   0.9270
B(  8-C , 20-H ) :   0.9358

MP2 TOTAL ENERGY:     -349.274245798 Eh
FINAL SINGLE POINT ENERGY      -349.274245797690

DIPOLE MOMENT
-------------
                                X             Y             Z
Electronic contribution:      1.94332      -6.30596      -1.48712
Nuclear contribution   :     -2.07885       6.68793       1.54642
                        -----------------------------------------
Total Dipole Moment    :     -0.13552       0.38197       0.05931
                        -----------------------------------------
Magnitude (a.u.)       :      0.40962
Magnitude (Debye)      :      1.04117

                             ****ORCA TERMINATED NORMALLY****
TOTAL RUN TIME: 0 days 0 hours 18 minutes 12 seconds 999 msec
