                         Program Version 3.0.3 - RELEASE   -
|  1> ! RI-MP2 RIJK def2-TZVP def2-TZVP/C def2-TZVP/JK TIGHTSCF
|  2> % maxcore 2000
|  3> % mp2 density relaxed end
|  4> *xyz 0 1
|  5>  C       -0.2246364936     1.6466880337     0.2772786953
|  6>  C       -0.0113289486     0.1629697494     0.0745616956
|  7>  C       -1.2225238265    -0.6129870175    -0.4545614134
|  8>  C       -1.7275973814    -0.0704875637    -1.7158147892
|  9>  N       -2.1242027281     0.3739500928    -2.7055690475
| 10>  O        1.2268595368    -0.2408113843    -0.4901361995
| 11>  C        0.9664597876    -0.6307139858     0.8655400300
| 12>  C        1.8326850686    -0.0119184405     1.9175061978
| 13>  O        1.9691885830    -0.4950782837     3.0116711950
| 14>  H        0.6963492553     2.1419394090     0.5857932236
| 15>  H       -0.5622713861     2.1040911676    -0.6573637125
| 16>  H       -0.9912608498     1.8254662917     1.0380712772
| 17>  H       -0.9464957645    -1.6605073650    -0.6057050779
| 18>  H       -2.0306294524    -0.5862963235     0.2856952651
| 19>  H        0.7642633957    -1.6893073179     1.0274335132
| 20>  H        2.3524265241     0.9184535376     1.6065010371
| 21> *
| 22>
| 23>                          ****END OF INPUT****

CARTESIAN COORDINATES (ANGSTROEM)
---------------------------------
  C     -0.224636    1.646688    0.277279
  C     -0.011329    0.162970    0.074562
  C     -1.222524   -0.612987   -0.454561
  C     -1.727597   -0.070488   -1.715815
  N     -2.124203    0.373950   -2.705569
  O      1.226860   -0.240811   -0.490136
  C      0.966460   -0.630714    0.865540
  C      1.832685   -0.011918    1.917506
  O      1.969189   -0.495078    3.011671
  H      0.696349    2.141939    0.585793
  H     -0.562271    2.104091   -0.657364
  H     -0.991261    1.825466    1.038071
  H     -0.946496   -1.660507   -0.605705
  H     -2.030629   -0.586296    0.285695
  H      0.764263   -1.689307    1.027434
  H      2.352427    0.918454    1.606501

 Total Charge           Charge          ....    0
 Multiplicity           Mult            ....    1
 Number of Electrons    NEL             ....   66
 Basis Dimension        Dim             ....  321

ORBITAL ENERGIES
----------------

  NO   OCC          E(Eh)            E(eV)
   0   2.0000     -20.612478      -560.8940
   1   2.0000     -20.584678      -560.1376
   2   2.0000     -15.584092      -424.0647
   3   2.0000     -11.358323      -309.0757
   4   2.0000     -11.349675      -308.8403
   5   2.0000     -11.326126      -308.1995
   6   2.0000     -11.307583      -307.6950
   7   2.0000     -11.287950      -307.1607
   8   2.0000     -11.257236      -306.3250
   9   2.0000      -1.463068       -39.8121
  10   2.0000      -1.421174       -38.6721
  11   2.0000      -1.233387       -33.5622
  12   2.0000      -1.103811       -30.0362
  13   2.0000      -1.018778       -27.7224
  14   2.0000      -0.995958       -27.1014
  15   2.0000      -0.871493       -23.7145
  16   2.0000      -0.806032       -21.9332
  17   2.0000      -0.730877       -19.8882
  18   2.0000      -0.720896       -19.6166
  19   2.0000      -0.697119       -18.9696
  20   2.0000      -0.673662       -18.3313
  21   2.0000      -0.655642       -17.8409
  22   2.0000      -0.608458       -16.5570
  23   2.0000      -0.604396       -16.4465
  24   2.0000      -0.585321       -15.9274
  25   2.0000      -0.569069       -15.4851
  26   2.0000      -0.561851       -15.2887
  27   2.0000      -0.555717       -15.1218
  28   2.0000      -0.507980       -13.8228
  29   2.0000      -0.473936       -12.8964
  30   2.0000      -0.472819       -12.8661
  31   2.0000      -0.460674       -12.5356
  32   2.0000      -0.447517       -12.1775
  33   0.0000       0.091286         2.4840
  34   0.0000       0.117106         3.1866
  35   0.0000       0.139248         3.7891
  36   0.0000       0.152564         4.1515
  37   0.0000       0.169682         4.6173

MULLIKEN ATOMIC CHARGES
-----------------------
   0 C :   -0.411424
   1 C :    0.154103
   2 C :   -0.111785
   3 C :   -0.193906
   4 N :   -0.049354
   5 O :   -0.309285
   6 C :    0.063469
   7 C :    0.063874
   8 O :   -0.250632
   9 H :    0.138456
  10 H :    0.177294
  11 H :    0.148180
  12 H :    0.168861
  13 H :    0.169275
  14 H :    0.134651
  15 H :    0.108222
Sum of atomic charges:    0.0000000

LOEWDIN ATOMIC CHARGES
----------------------
   0 C :   -0.252391
   1 C :   -0.314482
   2 C :   -0.199158
   3 C :   -0.186198
   4 N :    0.068213
   5 O :    0.213927
   6 C :   -0.235363
   7 C :   -0.278566
   8 O :    0.150214
   9 H :    0.133558
  10 H :    0.143680
  11 H :    0.138641
  12 H :    0.174568
  13 H :    0.173999
  14 H :    0.149532
  15 H :    0.119826

  Mayer bond orders larger than 0.1
B(  0-C ,  1-C ) :   0.9253 B(  0-C ,  9-H ) :   0.9273 B(  0-C , 10-H ) :   0.9277
B(  0-C , 11-H ) :   0.9267 B(  1-C ,  2-C ) :   0.8718 B(  1-C ,  5-O ) :   0.8944
B(  1-C ,  6-C ) :   0.8915 B(  2-C ,  3-C ) :   0.9383 B(  2-C , 12-H ) :   0.9057
B(  2-C , 13-H ) :   0.9073 B(  3-C ,  4-N ) :   2.8502 B(  5-O ,  6-C ) :   0.8838
B(  6-C ,  7-C ) :   0.8519 B(  6-C , 14-H ) :   0.9015 B(  7-C ,  8-O ) :   1.9751
B(  7-C , 15-H ) :   0.9435

MP2 TOTAL ENERGY:     -437.163255401 Eh
FINAL SINGLE POINT ENERGY      -437.163255401296

DIPOLE MOMENT
-------------
                                X             Y             Z
Electronic contribution:      1.30462      -2.77983      -1.35007
Nuclear contribution   :     -1.48239       2.73219       2.18525
                        -----------------------------------------
Total Dipole Moment    :     -0.17778      -0.04764       0.83518
                        -----------------------------------------
Magnitude (a.u.)       :      0.85522
Magnitude (Debye)      :      2.17380

                             ****ORCA TERMINATED NORMALLY****
TOTAL RUN TIME: 0 days 0 hours 14 minutes 9 seconds 62 msec
