                         Program Version 3.0.3 - RELEASE   -
|  1> ! RI-MP2 RIJK def2-TZVP def2-TZVP/C def2-TZVP/JK TIGHTSCF
|  2> % maxcore 2000
|  3> % mp2 density relaxed end
|  4> *xyz 0 1
|  5>  C       -0.0664791797     1.5224893034     0.0386193028
|  6>  C        0.0133453629     0.0237600065    -0.0149651898
|  7>  C        0.8492774066    -0.7893298870    -1.0051720994
|  8>  C       -0.1135890724    -1.9982743827    -0.7829825865
|  9>  C        0.4091371761    -2.8772168747     0.3508872110
| 10>  O        0.5466498858    -1.9757424320     1.4581271125
| 11>  C       -0.2904070257    -0.8704120798     1.1789445882
| 12>  C       -1.1074092223    -1.0403349568    -0.0555596635
| 13>  C       -2.5965028459    -0.9608397535    -0.2110390864
| 14>  H        0.8869577598     1.9561127461     0.3641375491
| 15>  H       -0.3050954948     1.9473368371    -0.9437840486
| 16>  H       -0.8367728001     1.8595305893     0.7408023415
| 17>  H        0.7667944556    -0.3863781130    -2.0188512420
| 18>  H        1.9074036370    -0.9492313617    -0.7663535660
| 19>  H       -0.4562137907    -2.5367765089    -1.6666836983
| 20>  H       -0.2971137906    -3.6853388049     0.5995252924
| 21>  H        1.3899021359    -3.3190128659     0.1444487605
| 22>  H       -0.7034925916    -0.4101060122     2.0702023764
| 23>  H       -3.0144184891    -0.1515568799     0.3970097519
| 24>  H       -2.8865743879    -0.7746961666    -1.2518639268
| 25>  H       -3.0814410988    -1.8921701328     0.1061189711
| 26> *
| 27>
| 28>                          ****END OF INPUT****

CARTESIAN COORDINATES (ANGSTROEM)
---------------------------------
  C     -0.066479    1.522489    0.038619
  C      0.013345    0.023760   -0.014965
  C      0.849277   -0.789330   -1.005172
  C     -0.113589   -1.998274   -0.782983
  C      0.409137   -2.877217    0.350887
  O      0.546650   -1.975742    1.458127
  C     -0.290407   -0.870412    1.178945
  C     -1.107409   -1.040335   -0.055560
  C     -2.596503   -0.960840   -0.211039
  H      0.886958    1.956113    0.364138
  H     -0.305095    1.947337   -0.943784
  H     -0.836773    1.859531    0.740802
  H      0.766794   -0.386378   -2.018851
  H      1.907404   -0.949231   -0.766354
  H     -0.456214   -2.536777   -1.666684
  H     -0.297114   -3.685339    0.599525
  H      1.389902   -3.319013    0.144449
  H     -0.703493   -0.410106    2.070202
  H     -3.014418   -0.151557    0.397010
  H     -2.886574   -0.774696   -1.251864
  H     -3.081441   -1.892170    0.106119

 Total Charge           Charge          ....    0
 Multiplicity           Mult            ....    1
 Number of Electrons    NEL             ....   68
 Basis Dimension        Dim             ....  351

ORBITAL ENERGIES
----------------

  NO   OCC          E(Eh)            E(eV)
   0   2.0000     -20.546355      -559.0948
   1   2.0000     -11.270761      -306.6930
   2   2.0000     -11.268307      -306.6262
   3   2.0000     -11.233108      -305.6684
   4   2.0000     -11.232507      -305.6521
   5   2.0000     -11.230964      -305.6101
   6   2.0000     -11.223784      -305.4147
   7   2.0000     -11.222272      -305.3736
   8   2.0000     -11.219260      -305.2916
   9   2.0000      -1.375728       -37.4355
  10   2.0000      -1.180410       -32.1206
  11   2.0000      -1.023321       -27.8460
  12   2.0000      -0.996274       -27.1100
  13   2.0000      -0.953230       -25.9387
  14   2.0000      -0.905156       -24.6306
  15   2.0000      -0.813042       -22.1240
  16   2.0000      -0.771371       -20.9901
  17   2.0000      -0.693061       -18.8591
  18   2.0000      -0.684431       -18.6243
  19   2.0000      -0.646527       -17.5929
  20   2.0000      -0.597910       -16.2700
  21   2.0000      -0.594972       -16.1900
  22   2.0000      -0.577549       -15.7159
  23   2.0000      -0.567132       -15.4324
  24   2.0000      -0.558834       -15.2066
  25   2.0000      -0.552584       -15.0366
  26   2.0000      -0.544282       -14.8107
  27   2.0000      -0.534306       -14.5392
  28   2.0000      -0.485961       -13.2237
  29   2.0000      -0.479386       -13.0447
  30   2.0000      -0.450399       -12.2560
  31   2.0000      -0.433219       -11.7885
  32   2.0000      -0.364813        -9.9271
  33   2.0000      -0.357743        -9.7347
  34   0.0000       0.128850         3.5062
  35   0.0000       0.157252         4.2791
  36   0.0000       0.167070         4.5462
  37   0.0000       0.177362         4.8263
  38   0.0000       0.184307         5.0152

MULLIKEN ATOMIC CHARGES
-----------------------
   0 C :   -0.422787
   1 C :    0.004917
   2 C :   -0.209589
   3 C :   -0.082029
   4 C :   -0.036070
   5 O :   -0.323677
   6 C :    0.011904
   7 C :    0.008170
   8 C :   -0.415798
   9 H :    0.141506
  10 H :    0.129901
  11 H :    0.126885
  12 H :    0.113551
  13 H :    0.108035
  14 H :    0.122243
  15 H :    0.087617
  16 H :    0.110757
  17 H :    0.120345
  18 H :    0.132383
  19 H :    0.133507
  20 H :    0.138227
Sum of atomic charges:    0.0000000

LOEWDIN ATOMIC CHARGES
----------------------
   0 C :   -0.276587
   1 C :   -0.191559
   2 C :   -0.166962
   3 C :   -0.172885
   4 C :   -0.271337
   5 O :    0.167580
   6 C :   -0.222274
   7 C :   -0.169638
   8 C :   -0.276927
   9 H :    0.131155
  10 H :    0.127033
  11 H :    0.129107
  12 H :    0.138219
  13 H :    0.129818
  14 H :    0.143379
  15 H :    0.120675
  16 H :    0.126551
  17 H :    0.145732
  18 H :    0.131075
  19 H :    0.127502
  20 H :    0.130343

  Mayer bond orders larger than 0.1
B(  0-C ,  1-C ) :   0.8812 B(  0-C ,  9-H ) :   0.9414 B(  0-C , 10-H ) :   0.9412
B(  0-C , 11-H ) :   0.9332 B(  1-C ,  2-C ) :   0.9547 B(  1-C ,  6-C ) :   0.8353
B(  1-C ,  7-C ) :   0.7693 B(  2-C ,  3-C ) :   0.9356 B(  2-C , 12-H ) :   0.9190
B(  2-C , 13-H ) :   0.9046 B(  3-C ,  4-C ) :   0.9615 B(  3-C ,  7-C ) :   0.8839
B(  3-C , 14-H ) :   0.9083 B(  4-C ,  5-O ) :   0.9361 B(  4-C , 15-H ) :   0.9224
B(  4-C , 16-H ) :   0.9153 B(  5-O ,  6-C ) :   0.9926 B(  6-C ,  7-C ) :   0.9006
B(  6-C , 17-H ) :   0.9490 B(  7-C ,  8-C ) :   0.8240 B(  8-C , 18-H ) :   0.9431
B(  8-C , 19-H ) :   0.9478 B(  8-C , 20-H ) :   0.9395

MP2 TOTAL ENERGY:     -386.394483348 Eh
FINAL SINGLE POINT ENERGY      -386.394483348371

DIPOLE MOMENT
-------------
                                X             Y             Z
Electronic contribution:      2.79223      -3.24949       2.85420
Nuclear contribution   :     -3.23455       3.39852      -3.43368
                        -----------------------------------------
Total Dipole Moment    :     -0.44232       0.14903      -0.57948
                        -----------------------------------------
Magnitude (a.u.)       :      0.74408
Magnitude (Debye)      :      1.89129

                             ****ORCA TERMINATED NORMALLY****
TOTAL RUN TIME: 0 days 0 hours 20 minutes 29 seconds 352 msec
