                         Program Version 3.0.3 - RELEASE   -
|  1> ! RI-MP2 RIJK def2-TZVP def2-TZVP/C def2-TZVP/JK TIGHTSCF
|  2> % maxcore 2000
|  3> % mp2 density relaxed end
|  4> *xyz 0 1
|  5>  C       -0.0148260654     1.5638355498     0.0786838398
|  6>  C        0.1064890506     0.0736310235     0.0086505121
|  7>  N       -0.8258649021    -0.8308191649     0.7098715189
|  8>  C        0.6305994974    -0.9382435936     0.9842177925
|  9>  C        1.2551611114    -1.7595835347    -0.1715041085
| 10>  O        0.4712893522    -2.8310785859    -0.7200313601
| 11>  C       -0.1179835591    -1.9468964938    -1.7110543676
| 12>  C        0.6909879640    -0.7397266959    -1.1819104957
| 13>  H        0.9021557994     2.0525223796    -0.2678608852
| 14>  H       -0.8407220847     1.9242928509    -0.5464577815
| 15>  H       -0.2038134628     1.8942137856     1.1061732438
| 16>  H       -1.2292206854    -0.3062598175     1.4860640435
| 17>  H        1.0046210288    -0.8190094799     1.9950455489
| 18>  H        2.3160352927    -2.0002632112    -0.0632908882
| 19>  H        0.1547153712    -2.2612134497    -2.7255538002
| 20>  H       -1.2042379611    -1.8843705981    -1.6078933874
| 21>  H        1.3265216231    -0.1870464943    -1.8720018050
| 22> *
| 23>
| 24>                          ****END OF INPUT****

CARTESIAN COORDINATES (ANGSTROEM)
---------------------------------
  C     -0.014826    1.563836    0.078684
  C      0.106489    0.073631    0.008651
  N     -0.825865   -0.830819    0.709872
  C      0.630599   -0.938244    0.984218
  C      1.255161   -1.759584   -0.171504
  O      0.471289   -2.831079   -0.720031
  C     -0.117984   -1.946896   -1.711054
  C      0.690988   -0.739727   -1.181910
  H      0.902156    2.052522   -0.267861
  H     -0.840722    1.924293   -0.546458
  H     -0.203813    1.894214    1.106173
  H     -1.229221   -0.306260    1.486064
  H      1.004621   -0.819009    1.995046
  H      2.316035   -2.000263   -0.063291
  H      0.154715   -2.261213   -2.725554
  H     -1.204238   -1.884371   -1.607893
  H      1.326522   -0.187046   -1.872002

 Total Charge           Charge          ....    0
 Multiplicity           Mult            ....    1
 Number of Electrons    NEL             ....   60
 Basis Dimension        Dim             ....  302

ORBITAL ENERGIES
----------------

  NO   OCC          E(Eh)            E(eV)
   0   2.0000     -20.537574      -558.8558
   1   2.0000     -15.560867      -423.4327
   2   2.0000     -11.282013      -306.9992
   3   2.0000     -11.273676      -306.7723
   4   2.0000     -11.268747      -306.6382
   5   2.0000     -11.259925      -306.3981
   6   2.0000     -11.235195      -305.7252
   7   2.0000     -11.232710      -305.6576
   8   2.0000      -1.373468       -37.3740
   9   2.0000      -1.273240       -34.6466
  10   2.0000      -1.039708       -28.2919
  11   2.0000      -0.996810       -27.1246
  12   2.0000      -0.948433       -25.8082
  13   2.0000      -0.828669       -22.5492
  14   2.0000      -0.811399       -22.0793
  15   2.0000      -0.722853       -19.6698
  16   2.0000      -0.696073       -18.9411
  17   2.0000      -0.654391       -17.8069
  18   2.0000      -0.629123       -17.1193
  19   2.0000      -0.611646       -16.6437
  20   2.0000      -0.582566       -15.8524
  21   2.0000      -0.578267       -15.7355
  22   2.0000      -0.548083       -14.9141
  23   2.0000      -0.518643       -14.1130
  24   2.0000      -0.511152       -13.9091
  25   2.0000      -0.467687       -12.7264
  26   2.0000      -0.449907       -12.2426
  27   2.0000      -0.419927       -11.4268
  28   2.0000      -0.400058       -10.8861
  29   2.0000      -0.354919        -9.6578
  30   0.0000       0.128607         3.4996
  31   0.0000       0.159067         4.3284
  32   0.0000       0.168462         4.5841
  33   0.0000       0.174556         4.7499
  34   0.0000       0.188189         5.1209

MULLIKEN ATOMIC CHARGES
-----------------------
   0 C :   -0.392962
   1 C :    0.112238
   2 N :   -0.360554
   3 C :   -0.191140
   4 C :    0.161799
   5 O :   -0.335785
   6 C :   -0.031915
   7 C :   -0.146918
   8 H :    0.136776
   9 H :    0.144313
  10 H :    0.126251
  11 H :    0.210595
  12 H :    0.138212
  13 H :    0.101722
  14 H :    0.097464
  15 H :    0.106298
  16 H :    0.123605
Sum of atomic charges:   -0.0000000

LOEWDIN ATOMIC CHARGES
----------------------
   0 C :   -0.280128
   1 C :   -0.269081
   2 N :    0.033790
   3 C :   -0.194370
   4 C :   -0.230238
   5 O :    0.137015
   6 C :   -0.244036
   7 C :   -0.156199
   8 H :    0.132000
   9 H :    0.131947
  10 H :    0.129889
  11 H :    0.172364
  12 H :    0.127793
  13 H :    0.129858
  14 H :    0.116032
  15 H :    0.122504
  16 H :    0.140862

  Mayer bond orders larger than 0.1
B(  0-C ,  1-C ) :   0.8837 B(  0-C ,  8-H ) :   0.9322 B(  0-C ,  9-H ) :   0.9408
B(  0-C , 10-H ) :   0.9295 B(  1-C ,  2-N ) :   0.9643 B(  1-C ,  3-C ) :   0.8885
B(  1-C ,  7-C ) :   0.9170 B(  2-N ,  3-C ) :   0.9338 B(  2-N , 11-H ) :   0.8657
B(  3-C ,  4-C ) :   0.8847 B(  3-C , 12-H ) :   0.9099 B(  4-C ,  5-O ) :   0.9623
B(  4-C ,  7-C ) :   0.9974 B(  4-C , 13-H ) :   0.9330 B(  5-O ,  6-C ) :   0.9447
B(  6-C ,  7-C ) :   0.9708 B(  6-C , 14-H ) :   0.9127 B(  6-C , 15-H ) :   0.9006
B(  7-C , 16-H ) :   0.9295

MP2 TOTAL ENERGY:     -363.161309306 Eh
FINAL SINGLE POINT ENERGY      -363.161309306185

DIPOLE MOMENT
-------------
                                X             Y             Z
Electronic contribution:      0.46723      -5.04969       0.37162
Nuclear contribution   :     -0.10609       6.34910      -0.21372
                        -----------------------------------------
Total Dipole Moment    :      0.36114       1.29941       0.15790
                        -----------------------------------------
Magnitude (a.u.)       :      1.35787
Magnitude (Debye)      :      3.45144

                             ****ORCA TERMINATED NORMALLY****
TOTAL RUN TIME: 0 days 0 hours 13 minutes 1 seconds 899 msec
