                         Program Version 3.0.3 - RELEASE   -
|  1> ! RI-MP2 RIJK def2-TZVP def2-TZVP/C def2-TZVP/JK TIGHTSCF
|  2> % maxcore 2000
|  3> % mp2 density relaxed end
|  4> *xyz 0 1
|  5>  O        0.0789030491     1.2825267108     0.3358797550
|  6>  C       -0.0321533459    -0.1187210050     0.2235559200
|  7>  C       -1.4472632353    -0.5606568402    -0.1209725915
|  8>  C       -1.6656392044    -2.0964387653    -0.1245594043
|  9>  N       -2.5881647836    -2.3466125774     0.9919228075
| 10>  C       -2.8756376582    -1.2143763709     1.4873778675
| 11>  C       -3.8023594593    -1.0270825621     2.6502745483
| 12>  O       -4.2947247765    -2.2535023135     3.1180933138
| 13>  O       -2.3330503235    -0.0972843919     0.9457128511
| 14>  H       -0.5673665717     1.5607643609     0.9947881460
| 15>  H        0.6461328601    -0.4299067523    -0.5787088585
| 16>  H        0.2848001426    -0.6334152615     1.1461431554
| 17>  H       -1.7779307670    -0.0680460574    -1.0392475392
| 18>  H       -2.1018138744    -2.4574514649    -1.0609944044
| 19>  H       -0.7283242369    -2.6434795637     0.0318924251
| 20>  H       -3.2600168619    -0.4910620672     3.4448783817
| 21>  H       -4.6236523481    -0.3647765607     2.3344825012
| 22>  H       -3.9060828750    -2.9339868379     2.5494094853
| 23> *
| 24>
| 25>                          ****END OF INPUT****

CARTESIAN COORDINATES (ANGSTROEM)
---------------------------------
  O      0.078903    1.282527    0.335880
  C     -0.032153   -0.118721    0.223556
  C     -1.447263   -0.560657   -0.120973
  C     -1.665639   -2.096439   -0.124559
  N     -2.588165   -2.346613    0.991923
  C     -2.875638   -1.214376    1.487378
  C     -3.802359   -1.027083    2.650275
  O     -4.294725   -2.253502    3.118093
  O     -2.333050   -0.097284    0.945713
  H     -0.567367    1.560764    0.994788
  H      0.646133   -0.429907   -0.578709
  H      0.284800   -0.633415    1.146143
  H     -1.777931   -0.068046   -1.039248
  H     -2.101814   -2.457451   -1.060994
  H     -0.728324   -2.643480    0.031892
  H     -3.260017   -0.491062    3.444878
  H     -4.623652   -0.364777    2.334483
  H     -3.906083   -2.933987    2.549409

 Total Charge           Charge          ....    0
 Multiplicity           Mult            ....    1
 Number of Electrons    NEL             ....   70
 Basis Dimension        Dim             ....  333

ORBITAL ENERGIES
----------------

  NO   OCC          E(Eh)            E(eV)
   0   2.0000     -20.613023      -560.9089
   1   2.0000     -20.568332      -559.6928
   2   2.0000     -20.557424      -559.3959
   3   2.0000     -15.561106      -423.4392
   4   2.0000     -11.349701      -308.8411
   5   2.0000     -11.309650      -307.7512
   6   2.0000     -11.299801      -307.4832
   7   2.0000     -11.294064      -307.3271
   8   2.0000     -11.277735      -306.8828
   9   2.0000      -1.457882       -39.6710
  10   2.0000      -1.375751       -37.4361
  11   2.0000      -1.370471       -37.2924
  12   2.0000      -1.228632       -33.4328
  13   2.0000      -1.076783       -29.3008
  14   2.0000      -0.977510       -26.5994
  15   2.0000      -0.924232       -25.1496
  16   2.0000      -0.850522       -23.1439
  17   2.0000      -0.779810       -21.2197
  18   2.0000      -0.736837       -20.0503
  19   2.0000      -0.732638       -19.9361
  20   2.0000      -0.669116       -18.2076
  21   2.0000      -0.657436       -17.8897
  22   2.0000      -0.644368       -17.5341
  23   2.0000      -0.634723       -17.2717
  24   2.0000      -0.620236       -16.8775
  25   2.0000      -0.586952       -15.9718
  26   2.0000      -0.580012       -15.7829
  27   2.0000      -0.563218       -15.3259
  28   2.0000      -0.533762       -14.5244
  29   2.0000      -0.526341       -14.3225
  30   2.0000      -0.506435       -13.7808
  31   2.0000      -0.471528       -12.8309
  32   2.0000      -0.455484       -12.3943
  33   2.0000      -0.447472       -12.1763
  34   2.0000      -0.396893       -10.8000
  35   0.0000       0.130498         3.5510
  36   0.0000       0.147414         4.0113
  37   0.0000       0.154163         4.1950
  38   0.0000       0.164355         4.4723
  39   0.0000       0.177237         4.8229

MULLIKEN ATOMIC CHARGES
-----------------------
   0 O :   -0.469787
   1 C :   -0.060337
   2 C :    0.075940
   3 C :   -0.176708
   4 N :   -0.325930
   5 C :    0.209668
   6 C :    0.007115
   7 O :   -0.481070
   8 O :   -0.303715
   9 H :    0.327425
  10 H :    0.121235
  11 H :    0.113170
  12 H :    0.118512
  13 H :    0.132134
  14 H :    0.134473
  15 H :    0.117093
  16 H :    0.120136
  17 H :    0.340647
Sum of atomic charges:    0.0000000

LOEWDIN ATOMIC CHARGES
----------------------
   0 O :   -0.036656
   1 C :   -0.339468
   2 C :   -0.267430
   3 C :   -0.249478
   4 N :    0.070408
   5 C :   -0.389632
   6 C :   -0.310321
   7 O :   -0.033010
   8 O :    0.244835
   9 H :    0.178804
  10 H :    0.136340
  11 H :    0.124578
  12 H :    0.144424
  13 H :    0.134947
  14 H :    0.137575
  15 H :    0.135950
  16 H :    0.137233
  17 H :    0.180904

  Mayer bond orders larger than 0.1
B(  0-O ,  1-C ) :   0.9305 B(  0-O ,  9-H ) :   0.8348 B(  1-C ,  2-C ) :   0.9352
B(  1-C , 10-H ) :   0.9284 B(  1-C , 11-H ) :   0.9095 B(  2-C ,  3-C ) :   0.9028
B(  2-C ,  8-O ) :   0.7975 B(  2-C , 12-H ) :   0.9228 B(  3-C ,  4-N ) :   0.9346
B(  3-C , 13-H ) :   0.9238 B(  3-C , 14-H ) :   0.9283 B(  4-N ,  5-C ) :   1.7337
B(  5-C ,  6-C ) :   0.9340 B(  5-C ,  8-O ) :   1.0845 B(  6-C ,  7-O ) :   1.0207
B(  6-C , 15-H ) :   0.9195 B(  6-C , 16-H ) :   0.9115 B(  7-O , 17-H ) :   0.8097

MP2 TOTAL ENERGY:     -475.488522320 Eh
FINAL SINGLE POINT ENERGY      -475.488522320494

DIPOLE MOMENT
-------------
                                X             Y             Z
Electronic contribution:     -2.24929       0.35619       1.13031
Nuclear contribution   :      2.66925      -0.27533      -1.76220
                        -----------------------------------------
Total Dipole Moment    :      0.41996       0.08086      -0.63188
                        -----------------------------------------
Magnitude (a.u.)       :      0.76301
Magnitude (Debye)      :      1.93941

                             ****ORCA TERMINATED NORMALLY****
TOTAL RUN TIME: 0 days 0 hours 24 minutes 23 seconds 574 msec
