                         Program Version 3.0.3 - RELEASE   -
|  1> ! RI-MP2 RIJK def2-TZVP def2-TZVP/C def2-TZVP/JK TIGHTSCF
|  2> % maxcore 2000
|  3> % mp2 density relaxed end
|  4> *xyz 0 1
|  5>  C       -0.0241469436     1.4651341393     0.0552083180
|  6>  N        0.0001758554     0.0143347529     0.0150348547
|  7>  C       -1.3342901813    -0.5587013768    -0.1070057085
|  8>  C       -1.3160381960    -2.0864367666    -0.2015829795
|  9>  O       -2.2277044483    -2.6760655648    -0.7572756609
| 10>  C       -0.1979399447    -2.7519880164     0.4387339465
| 11>  C        0.7580412501    -2.0525439891     1.0958399648
| 12>  N        1.7522924162    -2.6304067232     1.8380327273
| 13>  C        0.7315324704    -0.5434709410     1.1349504900
| 14>  H        0.9994362801     1.8547649536     0.0699591462
| 15>  H       -0.5202761363     1.8475133280    -0.8416541780
| 16>  H       -0.5569524779     1.8688954970     0.9380777354
| 17>  H       -1.9880442627    -0.2851580619     0.7488819051
| 18>  H       -1.8153423247    -0.1751711745    -1.0104820873
| 19>  H       -0.1813815318    -3.8371981629     0.4014792346
| 20>  H        1.8782697162    -3.6273628027     1.7579445134
| 21>  H        2.6006742977    -2.1090701316     1.9904208567
| 22>  H        1.7609154361    -0.1603862386     1.1059700356
| 23>  H        0.3147835249    -0.2324868308     2.1180514257
| 24> *
| 25>
| 26>                          ****END OF INPUT****

CARTESIAN COORDINATES (ANGSTROEM)
---------------------------------
  C     -0.024147    1.465134    0.055208
  N      0.000176    0.014335    0.015035
  C     -1.334290   -0.558701   -0.107006
  C     -1.316038   -2.086437   -0.201583
  O     -2.227704   -2.676066   -0.757276
  C     -0.197940   -2.751988    0.438734
  C      0.758041   -2.052544    1.095840
  N      1.752292   -2.630407    1.838033
  C      0.731532   -0.543471    1.134950
  H      0.999436    1.854765    0.069959
  H     -0.520276    1.847513   -0.841654
  H     -0.556952    1.868895    0.938078
  H     -1.988044   -0.285158    0.748882
  H     -1.815342   -0.175171   -1.010482
  H     -0.181382   -3.837198    0.401479
  H      1.878270   -3.627363    1.757945
  H      2.600674   -2.109070    1.990421
  H      1.760915   -0.160386    1.105970
  H      0.314784   -0.232487    2.118051

 Total Charge           Charge          ....    0
 Multiplicity           Mult            ....    1
 Number of Electrons    NEL             ....   68
 Basis Dimension        Dim             ....  339

ORBITAL ENERGIES
----------------

  NO   OCC          E(Eh)            E(eV)
   0   2.0000     -20.512150      -558.1640
   1   2.0000     -15.593814      -424.3292
   2   2.0000     -15.564927      -423.5432
   3   2.0000     -11.311936      -307.8134
   4   2.0000     -11.310945      -307.7865
   5   2.0000     -11.281711      -306.9910
   6   2.0000     -11.257007      -306.3187
   7   2.0000     -11.256344      -306.3007
   8   2.0000     -11.209103      -305.0152
   9   2.0000      -1.356258       -36.9057
  10   2.0000      -1.267897       -34.5012
  11   2.0000      -1.237630       -33.6776
  12   2.0000      -1.056806       -28.7572
  13   2.0000      -1.002676       -27.2842
  14   2.0000      -0.958022       -26.0691
  15   2.0000      -0.853249       -23.2181
  16   2.0000      -0.826383       -22.4870
  17   2.0000      -0.732993       -19.9457
  18   2.0000      -0.700696       -19.0669
  19   2.0000      -0.693905       -18.8821
  20   2.0000      -0.668256       -18.1842
  21   2.0000      -0.645289       -17.5592
  22   2.0000      -0.610351       -16.6085
  23   2.0000      -0.593491       -16.1497
  24   2.0000      -0.587778       -15.9942
  25   2.0000      -0.570189       -15.5156
  26   2.0000      -0.554946       -15.1009
  27   2.0000      -0.524064       -14.2605
  28   2.0000      -0.514411       -13.9978
  29   2.0000      -0.508429       -13.8351
  30   2.0000      -0.482782       -13.1372
  31   2.0000      -0.400129       -10.8881
  32   2.0000      -0.369107       -10.0439
  33   2.0000      -0.330421        -8.9912
  34   0.0000       0.112073         3.0497
  35   0.0000       0.119806         3.2601
  36   0.0000       0.139348         3.7919
  37   0.0000       0.159728         4.3464
  38   0.0000       0.176861         4.8126

MULLIKEN ATOMIC CHARGES
-----------------------
   0 C :   -0.318056
   1 N :   -0.145617
   2 C :   -0.150562
   3 C :    0.208650
   4 O :   -0.323977
   5 C :   -0.351647
   6 C :    0.277529
   7 N :   -0.496365
   8 C :   -0.178204
   9 H :    0.131771
  10 H :    0.142158
  11 H :    0.109453
  12 H :    0.100548
  13 H :    0.134872
  14 H :    0.113858
  15 H :    0.257541
  16 H :    0.254690
  17 H :    0.115408
  18 H :    0.117951
Sum of atomic charges:   -0.0000000

LOEWDIN ATOMIC CHARGES
----------------------
   0 C :   -0.326220
   1 N :    0.068467
   2 C :   -0.242183
   3 C :   -0.347221
   4 O :    0.115030
   5 C :   -0.158962
   6 C :   -0.237943
   7 N :   -0.021136
   8 C :   -0.244808
   9 H :    0.118202
  10 H :    0.121855
  11 H :    0.102868
  12 H :    0.132688
  13 H :    0.146240
  14 H :    0.149572
  15 H :    0.174872
  16 H :    0.171543
  17 H :    0.141371
  18 H :    0.135764

  Mayer bond orders larger than 0.1
B(  0-C ,  1-N ) :   0.9081 B(  0-C ,  9-H ) :   0.9360 B(  0-C , 10-H ) :   0.9370
B(  0-C , 11-H ) :   0.9297 B(  1-N ,  2-C ) :   0.8874 B(  1-N ,  8-C ) :   0.9865
B(  2-C ,  3-C ) :   0.9068 B(  2-C , 12-H ) :   0.8918 B(  2-C , 13-H ) :   0.9096
B(  3-C ,  4-O ) :   1.9617 B(  3-C ,  5-C ) :   1.1161 B(  5-C ,  6-C ) :   1.5061
B(  5-C , 14-H ) :   0.9298 B(  6-C ,  7-N ) :   1.1009 B(  6-C ,  8-C ) :   0.9186
B(  7-N , 15-H ) :   0.8736 B(  7-N , 16-H ) :   0.8679 B(  8-C , 17-H ) :   0.9065
B(  8-C , 18-H ) :   0.9177

MP2 TOTAL ENERGY:     -418.522063864 Eh
FINAL SINGLE POINT ENERGY      -418.522063864406

DIPOLE MOMENT
-------------
                                X             Y             Z
Electronic contribution:     -2.42570      -6.88763      -2.01711
Nuclear contribution   :      4.19323       7.52743       3.08448
                        -----------------------------------------
Total Dipole Moment    :      1.76753       0.63980       1.06737
                        -----------------------------------------
Magnitude (a.u.)       :      2.16166
Magnitude (Debye)      :      5.49450

                             ****ORCA TERMINATED NORMALLY****
TOTAL RUN TIME: 0 days 0 hours 18 minutes 48 seconds 791 msec
