                         Program Version 3.0.3 - RELEASE   -
|  1> ! RI-MP2 RIJK def2-TZVP def2-TZVP/C def2-TZVP/JK TIGHTSCF
|  2> % maxcore 2000
|  3> % mp2 density relaxed end
|  4> *xyz 0 1
|  5>  O        0.0161751133     1.3999274340     0.2066629330
|  6>  C        0.0513394478     0.0128289133    -0.0808068128
|  7>  C       -1.3468941143    -0.5707327354    -0.1032844796
|  8>  C       -1.5635959889    -2.0946532704     0.0485621475
|  9>  C       -2.7286106121    -1.6146435349     0.9473459761
| 10>  O       -1.9898980562    -0.3756419241     1.2029369284
| 11>  C       -3.9280394190    -1.2786787140     0.0850918633
| 12>  C       -3.6911877763    -0.4663275426    -0.9445409379
| 13>  C       -2.2789903812     0.0297507157    -1.1729132395
| 14>  H       -0.4759599665     1.4903678390     1.0318153942
| 15>  H        0.5304209362    -0.0980820781    -1.0601716432
| 16>  H        0.6544248045    -0.5344970104     0.6595729981
| 17>  H       -1.8058691667    -2.6866451588    -0.8350690470
| 18>  H       -0.7568753395    -2.5559261918     0.6227341560
| 19>  H       -2.9620630745    -2.1517258890     1.8681977230
| 20>  H       -4.9068350126    -1.6859296434     0.3132540476
| 21>  H       -4.4740084779    -0.1403944458    -1.6231077723
| 22>  H       -2.2290588047     1.1234806195    -1.1179367561
| 23>  H       -1.9289219713    -0.2475578728    -2.1769493388
| 24> *
| 25>
| 26>                          ****END OF INPUT****

CARTESIAN COORDINATES (ANGSTROEM)
---------------------------------
  O      0.016175    1.399927    0.206663
  C      0.051339    0.012829   -0.080807
  C     -1.346894   -0.570733   -0.103284
  C     -1.563596   -2.094653    0.048562
  C     -2.728611   -1.614644    0.947346
  O     -1.989898   -0.375642    1.202937
  C     -3.928039   -1.278679    0.085092
  C     -3.691188   -0.466328   -0.944541
  C     -2.278990    0.029751   -1.172913
  H     -0.475960    1.490368    1.031815
  H      0.530421   -0.098082   -1.060172
  H      0.654425   -0.534497    0.659573
  H     -1.805869   -2.686645   -0.835069
  H     -0.756875   -2.555926    0.622734
  H     -2.962063   -2.151726    1.868198
  H     -4.906835   -1.685930    0.313254
  H     -4.474008   -0.140394   -1.623108
  H     -2.229059    1.123481   -1.117937
  H     -1.928922   -0.247558   -2.176949

 Total Charge           Charge          ....    0
 Multiplicity           Mult            ....    1
 Number of Electrons    NEL             ....   68
 Basis Dimension        Dim             ....  339

ORBITAL ENERGIES
----------------

  NO   OCC          E(Eh)            E(eV)
   0   2.0000     -20.553224      -559.2817
   1   2.0000     -20.549126      -559.1702
   2   2.0000     -11.293480      -307.3112
   3   2.0000     -11.292772      -307.2919
   4   2.0000     -11.276213      -306.8413
   5   2.0000     -11.235681      -305.7384
   6   2.0000     -11.234766      -305.7135
   7   2.0000     -11.231465      -305.6237
   8   2.0000     -11.227413      -305.5134
   9   2.0000      -1.388657       -37.7873
  10   2.0000      -1.354508       -36.8580
  11   2.0000      -1.098373       -29.8882
  12   2.0000      -1.030875       -28.0515
  13   2.0000      -1.000820       -27.2337
  14   2.0000      -0.922854       -25.1121
  15   2.0000      -0.845841       -23.0165
  16   2.0000      -0.793942       -21.6043
  17   2.0000      -0.719147       -19.5690
  18   2.0000      -0.706632       -19.2284
  19   2.0000      -0.665203       -18.1011
  20   2.0000      -0.639983       -17.4148
  21   2.0000      -0.631267       -17.1777
  22   2.0000      -0.599577       -16.3153
  23   2.0000      -0.586094       -15.9484
  24   2.0000      -0.568793       -15.4776
  25   2.0000      -0.561310       -15.2740
  26   2.0000      -0.545498       -14.8437
  27   2.0000      -0.519493       -14.1361
  28   2.0000      -0.511317       -13.9136
  29   2.0000      -0.473177       -12.8758
  30   2.0000      -0.459393       -12.5007
  31   2.0000      -0.438963       -11.9448
  32   2.0000      -0.406183       -11.0528
  33   2.0000      -0.353762        -9.6264
  34   0.0000       0.131913         3.5895
  35   0.0000       0.141008         3.8370
  36   0.0000       0.161215         4.3869
  37   0.0000       0.167760         4.5650
  38   0.0000       0.180591         4.9141

MULLIKEN ATOMIC CHARGES
-----------------------
   0 O :   -0.473929
   1 C :    0.031070
   2 C :    0.087768
   3 C :   -0.239796
   4 C :    0.189347
   5 O :   -0.361894
   6 C :   -0.291806
   7 C :   -0.149727
   8 C :   -0.214558
   9 H :    0.330907
  10 H :    0.103572
  11 H :    0.103774
  12 H :    0.127363
  13 H :    0.118931
  14 H :    0.131947
  15 H :    0.124273
  16 H :    0.129623
  17 H :    0.136319
  18 H :    0.116815
Sum of atomic charges:    0.0000000

LOEWDIN ATOMIC CHARGES
----------------------
   0 O :   -0.038248
   1 C :   -0.308104
   2 C :   -0.319425
   3 C :   -0.173347
   4 C :   -0.245483
   5 O :    0.158268
   6 C :   -0.153966
   7 C :   -0.145938
   8 C :   -0.202462
   9 H :    0.182227
  10 H :    0.134737
  11 H :    0.123947
  12 H :    0.133700
  13 H :    0.138120
  14 H :    0.134348
  15 H :    0.139603
  16 H :    0.140267
  17 H :    0.153351
  18 H :    0.148407

  Mayer bond orders larger than 0.1
B(  0-O ,  1-C ) :   0.9252 B(  0-O ,  9-H ) :   0.8319 B(  1-C ,  2-C ) :   0.9174
B(  1-C , 10-H ) :   0.9145 B(  1-C , 11-H ) :   0.9353 B(  2-C ,  3-C ) :   0.9150
B(  2-C ,  5-O ) :   0.8970 B(  2-C ,  8-C ) :   0.9881 B(  3-C ,  4-C ) :   0.9256
B(  3-C , 12-H ) :   0.9140 B(  3-C , 13-H ) :   0.9206 B(  4-C ,  5-O ) :   0.9187
B(  4-C ,  6-C ) :   0.9316 B(  4-C , 14-H ) :   0.9149 B(  6-C ,  7-C ) :   1.8179
B(  6-C , 15-H ) :   0.9287 B(  7-C ,  8-C ) :   0.9408 B(  7-C , 16-H ) :   0.9333
B(  8-C , 17-H ) :   0.8990 B(  8-C , 18-H ) :   0.9048

MP2 TOTAL ENERGY:     -422.307257455 Eh
FINAL SINGLE POINT ENERGY      -422.307257455399

DIPOLE MOMENT
-------------
                                X             Y             Z
Electronic contribution:     -0.65405       1.45539       2.32594
Nuclear contribution   :      0.36282      -2.30792      -2.56801
                        -----------------------------------------
Total Dipole Moment    :     -0.29123      -0.85253      -0.24208
                        -----------------------------------------
Magnitude (a.u.)       :      0.93285
Magnitude (Debye)      :      2.37113

                             ****ORCA TERMINATED NORMALLY****
TOTAL RUN TIME: 0 days 0 hours 18 minutes 55 seconds 32 msec
