                         Program Version 3.0.3 - RELEASE   -
|  1> ! RI-MP2 RIJK def2-TZVP def2-TZVP/C def2-TZVP/JK TIGHTSCF
|  2> % maxcore 2000
|  3> % mp2 density relaxed end
|  4> *xyz 0 1
|  5>  C       -0.0688362746     1.5136337373    -0.0951224062
|  6>  C        0.0594551421     0.0013804434    -0.0042067649
|  7>  O        0.7041116802    -0.4502386416    -1.1940355809
|  8>  C        0.7467337158    -1.8672651282    -1.2470620314
|  9>  C        1.4825893397    -2.4218565428    -0.0335152656
| 10>  O        0.9044264266    -1.9378900994     1.1690752188
| 11>  C        0.8257151165    -0.5083062729     1.2309788861
| 12>  C        2.2036022452     0.1322246172     1.4244479292
| 13>  H        0.9110531553     1.9838993201    -0.2105607899
| 14>  H       -0.6783631571     1.7845249864    -0.9611369325
| 15>  H       -0.5463965095     1.9155512310     0.8040183680
| 16>  H       -0.9466631587    -0.4502740359     0.0404925756
| 17>  H       -0.2776304727    -2.2743361358    -1.2776524142
| 18>  H        1.2587863575    -2.1382507072    -2.1758424227
| 19>  H        1.4042743482    -3.5132006672     0.0043959032
| 20>  H        2.5492232952    -2.1584556585    -0.0943406683
| 21>  H        0.2132857393    -0.3146648462     2.1193095120
| 22>  H        2.7866366010     0.1258928634     0.4999867135
| 23>  H        2.1039685066     1.1713128348     1.7509006183
| 24>  H        2.7551087836    -0.4146236478     2.1939633018
| 25> *
| 26>
| 27>                          ****END OF INPUT****

CARTESIAN COORDINATES (ANGSTROEM)
---------------------------------
  C     -0.068836    1.513634   -0.095122
  C      0.059455    0.001380   -0.004207
  O      0.704112   -0.450239   -1.194036
  C      0.746734   -1.867265   -1.247062
  C      1.482589   -2.421857   -0.033515
  O      0.904426   -1.937890    1.169075
  C      0.825715   -0.508306    1.230979
  C      2.203602    0.132225    1.424448
  H      0.911053    1.983899   -0.210561
  H     -0.678363    1.784525   -0.961137
  H     -0.546397    1.915551    0.804018
  H     -0.946663   -0.450274    0.040493
  H     -0.277630   -2.274336   -1.277652
  H      1.258786   -2.138251   -2.175842
  H      1.404274   -3.513201    0.004396
  H      2.549223   -2.158456   -0.094341
  H      0.213286   -0.314665    2.119310
  H      2.786637    0.125893    0.499987
  H      2.103969    1.171313    1.750901
  H      2.755109   -0.414624    2.193963

 Total Charge           Charge          ....    0
 Multiplicity           Mult            ....    1
 Number of Electrons    NEL             ....   64
 Basis Dimension        Dim             ....  320

ORBITAL ENERGIES
----------------

  NO   OCC          E(Eh)            E(eV)
   0   2.0000     -20.554262      -559.3099
   1   2.0000     -20.551445      -559.2332
   2   2.0000     -11.278535      -306.9045
   3   2.0000     -11.277811      -306.8848
   4   2.0000     -11.273733      -306.7739
   5   2.0000     -11.272273      -306.7341
   6   2.0000     -11.217003      -305.2302
   7   2.0000     -11.213469      -305.1340
   8   2.0000      -1.394007       -37.9329
   9   2.0000      -1.351514       -36.7766
  10   2.0000      -1.074307       -29.2334
  11   2.0000      -0.984228       -26.7822
  12   2.0000      -0.976528       -26.5727
  13   2.0000      -0.881736       -23.9933
  14   2.0000      -0.853639       -23.2287
  15   2.0000      -0.755663       -20.5626
  16   2.0000      -0.690197       -18.7812
  17   2.0000      -0.659689       -17.9511
  18   2.0000      -0.655015       -17.8239
  19   2.0000      -0.636762       -17.3272
  20   2.0000      -0.612870       -16.6770
  21   2.0000      -0.570132       -15.5141
  22   2.0000      -0.559474       -15.2241
  23   2.0000      -0.551130       -14.9970
  24   2.0000      -0.536261       -14.5924
  25   2.0000      -0.529985       -14.4216
  26   2.0000      -0.516902       -14.0656
  27   2.0000      -0.500853       -13.6289
  28   2.0000      -0.481530       -13.1031
  29   2.0000      -0.454361       -12.3638
  30   2.0000      -0.437847       -11.9144
  31   2.0000      -0.388680       -10.5765
  32   0.0000       0.138061         3.7568
  33   0.0000       0.157645         4.2897
  34   0.0000       0.162833         4.4309
  35   0.0000       0.183628         4.9968
  36   0.0000       0.195759         5.3269

MULLIKEN ATOMIC CHARGES
-----------------------
   0 C :   -0.391543
   1 C :    0.072885
   2 O :   -0.314800
   3 C :   -0.068739
   4 C :   -0.064642
   5 O :   -0.320382
   6 C :    0.123662
   7 C :   -0.480555
   8 H :    0.139623
   9 H :    0.141113
  10 H :    0.126587
  11 H :    0.072954
  12 H :    0.090363
  13 H :    0.122479
  14 H :    0.123257
  15 H :    0.095672
  16 H :    0.102749
  17 H :    0.145720
  18 H :    0.137161
  19 H :    0.146437
Sum of atomic charges:   -0.0000000

LOEWDIN ATOMIC CHARGES
----------------------
   0 C :   -0.287369
   1 C :   -0.333260
   2 O :    0.171737
   3 C :   -0.325019
   4 C :   -0.326335
   5 O :    0.165144
   6 C :   -0.325126
   7 C :   -0.299375
   8 H :    0.127777
   9 H :    0.128331
  10 H :    0.128491
  11 H :    0.139903
  12 H :    0.121327
  13 H :    0.130849
  14 H :    0.131616
  15 H :    0.121543
  16 H :    0.147796
  17 H :    0.126122
  18 H :    0.126922
  19 H :    0.128925

  Mayer bond orders larger than 0.1
B(  0-C ,  1-C ) :   0.8934 B(  0-C ,  8-H ) :   0.9367 B(  0-C ,  9-H ) :   0.9344
B(  0-C , 10-H ) :   0.9341 B(  1-C ,  2-O ) :   0.9215 B(  1-C ,  6-C ) :   0.9289
B(  1-C , 11-H ) :   0.9247 B(  2-O ,  3-C ) :   0.9342 B(  3-C ,  4-C ) :   0.9543
B(  3-C , 12-H ) :   0.9300 B(  3-C , 13-H ) :   0.9183 B(  4-C ,  5-O ) :   0.9349
B(  4-C , 14-H ) :   0.9185 B(  4-C , 15-H ) :   0.9291 B(  5-O ,  6-C ) :   0.9223
B(  6-C ,  7-C ) :   0.8849 B(  6-C , 16-H ) :   0.9153 B(  7-C , 17-H ) :   0.9307
B(  7-C , 18-H ) :   0.9314 B(  7-C , 19-H ) :   0.9391

MP2 TOTAL ENERGY:     -385.512871128 Eh
FINAL SINGLE POINT ENERGY      -385.512871127861

DIPOLE MOMENT
-------------
                                X             Y             Z
Electronic contribution:     -1.08739      -3.68277      -0.83854
Nuclear contribution   :      1.08689       3.75585       0.81288
                        -----------------------------------------
Total Dipole Moment    :     -0.00050       0.07307      -0.02566
                        -----------------------------------------
Magnitude (a.u.)       :      0.07745
Magnitude (Debye)      :      0.19686

                             ****ORCA TERMINATED NORMALLY****
TOTAL RUN TIME: 0 days 0 hours 13 minutes 48 seconds 860 msec
