                         Program Version 3.0.3 - RELEASE   -
|  1> ! RI-MP2 RIJK def2-TZVP def2-TZVP/C def2-TZVP/JK TIGHTSCF
|  2> % maxcore 2000
|  3> % mp2 density relaxed end
|  4> *xyz 0 1
|  5>  C       -0.0081003908     1.5381916187    -0.0020484335
|  6>  C       -0.0113343831    -0.0013665563    -0.0180246102
|  7>  O        0.6688390149    -0.5144048202     1.1125656437
|  8>  C       -1.4542851458    -0.5785773074    -0.0324870355
|  9>  O       -2.0525627731    -0.3983925100     1.2417323317
| 10>  C        0.6861522403    -0.4819004157    -1.2267296980
| 11>  N        1.1874319149    -0.8414802036    -2.2032321739
| 12>  H        1.0175342811     1.9026156898     0.0786518303
| 13>  H       -0.4622932588     1.9514870657    -0.9073758127
| 14>  H       -0.5622197744     1.8944232847     0.8723624134
| 15>  H       -0.0102884858    -0.5879572057     1.7992966418
| 16>  H       -2.0450035708    -0.1289844245    -0.8390989460
| 17>  H       -1.4004333996    -1.6575748434    -0.1957687742
| 18>  H       -2.3904126191     0.5007843180     1.3035203529
| 19> *
| 20>
| 21>                          ****END OF INPUT****

CARTESIAN COORDINATES (ANGSTROEM)
---------------------------------
  C     -0.008100    1.538192   -0.002048
  C     -0.011334   -0.001367   -0.018025
  O      0.668839   -0.514405    1.112566
  C     -1.454285   -0.578577   -0.032487
  O     -2.052563   -0.398393    1.241732
  C      0.686152   -0.481900   -1.226730
  N      1.187432   -0.841480   -2.203232
  H      1.017534    1.902616    0.078652
  H     -0.462293    1.951487   -0.907376
  H     -0.562220    1.894423    0.872362
  H     -0.010288   -0.587957    1.799297
  H     -2.045004   -0.128984   -0.839099
  H     -1.400433   -1.657575   -0.195769
  H     -2.390413    0.500784    1.303520

 Total Charge           Charge          ....    0
 Multiplicity           Mult            ....    1
 Number of Electrons    NEL             ....   54
 Basis Dimension        Dim             ....  259

ORBITAL ENERGIES
----------------

  NO   OCC          E(Eh)            E(eV)
   0   2.0000     -20.600713      -560.5739
   1   2.0000     -20.581942      -560.0631
   2   2.0000     -15.578985      -423.9257
   3   2.0000     -11.349985      -308.8488
   4   2.0000     -11.316109      -307.9270
   5   2.0000     -11.275944      -306.8340
   6   2.0000     -11.252511      -306.1964
   7   2.0000      -1.418061       -38.5874
   8   2.0000      -1.384912       -37.6854
   9   2.0000      -1.224364       -33.3167
  10   2.0000      -1.082843       -29.4656
  11   2.0000      -0.971049       -26.4236
  12   2.0000      -0.886192       -24.1145
  13   2.0000      -0.743172       -20.2227
  14   2.0000      -0.730432       -19.8761
  15   2.0000      -0.711320       -19.3560
  16   2.0000      -0.658499       -17.9187
  17   2.0000      -0.621896       -16.9227
  18   2.0000      -0.593473       -16.1492
  19   2.0000      -0.580444       -15.7947
  20   2.0000      -0.562451       -15.3051
  21   2.0000      -0.552851       -15.0438
  22   2.0000      -0.533834       -14.5264
  23   2.0000      -0.505562       -13.7570
  24   2.0000      -0.495116       -13.4728
  25   2.0000      -0.473836       -12.8937
  26   2.0000      -0.446571       -12.1518
  27   0.0000       0.103273         2.8102
  28   0.0000       0.144153         3.9226
  29   0.0000       0.157896         4.2966
  30   0.0000       0.167096         4.5469
  31   0.0000       0.191506         5.2111

MULLIKEN ATOMIC CHARGES
-----------------------
   0 C :   -0.398406
   1 C :    0.265623
   2 O :   -0.450667
   3 C :   -0.089775
   4 O :   -0.476396
   5 C :   -0.171844
   6 N :   -0.056368
   7 H :    0.161181
   8 H :    0.141335
   9 H :    0.116805
  10 H :    0.342604
  11 H :    0.132201
  12 H :    0.152536
  13 H :    0.331173
Sum of atomic charges:   -0.0000000

LOEWDIN ATOMIC CHARGES
----------------------
   0 C :   -0.257565
   1 C :   -0.415657
   2 O :    0.031115
   3 C :   -0.293771
   4 O :   -0.034488
   5 C :   -0.141125
   6 N :    0.077685
   7 H :    0.138998
   8 H :    0.132821
   9 H :    0.123354
  10 H :    0.185956
  11 H :    0.130568
  12 H :    0.143241
  13 H :    0.178867

  Mayer bond orders larger than 0.1
B(  0-C ,  1-C ) :   0.9089 B(  0-C ,  7-H ) :   0.9334 B(  0-C ,  8-H ) :   0.9218
B(  0-C ,  9-H ) :   0.9253 B(  1-C ,  2-O ) :   1.0242 B(  1-C ,  3-C ) :   0.9135
B(  1-C ,  5-C ) :   0.8488 B(  2-O , 10-H ) :   0.8094 B(  3-C ,  4-O ) :   0.9066
B(  3-C , 11-H ) :   0.9273 B(  3-C , 12-H ) :   0.9295 B(  4-O , 13-H ) :   0.8386
B(  5-C ,  6-N ) :   2.8550

MP2 TOTAL ENERGY:     -361.151562824 Eh
FINAL SINGLE POINT ENERGY      -361.151562824447

DIPOLE MOMENT
-------------
                                X             Y             Z
Electronic contribution:      2.76329      -3.60739      -1.67238
Nuclear contribution   :     -4.14265       4.71177       2.42370
                        -----------------------------------------
Total Dipole Moment    :     -1.37936       1.10439       0.75132
                        -----------------------------------------
Magnitude (a.u.)       :      1.92010
Magnitude (Debye)      :      4.88050

                             ****ORCA TERMINATED NORMALLY****
TOTAL RUN TIME: 0 days 0 hours 7 minutes 36 seconds 359 msec
