                         Program Version 3.0.3 - RELEASE   -
|  1> ! RI-MP2 RIJK def2-TZVP def2-TZVP/C def2-TZVP/JK TIGHTSCF
|  2> % maxcore 2000
|  3> % mp2 density relaxed end
|  4> *xyz 0 1
|  5>  C        0.0670973729     1.5104273976     0.1955809538
|  6>  C       -0.0749043134     0.0027478310    -0.0573251550
|  7>  C        0.6658784400    -0.4586561312    -1.2786037413
|  8>  C        1.1479007410    -1.8258765863    -1.7526581530
|  9>  C        0.5552893725    -1.6017385871    -3.1451206757
| 10>  C        0.4099017157    -0.0909164266    -2.7692596275
| 11>  O        1.5163962463     0.6801432042    -3.2128425551
| 12>  C        2.6763066206     0.1321868664    -2.5724529603
| 13>  C        2.1377597344    -0.7130584494    -1.4242829874
| 14>  H        1.1139431065     1.7839092942     0.3618563338
| 15>  H       -0.2925231013     2.0896183900    -0.6609499983
| 16>  H       -0.5077915298     1.8182210236     1.0744440876
| 17>  H        0.2909236043    -0.5545018554     0.8146186307
| 18>  H       -1.1389629334    -0.2527158607    -0.1528031982
| 19>  H        1.1607635458    -2.7601829049    -1.2019865382
| 20>  H        1.1658177809    -1.8235866619    -4.0268989222
| 21>  H       -0.4188579833    -2.0880335590    -3.2498118006
| 22>  H       -0.5071081264     0.4235445721    -3.0561041980
| 23>  H        3.2653117847    -0.4543008079    -3.2915287178
| 24>  H        3.3020038340     0.9589174550    -2.2159169386
| 25>  H        2.7402161881    -0.8448548735    -0.5324624988
| 26> *
| 27>
| 28>                          ****END OF INPUT****

CARTESIAN COORDINATES (ANGSTROEM)
---------------------------------
  C      0.067097    1.510427    0.195581
  C     -0.074904    0.002748   -0.057325
  C      0.665878   -0.458656   -1.278604
  C      1.147901   -1.825877   -1.752658
  C      0.555289   -1.601739   -3.145121
  C      0.409902   -0.090916   -2.769260
  O      1.516396    0.680143   -3.212843
  C      2.676307    0.132187   -2.572453
  C      2.137760   -0.713058   -1.424283
  H      1.113943    1.783909    0.361856
  H     -0.292523    2.089618   -0.660950
  H     -0.507792    1.818221    1.074444
  H      0.290924   -0.554502    0.814619
  H     -1.138963   -0.252716   -0.152803
  H      1.160764   -2.760183   -1.201987
  H      1.165818   -1.823587   -4.026899
  H     -0.418858   -2.088034   -3.249812
  H     -0.507108    0.423545   -3.056104
  H      3.265312   -0.454301   -3.291529
  H      3.302004    0.958917   -2.215917
  H      2.740216   -0.844855   -0.532462

 Total Charge           Charge          ....    0
 Multiplicity           Mult            ....    1
 Number of Electrons    NEL             ....   68
 Basis Dimension        Dim             ....  351

ORBITAL ENERGIES
----------------

  NO   OCC          E(Eh)            E(eV)
   0   2.0000     -20.545193      -559.0631
   1   2.0000     -11.277811      -306.8848
   2   2.0000     -11.269940      -306.6707
   3   2.0000     -11.233820      -305.6878
   4   2.0000     -11.231922      -305.6361
   5   2.0000     -11.230710      -305.6031
   6   2.0000     -11.228126      -305.5329
   7   2.0000     -11.222492      -305.3795
   8   2.0000     -11.213552      -305.1363
   9   2.0000      -1.374951       -37.4143
  10   2.0000      -1.183747       -32.2114
  11   2.0000      -1.035240       -28.1703
  12   2.0000      -1.009527       -27.4706
  13   2.0000      -0.914821       -24.8936
  14   2.0000      -0.860286       -23.4096
  15   2.0000      -0.851362       -23.1667
  16   2.0000      -0.765743       -20.8369
  17   2.0000      -0.721571       -19.6349
  18   2.0000      -0.690135       -18.7795
  19   2.0000      -0.640861       -17.4387
  20   2.0000      -0.622342       -16.9348
  21   2.0000      -0.607838       -16.5401
  22   2.0000      -0.575735       -15.6665
  23   2.0000      -0.562483       -15.3059
  24   2.0000      -0.549301       -14.9472
  25   2.0000      -0.544070       -14.8049
  26   2.0000      -0.521849       -14.2002
  27   2.0000      -0.518589       -14.1115
  28   2.0000      -0.492251       -13.3948
  29   2.0000      -0.482814       -13.1380
  30   2.0000      -0.439706       -11.9650
  31   2.0000      -0.418621       -11.3912
  32   2.0000      -0.381031       -10.3684
  33   2.0000      -0.369725       -10.0607
  34   0.0000       0.132518         3.6060
  35   0.0000       0.157448         4.2844
  36   0.0000       0.161751         4.4015
  37   0.0000       0.167316         4.5529
  38   0.0000       0.187647         5.1061

MULLIKEN ATOMIC CHARGES
-----------------------
   0 C :   -0.392129
   1 C :   -0.222801
   2 C :    0.073487
   3 C :   -0.159185
   4 C :   -0.223454
   5 C :    0.045099
   6 O :   -0.316380
   7 C :   -0.034037
   8 C :   -0.188638
   9 H :    0.124075
  10 H :    0.131757
  11 H :    0.132576
  12 H :    0.111412
  13 H :    0.111979
  14 H :    0.126020
  15 H :    0.111578
  16 H :    0.116473
  17 H :    0.116131
  18 H :    0.095598
  19 H :    0.108998
  20 H :    0.131441
Sum of atomic charges:   -0.0000000

LOEWDIN ATOMIC CHARGES
----------------------
   0 C :   -0.307488
   1 C :   -0.259158
   2 C :   -0.164492
   3 C :   -0.147186
   4 C :   -0.198530
   5 C :   -0.233998
   6 O :    0.164339
   7 C :   -0.270124
   8 C :   -0.171180
   9 H :    0.122038
  10 H :    0.124029
  11 H :    0.119811
  12 H :    0.143427
  13 H :    0.141167
  14 H :    0.134904
  15 H :    0.126876
  16 H :    0.138139
  17 H :    0.136447
  18 H :    0.122270
  19 H :    0.125958
  20 H :    0.152750

  Mayer bond orders larger than 0.1
B(  0-C ,  1-C ) :   0.9408 B(  0-C ,  9-H ) :   0.9375 B(  0-C , 10-H ) :   0.9359
B(  0-C , 11-H ) :   0.9387 B(  1-C ,  2-C ) :   0.8780 B(  1-C , 12-H ) :   0.9365
B(  1-C , 13-H ) :   0.9296 B(  2-C ,  3-C ) :   0.7943 B(  2-C ,  5-C ) :   0.8980
B(  2-C ,  8-C ) :   0.8509 B(  3-C ,  4-C ) :   0.9756 B(  3-C ,  8-C ) :   0.8836
B(  3-C , 14-H ) :   0.9211 B(  4-C ,  5-C ) :   0.9243 B(  4-C , 15-H ) :   0.9148
B(  4-C , 16-H ) :   0.9240 B(  5-C ,  6-O ) :   0.9799 B(  5-C , 17-H ) :   0.9320
B(  6-O ,  7-C ) :   0.9441 B(  7-C ,  8-C ) :   0.9747 B(  7-C , 18-H ) :   0.9155
B(  7-C , 19-H ) :   0.9241 B(  8-C , 20-H ) :   0.9231

MP2 TOTAL ENERGY:     -386.391395164 Eh
FINAL SINGLE POINT ENERGY      -386.391395164162

DIPOLE MOMENT
-------------
                                X             Y             Z
Electronic contribution:      1.76265      -1.31645      -4.36059
Nuclear contribution   :     -1.83636       0.89945       4.91593
                        -----------------------------------------
Total Dipole Moment    :     -0.07371      -0.41700       0.55534
                        -----------------------------------------
Magnitude (a.u.)       :      0.69837
Magnitude (Debye)      :      1.77513

                             ****ORCA TERMINATED NORMALLY****
TOTAL RUN TIME: 0 days 0 hours 20 minutes 10 seconds 212 msec
