                         Program Version 3.0.3 - RELEASE   -
|  1> ! RI-MP2 RIJK def2-TZVP def2-TZVP/C def2-TZVP/JK TIGHTSCF
|  2> % maxcore 2000
|  3> % mp2 density relaxed end
|  4> *xyz 0 1
|  5>  C       -0.0107420665     1.6108594275    -0.2862556742
|  6>  C        0.0017115235     0.1067158030    -0.0819375856
|  7>  C        1.2940336819    -0.6308960098    -0.3384572625
|  8>  C        0.7938537593    -0.4565444633     1.0753007063
|  9>  C       -1.2919185540    -0.6341687409    -0.4328335618
| 10>  C       -2.5065390586    -0.2281645323     0.4411252751
| 11>  O       -3.6389150108    -1.0277021864     0.1854692230
| 12>  C       -1.6488523851    -0.4629421866    -1.8475295344
| 13>  N       -1.9756851418    -0.3072830970    -2.9459309029
| 14>  H        0.9733060836     2.0336145096    -0.0648029418
| 15>  H       -0.2580499183     1.8671245229    -1.3221554506
| 16>  H       -0.7351422787     2.1088699379     0.3670041820
| 17>  H        1.2454059248    -1.6209787781    -0.7790622983
| 18>  H        2.1507405190    -0.0469605022    -0.6561027944
| 19>  H        1.3104326614     0.2445854547     1.7216542062
| 20>  H        0.4097645045    -1.3307891164     1.5907689970
| 21>  H       -1.1394081263    -1.7079876971    -0.2712328054
| 22>  H       -2.2384381375    -0.3899562120     1.4889781921
| 23>  H       -2.7222537436     0.8405107365     0.3075373675
| 24>  H       -3.9505372168    -0.8312401100    -0.7054969471
| 25> *
| 26>
| 27>                          ****END OF INPUT****

CARTESIAN COORDINATES (ANGSTROEM)
---------------------------------
  C     -0.010742    1.610859   -0.286256
  C      0.001712    0.106716   -0.081938
  C      1.294034   -0.630896   -0.338457
  C      0.793854   -0.456544    1.075301
  C     -1.291919   -0.634169   -0.432834
  C     -2.506539   -0.228165    0.441125
  O     -3.638915   -1.027702    0.185469
  C     -1.648852   -0.462942   -1.847530
  N     -1.975685   -0.307283   -2.945931
  H      0.973306    2.033615   -0.064803
  H     -0.258050    1.867125   -1.322155
  H     -0.735142    2.108870    0.367004
  H      1.245406   -1.620979   -0.779062
  H      2.150741   -0.046961   -0.656103
  H      1.310433    0.244585    1.721654
  H      0.409765   -1.330789    1.590769
  H     -1.139408   -1.707988   -0.271233
  H     -2.238438   -0.389956    1.488978
  H     -2.722254    0.840511    0.307537
  H     -3.950537   -0.831240   -0.705497

 Total Charge           Charge          ....    0
 Multiplicity           Mult            ....    1
 Number of Electrons    NEL             ....   68
 Basis Dimension        Dim             ....  345

ORBITAL ENERGIES
----------------

  NO   OCC          E(Eh)            E(eV)
   0   2.0000     -20.572451      -559.8049
   1   2.0000     -15.574267      -423.7974
   2   2.0000     -11.301958      -307.5419
   3   2.0000     -11.288376      -307.1723
   4   2.0000     -11.276323      -306.8443
   5   2.0000     -11.267513      -306.6046
   6   2.0000     -11.244461      -305.9773
   7   2.0000     -11.242433      -305.9222
   8   2.0000     -11.234509      -305.7065
   9   2.0000      -1.380688       -37.5704
  10   2.0000      -1.225783       -33.3552
  11   2.0000      -1.181706       -32.1558
  12   2.0000      -1.062597       -28.9147
  13   2.0000      -0.979189       -26.6451
  14   2.0000      -0.905718       -24.6458
  15   2.0000      -0.843476       -22.9522
  16   2.0000      -0.785720       -21.3805
  17   2.0000      -0.725703       -19.7474
  18   2.0000      -0.702715       -19.1219
  19   2.0000      -0.675649       -18.3853
  20   2.0000      -0.648244       -17.6396
  21   2.0000      -0.615176       -16.7398
  22   2.0000      -0.596204       -16.2235
  23   2.0000      -0.585430       -15.9304
  24   2.0000      -0.566576       -15.4173
  25   2.0000      -0.555752       -15.1228
  26   2.0000      -0.534545       -14.5457
  27   2.0000      -0.529148       -14.3988
  28   2.0000      -0.512717       -13.9517
  29   2.0000      -0.488060       -13.2808
  30   2.0000      -0.463258       -12.6059
  31   2.0000      -0.458455       -12.4752
  32   2.0000      -0.431511       -11.7420
  33   2.0000      -0.415460       -11.3052
  34   0.0000       0.122923         3.3449
  35   0.0000       0.144332         3.9275
  36   0.0000       0.149409         4.0656
  37   0.0000       0.151928         4.1342
  38   0.0000       0.169694         4.6176

MULLIKEN ATOMIC CHARGES
-----------------------
   0 C :   -0.453350
   1 C :    0.087041
   2 C :   -0.285186
   3 C :   -0.281055
   4 C :    0.084060
   5 C :   -0.055136
   6 O :   -0.467291
   7 C :   -0.282147
   8 N :   -0.042015
   9 H :    0.135398
  10 H :    0.161527
  11 H :    0.137928
  12 H :    0.137129
  13 H :    0.137206
  14 H :    0.138529
  15 H :    0.134987
  16 H :    0.125193
  17 H :    0.131322
  18 H :    0.124831
  19 H :    0.331029
Sum of atomic charges:   -0.0000000

LOEWDIN ATOMIC CHARGES
----------------------
   0 C :   -0.257716
   1 C :   -0.248030
   2 C :   -0.198168
   3 C :   -0.203079
   4 C :   -0.216562
   5 C :   -0.303409
   6 O :   -0.027733
   7 C :   -0.175023
   8 N :    0.059884
   9 H :    0.132585
  10 H :    0.135887
  11 H :    0.126651
  12 H :    0.137089
  13 H :    0.136698
  14 H :    0.136421
  15 H :    0.135872
  16 H :    0.184779
  17 H :    0.137216
  18 H :    0.124852
  19 H :    0.181785

  Mayer bond orders larger than 0.1
B(  0-C ,  1-C ) :   0.9189 B(  0-C ,  9-H ) :   0.9296 B(  0-C , 10-H ) :   0.9317
B(  0-C , 11-H ) :   0.9367 B(  1-C ,  2-C ) :   0.8682 B(  1-C ,  3-C ) :   0.8660
B(  1-C ,  4-C ) :   0.8496 B(  2-C ,  3-C ) :   0.9101 B(  2-C , 12-H ) :   0.9214
B(  2-C , 13-H ) :   0.9287 B(  3-C , 14-H ) :   0.9294 B(  3-C , 15-H ) :   0.9209
B(  4-C ,  5-C ) :   0.8875 B(  4-C ,  7-C ) :   0.9035 B(  4-C , 16-H ) :   0.8934
B(  5-C ,  6-O ) :   0.9537 B(  5-C , 17-H ) :   0.9228 B(  5-C , 18-H ) :   0.9304
B(  6-O , 19-H ) :   0.8368 B(  7-C ,  8-N ) :   2.8795

MP2 TOTAL ENERGY:     -402.464492010 Eh
FINAL SINGLE POINT ENERGY      -402.464492009740

DIPOLE MOMENT
-------------
                                X             Y             Z
Electronic contribution:     -5.37519      -3.06228      -5.00535
Nuclear contribution   :      6.13765       3.38417       6.04303
                        -----------------------------------------
Total Dipole Moment    :      0.76246       0.32188       1.03768
                        -----------------------------------------
Magnitude (a.u.)       :      1.32730
Magnitude (Debye)      :      3.37374

                             ****ORCA TERMINATED NORMALLY****
TOTAL RUN TIME: 0 days 0 hours 19 minutes 41 seconds 887 msec
