                         Program Version 3.0.3 - RELEASE   -
|  1> ! RI-MP2 RIJK def2-TZVP def2-TZVP/C def2-TZVP/JK TIGHTSCF
|  2> % maxcore 2000
|  3> % mp2 density relaxed end
|  4> *xyz 0 1
|  5>  O       -0.0357772162    -0.0385305668     0.2108251762
|  6>  C       -0.0210366176     1.1732553445     0.2259847499
|  7>  C        1.1992743319     1.9473207187     0.2172228635
|  8>  C        2.2326896260     2.5640609918     0.2085997749
|  9>  C       -1.3317414677     1.9973459635     0.2562175387
| 10>  O       -1.2734444435     3.2078994108     0.2707101507
| 11>  C       -2.5826422964     1.2136069228     0.2651663482
| 12>  C       -3.7621767836     1.8045929858     1.0334437868
| 13>  C       -3.7847316929     1.8235230407    -0.4515293430
| 14>  H        3.1430669320     3.1132865584     0.2012222770
| 15>  H       -2.4649253854     0.1392349772     0.2497889682
| 16>  H       -4.3940527128     1.1019489838     1.5638039989
| 17>  H       -3.5657878373     2.7402782535     1.5444321135
| 18>  H       -3.6034290407     2.7721164918    -0.9439976738
| 19>  H       -4.4327700359     1.1345682436    -0.9803209097
| 20> *
| 21>
| 22>                          ****END OF INPUT****

CARTESIAN COORDINATES (ANGSTROEM)
---------------------------------
  O     -0.035777   -0.038531    0.210825
  C     -0.021037    1.173255    0.225985
  C      1.199274    1.947321    0.217223
  C      2.232690    2.564061    0.208600
  C     -1.331741    1.997346    0.256218
  O     -1.273444    3.207899    0.270710
  C     -2.582642    1.213607    0.265166
  C     -3.762177    1.804593    1.033444
  C     -3.784732    1.823523   -0.451529
  H      3.143067    3.113287    0.201222
  H     -2.464925    0.139235    0.249789
  H     -4.394053    1.101949    1.563804
  H     -3.565788    2.740278    1.544432
  H     -3.603429    2.772116   -0.943998
  H     -4.432770    1.134568   -0.980321

 Total Charge           Charge          ....    0
 Multiplicity           Mult            ....    1
 Number of Electrons    NEL             ....   64
 Basis Dimension        Dim             ....  315

ORBITAL ENERGIES
----------------

  NO   OCC          E(Eh)            E(eV)
   0   2.0000     -20.592966      -560.3631
   1   2.0000     -20.573286      -559.8276
   2   2.0000     -11.379666      -309.6565
   3   2.0000     -11.356787      -309.0339
   4   2.0000     -11.269592      -306.6612
   5   2.0000     -11.258492      -306.3592
   6   2.0000     -11.253078      -306.2118
   7   2.0000     -11.251689      -306.1740
   8   2.0000     -11.251093      -306.1578
   9   2.0000      -1.434016       -39.0216
  10   2.0000      -1.410444       -38.3801
  11   2.0000      -1.164359       -31.6838
  12   2.0000      -1.070999       -29.1434
  13   2.0000      -0.975880       -26.5550
  14   2.0000      -0.902686       -24.5633
  15   2.0000      -0.841383       -22.8952
  16   2.0000      -0.781625       -21.2691
  17   2.0000      -0.736976       -20.0541
  18   2.0000      -0.726901       -19.7800
  19   2.0000      -0.697496       -18.9798
  20   2.0000      -0.661472       -17.9996
  21   2.0000      -0.649958       -17.6862
  22   2.0000      -0.604348       -16.4451
  23   2.0000      -0.574029       -15.6201
  24   2.0000      -0.547530       -14.8991
  25   2.0000      -0.525712       -14.3054
  26   2.0000      -0.524312       -14.2673
  27   2.0000      -0.463530       -12.6133
  28   2.0000      -0.431203       -11.7336
  29   2.0000      -0.426169       -11.5967
  30   2.0000      -0.424200       -11.5431
  31   2.0000      -0.421645       -11.4735
  32   0.0000       0.036845         1.0026
  33   0.0000       0.135798         3.6953
  34   0.0000       0.152101         4.1389
  35   0.0000       0.154189         4.1957
  36   0.0000       0.161359         4.3908

MULLIKEN ATOMIC CHARGES
-----------------------
   0 O :   -0.255564
   1 C :   -0.016499
   2 C :    0.121004
   3 C :   -0.075593
   4 C :    0.165582
   5 O :   -0.280528
   6 C :   -0.135866
   7 C :   -0.244555
   8 C :   -0.244529
   9 H :    0.206469
  10 H :    0.165286
  11 H :    0.144412
  12 H :    0.152981
  13 H :    0.152972
  14 H :    0.144428
Sum of atomic charges:   -0.0000000

LOEWDIN ATOMIC CHARGES
----------------------
   0 O :    0.198634
   1 C :   -0.281069
   2 C :   -0.055187
   3 C :   -0.021046
   4 C :   -0.284606
   5 O :    0.181681
   6 C :   -0.192339
   7 C :   -0.199154
   8 C :   -0.199167
   9 H :    0.133913
  10 H :    0.159466
  11 H :    0.136593
  12 H :    0.142836
  13 H :    0.142854
  14 H :    0.136589

  Mayer bond orders larger than 0.1
B(  0-O ,  1-C ) :   1.9176 B(  1-C ,  2-C ) :   1.0459 B(  1-C ,  3-C ) :  -0.1144
B(  1-C ,  4-C ) :   0.9176 B(  2-C ,  3-C ) :   2.5845 B(  2-C ,  4-C ) :  -0.1497
B(  3-C ,  9-H ) :   0.8838 B(  4-C ,  5-O ) :   1.9210 B(  4-C ,  6-C ) :   0.9976
B(  6-C ,  7-C ) :   0.8126 B(  6-C ,  8-C ) :   0.8126 B(  6-C , 10-H ) :   0.9137
B(  7-C ,  8-C ) :   0.9329 B(  7-C , 11-H ) :   0.9303 B(  7-C , 12-H ) :   0.9237
B(  8-C , 13-H ) :   0.9237 B(  8-C , 14-H ) :   0.9303

MP2 TOTAL ENERGY:     -419.874114440 Eh
FINAL SINGLE POINT ENERGY      -419.874114439986

DIPOLE MOMENT
-------------
                                X             Y             Z
Electronic contribution:      7.96395      -0.43936      -0.12598
Nuclear contribution   :     -8.22394       0.53490       0.13086
                        -----------------------------------------
Total Dipole Moment    :     -0.25998       0.09554       0.00488
                        -----------------------------------------
Magnitude (a.u.)       :      0.27702
Magnitude (Debye)      :      0.70414

                             ****ORCA TERMINATED NORMALLY****
TOTAL RUN TIME: 0 days 0 hours 14 minutes 27 seconds 513 msec
