                         Program Version 3.0.3 - RELEASE   -
|  1> ! RI-MP2 RIJK def2-TZVP def2-TZVP/C def2-TZVP/JK TIGHTSCF
|  2> % maxcore 2000
|  3> % mp2 density relaxed end
|  4> *xyz 0 1
|  5>  O       -0.1352128531     1.2670540431     0.0102340921
|  6>  N        1.1718241274     1.8822807837     0.0007826886
|  7>  C        2.0480395013     0.9051662507    -0.0126584557
|  8>  C        1.4191637514    -0.3702826287    -0.0133333529
|  9>  C        0.0957942888    -0.0282374332     0.0011707675
| 10>  O       -0.7339931829    -1.0493504371     0.0037870523
| 11>  N        0.1111839949    -2.2208485214    -0.0106046725
| 12>  C        1.3511710988    -1.7907000448    -0.0201376466
| 13>  H        3.0952164070     1.1732395681    -0.0213011245
| 14>  H        2.1372715063    -2.5326117103    -0.0315817884
| 15> *
| 16>
| 17>                          ****END OF INPUT****

CARTESIAN COORDINATES (ANGSTROEM)
---------------------------------
  O     -0.135213    1.267054    0.010234
  N      1.171824    1.882281    0.000783
  C      2.048040    0.905166   -0.012658
  C      1.419164   -0.370283   -0.013333
  C      0.095794   -0.028237    0.001171
  O     -0.733993   -1.049350    0.003787
  N      0.111184   -2.220849   -0.010605
  C      1.351171   -1.790700   -0.020138
  H      3.095216    1.173240   -0.021301
  H      2.137272   -2.532612   -0.031582

 Total Charge           Charge          ....    0
 Multiplicity           Mult            ....    1
 Number of Electrons    NEL             ....   56
 Basis Dimension        Dim             ....  260

ORBITAL ENERGIES
----------------

  NO   OCC          E(Eh)            E(eV)
   0   2.0000     -20.674956      -562.5942
   1   2.0000     -20.674942      -562.5938
   2   2.0000     -15.653924      -425.9649
   3   2.0000     -15.653924      -425.9649
   4   2.0000     -11.398177      -310.1602
   5   2.0000     -11.328144      -308.2545
   6   2.0000     -11.328138      -308.2543
   7   2.0000     -11.262720      -306.4742
   8   2.0000      -1.543298       -41.9953
   9   2.0000      -1.490891       -40.5692
  10   2.0000      -1.226590       -33.3772
  11   2.0000      -1.182908       -32.1886
  12   2.0000      -1.103344       -30.0235
  13   2.0000      -0.894598       -24.3432
  14   2.0000      -0.862912       -23.4810
  15   2.0000      -0.842150       -22.9161
  16   2.0000      -0.762902       -20.7596
  17   2.0000      -0.723568       -19.6893
  18   2.0000      -0.705201       -19.1895
  19   2.0000      -0.632487       -17.2109
  20   2.0000      -0.623161       -16.9571
  21   2.0000      -0.610109       -16.6019
  22   2.0000      -0.571711       -15.5571
  23   2.0000      -0.543950       -14.8016
  24   2.0000      -0.502793       -13.6817
  25   2.0000      -0.490151       -13.3377
  26   2.0000      -0.437050       -11.8927
  27   2.0000      -0.374188       -10.1822
  28   0.0000       0.093811         2.5527
  29   0.0000       0.127029         3.4566
  30   0.0000       0.144941         3.9440
  31   0.0000       0.159863         4.3501
  32   0.0000       0.175945         4.7877

MULLIKEN ATOMIC CHARGES
-----------------------
   0 O :   -0.115078
   1 N :   -0.079122
   2 C :   -0.088081
   3 C :   -0.035966
   4 C :    0.269841
   5 O :   -0.115078
   6 N :   -0.079122
   7 C :   -0.088081
   8 H :    0.165342
   9 H :    0.165343
Sum of atomic charges:   -0.0000000

LOEWDIN ATOMIC CHARGES
----------------------
   0 O :    0.294829
   1 N :    0.076609
   2 C :   -0.222231
   3 C :   -0.194034
   4 C :   -0.403779
   5 O :    0.294829
   6 N :    0.076610
   7 C :   -0.222231
   8 H :    0.149699
   9 H :    0.149699

  Mayer bond orders larger than 0.1
B(  0-O ,  1-N ) :   0.8166 B(  0-O ,  4-C ) :   1.1786 B(  1-N ,  2-C ) :   1.6365
B(  2-C ,  3-C ) :   1.1226 B(  2-C ,  8-H ) :   0.9195 B(  3-C ,  4-C ) :   1.3220
B(  3-C ,  7-C ) :   1.1226 B(  4-C ,  5-O ) :   1.1786 B(  5-O ,  6-N ) :   0.8166
B(  6-N ,  7-C ) :   1.6365 B(  7-C ,  9-H ) :   0.9195

MP2 TOTAL ENERGY:     -412.725076320 Eh
FINAL SINGLE POINT ENERGY      -412.725076320360

DIPOLE MOMENT
-------------
                                X             Y             Z
Electronic contribution:     -2.52869       0.65358       0.02775
Nuclear contribution   :      3.71264      -0.95959      -0.04064
                        -----------------------------------------
Total Dipole Moment    :      1.18395      -0.30601      -0.01289
                        -----------------------------------------
Magnitude (a.u.)       :      1.22292
Magnitude (Debye)      :      3.10842

                             ****ORCA TERMINATED NORMALLY****
TOTAL RUN TIME: 0 days 0 hours 9 minutes 23 seconds 488 msec
