                         Program Version 3.0.3 - RELEASE   -
|  1> ! RI-MP2 RIJK def2-TZVP def2-TZVP/C def2-TZVP/JK TIGHTSCF
|  2> % maxcore 2000
|  3> % mp2 density relaxed end
|  4> *xyz 0 1
|  5>  C        0.3180211828     1.3656103038     0.1871205213
|  6>  N        0.0899071229    -0.0663123758     0.1295183984
|  7>  N       -0.0540520761    -0.6753569004    -1.0663831117
|  8>  N       -0.2405984429    -1.9449415138    -0.8476942314
|  9>  C       -0.2154386649    -2.1680070504     0.4917885183
| 10>  C       -0.0050456913    -0.9720433461     1.1382718014
| 11>  C        0.0801679828    -0.6353737614     2.5970060557
| 12>  C        1.3622589364    -0.0369624339     2.9862014435
| 13>  N        2.3671075955     0.4540445917     3.2752224546
| 14>  H        1.2700755206     1.5855196005     0.6762749679
| 15>  H        0.3384751142     1.7242498354    -0.8414277773
| 16>  H       -0.4908443842     1.8646395362     0.7291734155
| 17>  H       -0.3466085446    -3.1531356162     0.9107392287
| 18>  H       -0.7204415557     0.0543980968     2.8942591817
| 19>  H       -0.0690019355    -1.5509270163     3.1773392234
| 20> *
| 21>
| 22>                          ****END OF INPUT****

CARTESIAN COORDINATES (ANGSTROEM)
---------------------------------
  C      0.318021    1.365610    0.187121
  N      0.089907   -0.066312    0.129518
  N     -0.054052   -0.675357   -1.066383
  N     -0.240598   -1.944942   -0.847694
  C     -0.215439   -2.168007    0.491789
  C     -0.005046   -0.972043    1.138272
  C      0.080168   -0.635374    2.597006
  C      1.362259   -0.036962    2.986201
  N      2.367108    0.454045    3.275222
  H      1.270076    1.585520    0.676275
  H      0.338475    1.724250   -0.841428
  H     -0.490844    1.864640    0.729173
  H     -0.346609   -3.153136    0.910739
  H     -0.720442    0.054398    2.894259
  H     -0.069002   -1.550927    3.177339

 Total Charge           Charge          ....    0
 Multiplicity           Mult            ....    1
 Number of Electrons    NEL             ....   64
 Basis Dimension        Dim             ....  315

ORBITAL ENERGIES
----------------

  NO   OCC          E(Eh)            E(eV)
   0   2.0000     -15.671894      -426.4539
   1   2.0000     -15.647779      -425.7977
   2   2.0000     -15.603650      -424.5969
   3   2.0000     -15.592478      -424.2929
   4   2.0000     -11.323988      -308.1414
   5   2.0000     -11.309112      -307.7366
   6   2.0000     -11.297068      -307.4089
   7   2.0000     -11.295005      -307.3527
   8   2.0000     -11.267285      -306.5984
   9   2.0000      -1.448686       -39.4207
  10   2.0000      -1.244676       -33.8694
  11   2.0000      -1.230913       -33.4949
  12   2.0000      -1.132480       -30.8163
  13   2.0000      -1.040924       -28.3250
  14   2.0000      -1.002155       -27.2700
  15   2.0000      -0.854787       -23.2599
  16   2.0000      -0.818355       -22.2686
  17   2.0000      -0.742875       -20.2146
  18   2.0000      -0.716590       -19.4994
  19   2.0000      -0.679847       -18.4996
  20   2.0000      -0.659861       -17.9557
  21   2.0000      -0.645930       -17.5766
  22   2.0000      -0.613575       -16.6962
  23   2.0000      -0.588957       -16.0263
  24   2.0000      -0.587327       -15.9820
  25   2.0000      -0.576177       -15.6786
  26   2.0000      -0.521812       -14.1992
  27   2.0000      -0.484414       -13.1816
  28   2.0000      -0.483639       -13.1605
  29   2.0000      -0.447185       -12.1685
  30   2.0000      -0.413545       -11.2531
  31   2.0000      -0.369205       -10.0466
  32   0.0000       0.104019         2.8305
  33   0.0000       0.123351         3.3565
  34   0.0000       0.136108         3.7037
  35   0.0000       0.158881         4.3234
  36   0.0000       0.163106         4.4383

MULLIKEN ATOMIC CHARGES
-----------------------
   0 C :   -0.348388
   1 N :    0.137216
   2 N :   -0.172497
   3 N :   -0.154691
   4 C :   -0.141035
   5 C :    0.008053
   6 C :   -0.140742
   7 C :   -0.165276
   8 N :   -0.057180
   9 H :    0.181601
  10 H :    0.186926
  11 H :    0.153295
  12 H :    0.147941
  13 H :    0.181496
  14 H :    0.183283
Sum of atomic charges:   -0.0000000

LOEWDIN ATOMIC CHARGES
----------------------
   0 C :   -0.262884
   1 N :    0.187210
   2 N :   -0.023466
   3 N :    0.010568
   4 C :   -0.249037
   5 C :   -0.234567
   6 C :   -0.206784
   7 C :   -0.186578
   8 N :    0.068935
   9 H :    0.133412
  10 H :    0.139573
  11 H :    0.126780
  12 H :    0.140152
  13 H :    0.175413
  14 H :    0.181273

  Mayer bond orders larger than 0.1
B(  0-C ,  1-N ) :   0.8446 B(  0-C ,  9-H ) :   0.9197 B(  0-C , 10-H ) :   0.9191
B(  0-C , 11-H ) :   0.9263 B(  1-N ,  2-N ) :   1.0015 B(  1-N ,  5-C ) :   1.1895
B(  2-N ,  3-N ) :   1.2720 B(  2-N ,  5-C ) :   0.1157 B(  3-N ,  4-C ) :   1.3902
B(  4-C ,  5-C ) :   1.4175 B(  4-C , 12-H ) :   0.9399 B(  5-C ,  6-C ) :   0.9089
B(  6-C ,  7-C ) :   0.9052 B(  6-C , 13-H ) :   0.9098 B(  6-C , 14-H ) :   0.9126
B(  7-C ,  8-N ) :   2.8372

MP2 TOTAL ENERGY:     -412.295770423 Eh
FINAL SINGLE POINT ENERGY      -412.295770422851

DIPOLE MOMENT
-------------
                                X             Y             Z
Electronic contribution:      1.26397      -2.77268      -0.55337
Nuclear contribution   :     -2.26175       3.26230       1.65712
                        -----------------------------------------
Total Dipole Moment    :     -0.99778       0.48962       1.10374
                        -----------------------------------------
Magnitude (a.u.)       :      1.56638
Magnitude (Debye)      :      3.98141

                             ****ORCA TERMINATED NORMALLY****
TOTAL RUN TIME: 0 days 0 hours 15 minutes 40 seconds 423 msec
