                         Program Version 3.0.3 - RELEASE   -
|  1> ! RI-MP2 RIJK def2-TZVP def2-TZVP/C def2-TZVP/JK TIGHTSCF
|  2> % maxcore 2000
|  3> % mp2 density relaxed end
|  4> *xyz 0 1
|  5>  C       -0.0944491687     1.5966553612    -0.0629025928
|  6>  C        0.0055844422     0.0710286762     0.0209711793
|  7>  C        0.7993352822    -0.5663161415    -1.1716005012
|  8>  C        1.4991834124    -1.8548872013    -0.6403796672
|  9>  C        1.5992693440    -1.5475681942     0.8250699264
| 10>  N        2.2725422867    -2.0647926889     1.8420050633
| 11>  N        1.8588831591    -1.3100500099     2.8899467340
| 12>  C        0.9561859937    -0.3424429685     2.5530264027
| 13>  C        0.7659983278    -0.4755122336     1.1970854778
| 14>  H        0.9012170665     2.0526775964    -0.0475285616
| 15>  H       -0.5963716287     1.9068312102    -0.9857527512
| 16>  H       -0.6644557293     2.0052567153     0.7781788610
| 17>  H       -1.0161544645    -0.3369847475     0.0238304366
| 18>  H        0.1594192148    -0.7584963211    -2.0373001228
| 19>  H        1.5677795181     0.1480221783    -1.4895674844
| 20>  H        0.8797715253    -2.7442764910    -0.8133685055
| 21>  H        2.4629245200    -2.0385384516    -1.1235660992
| 22>  H        2.2551987349    -1.4849598971     3.7975203291
| 23>  H        0.5559175135     0.3284082687     3.2970613157
| 24> *
| 25>
| 26>                          ****END OF INPUT****

CARTESIAN COORDINATES (ANGSTROEM)
---------------------------------
  C     -0.094449    1.596655   -0.062903
  C      0.005584    0.071029    0.020971
  C      0.799335   -0.566316   -1.171601
  C      1.499183   -1.854887   -0.640380
  C      1.599269   -1.547568    0.825070
  N      2.272542   -2.064793    1.842005
  N      1.858883   -1.310050    2.889947
  C      0.956186   -0.342443    2.553026
  C      0.765998   -0.475512    1.197085
  H      0.901217    2.052678   -0.047529
  H     -0.596372    1.906831   -0.985753
  H     -0.664456    2.005257    0.778179
  H     -1.016154   -0.336985    0.023830
  H      0.159419   -0.758496   -2.037300
  H      1.567780    0.148022   -1.489567
  H      0.879772   -2.744276   -0.813369
  H      2.462925   -2.038538   -1.123566
  H      2.255199   -1.484960    3.797520
  H      0.555918    0.328408    3.297061

 Total Charge           Charge          ....    0
 Multiplicity           Mult            ....    1
 Number of Electrons    NEL             ....   66
 Basis Dimension        Dim             ....  339

ORBITAL ENERGIES
----------------

  NO   OCC          E(Eh)            E(eV)
   0   2.0000     -15.626219      -425.2110
   1   2.0000     -15.575494      -423.8307
   2   2.0000     -11.270823      -306.6947
   3   2.0000     -11.239190      -305.8339
   4   2.0000     -11.236909      -305.7718
   5   2.0000     -11.226704      -305.4942
   6   2.0000     -11.224353      -305.4302
   7   2.0000     -11.215740      -305.1958
   8   2.0000     -11.207462      -304.9705
   9   2.0000      -1.359918       -37.0053
  10   2.0000      -1.133605       -30.8470
  11   2.0000      -1.082410       -29.4539
  12   2.0000      -1.009139       -27.4601
  13   2.0000      -0.992556       -27.0088
  14   2.0000      -0.882260       -24.0075
  15   2.0000      -0.839918       -22.8553
  16   2.0000      -0.762946       -20.7608
  17   2.0000      -0.739764       -20.1300
  18   2.0000      -0.711029       -19.3481
  19   2.0000      -0.642211       -17.4754
  20   2.0000      -0.627169       -17.0661
  21   2.0000      -0.593267       -16.1436
  22   2.0000      -0.579808       -15.7774
  23   2.0000      -0.577045       -15.7022
  24   2.0000      -0.528897       -14.3920
  25   2.0000      -0.523935       -14.2570
  26   2.0000      -0.510188       -13.8829
  27   2.0000      -0.487044       -13.2532
  28   2.0000      -0.478344       -13.0164
  29   2.0000      -0.461092       -12.5470
  30   2.0000      -0.435077       -11.8390
  31   2.0000      -0.344043        -9.3619
  32   2.0000      -0.328923        -8.9505
  33   0.0000       0.133030         3.6199
  34   0.0000       0.141540         3.8515
  35   0.0000       0.150942         4.1073
  36   0.0000       0.157638         4.2896
  37   0.0000       0.178662         4.8616

MULLIKEN ATOMIC CHARGES
-----------------------
   0 C :   -0.410520
   1 C :    0.011877
   2 C :   -0.257113
   3 C :   -0.193598
   4 C :    0.002817
   5 N :   -0.212218
   6 N :   -0.084690
   7 C :   -0.142895
   8 C :   -0.078856
   9 H :    0.128180
  10 H :    0.132498
  11 H :    0.127143
  12 H :    0.097469
  13 H :    0.122695
  14 H :    0.110915
  15 H :    0.117918
  16 H :    0.129195
  17 H :    0.250994
  18 H :    0.148186
Sum of atomic charges:    0.0000000

LOEWDIN ATOMIC CHARGES
----------------------
   0 C :   -0.291603
   1 C :   -0.229008
   2 C :   -0.204562
   3 C :   -0.209854
   4 C :   -0.258436
   5 N :    0.039231
   6 N :    0.129298
   7 C :   -0.219908
   8 C :   -0.154258
   9 H :    0.124382
  10 H :    0.123587
  11 H :    0.122399
  12 H :    0.155945
  13 H :    0.130033
  14 H :    0.139888
  15 H :    0.142582
  16 H :    0.140353
  17 H :    0.184298
  18 H :    0.135635

  Mayer bond orders larger than 0.1
B(  0-C ,  1-C ) :   0.8938 B(  0-C ,  9-H ) :   0.9337 B(  0-C , 10-H ) :   0.9392
B(  0-C , 11-H ) :   0.9405 B(  1-C ,  2-C ) :   0.9353 B(  1-C ,  8-C ) :   0.9136
B(  1-C , 12-H ) :   0.9079 B(  2-C ,  3-C ) :   0.9424 B(  2-C , 13-H ) :   0.9339
B(  2-C , 14-H ) :   0.9220 B(  3-C ,  4-C ) :   0.9518 B(  3-C , 15-H ) :   0.9142
B(  3-C , 16-H ) :   0.9253 B(  4-C ,  5-N ) :   1.6056 B(  4-C ,  8-C ) :   1.2487
B(  5-N ,  6-N ) :   1.0745 B(  5-N ,  7-C ) :   0.1277 B(  6-N ,  7-C ) :   1.2196
B(  6-N , 17-H ) :   0.8741 B(  7-C ,  8-C ) :   1.3915 B(  7-C , 18-H ) :   0.8974

MP2 TOTAL ENERGY:     -381.429185786 Eh
FINAL SINGLE POINT ENERGY      -381.429185785708

DIPOLE MOMENT
-------------
                                X             Y             Z
Electronic contribution:      3.52776      -5.14238       6.76627
Nuclear contribution   :     -3.93501       5.70237      -6.37811
                        -----------------------------------------
Total Dipole Moment    :     -0.40725       0.56000       0.38816
                        -----------------------------------------
Magnitude (a.u.)       :      0.79380
Magnitude (Debye)      :      2.01768

                             ****ORCA TERMINATED NORMALLY****
TOTAL RUN TIME: 0 days 0 hours 19 minutes 26 seconds 870 msec
