                         Program Version 3.0.3 - RELEASE   -
|  1> ! RI-MP2 RIJK def2-TZVP def2-TZVP/C def2-TZVP/JK TIGHTSCF
|  2> % maxcore 2000
|  3> % mp2 density relaxed end
|  4> *xyz 0 1
|  5>  C       -0.0512535515     1.5581096156     0.1320940995
|  6>  C       -0.0193430953     0.0346492184     0.0139453934
|  7>  O       -1.3328301672    -0.4940161093    -0.1044389010
|  8>  C        0.7242021489    -0.4637275436    -1.2476070726
|  9>  C        2.1700312480     0.0596416950    -1.3638307013
| 10>  C        2.9079501542    -0.4563138566    -2.5950603812
| 11>  O        4.1679656944     0.1949198896    -2.6238993732
| 12>  C        0.7028486295    -1.9327427073    -1.2737055578
| 13>  N        0.7344937014    -3.0877719856    -1.2984639266
| 14>  H        0.9430110044     1.9809303830     0.2986515854
| 15>  H       -0.4831524379     2.0066646458    -0.7683661718
| 16>  H       -0.6764736611     1.8457507581     0.9840877305
| 17>  H        0.4883745943    -0.3894087306     0.8943176045
| 18>  H       -1.7973692361    -0.3449925011     0.7246976606
| 19>  H        0.1423982831    -0.1172950784    -2.1123073547
| 20>  H        2.1494312832     1.1514524824    -1.4171145701
| 21>  H        2.7403289681    -0.2121945158    -0.4687158833
| 22>  H        3.0184025647    -1.5481589492    -2.5378690518
| 23>  H        2.3202733355    -0.2317019898    -3.5009950808
| 24>  H        4.6921845995    -0.1961690405    -3.3286362674
| 25> *
| 26>
| 27>                          ****END OF INPUT****

CARTESIAN COORDINATES (ANGSTROEM)
---------------------------------
  C     -0.051254    1.558110    0.132094
  C     -0.019343    0.034649    0.013945
  O     -1.332830   -0.494016   -0.104439
  C      0.724202   -0.463728   -1.247607
  C      2.170031    0.059642   -1.363831
  C      2.907950   -0.456314   -2.595060
  O      4.167966    0.194920   -2.623899
  C      0.702849   -1.932743   -1.273706
  N      0.734494   -3.087772   -1.298464
  H      0.943011    1.980930    0.298652
  H     -0.483152    2.006665   -0.768366
  H     -0.676474    1.845751    0.984088
  H      0.488375   -0.389409    0.894318
  H     -1.797369   -0.344993    0.724698
  H      0.142398   -0.117295   -2.112307
  H      2.149431    1.151452   -1.417115
  H      2.740329   -0.212195   -0.468716
  H      3.018403   -1.548159   -2.537869
  H      2.320273   -0.231702   -3.500995
  H      4.692185   -0.196169   -3.328636

 Total Charge           Charge          ....    0
 Multiplicity           Mult            ....    1
 Number of Electrons    NEL             ....   70
 Basis Dimension        Dim             ....  345

ORBITAL ENERGIES
----------------

  NO   OCC          E(Eh)            E(eV)
   0   2.0000     -20.572169      -559.7972
   1   2.0000     -20.565507      -559.6159
   2   2.0000     -15.561246      -423.4430
   3   2.0000     -11.310911      -307.7855
   4   2.0000     -11.287520      -307.1490
   5   2.0000     -11.284832      -307.0759
   6   2.0000     -11.265322      -306.5450
   7   2.0000     -11.247472      -306.0593
   8   2.0000     -11.237657      -305.7922
   9   2.0000      -1.382507       -37.6199
  10   2.0000      -1.370242       -37.2862
  11   2.0000      -1.212704       -32.9994
  12   2.0000      -1.114770       -30.3344
  13   2.0000      -1.025210       -27.8974
  14   2.0000      -0.967415       -26.3247
  15   2.0000      -0.853389       -23.2219
  16   2.0000      -0.831144       -22.6166
  17   2.0000      -0.736446       -20.0397
  18   2.0000      -0.713878       -19.4256
  19   2.0000      -0.692035       -18.8312
  20   2.0000      -0.653307       -17.7774
  21   2.0000      -0.647483       -17.6189
  22   2.0000      -0.604068       -16.4375
  23   2.0000      -0.580130       -15.7861
  24   2.0000      -0.573554       -15.6072
  25   2.0000      -0.568376       -15.4663
  26   2.0000      -0.544879       -14.8269
  27   2.0000      -0.541827       -14.7439
  28   2.0000      -0.525441       -14.2980
  29   2.0000      -0.516101       -14.0438
  30   2.0000      -0.495370       -13.4797
  31   2.0000      -0.464247       -12.6328
  32   2.0000      -0.458406       -12.4739
  33   2.0000      -0.448268       -12.1980
  34   2.0000      -0.443803       -12.0765
  35   0.0000       0.118700         3.2300
  36   0.0000       0.130472         3.5503
  37   0.0000       0.145789         3.9671
  38   0.0000       0.155618         4.2346
  39   0.0000       0.160474         4.3667

MULLIKEN ATOMIC CHARGES
-----------------------
   0 C :   -0.408978
   1 C :    0.060200
   2 O :   -0.453219
   3 C :    0.039756
   4 C :   -0.196410
   5 C :   -0.092176
   6 O :   -0.465450
   7 C :   -0.199807
   8 N :   -0.052884
   9 H :    0.142690
  10 H :    0.140631
  11 H :    0.131836
  12 H :    0.097967
  13 H :    0.319028
  14 H :    0.129147
  15 H :    0.133108
  16 H :    0.127347
  17 H :    0.130069
  18 H :    0.096146
  19 H :    0.321000
Sum of atomic charges:    0.0000000

LOEWDIN ATOMIC CHARGES
----------------------
   0 C :   -0.297628
   1 C :   -0.343506
   2 O :   -0.001285
   3 C :   -0.224626
   4 C :   -0.227290
   5 C :   -0.345335
   6 O :   -0.047282
   7 C :   -0.169521
   8 N :    0.059351
   9 H :    0.127586
  10 H :    0.129265
  11 H :    0.125400
  12 H :    0.141388
  13 H :    0.177770
  14 H :    0.181275
  15 H :    0.148049
  16 H :    0.148784
  17 H :    0.124814
  18 H :    0.117858
  19 H :    0.174935

  Mayer bond orders larger than 0.1
B(  0-C ,  1-C ) :   0.9062 B(  0-C ,  9-H ) :   0.9310 B(  0-C , 10-H ) :   0.9327
B(  0-C , 11-H ) :   0.9317 B(  1-C ,  2-O ) :   1.0066 B(  1-C ,  3-C ) :   0.9009
B(  1-C , 12-H ) :   0.9260 B(  2-O , 13-H ) :   0.8436 B(  3-C ,  4-C ) :   0.8714
B(  3-C ,  7-C ) :   0.9273 B(  3-C , 14-H ) :   0.8930 B(  4-C ,  5-C ) :   0.9378
B(  4-C , 15-H ) :   0.9284 B(  4-C , 16-H ) :   0.9065 B(  5-C ,  6-O ) :   1.0232
B(  5-C , 17-H ) :   0.9330 B(  5-C , 18-H ) :   0.9281 B(  6-O , 19-H ) :   0.8470
B(  7-C ,  8-N ) :   2.8837

MP2 TOTAL ENERGY:     -439.585166286 Eh
FINAL SINGLE POINT ENERGY      -439.585166285784

DIPOLE MOMENT
-------------
                                X             Y             Z
Electronic contribution:     -0.92820      -6.96802      -1.16105
Nuclear contribution   :      0.99497       8.36783       1.37964
                        -----------------------------------------
Total Dipole Moment    :      0.06677       1.39980       0.21859
                        -----------------------------------------
Magnitude (a.u.)       :      1.41834
Magnitude (Debye)      :      3.60514

                             ****ORCA TERMINATED NORMALLY****
TOTAL RUN TIME: 0 days 0 hours 17 minutes 11 seconds 550 msec
