                         Program Version 3.0.3 - RELEASE   -
|  1> ! RI-MP2 RIJK def2-TZVP def2-TZVP/C def2-TZVP/JK TIGHTSCF
|  2> % maxcore 2000
|  3> % mp2 density relaxed end
|  4> *xyz 0 1
|  5>  C       -0.0679832240     1.4329287596    -0.0738819046
|  6>  O        0.1520455848     0.0402167219     0.0828787105
|  7>  C        0.6375226672    -0.6042588751    -1.0709771960
|  8>  C        1.1731481012    -2.0025487761    -0.7183547911
|  9>  C        0.5397842944    -2.9101342992    -1.7406138303
| 10>  C       -0.3664073165    -2.3044729886    -2.5236959963
| 11>  C       -1.2234483792    -2.8766028826    -3.6048758158
| 12>  C       -0.4533751369    -0.8753167412    -2.1382147100
| 13>  O       -1.2383180698    -0.0597768296    -2.5718354753
| 14>  H        0.8618179402     1.9475733781    -0.3646155303
| 15>  H       -0.8366305575     1.6429274938    -0.8235472375
| 16>  H       -0.3897035342     1.8092092824     0.9002310462
| 17>  H        1.4248073443     0.0047151095    -1.5476728389
| 18>  H        2.2668588137    -2.0608530953    -0.7328747391
| 19>  H        0.8558075374    -2.2626898106     0.2982279583
| 20>  H        0.8017757187    -3.9620526321    -1.8067214627
| 21>  H       -1.0608039141    -3.9502355578    -3.7277768097
| 22>  H       -2.2820659266    -2.7030346476    -3.3838797639
| 23>  H       -1.0247532731    -2.3802124793    -4.5612099336
| 24> *
| 25>
| 26>                          ****END OF INPUT****

CARTESIAN COORDINATES (ANGSTROEM)
---------------------------------
  C     -0.067983    1.432929   -0.073882
  O      0.152046    0.040217    0.082879
  C      0.637523   -0.604259   -1.070977
  C      1.173148   -2.002549   -0.718355
  C      0.539784   -2.910134   -1.740614
  C     -0.366407   -2.304473   -2.523696
  C     -1.223448   -2.876603   -3.604876
  C     -0.453375   -0.875317   -2.138215
  O     -1.238318   -0.059777   -2.571835
  H      0.861818    1.947573   -0.364616
  H     -0.836631    1.642927   -0.823547
  H     -0.389704    1.809209    0.900231
  H      1.424807    0.004715   -1.547673
  H      2.266859   -2.060853   -0.732875
  H      0.855808   -2.262690    0.298228
  H      0.801776   -3.962053   -1.806721
  H     -1.060804   -3.950236   -3.727777
  H     -2.282066   -2.703035   -3.383880
  H     -1.024753   -2.380212   -4.561210

 Total Charge           Charge          ....    0
 Multiplicity           Mult            ....    1
 Number of Electrons    NEL             ....   68
 Basis Dimension        Dim             ....  339

ORBITAL ENERGIES
----------------

  NO   OCC          E(Eh)            E(eV)
   0   2.0000     -20.562056      -559.5220
   1   2.0000     -20.541933      -558.9744
   2   2.0000     -11.324309      -308.1501
   3   2.0000     -11.294451      -307.3376
   4   2.0000     -11.264249      -306.5158
   5   2.0000     -11.261856      -306.4507
   6   2.0000     -11.245399      -306.0029
   7   2.0000     -11.243274      -305.9450
   8   2.0000     -11.229149      -305.5607
   9   2.0000      -1.392990       -37.9052
  10   2.0000      -1.370731       -37.2995
  11   2.0000      -1.149801       -31.2877
  12   2.0000      -1.030398       -28.0386
  13   2.0000      -0.955841       -26.0098
  14   2.0000      -0.915173       -24.9031
  15   2.0000      -0.893937       -24.3253
  16   2.0000      -0.793294       -21.5866
  17   2.0000      -0.718164       -19.5422
  18   2.0000      -0.686457       -18.6794
  19   2.0000      -0.671268       -18.2661
  20   2.0000      -0.630842       -17.1661
  21   2.0000      -0.627199       -17.0670
  22   2.0000      -0.607315       -16.5259
  23   2.0000      -0.583424       -15.8758
  24   2.0000      -0.574248       -15.6261
  25   2.0000      -0.551372       -15.0036
  26   2.0000      -0.545721       -14.8498
  27   2.0000      -0.528957       -14.3937
  28   2.0000      -0.522841       -14.2272
  29   2.0000      -0.507736       -13.8162
  30   2.0000      -0.484378       -13.1806
  31   2.0000      -0.461329       -12.5534
  32   2.0000      -0.382896       -10.4191
  33   2.0000      -0.368182       -10.0187
  34   0.0000       0.094193         2.5631
  35   0.0000       0.138596         3.7714
  36   0.0000       0.154478         4.2035
  37   0.0000       0.160502         4.3675
  38   0.0000       0.179231         4.8771

MULLIKEN ATOMIC CHARGES
-----------------------
   0 C :   -0.234171
   1 O :   -0.317586
   2 C :    0.107325
   3 C :   -0.122739
   4 C :   -0.182417
   5 C :    0.019100
   6 C :   -0.408558
   7 C :    0.120250
   8 O :   -0.303477
   9 H :    0.105250
  10 H :    0.153446
  11 H :    0.134845
  12 H :    0.085713
  13 H :    0.128724
  14 H :    0.137458
  15 H :    0.137593
  16 H :    0.137743
  17 H :    0.153914
  18 H :    0.147588
Sum of atomic charges:    0.0000000

LOEWDIN ATOMIC CHARGES
----------------------
   0 C :   -0.345962
   1 O :    0.157804
   2 C :   -0.276825
   3 C :   -0.210896
   4 C :   -0.083795
   5 C :   -0.166336
   6 C :   -0.263483
   7 C :   -0.271391
   8 O :    0.144679
   9 H :    0.101063
  10 H :    0.110037
  11 H :    0.112322
  12 H :    0.145783
  13 H :    0.142159
  14 H :    0.154658
  15 H :    0.141437
  16 H :    0.130108
  17 H :    0.140351
  18 H :    0.138288

  Mayer bond orders larger than 0.1
B(  0-C ,  1-O ) :   0.8954 B(  0-C ,  9-H ) :   0.9355 B(  0-C , 10-H ) :   0.9332
B(  0-C , 11-H ) :   0.9372 B(  1-O ,  2-C ) :   0.9512 B(  2-C ,  3-C ) :   0.9330
B(  2-C ,  7-C ) :   0.8959 B(  2-C , 12-H ) :   0.9143 B(  3-C ,  4-C ) :   0.9539
B(  3-C , 13-H ) :   0.9204 B(  3-C , 14-H ) :   0.8904 B(  4-C ,  5-C ) :   1.6455
B(  4-C , 15-H ) :   0.9161 B(  5-C ,  6-C ) :   0.8862 B(  5-C ,  7-C ) :   0.9423
B(  6-C , 16-H ) :   0.9510 B(  6-C , 17-H ) :   0.9252 B(  6-C , 18-H ) :   0.9276
B(  7-C ,  8-O ) :   1.9872

MP2 TOTAL ENERGY:     -422.336830852 Eh
FINAL SINGLE POINT ENERGY      -422.336830852145

DIPOLE MOMENT
-------------
                                X             Y             Z
Electronic contribution:     -0.85878       0.51634      -0.00887
Nuclear contribution   :      1.59864      -1.17284      -0.02137
                        -----------------------------------------
Total Dipole Moment    :      0.73985      -0.65651      -0.03024
                        -----------------------------------------
Magnitude (a.u.)       :      0.98960
Magnitude (Debye)      :      2.51535

                             ****ORCA TERMINATED NORMALLY****
TOTAL RUN TIME: 0 days 0 hours 29 minutes 2 seconds 540 msec
