                         Program Version 3.0.3 - RELEASE   -
|  1> ! RI-MP2 RIJK def2-TZVP def2-TZVP/C def2-TZVP/JK TIGHTSCF
|  2> % maxcore 2000
|  3> % mp2 density relaxed end
|  4> *xyz 0 1
|  5>  C        0.0004299155     1.5060754857    -0.0146846458
|  6>  N       -0.0487291221     0.0663052167     0.0855090991
|  7>  C       -1.3007104496    -0.5840058520     0.5046604716
|  8>  C       -0.4684009647    -1.6172140391     1.3200705398
|  9>  C       -0.9306075574    -1.9632278752     2.7257052540
| 10>  O       -0.1426802624    -2.7753271033     0.5828402609
| 11>  C        0.7009900122    -0.5826219238     1.1836565293
| 12>  C        2.0463208092    -1.0367006316     0.8839602008
| 13>  C        3.1741117758    -1.3878360705     0.6621840757
| 14>  H        1.0234765871     1.8229332409    -0.2413236230
| 15>  H       -0.6453317528     1.8424623370    -0.8325325913
| 16>  H       -0.3232684505     2.0202981249     0.9117607120
| 17>  H       -1.9348563752     0.0465918059     1.1504062452
| 18>  H       -1.9049326978    -0.9837074814    -0.3172004431
| 19>  H       -1.8487716136    -2.5631972706     2.6908705485
| 20>  H       -0.1623768611    -2.5490546601     3.2395523460
| 21>  H       -1.1433781185    -1.0667847548     3.3149439101
| 22>  H       -0.9180590083    -3.3468026153     0.5723587247
| 23>  H        0.7270228251     0.0461068149     2.0923780351
| 24>  H        4.1620266192    -1.7140901881     0.4501166306
| 25> *
| 26>
| 27>                          ****END OF INPUT****

CARTESIAN COORDINATES (ANGSTROEM)
---------------------------------
  C      0.000430    1.506075   -0.014685
  N     -0.048729    0.066305    0.085509
  C     -1.300710   -0.584006    0.504660
  C     -0.468401   -1.617214    1.320071
  C     -0.930608   -1.963228    2.725705
  O     -0.142680   -2.775327    0.582840
  C      0.700990   -0.582622    1.183657
  C      2.046321   -1.036701    0.883960
  C      3.174112   -1.387836    0.662184
  H      1.023477    1.822933   -0.241324
  H     -0.645332    1.842462   -0.832533
  H     -0.323268    2.020298    0.911761
  H     -1.934856    0.046592    1.150406
  H     -1.904933   -0.983707   -0.317200
  H     -1.848772   -2.563197    2.690871
  H     -0.162377   -2.549055    3.239552
  H     -1.143378   -1.066785    3.314944
  H     -0.918059   -3.346803    0.572359
  H      0.727023    0.046107    2.092378
  H      4.162027   -1.714090    0.450117

 Total Charge           Charge          ....    0
 Multiplicity           Mult            ....    1
 Number of Electrons    NEL             ....   68
 Basis Dimension        Dim             ....  345

ORBITAL ENERGIES
----------------

  NO   OCC          E(Eh)            E(eV)
   0   2.0000     -20.558830      -559.4342
   1   2.0000     -15.550331      -423.1460
   2   2.0000     -11.299466      -307.4741
   3   2.0000     -11.279615      -306.9339
   4   2.0000     -11.253972      -306.2361
   5   2.0000     -11.244206      -305.9704
   6   2.0000     -11.227364      -305.5121
   7   2.0000     -11.223381      -305.4037
   8   2.0000     -11.214801      -305.1703
   9   2.0000      -1.374259       -37.3955
  10   2.0000      -1.251174       -34.0462
  11   2.0000      -1.050176       -28.5767
  12   2.0000      -1.027494       -27.9595
  13   2.0000      -0.965778       -26.2801
  14   2.0000      -0.933643       -25.4057
  15   2.0000      -0.840515       -22.8716
  16   2.0000      -0.783399       -21.3174
  17   2.0000      -0.725757       -19.7488
  18   2.0000      -0.682693       -18.5770
  19   2.0000      -0.659611       -17.9489
  20   2.0000      -0.657833       -17.9005
  21   2.0000      -0.616734       -16.7822
  22   2.0000      -0.596625       -16.2350
  23   2.0000      -0.586723       -15.9655
  24   2.0000      -0.581680       -15.8283
  25   2.0000      -0.548610       -14.9284
  26   2.0000      -0.529240       -14.4014
  27   2.0000      -0.512539       -13.9469
  28   2.0000      -0.499680       -13.5970
  29   2.0000      -0.471631       -12.8337
  30   2.0000      -0.434245       -11.8164
  31   2.0000      -0.381679       -10.3860
  32   2.0000      -0.374182       -10.1820
  33   2.0000      -0.363067        -9.8795
  34   0.0000       0.121731         3.3125
  35   0.0000       0.147532         4.0146
  36   0.0000       0.167870         4.5680
  37   0.0000       0.170106         4.6288
  38   0.0000       0.177403         4.8274

MULLIKEN ATOMIC CHARGES
-----------------------
   0 C :   -0.329231
   1 N :   -0.121706
   2 C :   -0.203261
   3 C :    0.278653
   4 C :   -0.451244
   5 O :   -0.450623
   6 C :   -0.178578
   7 C :   -0.018325
   8 C :   -0.122469
   9 H :    0.146119
  10 H :    0.138462
  11 H :    0.098432
  12 H :    0.097583
  13 H :    0.106614
  14 H :    0.124456
  15 H :    0.153352
  16 H :    0.128281
  17 H :    0.312981
  18 H :    0.101248
  19 H :    0.189256
Sum of atomic charges:    0.0000000

LOEWDIN ATOMIC CHARGES
----------------------
   0 C :   -0.337111
   1 N :    0.102859
   2 C :   -0.221582
   3 C :   -0.355768
   4 C :   -0.283724
   5 O :    0.034174
   6 C :   -0.209582
   7 C :   -0.078090
   8 C :   -0.086066
   9 H :    0.123197
  10 H :    0.119780
  11 H :    0.099355
  12 H :    0.122090
  13 H :    0.122875
  14 H :    0.125355
  15 H :    0.133402
  16 H :    0.126943
  17 H :    0.178168
  18 H :    0.157530
  19 H :    0.126195

  Mayer bond orders larger than 0.1
B(  0-C ,  1-N ) :   0.9061 B(  0-C ,  9-H ) :   0.9354 B(  0-C , 10-H ) :   0.9365
B(  0-C , 11-H ) :   0.9241 B(  1-N ,  2-C ) :   0.9531 B(  1-N ,  6-C ) :   0.9216
B(  2-C ,  3-C ) :   0.9147 B(  2-C , 12-H ) :   0.9129 B(  2-C , 13-H ) :   0.9052
B(  3-C ,  4-C ) :   0.9371 B(  3-C ,  5-O ) :   0.9974 B(  3-C ,  6-C ) :   0.8094
B(  4-C , 14-H ) :   0.9232 B(  4-C , 15-H ) :   0.9376 B(  4-C , 16-H ) :   0.9271
B(  5-O ,  6-C ) :  -0.1120 B(  5-O , 17-H ) :   0.8398 B(  6-C ,  7-C ) :   1.2377
B(  6-C ,  8-C ) :  -0.1239 B(  6-C , 18-H ) :   0.9255 B(  7-C ,  8-C ) :   2.5986
B(  8-C , 19-H ) :   0.8788

MP2 TOTAL ENERGY:     -402.388608382 Eh
FINAL SINGLE POINT ENERGY      -402.388608381652

DIPOLE MOMENT
-------------
                                X             Y             Z
Electronic contribution:      4.68401      -3.53055      -2.52415
Nuclear contribution   :     -5.49222       3.66198       3.07141
                        -----------------------------------------
Total Dipole Moment    :     -0.80820       0.13143       0.54726
                        -----------------------------------------
Magnitude (a.u.)       :      0.98487
Magnitude (Debye)      :      2.50333

                             ****ORCA TERMINATED NORMALLY****
TOTAL RUN TIME: 0 days 0 hours 19 minutes 49 seconds 638 msec
