                         Program Version 3.0.3 - RELEASE   -
|  1> ! RI-MP2 RIJK def2-TZVP def2-TZVP/C def2-TZVP/JK TIGHTSCF
|  2> % maxcore 2000
|  3> % mp2 density relaxed end
|  4> *xyz 0 1
|  5>  C        0.0495008103     1.4284429494     0.1018272310
|  6>  N        0.1175436608    -0.0186517153     0.0412655363
|  7>  C        0.5340686597    -0.5867055973    -1.0208158574
|  8>  C        0.5916898514    -2.0498849007    -1.0523806023
|  9>  N        0.9835741655    -2.7687498434    -2.0362284285
| 10>  O        1.3922891217    -2.0417965854    -3.1855268856
| 11>  C        1.3364777305    -0.6981633681    -3.1490853051
| 12>  N        0.9561994753     0.0582828015    -2.1991369631
| 13>  H        0.6599895414     1.7696304523     0.9463083597
| 14>  H        0.3759400445     1.9363009994    -0.8108210003
| 15>  H       -0.9830885636     1.7181656592     0.3300054222
| 16>  H        0.2785806114    -2.6046665290    -0.1721421108
| 17>  H        1.6808952110    -0.2949048726    -4.0999612260
| 18> *
| 19>
| 20>                          ****END OF INPUT****

CARTESIAN COORDINATES (ANGSTROEM)
---------------------------------
  C      0.049501    1.428443    0.101827
  N      0.117544   -0.018652    0.041266
  C      0.534069   -0.586706   -1.020816
  C      0.591690   -2.049885   -1.052381
  N      0.983574   -2.768750   -2.036228
  O      1.392289   -2.041797   -3.185527
  C      1.336478   -0.698163   -3.149085
  N      0.956199    0.058283   -2.199137
  H      0.659990    1.769630    0.946308
  H      0.375940    1.936301   -0.810821
  H     -0.983089    1.718166    0.330005
  H      0.278581   -2.604667   -0.172142
  H      1.680895   -0.294905   -4.099961

 Total Charge           Charge          ....    0
 Multiplicity           Mult            ....    1
 Number of Electrons    NEL             ....   58
 Basis Dimension        Dim             ....  278

ORBITAL ENERGIES
----------------

  NO   OCC          E(Eh)            E(eV)
   0   2.0000     -20.661622      -562.2313
   1   2.0000     -15.667476      -426.3337
   2   2.0000     -15.584586      -424.0781
   3   2.0000     -15.570397      -423.6920
   4   2.0000     -11.380969      -309.6919
   5   2.0000     -11.331664      -308.3502
   6   2.0000     -11.312201      -307.8206
   7   2.0000     -11.247260      -306.0535
   8   2.0000      -1.501877       -40.8681
   9   2.0000      -1.295961       -35.2649
  10   2.0000      -1.233188       -33.5567
  11   2.0000      -1.195492       -32.5310
  12   2.0000      -0.983345       -26.7582
  13   2.0000      -0.933802       -25.4100
  14   2.0000      -0.866573       -23.5806
  15   2.0000      -0.768697       -20.9173
  16   2.0000      -0.742862       -20.2143
  17   2.0000      -0.696979       -18.9657
  18   2.0000      -0.680284       -18.5115
  19   2.0000      -0.644698       -17.5431
  20   2.0000      -0.596564       -16.2333
  21   2.0000      -0.578089       -15.7306
  22   2.0000      -0.571011       -15.5380
  23   2.0000      -0.528664       -14.3857
  24   2.0000      -0.515682       -14.0324
  25   2.0000      -0.485955       -13.2235
  26   2.0000      -0.465574       -12.6689
  27   2.0000      -0.416178       -11.3248
  28   2.0000      -0.366732        -9.9793
  29   0.0000       0.080739         2.1970
  30   0.0000       0.109696         2.9850
  31   0.0000       0.149932         4.0799
  32   0.0000       0.165995         4.5169
  33   0.0000       0.175108         4.7649

MULLIKEN ATOMIC CHARGES
-----------------------
   0 C :   -0.273256
   1 N :   -0.209968
   2 C :    0.154957
   3 C :   -0.054581
   4 N :   -0.057710
   5 O :   -0.132961
   6 C :    0.129320
   7 N :   -0.293567
   8 H :    0.139613
   9 H :    0.137206
  10 H :    0.139616
  11 H :    0.160762
  12 H :    0.160569
Sum of atomic charges:    0.0000000

LOEWDIN ATOMIC CHARGES
----------------------
   0 C :   -0.330842
   1 N :    0.105582
   2 C :   -0.345201
   3 C :   -0.192517
   4 N :    0.079732
   5 O :    0.219663
   6 C :   -0.320711
   7 N :    0.122680
   8 H :    0.122624
   9 H :    0.111888
  10 H :    0.122619
  11 H :    0.161523
  12 H :    0.142961

  Mayer bond orders larger than 0.1
B(  0-C ,  1-N ) :   0.8601 B(  0-C ,  8-H ) :   0.9295 B(  0-C ,  9-H ) :   0.9259
B(  0-C , 10-H ) :   0.9295 B(  1-N ,  2-C ) :   1.8623 B(  2-C ,  3-C ) :   1.0155
B(  2-C ,  7-N ) :   1.0088 B(  3-C ,  4-N ) :   1.7645 B(  3-C , 11-H ) :   0.9016
B(  4-N ,  5-O ) :   0.7754 B(  5-O ,  6-C ) :   1.1021 B(  6-C ,  7-N ) :   1.7414
B(  6-C , 12-H ) :   0.9137

MP2 TOTAL ENERGY:     -394.082805278 Eh
FINAL SINGLE POINT ENERGY      -394.082805278051

DIPOLE MOMENT
-------------
                                X             Y             Z
Electronic contribution:      1.70493      -5.78185      -4.05938
Nuclear contribution   :     -1.62016       6.20138       3.79861
                        -----------------------------------------
Total Dipole Moment    :      0.08477       0.41953      -0.26078
                        -----------------------------------------
Magnitude (a.u.)       :      0.50120
Magnitude (Debye)      :      1.27394

                             ****ORCA TERMINATED NORMALLY****
TOTAL RUN TIME: 0 days 0 hours 9 minutes 39 seconds 871 msec
