                         Program Version 3.0.3 - RELEASE   -
|  1> ! RI-MP2 RIJK def2-TZVP def2-TZVP/C def2-TZVP/JK TIGHTSCF
|  2> % maxcore 2000
|  3> % mp2 density relaxed end
|  4> *xyz 0 1
|  5>  C       -0.0037765123     1.4769284695     0.3777860510
|  6>  C        0.0055540401     0.0121847716    -0.0129825899
|  7>  O       -1.3592298573    -0.4581661765     0.0252201495
|  8>  C       -1.5460034310    -1.7435875339    -0.3086057372
|  9>  O       -0.6590321916    -2.5061871917    -0.6199631444
| 10>  C       -2.9867788380    -2.1229386919    -0.2437579359
| 11>  C       -3.5039045516    -2.9493848339    -1.3784362475
| 12>  N       -3.2870170587    -3.5520880860    -0.0689545561
| 13>  H        1.0168355287     1.8704331133     0.3619449886
| 14>  H       -0.6102611425     2.0631423546    -0.3181722422
| 15>  H       -0.4090964080     1.6101980063     1.3846503524
| 16>  H        0.4036467162    -0.1434760047    -1.0203890362
| 17>  H        0.6046852777    -0.5938378870     0.6735902042
| 18>  H       -3.6430851843    -1.4280788331     0.2673919092
| 19>  H       -4.5424268442    -2.8343983230    -1.6743176431
| 20>  H       -2.8059751193    -3.1767485483    -2.1789181133
| 21>  H       -2.3955367339    -4.0478435253    -0.0839048591
| 22> *
| 23>
| 24>                          ****END OF INPUT****

CARTESIAN COORDINATES (ANGSTROEM)
---------------------------------
  C     -0.003777    1.476928    0.377786
  C      0.005554    0.012185   -0.012983
  O     -1.359230   -0.458166    0.025220
  C     -1.546003   -1.743588   -0.308606
  O     -0.659032   -2.506187   -0.619963
  C     -2.986779   -2.122939   -0.243758
  C     -3.503905   -2.949385   -1.378436
  N     -3.287017   -3.552088   -0.068955
  H      1.016836    1.870433    0.361945
  H     -0.610261    2.063142   -0.318172
  H     -0.409096    1.610198    1.384650
  H      0.403647   -0.143476   -1.020389
  H      0.604685   -0.593838    0.673590
  H     -3.643085   -1.428079    0.267392
  H     -4.542427   -2.834398   -1.674318
  H     -2.805975   -3.176749   -2.178918
  H     -2.395537   -4.047844   -0.083905

 Total Charge           Charge          ....    0
 Multiplicity           Mult            ....    1
 Number of Electrons    NEL             ....   62
 Basis Dimension        Dim             ....  302

ORBITAL ENERGIES
----------------

  NO   OCC          E(Eh)            E(eV)
   0   2.0000     -20.608666      -560.7903
   1   2.0000     -20.547086      -559.1146
   2   2.0000     -15.571695      -423.7274
   3   2.0000     -11.385850      -309.8247
   4   2.0000     -11.294752      -307.3458
   5   2.0000     -11.276040      -306.8366
   6   2.0000     -11.272234      -306.7331
   7   2.0000     -11.230009      -305.5841
   8   2.0000      -1.467052       -39.9205
   9   2.0000      -1.366757       -37.1913
  10   2.0000      -1.276419       -34.7331
  11   2.0000      -1.051633       -28.6164
  12   2.0000      -0.949138       -25.8274
  13   2.0000      -0.889618       -24.2077
  14   2.0000      -0.848936       -23.1007
  15   2.0000      -0.781494       -21.2655
  16   2.0000      -0.744963       -20.2715
  17   2.0000      -0.690021       -18.7764
  18   2.0000      -0.686941       -18.6926
  19   2.0000      -0.645622       -17.5683
  20   2.0000      -0.613192       -16.6858
  21   2.0000      -0.591875       -16.1057
  22   2.0000      -0.563163       -15.3244
  23   2.0000      -0.554476       -15.0881
  24   2.0000      -0.521034       -14.1781
  25   2.0000      -0.518854       -14.1187
  26   2.0000      -0.498977       -13.5779
  27   2.0000      -0.489405       -13.3174
  28   2.0000      -0.466616       -12.6973
  29   2.0000      -0.457274       -12.4430
  30   2.0000      -0.404669       -11.0116
  31   0.0000       0.135323         3.6823
  32   0.0000       0.150958         4.1078
  33   0.0000       0.169118         4.6019
  34   0.0000       0.176322         4.7980
  35   0.0000       0.186966         5.0876

MULLIKEN ATOMIC CHARGES
-----------------------
   0 C :   -0.358777
   1 C :   -0.070915
   2 O :   -0.237236
   3 C :    0.285790
   4 O :   -0.363662
   5 C :   -0.049043
   6 C :   -0.160326
   7 N :   -0.360730
   8 H :    0.131948
   9 H :    0.133690
  10 H :    0.134733
  11 H :    0.124992
  12 H :    0.125980
  13 H :    0.144797
  14 H :    0.132899
  15 H :    0.145280
  16 H :    0.240579
Sum of atomic charges:    0.0000000

LOEWDIN ATOMIC CHARGES
----------------------
   0 C :   -0.315111
   1 C :   -0.298502
   2 O :    0.258485
   3 C :   -0.484002
   4 O :    0.109158
   5 C :   -0.246886
   6 C :   -0.248760
   7 N :    0.005119
   8 H :    0.129029
   9 H :    0.125717
  10 H :    0.125989
  11 H :    0.129049
  12 H :    0.129385
  13 H :    0.149252
  14 H :    0.127173
  15 H :    0.129081
  16 H :    0.175827

  Mayer bond orders larger than 0.1
B(  0-C ,  1-C ) :   0.9433 B(  0-C ,  8-H ) :   0.9334 B(  0-C ,  9-H ) :   0.9332
B(  0-C , 10-H ) :   0.9331 B(  1-C ,  2-O ) :   0.8207 B(  1-C , 11-H ) :   0.9329
B(  1-C , 12-H ) :   0.9333 B(  2-O ,  3-C ) :   1.1396 B(  3-C ,  4-O ) :   1.8549
B(  3-C ,  5-C ) :   0.9661 B(  5-C ,  6-C ) :   0.9013 B(  5-C ,  7-N ) :   0.9254
B(  5-C , 13-H ) :   0.9161 B(  6-C ,  7-N ) :   0.9253 B(  6-C , 14-H ) :   0.9260
B(  6-C , 15-H ) :   0.9113 B(  7-N , 16-H ) :   0.8651

MP2 TOTAL ENERGY:     -400.358534044 Eh
FINAL SINGLE POINT ENERGY      -400.358534043881

DIPOLE MOMENT
-------------
                                X             Y             Z
Electronic contribution:     -1.89260      -5.14778      -0.14260
Nuclear contribution   :      2.13103       6.03331      -0.08814
                        -----------------------------------------
Total Dipole Moment    :      0.23843       0.88553      -0.23074
                        -----------------------------------------
Magnitude (a.u.)       :      0.94565
Magnitude (Debye)      :      2.40366

                             ****ORCA TERMINATED NORMALLY****
TOTAL RUN TIME: 0 days 0 hours 10 minutes 1 seconds 53 msec
