                         Program Version 3.0.3 - RELEASE   -
|  1> ! RI-MP2 RIJK def2-TZVP def2-TZVP/C def2-TZVP/JK TIGHTSCF
|  2> % maxcore 2000
|  3> % mp2 density relaxed end
|  4> *xyz 0 1
|  5>  C        0.1120579719     1.4564072653    -0.3975944890
|  6>  C        0.0771122645     0.0185263126    -0.1743861557
|  7>  C        0.0492519927    -1.1692617320     0.0172674911
|  8>  C       -0.0146106020    -2.6072365645     0.2534173629
|  9>  C       -1.4305057923    -3.1823958798     0.1311385029
| 10>  C       -1.9718449198    -3.5045516405    -1.2507055869
| 11>  C       -1.5939126807    -4.6240166059    -0.3264547600
| 12>  C       -2.3732353534    -2.6988466937     1.1091508218
| 13>  N       -3.1275555328    -2.3208799405     1.9006568851
| 14>  H        0.5983547569     1.9755794891     0.4353903713
| 15>  H        0.6614679836     1.7058006966    -1.3119737191
| 16>  H       -0.9000029419     1.8637720471    -0.4958194621
| 17>  H        0.6241708421    -3.1362497428    -0.4649915817
| 18>  H        0.3823433822    -2.8443091355     1.2485045201
| 19>  H       -3.0236106491    -3.3222873473    -1.4338748264
| 20>  H       -1.3190458229    -3.2732016956    -2.0850190000
| 21>  H       -0.6801572560    -5.1746770731    -0.5214151984
| 22>  H       -2.3862224630    -5.2071622694     0.1268760141
| 23> *
| 24>
| 25>                          ****END OF INPUT****

CARTESIAN COORDINATES (ANGSTROEM)
---------------------------------
  C      0.112058    1.456407   -0.397594
  C      0.077112    0.018526   -0.174386
  C      0.049252   -1.169262    0.017267
  C     -0.014611   -2.607237    0.253417
  C     -1.430506   -3.182396    0.131139
  C     -1.971845   -3.504552   -1.250706
  C     -1.593913   -4.624017   -0.326455
  C     -2.373235   -2.698847    1.109151
  N     -3.127556   -2.320880    1.900657
  H      0.598355    1.975579    0.435390
  H      0.661468    1.705801   -1.311974
  H     -0.900003    1.863772   -0.495819
  H      0.624171   -3.136250   -0.464992
  H      0.382343   -2.844309    1.248505
  H     -3.023611   -3.322287   -1.433875
  H     -1.319046   -3.273202   -2.085019
  H     -0.680157   -5.174677   -0.521415
  H     -2.386222   -5.207162    0.126876

 Total Charge           Charge          ....    0
 Multiplicity           Mult            ....    1
 Number of Electrons    NEL             ....   64
 Basis Dimension        Dim             ....  333

ORBITAL ENERGIES
----------------

  NO   OCC          E(Eh)            E(eV)
   0   2.0000     -15.562987      -423.4904
   1   2.0000     -11.294636      -307.3427
   2   2.0000     -11.275615      -306.8251
   3   2.0000     -11.268227      -306.6241
   4   2.0000     -11.261638      -306.4448
   5   2.0000     -11.259668      -306.3911
   6   2.0000     -11.248730      -306.0935
   7   2.0000     -11.230686      -305.6025
   8   2.0000     -11.223378      -305.4036
   9   2.0000      -1.223004       -33.2796
  10   2.0000      -1.180153       -32.1136
  11   2.0000      -1.076066       -29.2812
  12   2.0000      -1.022888       -27.8342
  13   2.0000      -0.940107       -25.5816
  14   2.0000      -0.882532       -24.0149
  15   2.0000      -0.856671       -23.3112
  16   2.0000      -0.726887       -19.7796
  17   2.0000      -0.676930       -18.4202
  18   2.0000      -0.661696       -18.0057
  19   2.0000      -0.619776       -16.8650
  20   2.0000      -0.606596       -16.5063
  21   2.0000      -0.593257       -16.1433
  22   2.0000      -0.585176       -15.9234
  23   2.0000      -0.583318       -15.8729
  24   2.0000      -0.549363       -14.9489
  25   2.0000      -0.545684       -14.8488
  26   2.0000      -0.508157       -13.8277
  27   2.0000      -0.486859       -13.2481
  28   2.0000      -0.442326       -12.0363
  29   2.0000      -0.412798       -11.2328
  30   2.0000      -0.375826       -10.2268
  31   2.0000      -0.374660       -10.1950
  32   0.0000       0.125098         3.4041
  33   0.0000       0.141592         3.8529
  34   0.0000       0.156554         4.2600
  35   0.0000       0.159608         4.3432
  36   0.0000       0.165880         4.5138

MULLIKEN ATOMIC CHARGES
-----------------------
   0 C :   -0.481626
   1 C :    0.043511
   2 C :   -0.046417
   3 C :   -0.303072
   4 C :    0.219158
   5 C :   -0.272535
   6 C :   -0.265832
   7 C :   -0.235190
   8 N :   -0.054389
   9 H :    0.164289
  10 H :    0.160923
  11 H :    0.167363
  12 H :    0.145832
  13 H :    0.158956
  14 H :    0.153927
  15 H :    0.146529
  16 H :    0.142719
  17 H :    0.155853
Sum of atomic charges:   -0.0000000

LOEWDIN ATOMIC CHARGES
----------------------
   0 C :   -0.292259
   1 C :   -0.095307
   2 C :   -0.081453
   3 C :   -0.193310
   4 C :   -0.227977
   5 C :   -0.172583
   6 C :   -0.176458
   7 C :   -0.149095
   8 N :    0.064462
   9 H :    0.142194
  10 H :    0.140593
  11 H :    0.143249
  12 H :    0.163447
  13 H :    0.166002
  14 H :    0.143831
  15 H :    0.142179
  16 H :    0.138935
  17 H :    0.143549

  Mayer bond orders larger than 0.1
B(  0-C ,  1-C ) :   0.8542 B(  0-C ,  9-H ) :   0.9466 B(  0-C , 10-H ) :   0.9495
B(  0-C , 11-H ) :   0.9438 B(  1-C ,  2-C ) :   2.6870 B(  2-C ,  3-C ) :   1.0468
B(  3-C ,  4-C ) :   0.8944 B(  3-C , 12-H ) :   0.9248 B(  3-C , 13-H ) :   0.9217
B(  4-C ,  5-C ) :   0.8354 B(  4-C ,  6-C ) :   0.8370 B(  4-C ,  7-C ) :   0.9471
B(  5-C ,  6-C ) :   0.9218 B(  5-C , 14-H ) :   0.9244 B(  5-C , 15-H ) :   0.9227
B(  6-C , 16-H ) :   0.9206 B(  6-C , 17-H ) :   0.9229 B(  7-C ,  8-N ) :   2.8756

MP2 TOTAL ENERGY:     -364.118314408 Eh
FINAL SINGLE POINT ENERGY      -364.118314407740

DIPOLE MOMENT
-------------
                                X             Y             Z
Electronic contribution:     -2.96894      -1.46784       4.08141
Nuclear contribution   :      3.93677       1.09106      -5.23584
                        -----------------------------------------
Total Dipole Moment    :      0.96784      -0.37679      -1.15443
                        -----------------------------------------
Magnitude (a.u.)       :      1.55286
Magnitude (Debye)      :      3.94706

                             ****ORCA TERMINATED NORMALLY****
TOTAL RUN TIME: 0 days 0 hours 17 minutes 19 seconds 598 msec
