                         Program Version 3.0.3 - RELEASE   -
|  1> ! RI-MP2 RIJK def2-TZVP def2-TZVP/C def2-TZVP/JK TIGHTSCF
|  2> % maxcore 2000
|  3> % mp2 density relaxed end
|  4> *xyz 0 1
|  5>  C        0.0972191781     1.5300284516     0.4664470007
|  6>  C       -0.0266853847     0.0370446192     0.1503881959
|  7>  C        0.7691921333    -0.3832144348    -1.0924238010
|  8>  C        0.6929209950    -1.8818663793    -1.3982108920
|  9>  C       -0.7132073860    -2.3997890539    -1.7937842899
| 10>  C       -0.4739579976    -3.6792273802    -2.6448404477
| 11>  C        1.0644450575    -3.8187255985    -2.7659714828
| 12>  C        1.6165689259    -2.3979266428    -2.5323324651
| 13>  C        1.5799831233    -1.5488711530    -3.8114573961
| 14>  H        1.1411250641     1.8117286292     0.6448675278
| 15>  H       -0.2710083261     2.1427950842    -0.3641034410
| 16>  H       -0.4771948240     1.8000457204     1.3583445614
| 17>  H        0.3165592117    -0.5495111503     1.0133696491
| 18>  H       -1.0844278764    -0.2190652029     0.0118092934
| 19>  H        0.4089104804     0.1897474683    -1.9575802423
| 20>  H        1.8211102331    -0.0955287959    -0.9529847554
| 21>  H        0.9992131224    -2.4193557445    -0.4883335541
| 22>  H       -1.3335056796    -2.5981942272    -0.9156327749
| 23>  H       -1.2423937448    -1.6392924033    -2.3798149859
| 24>  H       -0.9208658974    -4.5671373397    -2.1891509210
| 25>  H       -0.9339953524    -3.5757647953    -3.6321525204
| 26>  H        1.4407559615    -4.4867634820    -1.9826768870
| 27>  H        1.3768869001    -4.2435962378    -3.7250954185
| 28>  H        2.6551883806    -2.4378943307    -2.1822892410
| 29>  H        0.5649187719    -1.4536101941    -4.2127467569
| 30>  H        1.9624618101    -0.5384100854    -3.6389853429
| 31>  H        2.1979037500    -2.0072053215    -4.5908334223
| 32> *
| 33>
| 34>                          ****END OF INPUT****

CARTESIAN COORDINATES (ANGSTROEM)
---------------------------------
  C      0.097219    1.530028    0.466447
  C     -0.026685    0.037045    0.150388
  C      0.769192   -0.383214   -1.092424
  C      0.692921   -1.881866   -1.398211
  C     -0.713207   -2.399789   -1.793784
  C     -0.473958   -3.679227   -2.644840
  C      1.064445   -3.818726   -2.765971
  C      1.616569   -2.397927   -2.532332
  C      1.579983   -1.548871   -3.811457
  H      1.141125    1.811729    0.644868
  H     -0.271008    2.142795   -0.364103
  H     -0.477195    1.800046    1.358345
  H      0.316559   -0.549511    1.013370
  H     -1.084428   -0.219065    0.011809
  H      0.408910    0.189747   -1.957580
  H      1.821110   -0.095529   -0.952985
  H      0.999213   -2.419356   -0.488334
  H     -1.333506   -2.598194   -0.915633
  H     -1.242394   -1.639292   -2.379815
  H     -0.920866   -4.567137   -2.189151
  H     -0.933995   -3.575765   -3.632153
  H      1.440756   -4.486763   -1.982677
  H      1.376887   -4.243596   -3.725095
  H      2.655188   -2.437894   -2.182289
  H      0.564919   -1.453610   -4.212747
  H      1.962462   -0.538410   -3.638985
  H      2.197904   -2.007205   -4.590833

 Total Charge           Charge          ....    0
 Multiplicity           Mult            ....    1
 Number of Electrons    NEL             ....   72
 Basis Dimension        Dim             ....  387

ORBITAL ENERGIES
----------------

  NO   OCC          E(Eh)            E(eV)
   0   2.0000     -11.216720      -305.2225
   1   2.0000     -11.214999      -305.1756
   2   2.0000     -11.214307      -305.1568
   3   2.0000     -11.211241      -305.0734
   4   2.0000     -11.211098      -305.0695
   5   2.0000     -11.209504      -305.0261
   6   2.0000     -11.209323      -305.0212
   7   2.0000     -11.208968      -305.0115
   8   2.0000     -11.206987      -304.9576
   9   2.0000      -1.126093       -30.6426
  10   2.0000      -1.054234       -28.6872
  11   2.0000      -0.992952       -27.0196
  12   2.0000      -0.974061       -26.5055
  13   2.0000      -0.906714       -24.6730
  14   2.0000      -0.878040       -23.8927
  15   2.0000      -0.802846       -21.8466
  16   2.0000      -0.759671       -20.6717
  17   2.0000      -0.730076       -19.8664
  18   2.0000      -0.659540       -17.9470
  19   2.0000      -0.626413       -17.0456
  20   2.0000      -0.621688       -16.9170
  21   2.0000      -0.593158       -16.1406
  22   2.0000      -0.562254       -15.2997
  23   2.0000      -0.553856       -15.0712
  24   2.0000      -0.545279       -14.8378
  25   2.0000      -0.538945       -14.6654
  26   2.0000      -0.522170       -14.2090
  27   2.0000      -0.512100       -13.9350
  28   2.0000      -0.480267       -13.0687
  29   2.0000      -0.470484       -12.8025
  30   2.0000      -0.462549       -12.5866
  31   2.0000      -0.452337       -12.3087
  32   2.0000      -0.447300       -12.1717
  33   2.0000      -0.439912       -11.9706
  34   2.0000      -0.437589       -11.9074
  35   2.0000      -0.421738       -11.4761
  36   0.0000       0.131390         3.5753
  37   0.0000       0.147355         4.0097
  38   0.0000       0.151067         4.1107
  39   0.0000       0.164578         4.4784
  40   0.0000       0.180550         4.9130

MULLIKEN ATOMIC CHARGES
-----------------------
   0 C :   -0.384890
   1 C :   -0.188231
   2 C :   -0.278627
   3 C :   -0.044936
   4 C :   -0.315475
   5 C :   -0.224727
   6 C :   -0.241881
   7 C :    0.055014
   8 C :   -0.474193
   9 H :    0.121031
  10 H :    0.121117
  11 H :    0.132197
  12 H :    0.104777
  13 H :    0.112906
  14 H :    0.114923
  15 H :    0.111045
  16 H :    0.083567
  17 H :    0.125149
  18 H :    0.115599
  19 H :    0.114497
  20 H :    0.117453
  21 H :    0.109528
  22 H :    0.117569
  23 H :    0.092737
  24 H :    0.131737
  25 H :    0.137899
  26 H :    0.134216
Sum of atomic charges:    0.0000000

LOEWDIN ATOMIC CHARGES
----------------------
   0 C :   -0.322590
   1 C :   -0.293782
   2 C :   -0.252761
   3 C :   -0.233891
   4 C :   -0.234949
   5 C :   -0.252969
   6 C :   -0.239690
   7 C :   -0.253969
   8 C :   -0.292143
   9 H :    0.119577
  10 H :    0.119764
  11 H :    0.119633
  12 H :    0.134212
  13 H :    0.135346
  14 H :    0.138969
  15 H :    0.139652
  16 H :    0.155216
  17 H :    0.131741
  18 H :    0.134929
  19 H :    0.130503
  20 H :    0.131854
  21 H :    0.135780
  22 H :    0.132191
  23 H :    0.146828
  24 H :    0.124577
  25 H :    0.122580
  26 H :    0.123391

  Mayer bond orders larger than 0.1
B(  0-C ,  1-C ) :   0.9200 B(  0-C ,  9-H ) :   0.9407 B(  0-C , 10-H ) :   0.9395
B(  0-C , 11-H ) :   0.9439 B(  1-C ,  2-C ) :   0.9273 B(  1-C , 12-H ) :   0.9346
B(  1-C , 13-H ) :   0.9343 B(  2-C ,  3-C ) :   0.8919 B(  2-C , 14-H ) :   0.9286
B(  2-C , 15-H ) :   0.9354 B(  3-C ,  4-C ) :   0.9292 B(  3-C ,  7-C ) :   0.9006
B(  3-C , 16-H ) :   0.9257 B(  4-C ,  5-C ) :   0.9294 B(  4-C , 17-H ) :   0.9334
B(  4-C , 18-H ) :   0.9295 B(  5-C ,  6-C ) :   0.9469 B(  5-C , 19-H ) :   0.9348
B(  5-C , 20-H ) :   0.9389 B(  6-C ,  7-C ) :   0.9081 B(  6-C , 21-H ) :   0.9281
B(  6-C , 22-H ) :   0.9341 B(  7-C ,  8-C ) :   0.8847 B(  7-C , 23-H ) :   0.9252
B(  8-C , 24-H ) :   0.9356 B(  8-C , 25-H ) :   0.9412 B(  8-C , 26-H ) :   0.9385

MP2 TOTAL ENERGY:     -352.939466238 Eh
FINAL SINGLE POINT ENERGY      -352.939466238117

DIPOLE MOMENT
-------------
                                X             Y             Z
Electronic contribution:      0.49726      -3.39553      -0.48820
Nuclear contribution   :     -0.47503       3.37248       0.53051
                        -----------------------------------------
Total Dipole Moment    :      0.02223      -0.02305       0.04231
                        -----------------------------------------
Magnitude (a.u.)       :      0.05307
Magnitude (Debye)      :      0.13488

                             ****ORCA TERMINATED NORMALLY****
TOTAL RUN TIME: 0 days 0 hours 21 minutes 16 seconds 34 msec
