                         Program Version 3.0.3 - RELEASE   -
|  1> ! RI-MP2 RIJK def2-TZVP def2-TZVP/C def2-TZVP/JK TIGHTSCF
|  2> % maxcore 2000
|  3> % mp2 density relaxed end
|  4> *xyz 0 1
|  5>  C       -0.1982954571     1.3557851862    -0.0044316990
|  6>  O       -0.1191736648    -0.0512264433    -0.0679981953
|  7>  C        0.8027813208    -0.5022288605    -1.0297992154
|  8>  C        0.7968369476    -2.0066503996    -0.9914203544
|  9>  O       -0.1255729607    -2.6912506863    -1.8364842593
| 10>  C        1.2643508365    -2.8286739226    -2.1267964192
| 11>  C        1.7416330774    -2.2193637169    -3.3515920145
| 12>  N        2.1496041006    -1.7498986431    -4.3257661321
| 13>  H        0.7718234551     1.8054829616     0.2588936217
| 14>  H       -0.5310862861     1.7876345917    -0.9603740263
| 15>  H       -0.9269433057     1.6035599200     0.7702474378
| 16>  H        0.5389530309    -0.1552345402    -2.0404548313
| 17>  H        1.8199168718    -0.1352479800    -0.8044327943
| 18>  H        0.8974607722    -2.4381482194     0.0044159893
| 19>  H        1.6893175415    -3.8105353175    -1.9268260878
| 20> *
| 21>
| 22>                          ****END OF INPUT****

CARTESIAN COORDINATES (ANGSTROEM)
---------------------------------
  C     -0.198295    1.355785   -0.004432
  O     -0.119174   -0.051226   -0.067998
  C      0.802781   -0.502229   -1.029799
  C      0.796837   -2.006650   -0.991420
  O     -0.125573   -2.691251   -1.836484
  C      1.264351   -2.828674   -2.126796
  C      1.741633   -2.219364   -3.351592
  N      2.149604   -1.749899   -4.325766
  H      0.771823    1.805483    0.258894
  H     -0.531086    1.787635   -0.960374
  H     -0.926943    1.603560    0.770247
  H      0.538953   -0.155235   -2.040455
  H      1.819917   -0.135248   -0.804433
  H      0.897461   -2.438148    0.004416
  H      1.689318   -3.810535   -1.926826

 Total Charge           Charge          ....    0
 Multiplicity           Mult            ....    1
 Number of Electrons    NEL             ....   60
 Basis Dimension        Dim             ....  290

ORBITAL ENERGIES
----------------

  NO   OCC          E(Eh)            E(eV)
   0   2.0000     -20.609968      -560.8258
   1   2.0000     -20.576072      -559.9034
   2   2.0000     -15.590673      -424.2438
   3   2.0000     -11.350265      -308.8564
   4   2.0000     -11.327038      -308.2244
   5   2.0000     -11.303913      -307.5951
   6   2.0000     -11.290011      -307.2168
   7   2.0000     -11.284627      -307.0703
   8   2.0000      -1.457986       -39.6738
   9   2.0000      -1.397025       -38.0150
  10   2.0000      -1.234042       -33.5800
  11   2.0000      -1.041123       -28.3304
  12   2.0000      -0.995211       -27.0811
  13   2.0000      -0.920611       -25.0511
  14   2.0000      -0.861116       -23.4321
  15   2.0000      -0.758140       -20.6300
  16   2.0000      -0.728105       -19.8127
  17   2.0000      -0.684585       -18.6285
  18   2.0000      -0.663317       -18.0498
  19   2.0000      -0.645771       -17.5723
  20   2.0000      -0.607647       -16.5349
  21   2.0000      -0.584752       -15.9119
  22   2.0000      -0.561048       -15.2669
  23   2.0000      -0.557379       -15.1671
  24   2.0000      -0.533043       -14.5049
  25   2.0000      -0.507343       -13.8055
  26   2.0000      -0.487624       -13.2689
  27   2.0000      -0.480022       -13.0621
  28   2.0000      -0.452396       -12.3103
  29   2.0000      -0.440655       -11.9908
  30   0.0000       0.131259         3.5717
  31   0.0000       0.138105         3.7580
  32   0.0000       0.140884         3.8337
  33   0.0000       0.158180         4.3043
  34   0.0000       0.178686         4.8623

MULLIKEN ATOMIC CHARGES
-----------------------
   0 C :   -0.218333
   1 O :   -0.298946
   2 C :   -0.067896
   3 C :    0.076984
   4 O :   -0.295473
   5 C :    0.114171
   6 C :   -0.173773
   7 N :   -0.051518
   8 H :    0.113998
   9 H :    0.121503
  10 H :    0.145042
  11 H :    0.129243
  12 H :    0.105557
  13 H :    0.138798
  14 H :    0.160644
Sum of atomic charges:    0.0000000

LOEWDIN ATOMIC CHARGES
----------------------
   0 C :   -0.351986
   1 O :    0.140715
   2 C :   -0.311045
   3 C :   -0.240249
   4 O :    0.204491
   5 C :   -0.257104
   6 C :   -0.168436
   7 N :    0.082201
   8 H :    0.102923
   9 H :    0.105098
  10 H :    0.116072
  11 H :    0.137206
  12 H :    0.131334
  13 H :    0.148229
  14 H :    0.160551

  Mayer bond orders larger than 0.1
B(  0-C ,  1-O ) :   0.9094 B(  0-C ,  8-H ) :   0.9355 B(  0-C ,  9-H ) :   0.9373
B(  0-C , 10-H ) :   0.9380 B(  1-O ,  2-C ) :   0.9565 B(  2-C ,  3-C ) :   0.9308
B(  2-C , 11-H ) :   0.9214 B(  2-C , 12-H ) :   0.9063 B(  3-C ,  4-O ) :   0.8882
B(  3-C ,  5-C ) :   0.9338 B(  3-C , 13-H ) :   0.9230 B(  4-O ,  5-C ) :   0.9273
B(  5-C ,  6-C ) :   0.9132 B(  5-C , 14-H ) :   0.9014 B(  6-C ,  7-N ) :   2.8211

MP2 TOTAL ENERGY:     -399.114665606 Eh
FINAL SINGLE POINT ENERGY      -399.114665605586

DIPOLE MOMENT
-------------
                                X             Y             Z
Electronic contribution:      1.19948      -6.92967      -5.21098
Nuclear contribution   :     -0.86491       7.10826       6.39215
                        -----------------------------------------
Total Dipole Moment    :      0.33457       0.17859       1.18117
                        -----------------------------------------
Magnitude (a.u.)       :      1.24057
Magnitude (Debye)      :      3.15327

                             ****ORCA TERMINATED NORMALLY****
TOTAL RUN TIME: 0 days 0 hours 9 minutes 30 seconds 86 msec
