                         Program Version 3.0.3 - RELEASE   -
|  1> ! RI-MP2 RIJK def2-TZVP def2-TZVP/C def2-TZVP/JK TIGHTSCF
|  2> % maxcore 2000
|  3> % mp2 density relaxed end
|  4> *xyz 0 1
|  5>  C        0.0487447651     1.3300732069     0.3253402696
|  6>  C        0.0247667757    -0.1792096008     0.1861614457
|  7>  O        1.0131281469    -0.8664331112     0.2462099221
|  8>  C       -1.3631260542    -0.7880766454     0.0040500209
|  9>  O       -1.3806891024    -2.2291256503    -0.0380555993
| 10>  C       -2.1916058237    -2.3098431819     1.1434165802
| 11>  C       -1.3851668543    -2.2554059388     2.4563960654
| 12>  O       -1.4951425182    -0.7999574859     2.4971110999
| 13>  C       -2.2522170309    -0.7795548737     1.2808477475
| 14>  H        1.0735540991     1.6921955660     0.2343592745
| 15>  H       -0.5912937303     1.8184317741    -0.4166960423
| 16>  H       -0.3348266332     1.5917806636     1.3186550192
| 17>  H       -1.8489281058    -0.3602314622    -0.8847152033
| 18>  H       -3.0245837674    -3.0066674456     1.0463425750
| 19>  H       -1.8693362848    -2.7049032002     3.3306376450
| 20>  H       -0.3497964913    -2.5952392344     2.3661104984
| 21>  H       -3.1292868306    -0.1323747502     1.3228469115
| 22> *
| 23>
| 24>                          ****END OF INPUT****

CARTESIAN COORDINATES (ANGSTROEM)
---------------------------------
  C      0.048745    1.330073    0.325340
  C      0.024767   -0.179210    0.186161
  O      1.013128   -0.866433    0.246210
  C     -1.363126   -0.788077    0.004050
  O     -1.380689   -2.229126   -0.038056
  C     -2.191606   -2.309843    1.143417
  C     -1.385167   -2.255406    2.456396
  O     -1.495143   -0.799957    2.497111
  C     -2.252217   -0.779555    1.280848
  H      1.073554    1.692196    0.234359
  H     -0.591294    1.818432   -0.416696
  H     -0.334827    1.591781    1.318655
  H     -1.848928   -0.360231   -0.884715
  H     -3.024584   -3.006667    1.046343
  H     -1.869336   -2.704903    3.330638
  H     -0.349796   -2.595239    2.366110
  H     -3.129287   -0.132375    1.322847

 Total Charge           Charge          ....    0
 Multiplicity           Mult            ....    1
 Number of Electrons    NEL             ....   68
 Basis Dimension        Dim             ....  327

ORBITAL ENERGIES
----------------

  NO   OCC          E(Eh)            E(eV)
   0   2.0000     -20.570198      -559.7436
   1   2.0000     -20.568354      -559.6934
   2   2.0000     -20.547032      -559.1132
   3   2.0000     -11.333238      -308.3931
   4   2.0000     -11.309664      -307.7516
   5   2.0000     -11.305545      -307.6395
   6   2.0000     -11.303269      -307.5776
   7   2.0000     -11.291121      -307.2470
   8   2.0000     -11.237705      -305.7935
   9   2.0000      -1.432986       -38.9935
  10   2.0000      -1.390070       -37.8257
  11   2.0000      -1.366126       -37.1742
  12   2.0000      -1.046654       -28.4809
  13   2.0000      -1.000590       -27.2274
  14   2.0000      -0.985008       -26.8034
  15   2.0000      -0.911222       -24.7956
  16   2.0000      -0.779975       -21.2242
  17   2.0000      -0.743598       -20.2343
  18   2.0000      -0.726822       -19.7778
  19   2.0000      -0.690142       -18.7797
  20   2.0000      -0.681156       -18.5352
  21   2.0000      -0.637564       -17.3490
  22   2.0000      -0.614092       -16.7103
  23   2.0000      -0.607761       -16.5380
  24   2.0000      -0.589452       -16.0398
  25   2.0000      -0.570562       -15.5258
  26   2.0000      -0.563592       -15.3361
  27   2.0000      -0.548954       -14.9378
  28   2.0000      -0.524696       -14.2777
  29   2.0000      -0.496084       -13.4991
  30   2.0000      -0.466594       -12.6967
  31   2.0000      -0.444705       -12.1010
  32   2.0000      -0.419276       -11.4091
  33   2.0000      -0.406059       -11.0494
  34   0.0000       0.126000         3.4286
  35   0.0000       0.142692         3.8828
  36   0.0000       0.153013         4.1637
  37   0.0000       0.168239         4.5780
  38   0.0000       0.176873         4.8130

MULLIKEN ATOMIC CHARGES
-----------------------
   0 C :   -0.443525
   1 C :    0.184770
   2 O :   -0.267409
   3 C :    0.079810
   4 O :   -0.304165
   5 C :   -0.029664
   6 C :   -0.028407
   7 O :   -0.352211
   8 C :    0.082282
   9 H :    0.156094
  10 H :    0.139862
  11 H :    0.165605
  12 H :    0.122171
  13 H :    0.121083
  14 H :    0.112589
  15 H :    0.130935
  16 H :    0.130181
Sum of atomic charges:    0.0000000

LOEWDIN ATOMIC CHARGES
----------------------
   0 C :   -0.275803
   1 C :   -0.340816
   2 O :    0.170532
   3 C :   -0.237260
   4 O :    0.181747
   5 C :   -0.248818
   6 C :   -0.229483
   7 O :    0.137796
   8 C :   -0.233120
   9 H :    0.136224
  10 H :    0.132551
  11 H :    0.145110
  12 H :    0.147983
  13 H :    0.130408
  14 H :    0.121745
  15 H :    0.130649
  16 H :    0.130555

  Mayer bond orders larger than 0.1
B(  0-C ,  1-C ) :   0.9056 B(  0-C ,  9-H ) :   0.9308 B(  0-C , 10-H ) :   0.9190
B(  0-C , 11-H ) :   0.9067 B(  1-C ,  2-O ) :   2.0312 B(  1-C ,  3-C ) :   0.8513
B(  3-C ,  4-O ) :   0.9396 B(  3-C ,  8-C ) :   0.9012 B(  3-C , 12-H ) :   0.8969
B(  4-O ,  5-C ) :   0.9828 B(  5-C ,  6-C ) :   0.9485 B(  5-C ,  8-C ) :   0.9426
B(  5-C , 13-H ) :   0.9193 B(  6-C ,  7-O ) :   0.8969 B(  6-C , 14-H ) :   0.9113
B(  6-C , 15-H ) :   0.9057 B(  7-O ,  8-C ) :   0.9549 B(  8-C , 16-H ) :   0.9123

MP2 TOTAL ENERGY:     -458.185218671 Eh
FINAL SINGLE POINT ENERGY      -458.185218670731

DIPOLE MOMENT
-------------
                                X             Y             Z
Electronic contribution:      0.81137      -3.40097      -0.89044
Nuclear contribution   :     -2.08669       3.89191       0.97987
                        -----------------------------------------
Total Dipole Moment    :     -1.27532       0.49094       0.08943
                        -----------------------------------------
Magnitude (a.u.)       :      1.36947
Magnitude (Debye)      :      3.48092

                             ****ORCA TERMINATED NORMALLY****
TOTAL RUN TIME: 0 days 0 hours 17 minutes 40 seconds 672 msec
