                         Program Version 3.0.3 - RELEASE   -
|  1> ! RI-MP2 RIJK def2-TZVP def2-TZVP/C def2-TZVP/JK TIGHTSCF
|  2> % maxcore 2000
|  3> % mp2 density relaxed end
|  4> *xyz 0 1
|  5>  C        0.0137928876     1.5770344791    -0.1571296268
|  6>  C        0.0349012689     0.0567927987     0.0361143108
|  7>  C       -1.3557144578    -0.5638823200     0.0509601392
|  8>  C       -2.1350468408    -0.7408284256    -1.2899982505
|  9>  O       -1.2189355681    -1.4909823823    -2.1456743911
| 10>  C       -1.4800593010    -2.6022011913    -1.2890927675
| 11>  C       -2.7640901446    -2.0705758191    -0.7363365772
| 12>  C       -1.5434494461    -2.0827848965     0.1660882883
| 13>  O       -1.3667735599    -2.8891786339     1.2691933990
| 14>  H        1.0262583052     1.9920886119    -0.1572870137
| 15>  H       -0.4538001511     1.8483739519    -1.1098132272
| 16>  H       -0.5494302357     2.0725300221     0.6417541527
| 17>  H        0.6161382216    -0.4130281640    -0.7644212825
| 18>  H        0.5393459534    -0.1848930614     0.9812426745
| 19>  H       -2.0125940799    -0.0714630104     0.7780351363
| 20>  H       -2.6370358607     0.0779458903    -1.7999199810
| 21>  H       -1.1642758699    -3.5960053603    -1.5794397241
| 22>  H       -3.7673957137    -2.4598114090    -0.6406157664
| 23>  H       -0.4408746374    -3.1529834902     1.3105940971
| 24> *
| 25>
| 26>                          ****END OF INPUT****

CARTESIAN COORDINATES (ANGSTROEM)
---------------------------------
  C      0.013793    1.577034   -0.157130
  C      0.034901    0.056793    0.036114
  C     -1.355714   -0.563882    0.050960
  C     -2.135047   -0.740828   -1.289998
  O     -1.218936   -1.490982   -2.145674
  C     -1.480059   -2.602201   -1.289093
  C     -2.764090   -2.070576   -0.736337
  C     -1.543449   -2.082785    0.166088
  O     -1.366774   -2.889179    1.269193
  H      1.026258    1.992089   -0.157287
  H     -0.453800    1.848374   -1.109813
  H     -0.549430    2.072530    0.641754
  H      0.616138   -0.413028   -0.764421
  H      0.539346   -0.184893    0.981243
  H     -2.012594   -0.071463    0.778035
  H     -2.637036    0.077946   -1.799920
  H     -1.164276   -3.596005   -1.579440
  H     -3.767396   -2.459811   -0.640616
  H     -0.440875   -3.152983    1.310594

 Total Charge           Charge          ....    0
 Multiplicity           Mult            ....    1
 Number of Electrons    NEL             ....   68
 Basis Dimension        Dim             ....  339

ORBITAL ENERGIES
----------------

  NO   OCC          E(Eh)            E(eV)
   0   2.0000     -20.579245      -559.9897
   1   2.0000     -20.554287      -559.3106
   2   2.0000     -11.297315      -307.4156
   3   2.0000     -11.296716      -307.3993
   4   2.0000     -11.290898      -307.2409
   5   2.0000     -11.238279      -305.8091
   6   2.0000     -11.235764      -305.7407
   7   2.0000     -11.217783      -305.2514
   8   2.0000     -11.214281      -305.1561
   9   2.0000      -1.410801       -38.3899
  10   2.0000      -1.381768       -37.5998
  11   2.0000      -1.148919       -31.2637
  12   2.0000      -1.052663       -28.6444
  13   2.0000      -0.964302       -26.2400
  14   2.0000      -0.894519       -24.3411
  15   2.0000      -0.822898       -22.3922
  16   2.0000      -0.784578       -21.3495
  17   2.0000      -0.744531       -20.2597
  18   2.0000      -0.736187       -20.0327
  19   2.0000      -0.661254       -17.9936
  20   2.0000      -0.637568       -17.3491
  21   2.0000      -0.631801       -17.1922
  22   2.0000      -0.609083       -16.5740
  23   2.0000      -0.576076       -15.6758
  24   2.0000      -0.570174       -15.5152
  25   2.0000      -0.548943       -14.9375
  26   2.0000      -0.529210       -14.4005
  27   2.0000      -0.516558       -14.0563
  28   2.0000      -0.495608       -13.4862
  29   2.0000      -0.480446       -13.0736
  30   2.0000      -0.461691       -12.5632
  31   2.0000      -0.431703       -11.7472
  32   2.0000      -0.388281       -10.5657
  33   2.0000      -0.364628        -9.9220
  34   0.0000       0.131189         3.5698
  35   0.0000       0.141311         3.8453
  36   0.0000       0.167814         4.5665
  37   0.0000       0.175027         4.7627
  38   0.0000       0.187896         5.1129

MULLIKEN ATOMIC CHARGES
-----------------------
   0 C :   -0.410486
   1 C :   -0.251178
   2 C :    0.007545
   3 C :    0.026292
   4 O :   -0.329651
   5 C :   -0.040362
   6 C :   -0.181521
   7 C :    0.111905
   8 O :   -0.460002
   9 H :    0.135745
  10 H :    0.129856
  11 H :    0.123196
  12 H :    0.136848
  13 H :    0.105856
  14 H :    0.105308
  15 H :    0.145885
  16 H :    0.144438
  17 H :    0.165956
  18 H :    0.334368
Sum of atomic charges:   -0.0000000

LOEWDIN ATOMIC CHARGES
----------------------
   0 C :   -0.316127
   1 C :   -0.276050
   2 C :   -0.190247
   3 C :   -0.169065
   4 O :    0.163154
   5 C :   -0.227354
   6 C :   -0.113724
   7 C :   -0.305871
   8 O :    0.038082
   9 H :    0.121344
  10 H :    0.121789
  11 H :    0.119990
  12 H :    0.144081
  13 H :    0.137041
  14 H :    0.161204
  15 H :    0.129857
  16 H :    0.135180
  17 H :    0.137183
  18 H :    0.189533

  Mayer bond orders larger than 0.1
B(  0-C ,  1-C ) :   0.9136 B(  0-C ,  9-H ) :   0.9418 B(  0-C , 10-H ) :   0.9420
B(  0-C , 11-H ) :   0.9391 B(  1-C ,  2-C ) :   0.8728 B(  1-C , 12-H ) :   0.9328
B(  1-C , 13-H ) :   0.9293 B(  2-C ,  3-C ) :   0.9436 B(  2-C ,  7-C ) :   0.8976
B(  2-C , 14-H ) :   0.9068 B(  3-C ,  4-O ) :   0.8750 B(  3-C ,  6-C ) :   0.9502
B(  3-C , 15-H ) :   0.9038 B(  4-O ,  5-C ) :   0.9399 B(  5-C ,  6-C ) :   0.8932
B(  5-C ,  7-C ) :   0.8648 B(  5-C , 16-H ) :   0.9177 B(  6-C ,  7-C ) :   0.8327
B(  6-C , 17-H ) :   0.8854 B(  7-C ,  8-O ) :   1.0099 B(  8-O , 18-H ) :   0.8332

MP2 TOTAL ENERGY:     -422.247182029 Eh
FINAL SINGLE POINT ENERGY      -422.247182029381

DIPOLE MOMENT
-------------
                                X             Y             Z
Electronic contribution:     -3.55839      -7.57788      -1.61383
Nuclear contribution   :      3.68617       7.56688       1.89860
                        -----------------------------------------
Total Dipole Moment    :      0.12777      -0.01100       0.28477
                        -----------------------------------------
Magnitude (a.u.)       :      0.31232
Magnitude (Debye)      :      0.79385

                             ****ORCA TERMINATED NORMALLY****
TOTAL RUN TIME: 0 days 0 hours 29 minutes 41 seconds 240 msec
