                         Program Version 3.0.3 - RELEASE   -
|  1> ! RI-MP2 RIJK def2-TZVP def2-TZVP/C def2-TZVP/JK TIGHTSCF
|  2> % maxcore 2000
|  3> % mp2 density relaxed end
|  4> *xyz 0 1
|  5>  N       -0.0680453001     1.3747443790     0.0390233863
|  6>  C        0.0832233658     0.0269536278    -0.0200209557
|  7>  O        1.1612277711    -0.5369962102    -0.0641636410
|  8>  C       -1.2337020202    -0.7578797022    -0.0568941938
|  9>  N       -2.3622904346     0.0631647639     0.3695075660
| 10>  C       -1.4897340733    -1.4708803713    -1.4132341357
| 11>  O       -1.5428582577    -2.7623795199    -0.7887739171
| 12>  C       -1.1276115352    -2.2125380620     0.4798708445
| 13>  H        0.7504402680     1.9548589444    -0.0402534352
| 14>  H       -0.9925251976     1.7684934460    -0.0320590228
| 15>  H       -3.2355823916    -0.4179243215     0.1750046733
| 16>  H       -2.3307346100     0.2067413140     1.3761996759
| 17>  H       -2.4326066396    -1.1957402223    -1.9035142909
| 18>  H       -0.6648333914    -1.3910857757    -2.1301194066
| 19>  H       -0.1095440132    -2.5122012514     0.7443529725
| 20>  H       -1.8273256107    -2.4609202785     1.2875638603
| 21> *
| 22>
| 23>                          ****END OF INPUT****

CARTESIAN COORDINATES (ANGSTROEM)
---------------------------------
  N     -0.068045    1.374744    0.039023
  C      0.083223    0.026954   -0.020021
  O      1.161228   -0.536996   -0.064164
  C     -1.233702   -0.757880   -0.056894
  N     -2.362290    0.063165    0.369508
  C     -1.489734   -1.470880   -1.413234
  O     -1.542858   -2.762380   -0.788774
  C     -1.127612   -2.212538    0.479871
  H      0.750440    1.954859   -0.040253
  H     -0.992525    1.768493   -0.032059
  H     -3.235582   -0.417924    0.175005
  H     -2.330735    0.206741    1.376200
  H     -2.432607   -1.195740   -1.903514
  H     -0.664833   -1.391086   -2.130119
  H     -0.109544   -2.512201    0.744353
  H     -1.827326   -2.460920    1.287564

 Total Charge           Charge          ....    0
 Multiplicity           Mult            ....    1
 Number of Electrons    NEL             ....   62
 Basis Dimension        Dim             ....  296

ORBITAL ENERGIES
----------------

  NO   OCC          E(Eh)            E(eV)
   0   2.0000     -20.555473      -559.3429
   1   2.0000     -20.520132      -558.3812
   2   2.0000     -15.583621      -424.0519
   3   2.0000     -15.573818      -423.7851
   4   2.0000     -11.353390      -308.9414
   5   2.0000     -11.291322      -307.2525
   6   2.0000     -11.288164      -307.1666
   7   2.0000     -11.282544      -307.0136
   8   2.0000      -1.394181       -37.9376
   9   2.0000      -1.379611       -37.5411
  10   2.0000      -1.230883       -33.4940
  11   2.0000      -1.194763       -32.5112
  12   2.0000      -1.000815       -27.2336
  13   2.0000      -0.945042       -25.7159
  14   2.0000      -0.853481       -23.2244
  15   2.0000      -0.762546       -20.7499
  16   2.0000      -0.736284       -20.0353
  17   2.0000      -0.703547       -19.1445
  18   2.0000      -0.675643       -18.3852
  19   2.0000      -0.663923       -18.0663
  20   2.0000      -0.644232       -17.5305
  21   2.0000      -0.613491       -16.6939
  22   2.0000      -0.584645       -15.9090
  23   2.0000      -0.578420       -15.7396
  24   2.0000      -0.559592       -15.2273
  25   2.0000      -0.514332       -13.9957
  26   2.0000      -0.479833       -13.0569
  27   2.0000      -0.436470       -11.8769
  28   2.0000      -0.427747       -11.6396
  29   2.0000      -0.417806       -11.3691
  30   2.0000      -0.405635       -11.0379
  31   0.0000       0.120277         3.2729
  32   0.0000       0.149714         4.0739
  33   0.0000       0.158916         4.3243
  34   0.0000       0.173268         4.7149
  35   0.0000       0.192744         5.2448

MULLIKEN ATOMIC CHARGES
-----------------------
   0 N :   -0.468435
   1 C :    0.194825
   2 O :   -0.357867
   3 C :    0.171603
   4 N :   -0.586014
   5 C :   -0.047392
   6 O :   -0.325412
   7 C :   -0.045453
   8 H :    0.255588
   9 H :    0.287381
  10 H :    0.244931
  11 H :    0.244450
  12 H :    0.100793
  13 H :    0.115687
  14 H :    0.128379
  15 H :    0.086937
Sum of atomic charges:   -0.0000000

LOEWDIN ATOMIC CHARGES
----------------------
   0 N :   -0.004607
   1 C :   -0.458780
   2 O :    0.084172
   3 C :   -0.309292
   4 N :   -0.127706
   5 C :   -0.230170
   6 O :    0.115540
   7 C :   -0.232808
   8 H :    0.173139
   9 H :    0.175880
  10 H :    0.163153
  11 H :    0.161311
  12 H :    0.118754
  13 H :    0.127916
  14 H :    0.129407
  15 H :    0.114091

  Mayer bond orders larger than 0.1
B(  0-N ,  1-C ) :   1.2049 B(  0-N ,  8-H ) :   0.8594 B(  0-N ,  9-H ) :   0.8431
B(  1-C ,  2-O ) :   1.9797 B(  1-C ,  3-C ) :   0.8898 B(  3-C ,  4-N ) :   0.8684
B(  3-C ,  5-C ) :   0.9233 B(  3-C ,  7-C ) :   0.9836 B(  4-N , 10-H ) :   0.8854
B(  4-N , 11-H ) :   0.8811 B(  5-C ,  6-O ) :   0.9677 B(  5-C , 12-H ) :   0.9047
B(  5-C , 13-H ) :   0.9063 B(  6-O ,  7-C ) :   0.9587 B(  7-C , 14-H ) :   0.8993
B(  7-C , 15-H ) :   0.9038

MP2 TOTAL ENERGY:     -416.404180584 Eh
FINAL SINGLE POINT ENERGY      -416.404180583582

DIPOLE MOMENT
-------------
                                X             Y             Z
Electronic contribution:      2.88365      -0.81369      -0.39310
Nuclear contribution   :     -3.93130       1.99374       0.83686
                        -----------------------------------------
Total Dipole Moment    :     -1.04765       1.18005       0.44376
                        -----------------------------------------
Magnitude (a.u.)       :      1.63921
Magnitude (Debye)      :      4.16655

                             ****ORCA TERMINATED NORMALLY****
TOTAL RUN TIME: 0 days 0 hours 11 minutes 31 seconds 888 msec
