                         Program Version 3.0.3 - RELEASE   -
|  1> ! RI-MP2 RIJK def2-TZVP def2-TZVP/C def2-TZVP/JK TIGHTSCF
|  2> % maxcore 2000
|  3> % mp2 density relaxed end
|  4> *xyz 0 1
|  5>  C       -0.0181762936     1.4817363386     0.0102181057
|  6>  C        0.0016174366     0.0335497122     0.0021942071
|  7>  C        0.0181621345    -1.1800028783    -0.0045013254
|  8>  C        0.0367092493    -2.5268342656    -0.0119295562
|  9>  C        0.0533313174    -3.7485282793    -0.0186559397
| 10>  C        0.0712544131    -5.0899397215    -0.0260423139
| 11>  C        0.0875698530    -6.3091363367    -0.0327564636
| 12>  C        0.1058130734    -7.6658216846    -0.0400599431
| 13>  N        0.1214618257    -8.8301903154    -0.0463446702
| 14>  H        0.9995360460     1.8875975336     0.0027051496
| 15>  H       -0.5435209254     1.8713369999    -0.8688344093
| 16>  H       -0.5265997198     1.8617576072     0.9033066590
| 17> *
| 18>
| 19>                          ****END OF INPUT****

CARTESIAN COORDINATES (ANGSTROEM)
---------------------------------
  C     -0.018176    1.481736    0.010218
  C      0.001617    0.033550    0.002194
  C      0.018162   -1.180003   -0.004501
  C      0.036709   -2.526834   -0.011930
  C      0.053331   -3.748528   -0.018656
  C      0.071254   -5.089940   -0.026042
  C      0.087570   -6.309136   -0.032756
  C      0.105813   -7.665822   -0.040060
  N      0.121462   -8.830190   -0.046345
  H      0.999536    1.887598    0.002705
  H     -0.543521    1.871337   -0.868834
  H     -0.526600    1.861758    0.903307

 Total Charge           Charge          ....    0
 Multiplicity           Mult            ....    1
 Number of Electrons    NEL             ....   58
 Basis Dimension        Dim             ....  297

ORBITAL ENERGIES
----------------

  NO   OCC          E(Eh)            E(eV)
   0   2.0000     -15.602809      -424.5740
   1   2.0000     -11.315228      -307.9030
   2   2.0000     -11.307726      -307.6989
   3   2.0000     -11.306785      -307.6733
   4   2.0000     -11.300445      -307.5008
   5   2.0000     -11.290927      -307.2417
   6   2.0000     -11.289475      -307.2022
   7   2.0000     -11.280089      -306.9468
   8   2.0000     -11.270613      -306.6890
   9   2.0000      -1.239811       -33.7370
  10   2.0000      -1.140492       -31.0344
  11   2.0000      -1.109720       -30.1970
  12   2.0000      -1.067392       -29.0452
  13   2.0000      -1.004928       -27.3455
  14   2.0000      -0.934682       -25.4340
  15   2.0000      -0.860851       -23.4250
  16   2.0000      -0.799895       -21.7663
  17   2.0000      -0.668805       -18.1991
  18   2.0000      -0.622466       -16.9382
  19   2.0000      -0.622464       -16.9381
  20   2.0000      -0.585353       -15.9283
  21   2.0000      -0.561354       -15.2752
  22   2.0000      -0.561354       -15.2752
  23   2.0000      -0.515537       -14.0285
  24   2.0000      -0.515537       -14.0285
  25   2.0000      -0.443667       -12.0728
  26   2.0000      -0.443667       -12.0728
  27   2.0000      -0.351654        -9.5690
  28   2.0000      -0.351654        -9.5690
  29   0.0000       0.028707         0.7812
  30   0.0000       0.028707         0.7812
  31   0.0000       0.111034         3.0214
  32   0.0000       0.141576         3.8525
  33   0.0000       0.154312         4.1990

MULLIKEN ATOMIC CHARGES
-----------------------
   0 C :   -0.451633
   1 C :    0.040269
   2 C :    0.000151
   3 C :   -0.012707
   4 C :   -0.055511
   5 C :   -0.034523
   6 C :    0.208174
   7 C :   -0.182812
   8 N :   -0.039601
   9 H :    0.176064
  10 H :    0.176064
  11 H :    0.176065
Sum of atomic charges:    0.0000000

LOEWDIN ATOMIC CHARGES
----------------------
   0 C :   -0.280974
   1 C :   -0.021460
   2 C :   -0.062798
   3 C :    0.005263
   4 C :   -0.012642
   5 C :    0.001877
   6 C :   -0.009941
   7 C :   -0.175932
   8 N :    0.107520
   9 H :    0.149696
  10 H :    0.149695
  11 H :    0.149696

  Mayer bond orders larger than 0.1
B(  0-C ,  1-C ) :   0.8053 B(  0-C ,  9-H ) :   0.9399 B(  0-C , 10-H ) :   0.9399
B(  0-C , 11-H ) :   0.9399 B(  1-C ,  2-C ) :   2.5093 B(  2-C ,  3-C ) :   1.3225
B(  3-C ,  4-C ) :   2.4034 B(  4-C ,  5-C ) :   1.3116 B(  4-C ,  7-C ) :   0.1022
B(  5-C ,  6-C ) :   2.4612 B(  5-C ,  8-N ) :   0.1032 B(  6-C ,  7-C ) :   0.9654
B(  7-C ,  8-N ) :   2.7303

MP2 TOTAL ENERGY:     -360.465209768 Eh
FINAL SINGLE POINT ENERGY      -360.465209767535

DIPOLE MOMENT
-------------
                                X             Y             Z
Electronic contribution:      0.17686     -12.99552      -0.07170
Nuclear contribution   :     -0.21287      15.65405       0.08626
                        -----------------------------------------
Total Dipole Moment    :     -0.03601       2.65854       0.01456
                        -----------------------------------------
Magnitude (a.u.)       :      2.65882
Magnitude (Debye)      :      6.75818

                             ****ORCA TERMINATED NORMALLY****
TOTAL RUN TIME: 0 days 0 hours 7 minutes 35 seconds 851 msec
