                         Program Version 3.0.3 - RELEASE   -
|  1> ! RI-MP2 RIJK def2-TZVP def2-TZVP/C def2-TZVP/JK TIGHTSCF
|  2> % maxcore 2000
|  3> % mp2 density relaxed end
|  4> *xyz 0 1
|  5>  O       -0.2888255139     1.5521981326     0.0133369253
|  6>  C        0.0121237894     0.1642943460     0.0025905256
|  7>  C       -1.3170721961    -0.5764295101     0.0115365255
|  8>  C       -1.1283848122    -2.0901232707     0.0007408048
|  9>  O       -0.0468277908    -2.6237255510    -0.0141420599
| 10>  N       -2.3430855318    -2.7795264976     0.0104306693
| 11>  C       -2.5800558181    -4.1527588947     0.0050626758
| 12>  N       -1.6768137183    -5.0403533374    -0.0090530151
| 13>  H        0.5420365785     2.0358689663     0.0084672721
| 14>  H        0.5871726937    -0.1237147648    -0.8880875770
| 15>  H        0.6046015871    -0.1335857256     0.8784875315
| 16>  H       -1.8950235282    -0.2813737513     0.8966988700
| 17>  H       -1.9124024443    -0.2711878525    -0.8585354263
| 18>  H       -3.1713869798    -2.2054760385     0.0227086451
| 19>  H       -3.6608820755    -4.3470568826     0.0152844482
| 20>  H       -2.1080934499    -5.9635225782    -0.0096578747
| 21> *
| 22>
| 23>                          ****END OF INPUT****

CARTESIAN COORDINATES (ANGSTROEM)
---------------------------------
  O     -0.288826    1.552198    0.013337
  C      0.012124    0.164294    0.002591
  C     -1.317072   -0.576430    0.011537
  C     -1.128385   -2.090123    0.000741
  O     -0.046828   -2.623726   -0.014142
  N     -2.343086   -2.779526    0.010431
  C     -2.580056   -4.152759    0.005063
  N     -1.676814   -5.040353   -0.009053
  H      0.542037    2.035869    0.008467
  H      0.587173   -0.123715   -0.888088
  H      0.604602   -0.133586    0.878488
  H     -1.895024   -0.281374    0.896699
  H     -1.912402   -0.271188   -0.858535
  H     -3.171387   -2.205476    0.022709
  H     -3.660882   -4.347057    0.015284
  H     -2.108093   -5.963523   -0.009658

 Total Charge           Charge          ....    0
 Multiplicity           Mult            ....    1
 Number of Electrons    NEL             ....   62
 Basis Dimension        Dim             ....  296

ORBITAL ENERGIES
----------------

  NO   OCC          E(Eh)            E(eV)
   0   2.0000     -20.562040      -559.5216
   1   2.0000     -20.532475      -558.7171
   2   2.0000     -15.608159      -424.7196
   3   2.0000     -15.542081      -422.9215
   4   2.0000     -11.362850      -309.1989
   5   2.0000     -11.327428      -308.2350
   6   2.0000     -11.281968      -306.9980
   7   2.0000     -11.247737      -306.0665
   8   2.0000      -1.398115       -38.0446
   9   2.0000      -1.366258       -37.1778
  10   2.0000      -1.277155       -34.7532
  11   2.0000      -1.179960       -32.1083
  12   2.0000      -1.050916       -28.5969
  13   2.0000      -0.918694       -24.9989
  14   2.0000      -0.837351       -22.7855
  15   2.0000      -0.779269       -21.2050
  16   2.0000      -0.734867       -19.9968
  17   2.0000      -0.692278       -18.8379
  18   2.0000      -0.668845       -18.2002
  19   2.0000      -0.656460       -17.8632
  20   2.0000      -0.645453       -17.5637
  21   2.0000      -0.603077       -16.4106
  22   2.0000      -0.595580       -16.2066
  23   2.0000      -0.574972       -15.6458
  24   2.0000      -0.540597       -14.7104
  25   2.0000      -0.502231       -13.6664
  26   2.0000      -0.486404       -13.2357
  27   2.0000      -0.461253       -12.5513
  28   2.0000      -0.451467       -12.2850
  29   2.0000      -0.409327       -11.1384
  30   2.0000      -0.385654       -10.4942
  31   0.0000       0.113920         3.0999
  32   0.0000       0.134737         3.6664
  33   0.0000       0.135980         3.7002
  34   0.0000       0.153395         4.1741
  35   0.0000       0.172757         4.7009

MULLIKEN ATOMIC CHARGES
-----------------------
   0 O :   -0.470720
   1 C :   -0.072109
   2 C :   -0.236473
   3 C :    0.272708
   4 O :   -0.285897
   5 N :   -0.292383
   6 C :    0.029132
   7 N :   -0.333298
   8 H :    0.320122
   9 H :    0.111411
  10 H :    0.111349
  11 H :    0.140452
  12 H :    0.140517
  13 H :    0.245916
  14 H :    0.098890
  15 H :    0.220383
Sum of atomic charges:    0.0000000

LOEWDIN ATOMIC CHARGES
----------------------
   0 O :   -0.053803
   1 C :   -0.341720
   2 C :   -0.246640
   3 C :   -0.413843
   4 O :    0.151191
   5 N :    0.115669
   6 C :   -0.342531
   7 N :   -0.066907
   8 H :    0.174078
   9 H :    0.122205
  10 H :    0.122191
  11 H :    0.151089
  12 H :    0.151127
  13 H :    0.195664
  14 H :    0.115616
  15 H :    0.166613

  Mayer bond orders larger than 0.1
B(  0-O ,  1-C ) :   1.0075 B(  0-O ,  8-H ) :   0.8485 B(  1-C ,  2-C ) :   0.9565
B(  1-C ,  9-H ) :   0.9330 B(  1-C , 10-H ) :   0.9330 B(  2-C ,  3-C ) :   0.9100
B(  2-C , 11-H ) :   0.9025 B(  2-C , 12-H ) :   0.9023 B(  3-C ,  4-O ) :   1.9854
B(  3-C ,  5-N ) :   1.0235 B(  5-N ,  6-C ) :   0.9923 B(  5-N , 13-H ) :   0.8759
B(  6-C ,  7-N ) :   1.9679 B(  6-C , 14-H ) :   0.9205 B(  7-N , 15-H ) :   0.8524

MP2 TOTAL ENERGY:     -416.413366141 Eh
FINAL SINGLE POINT ENERGY      -416.413366141283

DIPOLE MOMENT
-------------
                                X             Y             Z
Electronic contribution:      0.42150      -3.01637      -0.02351
Nuclear contribution   :     -1.71755       3.51502       0.04107
                        -----------------------------------------
Total Dipole Moment    :     -1.29605       0.49866       0.01755
                        -----------------------------------------
Magnitude (a.u.)       :      1.38879
Magnitude (Debye)      :      3.53001

                             ****ORCA TERMINATED NORMALLY****
TOTAL RUN TIME: 0 days 0 hours 10 minutes 40 seconds 793 msec
