                         Program Version 3.0.3 - RELEASE   -
|  1> ! RI-MP2 RIJK def2-TZVP def2-TZVP/C def2-TZVP/JK TIGHTSCF
|  2> % maxcore 2000
|  3> % mp2 density relaxed end
|  4> *xyz 0 1
|  5>  C       -0.0314187765     1.5022515577    -0.0376034241
|  6>  C        0.0187282629     0.0059050343    -0.0451694017
|  7>  C        0.0847320908    -0.7813443891    -1.1239477484
|  8>  C        0.1113008514    -2.2516015545    -0.7858467556
|  9>  C        0.3827888037    -2.2474057126     0.7397594185
| 10>  C        0.0017222084    -0.8346217196     1.1992250442
| 11>  C        0.4171868359    -0.3145721488     2.5650333231
| 12>  C       -1.0259415468    -0.6483001446     2.2917097024
| 13>  O       -1.9704043584     0.3751161290     2.1523255484
| 14>  H        0.8308599469     1.9256375193     0.4937361047
| 15>  H       -0.0225102942     1.8984187923    -1.0566579111
| 16>  H       -0.9290204404     1.8594410583     0.4750759456
| 17>  H        0.0847666985    -0.4153316976    -2.1453863355
| 18>  H       -0.8490338583    -2.7287374489    -1.0283422570
| 19>  H        0.8765966038    -2.8059080874    -1.3409558827
| 20>  H       -0.1630459937    -3.0292851498     1.2761635317
| 21>  H        1.4506365735    -2.4123845278     0.9242185006
| 22>  H        0.9947279213    -0.9668242564     3.2134960512
| 23>  H        0.6660458915     0.7392179597     2.6405496079
| 24>  H       -1.4209094339    -1.5633219089     2.7361910765
| 25>  H       -2.1057148765     0.7723943755     3.0192587015
| 26> *
| 27>
| 28>                          ****END OF INPUT****

CARTESIAN COORDINATES (ANGSTROEM)
---------------------------------
  C     -0.031419    1.502252   -0.037603
  C      0.018728    0.005905   -0.045169
  C      0.084732   -0.781344   -1.123948
  C      0.111301   -2.251602   -0.785847
  C      0.382789   -2.247406    0.739759
  C      0.001722   -0.834622    1.199225
  C      0.417187   -0.314572    2.565033
  C     -1.025942   -0.648300    2.291710
  O     -1.970404    0.375116    2.152326
  H      0.830860    1.925638    0.493736
  H     -0.022510    1.898419   -1.056658
  H     -0.929020    1.859441    0.475076
  H      0.084767   -0.415332   -2.145386
  H     -0.849034   -2.728737   -1.028342
  H      0.876597   -2.805908   -1.340956
  H     -0.163046   -3.029285    1.276164
  H      1.450637   -2.412385    0.924219
  H      0.994728   -0.966824    3.213496
  H      0.666046    0.739218    2.640550
  H     -1.420909   -1.563322    2.736191
  H     -2.105715    0.772394    3.019259

 Total Charge           Charge          ....    0
 Multiplicity           Mult            ....    1
 Number of Electrons    NEL             ....   68
 Basis Dimension        Dim             ....  351

ORBITAL ENERGIES
----------------

  NO   OCC          E(Eh)            E(eV)
   0   2.0000     -20.562222      -559.5265
   1   2.0000     -11.280053      -306.9458
   2   2.0000     -11.235300      -305.7281
   3   2.0000     -11.224689      -305.4393
   4   2.0000     -11.222949      -305.3920
   5   2.0000     -11.219499      -305.2981
   6   2.0000     -11.217434      -305.2419
   7   2.0000     -11.209498      -305.0259
   8   2.0000     -11.207440      -304.9700
   9   2.0000      -1.371019       -37.3073
  10   2.0000      -1.160804       -31.5871
  11   2.0000      -1.078041       -29.3350
  12   2.0000      -1.005267       -27.3547
  13   2.0000      -0.910967       -24.7887
  14   2.0000      -0.875578       -23.8257
  15   2.0000      -0.825547       -22.4643
  16   2.0000      -0.770415       -20.9641
  17   2.0000      -0.705135       -19.1877
  18   2.0000      -0.681594       -18.5471
  19   2.0000      -0.649035       -17.6611
  20   2.0000      -0.623955       -16.9787
  21   2.0000      -0.614091       -16.7103
  22   2.0000      -0.589519       -16.0416
  23   2.0000      -0.563123       -15.3233
  24   2.0000      -0.550023       -14.9669
  25   2.0000      -0.538476       -14.6527
  26   2.0000      -0.507050       -13.7975
  27   2.0000      -0.500521       -13.6199
  28   2.0000      -0.485275       -13.2050
  29   2.0000      -0.475955       -12.9514
  30   2.0000      -0.463068       -12.6007
  31   2.0000      -0.424699       -11.5566
  32   2.0000      -0.399421       -10.8688
  33   2.0000      -0.313045        -8.5184
  34   0.0000       0.140618         3.8264
  35   0.0000       0.149566         4.0699
  36   0.0000       0.160264         4.3610
  37   0.0000       0.167331         4.5533
  38   0.0000       0.173042         4.7087

MULLIKEN ATOMIC CHARGES
-----------------------
   0 C :   -0.459964
   1 C :    0.039035
   2 C :   -0.207772
   3 C :   -0.160108
   4 C :   -0.243502
   5 C :    0.195373
   6 C :   -0.368564
   7 C :   -0.020168
   8 O :   -0.472525
   9 H :    0.132166
  10 H :    0.131850
  11 H :    0.163914
  12 H :    0.118401
  13 H :    0.108987
  14 H :    0.116598
  15 H :    0.118257
  16 H :    0.111595
  17 H :    0.126219
  18 H :    0.143316
  19 H :    0.103794
  20 H :    0.323098
Sum of atomic charges:   -0.0000000

LOEWDIN ATOMIC CHARGES
----------------------
   0 C :   -0.272468
   1 C :   -0.144706
   2 C :   -0.138294
   3 C :   -0.237096
   4 C :   -0.190475
   5 C :   -0.180053
   6 C :   -0.197709
   7 C :   -0.297482
   8 O :   -0.001316
   9 H :    0.128564
  10 H :    0.129326
  11 H :    0.134057
  12 H :    0.135843
  13 H :    0.138622
  14 H :    0.134397
  15 H :    0.134507
  16 H :    0.140684
  17 H :    0.133596
  18 H :    0.138244
  19 H :    0.131821
  20 H :    0.179938

  Mayer bond orders larger than 0.1
B(  0-C ,  1-C ) :   0.8644 B(  0-C ,  9-H ) :   0.9323 B(  0-C , 10-H ) :   0.9437
B(  0-C , 11-H ) :   0.9351 B(  1-C ,  2-C ) :   1.7459 B(  1-C ,  5-C ) :   0.9257
B(  2-C ,  3-C ) :   0.9440 B(  2-C , 12-H ) :   0.9240 B(  3-C ,  4-C ) :   0.9744
B(  3-C , 13-H ) :   0.9078 B(  3-C , 14-H ) :   0.9329 B(  4-C ,  5-C ) :   0.8887
B(  4-C , 15-H ) :   0.9258 B(  4-C , 16-H ) :   0.9277 B(  5-C ,  6-C ) :   0.8172
B(  5-C ,  7-C ) :   0.8104 B(  5-C ,  8-O ) :  -0.1185 B(  6-C ,  7-C ) :   0.9157
B(  6-C , 17-H ) :   0.9126 B(  6-C , 18-H ) :   0.9281 B(  7-C ,  8-O ) :   1.0385
B(  7-C , 19-H ) :   0.9540 B(  8-O , 20-H ) :   0.8398

MP2 TOTAL ENERGY:     -386.409637338 Eh
FINAL SINGLE POINT ENERGY      -386.409637337835

DIPOLE MOMENT
-------------
                                X             Y             Z
Electronic contribution:     -2.20223       0.11390       1.10506
Nuclear contribution   :      2.38048      -0.16182      -0.53542
                        -----------------------------------------
Total Dipole Moment    :      0.17825      -0.04793       0.56964
                        -----------------------------------------
Magnitude (a.u.)       :      0.59880
Magnitude (Debye)      :      1.52204

                             ****ORCA TERMINATED NORMALLY****
TOTAL RUN TIME: 0 days 0 hours 20 minutes 17 seconds 216 msec
