                         Program Version 3.0.3 - RELEASE   -
|  1> ! RI-MP2 RIJK def2-TZVP def2-TZVP/C def2-TZVP/JK TIGHTSCF
|  2> % maxcore 2000
|  3> % mp2 density relaxed end
|  4> *xyz 0 1
|  5>  C        0.3268989547     1.1052585265     0.4400952459
|  6>  N       -0.3552332174     0.2085827495    -0.4846116872
|  7>  C        0.5014375365    -0.3994069990    -1.4501820932
|  8>  C        1.5042345353    -1.4915804939    -1.1115629532
|  9>  C        0.2139187820    -1.8264609595    -1.8552538105
| 10>  O       -0.8105109124    -2.4474679993    -1.1481183290
| 11>  C       -0.6363189746    -3.8498897113    -0.9740684494
| 12>  C        0.2930404392    -2.1892766896    -3.2561225477
| 13>  N        0.3579354199    -2.4983171447    -4.3688795698
| 14>  H        1.1492703422     0.6328797445     1.0043175349
| 15>  H        0.7492957844     1.9515683314    -0.1129503458
| 16>  H       -0.3988499237     1.5043184592     1.1537558264
| 17>  H       -0.8802045832    -0.5058227495     0.0054798836
| 18>  H        0.7911541845     0.2640665078    -2.2617568790
| 19>  H        2.4424141193    -1.5455135157    -1.6520318362
| 20>  H        1.5332408703    -1.8376860150    -0.0837136342
| 21>  H       -1.4908359906    -4.1967775197    -0.3909382553
| 22>  H       -0.6208175176    -4.3696894328    -1.9398236040
| 23>  H        0.2927160613    -4.0718140789    -0.4330030663
| 24> *
| 25>
| 26>                          ****END OF INPUT****

CARTESIAN COORDINATES (ANGSTROEM)
---------------------------------
  C      0.326899    1.105259    0.440095
  N     -0.355233    0.208583   -0.484612
  C      0.501438   -0.399407   -1.450182
  C      1.504235   -1.491580   -1.111563
  C      0.213919   -1.826461   -1.855254
  O     -0.810511   -2.447468   -1.148118
  C     -0.636319   -3.849890   -0.974068
  C      0.293040   -2.189277   -3.256123
  N      0.357935   -2.498317   -4.368880
  H      1.149270    0.632880    1.004318
  H      0.749296    1.951568   -0.112950
  H     -0.398850    1.504318    1.153756
  H     -0.880205   -0.505823    0.005480
  H      0.791154    0.264067   -2.261757
  H      2.442414   -1.545514   -1.652032
  H      1.533241   -1.837686   -0.083714
  H     -1.490836   -4.196778   -0.390938
  H     -0.620818   -4.369689   -1.939824
  H      0.292716   -4.071814   -0.433003

 Total Charge           Charge          ....    0
 Multiplicity           Mult            ....    1
 Number of Electrons    NEL             ....   68
 Basis Dimension        Dim             ....  339

ORBITAL ENERGIES
----------------

  NO   OCC          E(Eh)            E(eV)
   0   2.0000     -20.595166      -560.4230
   1   2.0000     -15.575895      -423.8417
   2   2.0000     -15.557198      -423.3329
   3   2.0000     -11.341138      -308.6081
   4   2.0000     -11.291674      -307.2621
   5   2.0000     -11.289699      -307.2083
   6   2.0000     -11.277012      -306.8631
   7   2.0000     -11.256008      -306.2915
   8   2.0000     -11.254655      -306.2547
   9   2.0000      -1.420396       -38.6509
  10   2.0000      -1.239782       -33.7362
  11   2.0000      -1.219915       -33.1956
  12   2.0000      -1.132747       -30.8236
  13   2.0000      -0.964428       -26.2434
  14   2.0000      -0.929348       -25.2889
  15   2.0000      -0.890557       -24.2333
  16   2.0000      -0.828072       -22.5330
  17   2.0000      -0.752836       -20.4857
  18   2.0000      -0.713727       -19.4215
  19   2.0000      -0.662346       -18.0234
  20   2.0000      -0.641344       -17.4519
  21   2.0000      -0.637564       -17.3490
  22   2.0000      -0.614749       -16.7282
  23   2.0000      -0.588931       -16.0256
  24   2.0000      -0.578586       -15.7441
  25   2.0000      -0.565666       -15.3925
  26   2.0000      -0.539106       -14.6698
  27   2.0000      -0.524951       -14.2846
  28   2.0000      -0.515365       -14.0238
  29   2.0000      -0.501499       -13.6465
  30   2.0000      -0.470425       -12.8009
  31   2.0000      -0.464828       -12.6486
  32   2.0000      -0.412051       -11.2125
  33   2.0000      -0.371617       -10.1122
  34   0.0000       0.128864         3.5066
  35   0.0000       0.148184         4.0323
  36   0.0000       0.149240         4.0610
  37   0.0000       0.158833         4.3221
  38   0.0000       0.170678         4.6444

MULLIKEN ATOMIC CHARGES
-----------------------
   0 C :   -0.286219
   1 N :   -0.309423
   2 C :   -0.116375
   3 C :   -0.266767
   4 C :    0.354609
   5 O :   -0.309642
   6 C :   -0.224189
   7 C :   -0.243633
   8 N :   -0.052196
   9 H :    0.108163
  10 H :    0.131029
  11 H :    0.140499
  12 H :    0.218745
  13 H :    0.140646
  14 H :    0.151041
  15 H :    0.150430
  16 H :    0.147529
  17 H :    0.144144
  18 H :    0.121609
Sum of atomic charges:   -0.0000000

LOEWDIN ATOMIC CHARGES
----------------------
   0 C :   -0.341226
   1 N :   -0.008548
   2 C :   -0.233792
   3 C :   -0.177336
   4 C :   -0.331128
   5 O :    0.203542
   6 C :   -0.323392
   7 C :   -0.148759
   8 N :    0.072634
   9 H :    0.099274
  10 H :    0.117375
  11 H :    0.117403
  12 H :    0.175401
  13 H :    0.155171
  14 H :    0.141058
  15 H :    0.144304
  16 H :    0.117202
  17 H :    0.114393
  18 H :    0.106426

  Mayer bond orders larger than 0.1
B(  0-C ,  1-N ) :   0.9216 B(  0-C ,  9-H ) :   0.9277 B(  0-C , 10-H ) :   0.9387
B(  0-C , 11-H ) :   0.9378 B(  1-N ,  2-C ) :   1.0452 B(  1-N , 12-H ) :   0.8649
B(  2-C ,  3-C ) :   0.8671 B(  2-C ,  4-C ) :   0.8431 B(  2-C , 13-H ) :   0.9237
B(  3-C ,  4-C ) :   0.8333 B(  3-C , 14-H ) :   0.9061 B(  3-C , 15-H ) :   0.9222
B(  4-C ,  5-O ) :   0.9677 B(  4-C ,  7-C ) :   0.9131 B(  5-O ,  6-C ) :   0.8766
B(  6-C , 16-H ) :   0.9361 B(  6-C , 17-H ) :   0.9316 B(  6-C , 18-H ) :   0.9329
B(  7-C ,  8-N ) :   2.8559

MP2 TOTAL ENERGY:     -418.466569897 Eh
FINAL SINGLE POINT ENERGY      -418.466569896513

DIPOLE MOMENT
-------------
                                X             Y             Z
Electronic contribution:     -1.58672      -2.60764      -8.02941
Nuclear contribution   :      2.05755       2.50459       9.68079
                        -----------------------------------------
Total Dipole Moment    :      0.47083      -0.10305       1.65137
                        -----------------------------------------
Magnitude (a.u.)       :      1.72027
Magnitude (Debye)      :      4.37258

                             ****ORCA TERMINATED NORMALLY****
TOTAL RUN TIME: 0 days 0 hours 28 minutes 3 seconds 433 msec
