                         Program Version 3.0.3 - RELEASE   -
|  1> ! RI-MP2 RIJK def2-TZVP def2-TZVP/C def2-TZVP/JK TIGHTSCF
|  2> % maxcore 2000
|  3> % mp2 density relaxed end
|  4> *xyz 0 1
|  5>  N       -0.2097289429     1.2694943058    -0.4740441912
|  6>  C       -0.1216641062    -0.1107907789    -0.3262650157
|  7>  O        0.9036543697    -0.7249490209    -0.5699885525
|  8>  N       -1.2531796147    -0.7258297660     0.1517925690
|  9>  C       -2.4095620204    -0.0487916213     0.7385972554
| 10>  C       -3.3729041143    -1.1798936744     1.0466011678
| 11>  C       -3.6882149023    -2.1255654586    -0.0853676558
| 12>  C       -2.6126311504    -2.4798438025     0.9092113944
| 13>  C       -1.1857861413    -2.1423884726     0.5244714567
| 14>  H        0.5458776079     1.6356055260    -1.0331871337
| 15>  H       -1.1094389913     1.6784517697    -0.6735098883
| 16>  H       -2.1461413646     0.4996773162     1.6554124544
| 17>  H       -2.8406388539     0.6742197070     0.0325176160
| 18>  H       -4.1041050256    -1.0240259106     1.8303544992
| 19>  H       -4.6216995994    -2.6739980339    -0.0274239955
| 20>  H       -3.3889981603    -1.8470920141    -1.0915421596
| 21>  H       -2.7739851044    -3.3033015059     1.5939680376
| 22>  H       -0.7988337091    -2.7252262218    -0.3158006661
| 23>  H       -0.5047468065    -2.3014987533     1.3722731978
| 24> *
| 25>
| 26>                          ****END OF INPUT****

CARTESIAN COORDINATES (ANGSTROEM)
---------------------------------
  N     -0.209729    1.269494   -0.474044
  C     -0.121664   -0.110791   -0.326265
  O      0.903654   -0.724949   -0.569989
  N     -1.253180   -0.725830    0.151793
  C     -2.409562   -0.048792    0.738597
  C     -3.372904   -1.179894    1.046601
  C     -3.688215   -2.125565   -0.085368
  C     -2.612631   -2.479844    0.909211
  C     -1.185786   -2.142388    0.524471
  H      0.545878    1.635606   -1.033187
  H     -1.109439    1.678452   -0.673510
  H     -2.146141    0.499677    1.655412
  H     -2.840639    0.674220    0.032518
  H     -4.104105   -1.024026    1.830354
  H     -4.621700   -2.673998   -0.027424
  H     -3.388998   -1.847092   -1.091542
  H     -2.773985   -3.303302    1.593968
  H     -0.798834   -2.725226   -0.315801
  H     -0.504747   -2.301499    1.372273

 Total Charge           Charge          ....    0
 Multiplicity           Mult            ....    1
 Number of Electrons    NEL             ....   68
 Basis Dimension        Dim             ....  339

ORBITAL ENERGIES
----------------

  NO   OCC          E(Eh)            E(eV)
   0   2.0000     -20.499700      -557.8252
   1   2.0000     -15.575839      -423.8401
   2   2.0000     -15.573951      -423.7888
   3   2.0000     -11.366061      -309.2862
   4   2.0000     -11.276718      -306.8551
   5   2.0000     -11.259547      -306.3879
   6   2.0000     -11.243685      -305.9562
   7   2.0000     -11.240228      -305.8622
   8   2.0000     -11.233361      -305.6753
   9   2.0000      -1.383556       -37.6485
  10   2.0000      -1.262299       -34.3489
  11   2.0000      -1.198700       -32.6183
  12   2.0000      -1.137405       -30.9504
  13   2.0000      -0.998411       -27.1681
  14   2.0000      -0.933529       -25.4026
  15   2.0000      -0.815380       -22.1876
  16   2.0000      -0.788952       -21.4685
  17   2.0000      -0.762971       -20.7615
  18   2.0000      -0.740399       -20.1473
  19   2.0000      -0.688560       -18.7367
  20   2.0000      -0.665054       -18.0970
  21   2.0000      -0.635167       -17.2838
  22   2.0000      -0.613627       -16.6976
  23   2.0000      -0.595839       -16.2136
  24   2.0000      -0.591171       -16.0866
  25   2.0000      -0.558696       -15.2029
  26   2.0000      -0.546782       -14.8787
  27   2.0000      -0.523165       -14.2360
  28   2.0000      -0.511535       -13.9196
  29   2.0000      -0.437070       -11.8933
  30   2.0000      -0.425262       -11.5720
  31   2.0000      -0.415661       -11.3107
  32   2.0000      -0.413876       -11.2621
  33   2.0000      -0.371670       -10.1137
  34   0.0000       0.124242         3.3808
  35   0.0000       0.150139         4.0855
  36   0.0000       0.166337         4.5263
  37   0.0000       0.170719         4.6455
  38   0.0000       0.176945         4.8149

MULLIKEN ATOMIC CHARGES
-----------------------
   0 N :   -0.509445
   1 C :    0.320014
   2 O :   -0.403482
   3 N :   -0.131591
   4 C :   -0.185220
   5 C :   -0.106012
   6 C :   -0.297690
   7 C :   -0.091111
   8 C :   -0.151128
   9 H :    0.259227
  10 H :    0.245217
  11 H :    0.129721
  12 H :    0.108062
  13 H :    0.136545
  14 H :    0.136929
  15 H :    0.141386
  16 H :    0.135786
  17 H :    0.139846
  18 H :    0.122948
Sum of atomic charges:   -0.0000000

LOEWDIN ATOMIC CHARGES
----------------------
   0 N :   -0.063338
   1 C :   -0.556597
   2 O :    0.049507
   3 N :    0.178322
   4 C :   -0.236308
   5 C :   -0.201191
   6 C :   -0.201878
   7 C :   -0.198403
   8 C :   -0.217129
   9 H :    0.175009
  10 H :    0.162149
  11 H :    0.135089
  12 H :    0.129469
  13 H :    0.145373
  14 H :    0.135858
  15 H :    0.139016
  16 H :    0.146063
  17 H :    0.142355
  18 H :    0.136636

  Mayer bond orders larger than 0.1
B(  0-N ,  1-C ) :   1.0841 B(  0-N ,  9-H ) :   0.8691 B(  0-N , 10-H ) :   0.8687
B(  1-C ,  2-O ) :   1.9205 B(  1-C ,  3-N ) :   1.1309 B(  3-N ,  4-C ) :   0.9187
B(  3-N ,  8-C ) :   0.8897 B(  4-C ,  5-C ) :   0.9577 B(  4-C , 11-H ) :   0.9157
B(  4-C , 12-H ) :   0.9214 B(  5-C ,  6-C ) :   0.8824 B(  5-C ,  7-C ) :   0.8662
B(  5-C , 13-H ) :   0.9269 B(  6-C ,  7-C ) :   0.8793 B(  6-C , 14-H ) :   0.9289
B(  6-C , 15-H ) :   0.9232 B(  7-C ,  8-C ) :   0.9433 B(  7-C , 16-H ) :   0.9304
B(  8-C , 17-H ) :   0.9292 B(  8-C , 18-H ) :   0.9306

MP2 TOTAL ENERGY:     -418.543079179 Eh
FINAL SINGLE POINT ENERGY      -418.543079179297

DIPOLE MOMENT
-------------
                                X             Y             Z
Electronic contribution:      4.82969       1.03870      -1.15453
Nuclear contribution   :     -6.31554      -0.56857       1.37719
                        -----------------------------------------
Total Dipole Moment    :     -1.48585       0.47013       0.22266
                        -----------------------------------------
Magnitude (a.u.)       :      1.57428
Magnitude (Debye)      :      4.00150

                             ****ORCA TERMINATED NORMALLY****
TOTAL RUN TIME: 0 days 0 hours 19 minutes 17 seconds 178 msec
