                         Program Version 3.0.3 - RELEASE   -
|  1> ! RI-MP2 RIJK def2-TZVP def2-TZVP/C def2-TZVP/JK TIGHTSCF
|  2> % maxcore 2000
|  3> % mp2 density relaxed end
|  4> *xyz 0 1
|  5>  C        0.0748567260     1.4310704042    -0.1195806266
|  6>  N       -0.0081414241    -0.0155239054     0.0705872732
|  7>  C        0.8055051063    -0.4665050556     1.1949235890
|  8>  C       -1.3374363010    -0.5152438558     0.0874504811
|  9>  C       -1.8831886713    -1.2449782416    -0.9309106235
| 10>  N       -1.3844271554    -1.5926660706    -2.1753512613
| 11>  O       -3.1581539289    -1.5906487308    -0.6513058017
| 12>  C       -3.4491919809    -1.0742046340     0.5931624819
| 13>  C       -2.3823840201    -0.4012581424     1.0818539913
| 14>  H        1.1184091729     1.7194453384    -0.2892013583
| 15>  H       -0.5114678633     1.7188000837    -0.9954301796
| 16>  H       -0.2982225986     2.0051553985     0.7476267870
| 17>  H        0.4894628569    -0.0381553748     2.1633656434
| 18>  H        0.7531467995    -1.5553697918     1.2722034355
| 19>  H        1.8497687340    -0.1789334566     1.0297580949
| 20>  H       -0.3830956992    -1.4364345557    -2.1926841752
| 21>  H       -1.6091849062    -2.5426642226    -2.4463811876
| 22>  H       -4.4389182349    -1.2881178622     0.9578084871
| 23>  H       -2.3289804317     0.1035467953     2.0341637295
| 24> *
| 25>
| 26>                          ****END OF INPUT****

CARTESIAN COORDINATES (ANGSTROEM)
---------------------------------
  C      0.074857    1.431070   -0.119581
  N     -0.008141   -0.015524    0.070587
  C      0.805505   -0.466505    1.194924
  C     -1.337436   -0.515244    0.087450
  C     -1.883189   -1.244978   -0.930911
  N     -1.384427   -1.592666   -2.175351
  O     -3.158154   -1.590649   -0.651306
  C     -3.449192   -1.074205    0.593162
  C     -2.382384   -0.401258    1.081854
  H      1.118409    1.719445   -0.289201
  H     -0.511468    1.718800   -0.995430
  H     -0.298223    2.005155    0.747627
  H      0.489463   -0.038155    2.163366
  H      0.753147   -1.555370    1.272203
  H      1.849769   -0.178933    1.029758
  H     -0.383096   -1.436435   -2.192684
  H     -1.609185   -2.542664   -2.446381
  H     -4.438918   -1.288118    0.957808
  H     -2.328980    0.103547    2.034164

 Total Charge           Charge          ....    0
 Multiplicity           Mult            ....    1
 Number of Electrons    NEL             ....   68
 Basis Dimension        Dim             ....  339

ORBITAL ENERGIES
----------------

  NO   OCC          E(Eh)            E(eV)
   0   2.0000     -20.612178      -560.8859
   1   2.0000     -15.567766      -423.6204
   2   2.0000     -15.555254      -423.2800
   3   2.0000     -11.314923      -307.8947
   4   2.0000     -11.271913      -306.7244
   5   2.0000     -11.244806      -305.9867
   6   2.0000     -11.243171      -305.9422
   7   2.0000     -11.232220      -305.6443
   8   2.0000     -11.223763      -305.4141
   9   2.0000      -1.454331       -39.5743
  10   2.0000      -1.234643       -33.5963
  11   2.0000      -1.205352       -32.7993
  12   2.0000      -1.062620       -28.9154
  13   2.0000      -0.971231       -26.4285
  14   2.0000      -0.950375       -25.8610
  15   2.0000      -0.871608       -23.7177
  16   2.0000      -0.799386       -21.7524
  17   2.0000      -0.753681       -20.5087
  18   2.0000      -0.714181       -19.4339
  19   2.0000      -0.674945       -18.3662
  20   2.0000      -0.644331       -17.5331
  21   2.0000      -0.629140       -17.1198
  22   2.0000      -0.617730       -16.8093
  23   2.0000      -0.607814       -16.5395
  24   2.0000      -0.602141       -16.3851
  25   2.0000      -0.564087       -15.3496
  26   2.0000      -0.543368       -14.7858
  27   2.0000      -0.541251       -14.7282
  28   2.0000      -0.517039       -14.0693
  29   2.0000      -0.510791       -13.8993
  30   2.0000      -0.474437       -12.9101
  31   2.0000      -0.386437       -10.5155
  32   2.0000      -0.363485        -9.8909
  33   2.0000      -0.279604        -7.6084
  34   0.0000       0.131767         3.5856
  35   0.0000       0.148782         4.0486
  36   0.0000       0.162965         4.4345
  37   0.0000       0.182603         4.9689
  38   0.0000       0.185997         5.0612

MULLIKEN ATOMIC CHARGES
-----------------------
   0 C :   -0.288419
   1 N :   -0.208155
   2 C :   -0.295951
   3 C :    0.055049
   4 C :    0.182724
   5 N :   -0.495368
   6 O :   -0.229004
   7 C :   -0.003514
   8 C :   -0.265628
   9 H :    0.128705
  10 H :    0.144015
  11 H :    0.107575
  12 H :    0.107614
  13 H :    0.138071
  14 H :    0.130990
  15 H :    0.259898
  16 H :    0.254984
  17 H :    0.146567
  18 H :    0.129847
Sum of atomic charges:    0.0000000

LOEWDIN ATOMIC CHARGES
----------------------
   0 C :   -0.314750
   1 N :    0.071283
   2 C :   -0.316854
   3 C :   -0.249030
   4 C :   -0.338684
   5 N :   -0.076857
   6 O :    0.341272
   7 C :   -0.247606
   8 C :   -0.175016
   9 H :    0.115460
  10 H :    0.122537
  11 H :    0.104130
  12 H :    0.103690
  13 H :    0.120872
  14 H :    0.116084
  15 H :    0.178094
  16 H :    0.171966
  17 H :    0.129683
  18 H :    0.143728

  Mayer bond orders larger than 0.1
B(  0-C ,  1-N ) :   0.8980 B(  0-C ,  9-H ) :   0.9351 B(  0-C , 10-H ) :   0.9399
B(  0-C , 11-H ) :   0.9266 B(  1-N ,  2-C ) :   0.9079 B(  1-N ,  3-C ) :   0.9155
B(  2-C , 12-H ) :   0.9291 B(  2-C , 13-H ) :   0.9399 B(  2-C , 14-H ) :   0.9348
B(  3-C ,  4-C ) :   1.5428 B(  3-C ,  8-C ) :   1.1543 B(  4-C ,  5-N ) :   1.0862
B(  4-C ,  6-O ) :   1.0906 B(  5-N , 15-H ) :   0.8596 B(  5-N , 16-H ) :   0.8645
B(  6-O ,  7-C ) :   0.9922 B(  7-C ,  8-C ) :   1.5843 B(  7-C , 17-H ) :   0.9348
B(  8-C , 18-H ) :   0.9246

MP2 TOTAL ENERGY:     -418.501844823 Eh
FINAL SINGLE POINT ENERGY      -418.501844822567

DIPOLE MOMENT
-------------
                                X             Y             Z
Electronic contribution:     -7.36630      -4.45827      -2.95246
Nuclear contribution   :      7.86209       4.29094       3.21502
                        -----------------------------------------
Total Dipole Moment    :      0.49579      -0.16733       0.26257
                        -----------------------------------------
Magnitude (a.u.)       :      0.58545
Magnitude (Debye)      :      1.48809

                             ****ORCA TERMINATED NORMALLY****
TOTAL RUN TIME: 0 days 0 hours 17 minutes 52 seconds 650 msec
