                         Program Version 3.0.3 - RELEASE   -
|  1> ! RI-MP2 RIJK def2-TZVP def2-TZVP/C def2-TZVP/JK TIGHTSCF
|  2> % maxcore 2000
|  3> % mp2 density relaxed end
|  4> *xyz 0 1
|  5>  O        0.4888700515     1.2509552977     0.1038661970
|  6>  C        0.2043197189    -0.0632274051    -0.0134439882
|  7>  C        0.6105962112    -1.0595691154    -0.8758857552
|  8>  C       -0.0805656049    -2.2078856883    -0.4148978424
|  9>  C       -0.0628896087    -3.5986324811    -0.9953918393
| 10>  C        1.2690796357    -4.0627761576    -1.3729769629
| 11>  C        2.3632251721    -4.4378373940    -1.6987735299
| 12>  N       -0.8446325316    -1.9480154990     0.6378795622
| 13>  N       -0.6576375567    -0.6194842434     0.8645380743
| 14>  H        1.1160535820     1.4931345747    -0.5843928797
| 15>  H        1.3050199742    -0.9835297589    -1.6960735832
| 16>  H       -0.5080936069    -4.2761810452    -0.2586205922
| 17>  H       -0.7145308271    -3.6377829510    -1.8797055572
| 18>  H        3.3300004012    -4.7774596972    -1.9763143525
| 19>  H       -1.1183077710    -0.1661136163     1.6347193794
| 20> *
| 21>
| 22>                          ****END OF INPUT****

CARTESIAN COORDINATES (ANGSTROEM)
---------------------------------
  O      0.488870    1.250955    0.103866
  C      0.204320   -0.063227   -0.013444
  C      0.610596   -1.059569   -0.875886
  C     -0.080566   -2.207886   -0.414898
  C     -0.062890   -3.598632   -0.995392
  C      1.269080   -4.062776   -1.372977
  C      2.363225   -4.437837   -1.698774
  N     -0.844633   -1.948015    0.637880
  N     -0.657638   -0.619484    0.864538
  H      1.116054    1.493135   -0.584393
  H      1.305020   -0.983530   -1.696074
  H     -0.508094   -4.276181   -0.258621
  H     -0.714531   -3.637783   -1.879706
  H      3.330000   -4.777460   -1.976314
  H     -1.118308   -0.166114    1.634719

 Total Charge           Charge          ....    0
 Multiplicity           Mult            ....    1
 Number of Electrons    NEL             ....   64
 Basis Dimension        Dim             ....  315

ORBITAL ENERGIES
----------------

  NO   OCC          E(Eh)            E(eV)
   0   2.0000     -20.620465      -561.1114
   1   2.0000     -15.629115      -425.2898
   2   2.0000     -15.578067      -423.9008
   3   2.0000     -11.347945      -308.7933
   4   2.0000     -11.269580      -306.6609
   5   2.0000     -11.259661      -306.3909
   6   2.0000     -11.235507      -305.7337
   7   2.0000     -11.220920      -305.3367
   8   2.0000     -11.216473      -305.2158
   9   2.0000      -1.446559       -39.3629
  10   2.0000      -1.361227       -37.0409
  11   2.0000      -1.122807       -30.5531
  12   2.0000      -1.057866       -28.7860
  13   2.0000      -1.041168       -28.3316
  14   2.0000      -0.966287       -26.2940
  15   2.0000      -0.843346       -22.9486
  16   2.0000      -0.789234       -21.4762
  17   2.0000      -0.764377       -20.7997
  18   2.0000      -0.721588       -19.6354
  19   2.0000      -0.686687       -18.6857
  20   2.0000      -0.652486       -17.7551
  21   2.0000      -0.632344       -17.2070
  22   2.0000      -0.619281       -16.8515
  23   2.0000      -0.600327       -16.3357
  24   2.0000      -0.584026       -15.8922
  25   2.0000      -0.555093       -15.1048
  26   2.0000      -0.552655       -15.0385
  27   2.0000      -0.457288       -12.4434
  28   2.0000      -0.393203       -10.6996
  29   2.0000      -0.387968       -10.5571
  30   2.0000      -0.361496        -9.8368
  31   2.0000      -0.332494        -9.0476
  32   0.0000       0.121426         3.3042
  33   0.0000       0.148483         4.0404
  34   0.0000       0.153719         4.1829
  35   0.0000       0.167057         4.5459
  36   0.0000       0.172355         4.6900

MULLIKEN ATOMIC CHARGES
-----------------------
   0 O :   -0.429049
   1 C :    0.237306
   2 C :   -0.255441
   3 C :    0.059712
   4 C :   -0.337555
   5 C :   -0.020444
   6 C :   -0.176052
   7 N :   -0.220457
   8 N :   -0.126308
   9 H :    0.349983
  10 H :    0.154154
  11 H :    0.162401
  12 H :    0.152633
  13 H :    0.187909
  14 H :    0.261208
Sum of atomic charges:    0.0000000

LOEWDIN ATOMIC CHARGES
----------------------
   0 O :    0.074548
   1 C :   -0.380165
   2 C :   -0.183025
   3 C :   -0.276585
   4 C :   -0.210317
   5 C :   -0.101494
   6 C :   -0.109063
   7 N :    0.041885
   8 N :    0.142130
   9 H :    0.204538
  10 H :    0.145144
  11 H :    0.169648
  12 H :    0.166178
  13 H :    0.125609
  14 H :    0.190968

  Mayer bond orders larger than 0.1
B(  0-O ,  1-C ) :   1.1120 B(  0-O ,  9-H ) :   0.8248 B(  1-C ,  2-C ) :   1.4111
B(  1-C ,  7-N ) :   0.1004 B(  1-C ,  8-N ) :   1.2200 B(  2-C ,  3-C ) :   1.2730
B(  2-C , 10-H ) :   0.8966 B(  3-C ,  4-C ) :   0.8941 B(  3-C ,  7-N ) :   1.6191
B(  4-C ,  5-C ) :   1.0549 B(  4-C , 11-H ) :   0.9279 B(  4-C , 12-H ) :   0.9223
B(  5-C ,  6-C ) :   2.6287 B(  6-C , 13-H ) :   0.9069 B(  7-N ,  8-N ) :   1.0119
B(  8-N , 14-H ) :   0.8674

MP2 TOTAL ENERGY:     -416.077889520 Eh
FINAL SINGLE POINT ENERGY      -416.077889519500

DIPOLE MOMENT
-------------
                                X             Y             Z
Electronic contribution:     -0.89660       2.60929       1.96482
Nuclear contribution   :      1.25775      -1.68406      -2.29818
                        -----------------------------------------
Total Dipole Moment    :      0.36115       0.92522      -0.33336
                        -----------------------------------------
Magnitude (a.u.)       :      1.04766
Magnitude (Debye)      :      2.66295

                             ****ORCA TERMINATED NORMALLY****
TOTAL RUN TIME: 0 days 0 hours 15 minutes 6 seconds 169 msec
