                         Program Version 3.0.3 - RELEASE   -
|  1> ! RI-MP2 RIJK def2-TZVP def2-TZVP/C def2-TZVP/JK TIGHTSCF
|  2> % maxcore 2000
|  3> % mp2 density relaxed end
|  4> *xyz 0 1
|  5>  N       -0.0437044626     1.2757689324    -0.0237448448
|  6>  C       -0.0065360683     0.0184431057    -0.0076083445
|  7>  O        1.1087456735    -0.7747237131    -0.0421014853
|  8>  C        0.6399921062    -2.1304503766     0.0540008930
|  9>  C        0.5021673059    -2.5532015458     1.5200283639
| 10>  N       -0.3469487601    -1.5815535593     2.2031475156
| 11>  C       -1.5788755504    -1.2466321750     1.4880770084
| 12>  C       -1.1974586382    -0.9284491242     0.0384546918
| 13>  O       -0.6354712452    -2.1147964303    -0.5457894528
| 14>  H        0.8983292167     1.6699904636    -0.0336416800
| 15>  H        1.3097109143    -2.7744347032    -0.5177229259
| 16>  H        0.1059022234    -3.5843559792     1.5106126619
| 17>  H        1.4860143860    -2.5702504321     2.0006214165
| 18>  H       -0.5312706031    -1.8588911224     3.1580639307
| 19>  H       -2.3259424967    -2.0589171349     1.4629302962
| 20>  H       -2.0337101469    -0.3684844452     1.9572383801
| 21>  H       -2.0405506444    -0.5926359603    -0.5622492248
| 22> *
| 23>
| 24>                          ****END OF INPUT****

CARTESIAN COORDINATES (ANGSTROEM)
---------------------------------
  N     -0.043704    1.275769   -0.023745
  C     -0.006536    0.018443   -0.007608
  O      1.108746   -0.774724   -0.042101
  C      0.639992   -2.130450    0.054001
  C      0.502167   -2.553202    1.520028
  N     -0.346949   -1.581554    2.203148
  C     -1.578876   -1.246632    1.488077
  C     -1.197459   -0.928449    0.038455
  O     -0.635471   -2.114796   -0.545789
  H      0.898329    1.669990   -0.033642
  H      1.309711   -2.774435   -0.517723
  H      0.105902   -3.584356    1.510613
  H      1.486014   -2.570250    2.000621
  H     -0.531271   -1.858891    3.158064
  H     -2.325942   -2.058917    1.462930
  H     -2.033710   -0.368484    1.957238
  H     -2.040551   -0.592636   -0.562249

 Total Charge           Charge          ....    0
 Multiplicity           Mult            ....    1
 Number of Electrons    NEL             ....   68
 Basis Dimension        Dim             ....  327

ORBITAL ENERGIES
----------------

  NO   OCC          E(Eh)            E(eV)
   0   2.0000     -20.597988      -560.4997
   1   2.0000     -20.582283      -560.0724
   2   2.0000     -15.560545      -423.4240
   3   2.0000     -15.535144      -422.7328
   4   2.0000     -11.354563      -308.9734
   5   2.0000     -11.338549      -308.5376
   6   2.0000     -11.304098      -307.6001
   7   2.0000     -11.269553      -306.6601
   8   2.0000     -11.269287      -306.6529
   9   2.0000      -1.477913       -40.2160
  10   2.0000      -1.367571       -37.2135
  11   2.0000      -1.222827       -33.2748
  12   2.0000      -1.200627       -32.6707
  13   2.0000      -1.056522       -28.7494
  14   2.0000      -0.952333       -25.9143
  15   2.0000      -0.910699       -24.7814
  16   2.0000      -0.826695       -22.4955
  17   2.0000      -0.794273       -21.6133
  18   2.0000      -0.745528       -20.2869
  19   2.0000      -0.686900       -18.6915
  20   2.0000      -0.663157       -18.0454
  21   2.0000      -0.650333       -17.6965
  22   2.0000      -0.630737       -17.1632
  23   2.0000      -0.622097       -16.9281
  24   2.0000      -0.602351       -16.3908
  25   2.0000      -0.589172       -16.0322
  26   2.0000      -0.567367       -15.4389
  27   2.0000      -0.528183       -14.3726
  28   2.0000      -0.519587       -14.1387
  29   2.0000      -0.514904       -14.0112
  30   2.0000      -0.446293       -12.1442
  31   2.0000      -0.430681       -11.7194
  32   2.0000      -0.404410       -11.0046
  33   2.0000      -0.388053       -10.5595
  34   0.0000       0.126262         3.4358
  35   0.0000       0.155308         4.2261
  36   0.0000       0.164958         4.4887
  37   0.0000       0.177019         4.8169
  38   0.0000       0.190470         5.1830

MULLIKEN ATOMIC CHARGES
-----------------------
   0 N :   -0.374639
   1 C :    0.077063
   2 O :   -0.266960
   3 C :    0.190751
   4 C :   -0.124936
   5 N :   -0.382471
   6 C :   -0.160533
   7 C :    0.168612
   8 O :   -0.316680
   9 H :    0.227297
  10 H :    0.133992
  11 H :    0.104490
  12 H :    0.123764
  13 H :    0.209752
  14 H :    0.111846
  15 H :    0.131732
  16 H :    0.146919
Sum of atomic charges:    0.0000000

LOEWDIN ATOMIC CHARGES
----------------------
   0 N :   -0.048800
   1 C :   -0.385021
   2 O :    0.252360
   3 C :   -0.354173
   4 C :   -0.288364
   5 N :   -0.015650
   6 C :   -0.275959
   7 C :   -0.257336
   8 O :    0.200343
   9 H :    0.171373
  10 H :    0.140789
  11 H :    0.128111
  12 H :    0.137892
  13 H :    0.169195
  14 H :    0.126678
  15 H :    0.142396
  16 H :    0.156166

  Mayer bond orders larger than 0.1
B(  0-N ,  1-C ) :   2.0740 B(  0-N ,  9-H ) :   0.8531 B(  1-C ,  2-O ) :   1.0704
B(  1-C ,  7-C ) :   0.8890 B(  2-O ,  3-C ) :   0.8955 B(  3-C ,  4-C ) :   0.9638
B(  3-C ,  8-O ) :   0.9848 B(  3-C , 10-H ) :   0.9272 B(  4-C ,  5-N ) :   0.9415
B(  4-C , 11-H ) :   0.9209 B(  4-C , 12-H ) :   0.9106 B(  5-N ,  6-C ) :   0.9286
B(  5-N , 13-H ) :   0.8823 B(  6-C ,  7-C ) :   0.9568 B(  6-C , 14-H ) :   0.9252
B(  6-C , 15-H ) :   0.9092 B(  7-C ,  8-O ) :   0.9068 B(  7-C , 16-H ) :   0.9072

MP2 TOTAL ENERGY:     -454.426410169 Eh
FINAL SINGLE POINT ENERGY      -454.426410168755

DIPOLE MOMENT
-------------
                                X             Y             Z
Electronic contribution:      1.71885       1.87579      -3.75302
Nuclear contribution   :     -1.71027      -2.89803       4.45967
                        -----------------------------------------
Total Dipole Moment    :      0.00858      -1.02225       0.70665
                        -----------------------------------------
Magnitude (a.u.)       :      1.24275
Magnitude (Debye)      :      3.15881

                             ****ORCA TERMINATED NORMALLY****
TOTAL RUN TIME: 0 days 0 hours 17 minutes 23 seconds 403 msec
