                         Program Version 3.0.3 - RELEASE   -
|  1> ! RI-MP2 RIJK def2-TZVP def2-TZVP/C def2-TZVP/JK TIGHTSCF
|  2> % maxcore 2000
|  3> % mp2 density relaxed end
|  4> *xyz 0 1
|  5>  C       -0.0255940658     1.5036503947     0.1058479531
|  6>  C       -0.0393147135    -0.0146364958    -0.1214891812
|  7>  C       -1.4087930987    -0.5970757647     0.0046852855
|  8>  C       -2.1484907658    -1.0385005582     1.2168581753
|  9>  C       -1.9662626521    -2.0062926018     0.0367544942
| 10>  C       -2.8411314638    -1.5366457504    -1.0742184939
| 11>  N       -3.6525406537    -2.0782263408    -1.8605614203
| 12>  O       -2.3942005173    -0.2156575077    -1.0106789999
| 13>  H        0.9850414967     1.9037202048    -0.0143503600
| 14>  H       -0.6791281081     2.0067405067    -0.6123849961
| 15>  H       -0.3742527860     1.7547158764     1.1124147403
| 16>  H        0.3544883721    -0.2482052544    -1.1175390180
| 17>  H        0.6126337574    -0.5136837079     0.6048746650
| 18>  H       -1.5392992558    -1.2856783329     2.0814356207
| 19>  H       -3.1288414837    -0.6299619595     1.4404280969
| 20>  H       -1.4893628014    -2.9708541453     0.1288443416
| 21>  H       -4.0258433405    -1.4002592633    -2.5270426432
| 22> *
| 23>
| 24>                          ****END OF INPUT****

CARTESIAN COORDINATES (ANGSTROEM)
---------------------------------
  C     -0.025594    1.503650    0.105848
  C     -0.039315   -0.014636   -0.121489
  C     -1.408793   -0.597076    0.004685
  C     -2.148491   -1.038501    1.216858
  C     -1.966263   -2.006293    0.036754
  C     -2.841131   -1.536646   -1.074218
  N     -3.652541   -2.078226   -1.860561
  O     -2.394201   -0.215658   -1.010679
  H      0.985041    1.903720   -0.014350
  H     -0.679128    2.006741   -0.612385
  H     -0.374253    1.754716    1.112415
  H      0.354488   -0.248205   -1.117539
  H      0.612634   -0.513684    0.604875
  H     -1.539299   -1.285678    2.081436
  H     -3.128841   -0.629962    1.440428
  H     -1.489363   -2.970854    0.128844
  H     -4.025843   -1.400259   -2.527043

 Total Charge           Charge          ....    0
 Multiplicity           Mult            ....    1
 Number of Electrons    NEL             ....   60
 Basis Dimension        Dim             ....  302

ORBITAL ENERGIES
----------------

  NO   OCC          E(Eh)            E(eV)
   0   2.0000     -20.587979      -560.2274
   1   2.0000     -15.536010      -422.7563
   2   2.0000     -11.341299      -308.6124
   3   2.0000     -11.315417      -307.9081
   4   2.0000     -11.257222      -306.3246
   5   2.0000     -11.256565      -306.3067
   6   2.0000     -11.246488      -306.0325
   7   2.0000     -11.226149      -305.4790
   8   2.0000      -1.437123       -39.1061
   9   2.0000      -1.197219       -32.5780
  10   2.0000      -1.146393       -31.1949
  11   2.0000      -1.054641       -28.6982
  12   2.0000      -0.909390       -24.7458
  13   2.0000      -0.887947       -24.1623
  14   2.0000      -0.787925       -21.4405
  15   2.0000      -0.742044       -20.1920
  16   2.0000      -0.709799       -19.3146
  17   2.0000      -0.678404       -18.4603
  18   2.0000      -0.651551       -17.7296
  19   2.0000      -0.620213       -16.8769
  20   2.0000      -0.598718       -16.2920
  21   2.0000      -0.557715       -15.1762
  22   2.0000      -0.543580       -14.7916
  23   2.0000      -0.536436       -14.5972
  24   2.0000      -0.518712       -14.1149
  25   2.0000      -0.504111       -13.7176
  26   2.0000      -0.474254       -12.9051
  27   2.0000      -0.435743       -11.8572
  28   2.0000      -0.404449       -11.0056
  29   2.0000      -0.393629       -10.7112
  30   0.0000       0.127675         3.4742
  31   0.0000       0.153951         4.1892
  32   0.0000       0.158923         4.3245
  33   0.0000       0.175435         4.7738
  34   0.0000       0.190012         5.1705

MULLIKEN ATOMIC CHARGES
-----------------------
   0 C :   -0.406765
   1 C :   -0.185116
   2 C :    0.191245
   3 C :   -0.251038
   4 C :   -0.146399
   5 C :    0.128574
   6 N :   -0.363403
   7 O :   -0.291962
   8 H :    0.138579
   9 H :    0.147753
  10 H :    0.128709
  11 H :    0.124884
  12 H :    0.114363
  13 H :    0.136218
  14 H :    0.148372
  15 H :    0.155432
  16 H :    0.230554
Sum of atomic charges:   -0.0000000

LOEWDIN ATOMIC CHARGES
----------------------
   0 C :   -0.304168
   1 C :   -0.251416
   2 C :   -0.251511
   3 C :   -0.162869
   4 C :   -0.125467
   5 C :   -0.373583
   6 N :   -0.047075
   7 O :    0.235210
   8 H :    0.122980
   9 H :    0.128325
  10 H :    0.123304
  11 H :    0.148914
  12 H :    0.149425
  13 H :    0.145884
  14 H :    0.140632
  15 H :    0.147362
  16 H :    0.174054

  Mayer bond orders larger than 0.1
B(  0-C ,  1-C ) :   0.9271 B(  0-C ,  8-H ) :   0.9382 B(  0-C ,  9-H ) :   0.9359
B(  0-C , 10-H ) :   0.9355 B(  1-C ,  2-C ) :   0.9268 B(  1-C , 11-H ) :   0.9233
B(  1-C , 12-H ) :   0.9210 B(  2-C ,  3-C ) :   0.9074 B(  2-C ,  4-C ) :   0.8189
B(  2-C ,  7-O ) :   0.8883 B(  3-C ,  4-C ) :   0.8675 B(  3-C , 13-H ) :   0.9255
B(  3-C , 14-H ) :   0.9029 B(  4-C ,  5-C ) :   0.9716 B(  4-C , 15-H ) :   0.9090
B(  5-C ,  6-N ) :   2.0797 B(  5-C ,  7-O ) :   1.0414 B(  6-N , 16-H ) :   0.8458

MP2 TOTAL ENERGY:     -363.215537040 Eh
FINAL SINGLE POINT ENERGY      -363.215537039939

DIPOLE MOMENT
-------------
                                X             Y             Z
Electronic contribution:     -5.55335      -4.22786      -3.25860
Nuclear contribution   :      6.46993       4.64782       3.98141
                        -----------------------------------------
Total Dipole Moment    :      0.91658       0.41996       0.72281
                        -----------------------------------------
Magnitude (a.u.)       :      1.24054
Magnitude (Debye)      :      3.15320

                             ****ORCA TERMINATED NORMALLY****
TOTAL RUN TIME: 0 days 0 hours 11 minutes 54 seconds 588 msec
