                         Program Version 3.0.3 - RELEASE   -
|  1> ! RI-MP2 RIJK def2-TZVP def2-TZVP/C def2-TZVP/JK TIGHTSCF
|  2> % maxcore 2000
|  3> % mp2 density relaxed end
|  4> *xyz 0 1
|  5>  C       -0.1155659097     1.3740854235    -0.3942305896
|  6>  O       -0.1630919027    -0.0283129562    -0.4929186638
|  7>  C       -1.0246563920    -0.6140839523     0.4620773046
|  8>  C       -1.0610823191    -2.0921799565     0.2433154376
|  9>  C       -0.7121073170    -2.7743157626    -0.9053990407
| 10>  N       -0.9351244285    -4.0914377003    -0.6688145256
| 11>  C       -0.6392799746    -5.2099968170    -1.5370436354
| 12>  N       -1.4062528172    -4.3167387999     0.5724550458
| 13>  C       -1.4846205602    -3.1084468227     1.1262533818
| 14>  H        0.5668299150     1.7337820961    -1.1681092749
| 15>  H       -1.1061007041     1.8301390491    -0.5526079501
| 16>  H        0.2578483606     1.7025887707     0.5888787310
| 17>  H       -0.6808040023    -0.3844685713     1.4858247556
| 18>  H       -2.0350213485    -0.1752848939     0.3697246258
| 19>  H       -0.3207408186    -2.4187032885    -1.8441222399
| 20>  H        0.3320140297    -5.6548402846    -1.2953569515
| 21>  H       -1.4145034746    -5.9676224165    -1.4125155689
| 22>  H       -0.6276979503    -4.8683298042    -2.5739273189
| 23>  H       -1.8498420357    -3.0081574627     2.1386251970
| 24> *
| 25>
| 26>                          ****END OF INPUT****

CARTESIAN COORDINATES (ANGSTROEM)
---------------------------------
  C     -0.115566    1.374085   -0.394231
  O     -0.163092   -0.028313   -0.492919
  C     -1.024656   -0.614084    0.462077
  C     -1.061082   -2.092180    0.243315
  C     -0.712107   -2.774316   -0.905399
  N     -0.935124   -4.091438   -0.668815
  C     -0.639280   -5.209997   -1.537044
  N     -1.406253   -4.316739    0.572455
  C     -1.484621   -3.108447    1.126253
  H      0.566830    1.733782   -1.168109
  H     -1.106101    1.830139   -0.552608
  H      0.257848    1.702589    0.588879
  H     -0.680804   -0.384469    1.485825
  H     -2.035021   -0.175285    0.369725
  H     -0.320741   -2.418703   -1.844122
  H      0.332014   -5.654840   -1.295357
  H     -1.414503   -5.967622   -1.412516
  H     -0.627698   -4.868330   -2.573927
  H     -1.849842   -3.008157    2.138625

 Total Charge           Charge          ....    0
 Multiplicity           Mult            ....    1
 Number of Electrons    NEL             ....   68
 Basis Dimension        Dim             ....  339

ORBITAL ENERGIES
----------------

  NO   OCC          E(Eh)            E(eV)
   0   2.0000     -20.559808      -559.4608
   1   2.0000     -15.631541      -425.3558
   2   2.0000     -15.575506      -423.8311
   3   2.0000     -11.284385      -307.0637
   4   2.0000     -11.273750      -306.7743
   5   2.0000     -11.268699      -306.6369
   6   2.0000     -11.261279      -306.4350
   7   2.0000     -11.243272      -305.9450
   8   2.0000     -11.216834      -305.2256
   9   2.0000      -1.381358       -37.5887
  10   2.0000      -1.370038       -37.2806
  11   2.0000      -1.117260       -30.4022
  12   2.0000      -1.067728       -29.0544
  13   2.0000      -0.980405       -26.6782
  14   2.0000      -0.932101       -25.3638
  15   2.0000      -0.878483       -23.9047
  16   2.0000      -0.784964       -21.3599
  17   2.0000      -0.769022       -20.9261
  18   2.0000      -0.707067       -19.2403
  19   2.0000      -0.668811       -18.1993
  20   2.0000      -0.650266       -17.6946
  21   2.0000      -0.643893       -17.5212
  22   2.0000      -0.633479       -17.2378
  23   2.0000      -0.593742       -16.1565
  24   2.0000      -0.570111       -15.5135
  25   2.0000      -0.562216       -15.2987
  26   2.0000      -0.547235       -14.8910
  27   2.0000      -0.534982       -14.5576
  28   2.0000      -0.527314       -14.3489
  29   2.0000      -0.487654       -13.2697
  30   2.0000      -0.449006       -12.2181
  31   2.0000      -0.431307       -11.7365
  32   2.0000      -0.345915        -9.4128
  33   2.0000      -0.326973        -8.8974
  34   0.0000       0.140556         3.8247
  35   0.0000       0.146380         3.9832
  36   0.0000       0.153549         4.1783
  37   0.0000       0.172708         4.6996
  38   0.0000       0.186235         5.0677

MULLIKEN ATOMIC CHARGES
-----------------------
   0 C :   -0.218423
   1 O :   -0.300434
   2 C :   -0.078392
   3 C :    0.022336
   4 C :   -0.147729
   5 N :    0.122636
   6 C :   -0.314518
   7 N :   -0.255421
   8 C :   -0.146345
   9 H :    0.139133
  10 H :    0.111937
  11 H :    0.111917
  12 H :    0.106428
  13 H :    0.104523
  14 H :    0.157805
  15 H :    0.148932
  16 H :    0.163411
  17 H :    0.144041
  18 H :    0.128161
Sum of atomic charges:    0.0000000

LOEWDIN ATOMIC CHARGES
----------------------
   0 C :   -0.361200
   1 O :    0.139813
   2 C :   -0.285884
   3 C :   -0.203861
   4 C :   -0.195014
   5 N :    0.171132
   6 C :   -0.275622
   7 N :    0.038623
   8 C :   -0.254260
   9 H :    0.113603
  10 H :    0.101364
  11 H :    0.102055
  12 H :    0.128068
  13 H :    0.126497
  14 H :    0.142629
  15 H :    0.123026
  16 H :    0.129497
  17 H :    0.125584
  18 H :    0.133949

  Mayer bond orders larger than 0.1
B(  0-C ,  1-O ) :   0.9181 B(  0-C ,  9-H ) :   0.9396 B(  0-C , 10-H ) :   0.9371
B(  0-C , 11-H ) :   0.9357 B(  1-O ,  2-C ) :   0.9827 B(  2-C ,  3-C ) :   0.9267
B(  2-C , 12-H ) :   0.9286 B(  2-C , 13-H ) :   0.9162 B(  3-C ,  4-C ) :   1.4246
B(  3-C ,  8-C ) :   1.2876 B(  4-C ,  5-N ) :   1.2082 B(  4-C ,  7-N ) :   0.1014
B(  4-C , 14-H ) :   0.8900 B(  5-N ,  6-C ) :   0.8684 B(  5-N ,  7-N ) :   1.0213
B(  6-C , 15-H ) :   0.9272 B(  6-C , 16-H ) :   0.9311 B(  6-C , 17-H ) :   0.9311
B(  7-N ,  8-C ) :   1.4815 B(  8-C , 18-H ) :   0.9414

MP2 TOTAL ENERGY:     -418.502641087 Eh
FINAL SINGLE POINT ENERGY      -418.502641087324

DIPOLE MOMENT
-------------
                                X             Y             Z
Electronic contribution:     -1.06556      -4.56186       1.51370
Nuclear contribution   :      1.20068       5.04452      -2.09847
                        -----------------------------------------
Total Dipole Moment    :      0.13512       0.48266      -0.58477
                        -----------------------------------------
Magnitude (a.u.)       :      0.77018
Magnitude (Debye)      :      1.95764

                             ****ORCA TERMINATED NORMALLY****
TOTAL RUN TIME: 0 days 0 hours 17 minutes 18 seconds 414 msec
