                         Program Version 3.0.3 - RELEASE   -
|  1> ! RI-MP2 RIJK def2-TZVP def2-TZVP/C def2-TZVP/JK TIGHTSCF
|  2> % maxcore 2000
|  3> % mp2 density relaxed end
|  4> *xyz 0 1
|  5>  N        0.0484194678     1.4235406454     0.1490092864
|  6>  C        0.0328303787     0.0394653853     0.0420501528
|  7>  C       -1.0977750063    -0.7925796816     0.0167456736
|  8>  N       -0.6336873960    -2.1004078341    -0.0210875556
|  9>  C        0.7148313396    -2.1107998310    -0.0210200360
| 10>  C        1.1714761596    -0.8030787733     0.0178567129
| 11>  C       -2.5046086281    -0.5340981814     0.0230488339
| 12>  O       -3.3612952834    -1.4067989187    -0.0055583423
| 13>  H        0.8836414406     1.8574629306    -0.2162434144
| 14>  H       -0.7806536056     1.8913878469    -0.1864006743
| 15>  H       -1.2661290775    -2.8829020677    -0.0457536081
| 16>  H        1.2710492479    -3.0349758215    -0.0499006384
| 17>  H        2.2044247261    -0.4905707754     0.0323603696
| 18>  H       -2.7876553434     0.5413435165     0.0570897498
| 19> *
| 20>
| 21>                          ****END OF INPUT****

CARTESIAN COORDINATES (ANGSTROEM)
---------------------------------
  N      0.048419    1.423541    0.149009
  C      0.032830    0.039465    0.042050
  C     -1.097775   -0.792580    0.016746
  N     -0.633687   -2.100408   -0.021088
  C      0.714831   -2.110800   -0.021020
  C      1.171476   -0.803079    0.017857
  C     -2.504609   -0.534098    0.023049
  O     -3.361295   -1.406799   -0.005558
  H      0.883641    1.857463   -0.216243
  H     -0.780654    1.891388   -0.186401
  H     -1.266129   -2.882902   -0.045754
  H      1.271049   -3.034976   -0.049901
  H      2.204425   -0.490571    0.032360
  H     -2.787655    0.541344    0.057090

 Total Charge           Charge          ....    0
 Multiplicity           Mult            ....    1
 Number of Electrons    NEL             ....   58
 Basis Dimension        Dim             ....  284

ORBITAL ENERGIES
----------------

  NO   OCC          E(Eh)            E(eV)
   0   2.0000     -20.529406      -558.6335
   1   2.0000     -15.611768      -424.8178
   2   2.0000     -15.578396      -423.9097
   3   2.0000     -11.323211      -308.1202
   4   2.0000     -11.291418      -307.2551
   5   2.0000     -11.288162      -307.1665
   6   2.0000     -11.246917      -306.0442
   7   2.0000     -11.222890      -305.3904
   8   2.0000      -1.368775       -37.2463
   9   2.0000      -1.306936       -35.5635
  10   2.0000      -1.223465       -33.2922
  11   2.0000      -1.044352       -28.4183
  12   2.0000      -1.015794       -27.6412
  13   2.0000      -0.870654       -23.6917
  14   2.0000      -0.810711       -22.0606
  15   2.0000      -0.782228       -21.2855
  16   2.0000      -0.726537       -19.7701
  17   2.0000      -0.695190       -18.9171
  18   2.0000      -0.642357       -17.4794
  19   2.0000      -0.617387       -16.7999
  20   2.0000      -0.615784       -16.7563
  21   2.0000      -0.601632       -16.3712
  22   2.0000      -0.587520       -15.9872
  23   2.0000      -0.545142       -14.8341
  24   2.0000      -0.513811       -13.9815
  25   2.0000      -0.496457       -13.5093
  26   2.0000      -0.419602       -11.4179
  27   2.0000      -0.339816        -9.2469
  28   2.0000      -0.301755        -8.2112
  29   0.0000       0.091986         2.5031
  30   0.0000       0.126408         3.4397
  31   0.0000       0.148878         4.0512
  32   0.0000       0.164720         4.4823
  33   0.0000       0.183139         4.9835

MULLIKEN ATOMIC CHARGES
-----------------------
   0 N :   -0.513448
   1 C :    0.149018
   2 C :    0.060913
   3 N :   -0.245166
   4 C :   -0.049728
   5 C :   -0.238509
   6 C :    0.072019
   7 O :   -0.342577
   8 H :    0.252151
   9 H :    0.246581
  10 H :    0.262360
  11 H :    0.151899
  12 H :    0.132431
  13 H :    0.062057
Sum of atomic charges:    0.0000000

LOEWDIN ATOMIC CHARGES
----------------------
   0 N :   -0.067266
   1 C :   -0.235664
   2 C :   -0.229386
   3 N :    0.223473
   4 C :   -0.214316
   5 C :   -0.175301
   6 C :   -0.309380
   7 O :    0.075841
   8 H :    0.171218
   9 H :    0.166757
  10 H :    0.201987
  11 H :    0.137023
  12 H :    0.140821
  13 H :    0.114194

  Mayer bond orders larger than 0.1
B(  0-N ,  1-C ) :   1.0427 B(  0-N ,  8-H ) :   0.8790 B(  0-N ,  9-H ) :   0.8780
B(  1-C ,  2-C ) :   1.3072 B(  1-C ,  5-C ) :   1.3170 B(  2-C ,  3-N ) :   1.0735
B(  2-C ,  6-C ) :   0.9485 B(  2-C , 13-H ) :  -0.1219 B(  3-N ,  4-C ) :   1.2122
B(  3-N , 10-H ) :   0.8559 B(  4-C ,  5-C ) :   1.4211 B(  4-C , 11-H ) :   0.9194
B(  5-C , 12-H ) :   0.9283 B(  6-C ,  7-O ) :   1.9079 B(  6-C , 13-H ) :   1.0015

MP2 TOTAL ENERGY:     -378.132328566 Eh
FINAL SINGLE POINT ENERGY      -378.132328566436

DIPOLE MOMENT
-------------
                                X             Y             Z
Electronic contribution:     -2.58245      -1.98966       0.10504
Nuclear contribution   :      3.74663       2.33181      -0.49777
                        -----------------------------------------
Total Dipole Moment    :      1.16418       0.34215      -0.39272
                        -----------------------------------------
Magnitude (a.u.)       :      1.27539
Magnitude (Debye)      :      3.24179

                             ****ORCA TERMINATED NORMALLY****
TOTAL RUN TIME: 0 days 0 hours 11 minutes 38 seconds 914 msec
