                         Program Version 3.0.3 - RELEASE   -
|  1> ! RI-MP2 RIJK def2-TZVP def2-TZVP/C def2-TZVP/JK TIGHTSCF
|  2> % maxcore 2000
|  3> % mp2 density relaxed end
|  4> *xyz 0 1
|  5>  C       -0.2336150177     1.3937281384     0.0440605366
|  6>  C        0.0577853818    -0.1014031154    -0.0111062158
|  7>  C        0.9436095275    -0.5500070751    -1.2107975275
|  8>  C        2.1886012541    -0.4576946037    -0.2912066146
|  9>  C        1.2203905446    -0.5783593018     0.9229008082
| 10>  N        1.0565586175    -1.9344978230     1.3917867742
| 11>  C        0.8069605203    -2.9008972987     0.6185880217
| 12>  O        0.6316009865    -3.0172450799    -0.7244375562
| 13>  C        0.6472507791    -1.9562351593    -1.6962867071
| 14>  H        0.6779925326     1.9903281205    -0.0722633594
| 15>  H       -0.9255885358     1.6894730295    -0.7521222112
| 16>  H       -0.6883779872     1.6672792226     1.0019075976
| 17>  H       -0.8698398660    -0.6681224176     0.1217962807
| 18>  H        0.9304998135     0.1029142126    -2.0906695465
| 19>  H        2.9507333712    -1.2357542608    -0.3810365518
| 20>  H        2.6719997947     0.5207439696    -0.3429689089
| 21>  H        1.4343578035     0.0628638470     1.7819456893
| 22>  H        0.6980560088    -3.9008957533     1.0376469646
| 23>  H       -0.3379498516    -1.9806678249    -2.1789225636
| 24>  H        1.3925104824    -2.2563981065    -2.4428484802
| 25> *
| 26>
| 27>                          ****END OF INPUT****

CARTESIAN COORDINATES (ANGSTROEM)
---------------------------------
  C     -0.233615    1.393728    0.044061
  C      0.057785   -0.101403   -0.011106
  C      0.943610   -0.550007   -1.210798
  C      2.188601   -0.457695   -0.291207
  C      1.220391   -0.578359    0.922901
  N      1.056559   -1.934498    1.391787
  C      0.806961   -2.900897    0.618588
  O      0.631601   -3.017245   -0.724438
  C      0.647251   -1.956235   -1.696287
  H      0.677993    1.990328   -0.072263
  H     -0.925589    1.689473   -0.752122
  H     -0.688378    1.667279    1.001908
  H     -0.869840   -0.668122    0.121796
  H      0.930500    0.102914   -2.090670
  H      2.950733   -1.235754   -0.381037
  H      2.672000    0.520744   -0.342969
  H      1.434358    0.062864    1.781946
  H      0.698056   -3.900896    1.037647
  H     -0.337950   -1.980668   -2.178923
  H      1.392510   -2.256398   -2.442848

 Total Charge           Charge          ....    0
 Multiplicity           Mult            ....    1
 Number of Electrons    NEL             ....   68
 Basis Dimension        Dim             ....  345

ORBITAL ENERGIES
----------------

  NO   OCC          E(Eh)            E(eV)
   0   2.0000     -20.589053      -560.2566
   1   2.0000     -15.535316      -422.7374
   2   2.0000     -11.328581      -308.2663
   3   2.0000     -11.293061      -307.2998
   4   2.0000     -11.254771      -306.2579
   5   2.0000     -11.239267      -305.8360
   6   2.0000     -11.231321      -305.6198
   7   2.0000     -11.224946      -305.4463
   8   2.0000     -11.221057      -305.3405
   9   2.0000      -1.413354       -38.4593
  10   2.0000      -1.221334       -33.2342
  11   2.0000      -1.136313       -30.9206
  12   2.0000      -1.002553       -27.2809
  13   2.0000      -0.965326       -26.2679
  14   2.0000      -0.920381       -25.0448
  15   2.0000      -0.860274       -23.4092
  16   2.0000      -0.759935       -20.6789
  17   2.0000      -0.742364       -20.2008
  18   2.0000      -0.694176       -18.8895
  19   2.0000      -0.675976       -18.3942
  20   2.0000      -0.659848       -17.9554
  21   2.0000      -0.620649       -16.8887
  22   2.0000      -0.602037       -16.3823
  23   2.0000      -0.583405       -15.8753
  24   2.0000      -0.553317       -15.0565
  25   2.0000      -0.549759       -14.9597
  26   2.0000      -0.532008       -14.4767
  27   2.0000      -0.512272       -13.9396
  28   2.0000      -0.491906       -13.3854
  29   2.0000      -0.468823       -12.7573
  30   2.0000      -0.448717       -12.2102
  31   2.0000      -0.440297       -11.9811
  32   2.0000      -0.386954       -10.5296
  33   2.0000      -0.370755       -10.0888
  34   0.0000       0.130542         3.5522
  35   0.0000       0.154820         4.2129
  36   0.0000       0.163402         4.4464
  37   0.0000       0.171985         4.6799
  38   0.0000       0.172986         4.7072

MULLIKEN ATOMIC CHARGES
-----------------------
   0 C :   -0.447365
   1 C :   -0.099207
   2 C :   -0.055604
   3 C :   -0.319860
   4 C :    0.109884
   5 N :   -0.308549
   6 C :    0.077956
   7 O :   -0.265636
   8 C :   -0.083193
   9 H :    0.130099
  10 H :    0.133672
  11 H :    0.141483
  12 H :    0.116718
  13 H :    0.112044
  14 H :    0.130751
  15 H :    0.127335
  16 H :    0.119091
  17 H :    0.135196
  18 H :    0.120810
  19 H :    0.124374
Sum of atomic charges:   -0.0000000

LOEWDIN ATOMIC CHARGES
----------------------
   0 C :   -0.291448
   1 C :   -0.207616
   2 C :   -0.226233
   3 C :   -0.193052
   4 C :   -0.248211
   5 N :    0.096205
   6 C :   -0.372752
   7 O :    0.223803
   8 C :   -0.268328
   9 H :    0.126027
  10 H :    0.125179
  11 H :    0.127434
  12 H :    0.147043
  13 H :    0.150619
  14 H :    0.133619
  15 H :    0.136681
  16 H :    0.136385
  17 H :    0.134993
  18 H :    0.134685
  19 H :    0.134966

  Mayer bond orders larger than 0.1
B(  0-C ,  1-C ) :   0.8976 B(  0-C ,  9-H ) :   0.9323 B(  0-C , 10-H ) :   0.9392
B(  0-C , 11-H ) :   0.9436 B(  1-C ,  2-C ) :   0.8585 B(  1-C ,  4-C ) :   0.8489
B(  1-C , 12-H ) :   0.9297 B(  2-C ,  3-C ) :   0.9118 B(  2-C ,  8-C ) :   0.9256
B(  2-C , 13-H ) :   0.9084 B(  3-C ,  4-C ) :   0.8943 B(  3-C , 14-H ) :   0.9214
B(  3-C , 15-H ) :   0.9143 B(  4-C ,  5-N ) :   0.9139 B(  4-C , 16-H ) :   0.9499
B(  5-N ,  6-C ) :   1.8548 B(  6-C ,  7-O ) :   1.0660 B(  6-C , 17-H ) :   0.9266
B(  7-O ,  8-C ) :   0.8842 B(  8-C , 18-H ) :   0.9316 B(  8-C , 19-H ) :   0.9314

MP2 TOTAL ENERGY:     -402.451540243 Eh
FINAL SINGLE POINT ENERGY      -402.451540242705

DIPOLE MOMENT
-------------
                                X             Y             Z
Electronic contribution:      0.76976      -7.26179       1.88408
Nuclear contribution   :     -0.84613       7.85501      -2.73591
                        -----------------------------------------
Total Dipole Moment    :     -0.07637       0.59322      -0.85183
                        -----------------------------------------
Magnitude (a.u.)       :      1.04085
Magnitude (Debye)      :      2.64562

                             ****ORCA TERMINATED NORMALLY****
TOTAL RUN TIME: 0 days 0 hours 20 minutes 53 seconds 743 msec
