                         Program Version 3.0.3 - RELEASE   -
|  1> ! RI-MP2 RIJK def2-TZVP def2-TZVP/C def2-TZVP/JK TIGHTSCF
|  2> % maxcore 2000
|  3> % mp2 density relaxed end
|  4> *xyz 0 1
|  5>  N        0.6852841981    -0.0256908861     0.5156343098
|  6>  C       -0.2327027813     0.1812066063    -0.4689312161
|  7>  O       -0.1670014358     1.1005881366    -1.2582865892
|  8>  C       -1.4049185877    -0.8201833031    -0.4782691412
|  9>  C       -1.0613585690    -2.2177185211    -0.0691133474
| 10>  C       -1.4094208986    -2.8794803170     1.0342391281
| 11>  C       -0.8401402933    -4.2691577922     1.0077381722
| 12>  O       -0.0520058843    -4.3257739816    -0.1786140350
| 13>  C       -0.2174709264    -3.1290507610    -0.9295713581
| 14>  H        1.4596079578     0.6120783671     0.5945173764
| 15>  H        0.6135300710    -0.8039641376     1.1480486364
| 16>  H       -2.1774192232    -0.4130523844     0.1842348644
| 17>  H       -1.8071877338    -0.7897741443    -1.4953331804
| 18>  H       -2.0377509531    -2.5092665497     1.8355807834
| 19>  H       -0.2057009225    -4.4925036189     1.8790873840
| 20>  H       -1.6304846772    -5.0379204944     0.9812500133
| 21>  H       -0.7118833855    -3.3400071024    -1.8930072192
| 22>  H        0.7684181951    -2.6992761461    -1.1615991815
| 23> *
| 24>
| 25>                          ****END OF INPUT****

CARTESIAN COORDINATES (ANGSTROEM)
---------------------------------
  N      0.685284   -0.025691    0.515634
  C     -0.232703    0.181207   -0.468931
  O     -0.167001    1.100588   -1.258287
  C     -1.404919   -0.820183   -0.478269
  C     -1.061359   -2.217719   -0.069113
  C     -1.409421   -2.879480    1.034239
  C     -0.840140   -4.269158    1.007738
  O     -0.052006   -4.325774   -0.178614
  C     -0.217471   -3.129051   -0.929571
  H      1.459608    0.612078    0.594517
  H      0.613530   -0.803964    1.148049
  H     -2.177419   -0.413052    0.184235
  H     -1.807188   -0.789774   -1.495333
  H     -2.037751   -2.509267    1.835581
  H     -0.205701   -4.492504    1.879087
  H     -1.630485   -5.037920    0.981250
  H     -0.711883   -3.340007   -1.893007
  H      0.768418   -2.699276   -1.161599

 Total Charge           Charge          ....    0
 Multiplicity           Mult            ....    1
 Number of Electrons    NEL             ....   68
 Basis Dimension        Dim             ....  333

ORBITAL ENERGIES
----------------

  NO   OCC          E(Eh)            E(eV)
   0   2.0000     -20.560823      -559.4884
   1   2.0000     -20.520340      -558.3868
   2   2.0000     -15.585652      -424.1071
   3   2.0000     -11.357050      -309.0410
   4   2.0000     -11.289846      -307.2123
   5   2.0000     -11.288449      -307.1743
   6   2.0000     -11.256541      -306.3061
   7   2.0000     -11.255841      -306.2870
   8   2.0000     -11.245327      -306.0009
   9   2.0000      -1.386872       -37.7387
  10   2.0000      -1.385303       -37.6960
  11   2.0000      -1.216569       -33.1045
  12   2.0000      -1.111792       -30.2534
  13   2.0000      -1.020468       -27.7683
  14   2.0000      -0.976579       -26.5741
  15   2.0000      -0.842780       -22.9332
  16   2.0000      -0.807115       -21.9627
  17   2.0000      -0.759582       -20.6693
  18   2.0000      -0.734271       -19.9805
  19   2.0000      -0.699748       -19.0411
  20   2.0000      -0.675778       -18.3889
  21   2.0000      -0.648109       -17.6359
  22   2.0000      -0.623930       -16.9780
  23   2.0000      -0.597026       -16.2459
  24   2.0000      -0.589334       -16.0366
  25   2.0000      -0.574798       -15.6410
  26   2.0000      -0.564364       -15.3571
  27   2.0000      -0.547388       -14.8952
  28   2.0000      -0.515288       -14.0217
  29   2.0000      -0.486564       -13.2401
  30   2.0000      -0.451696       -12.2913
  31   2.0000      -0.427718       -11.6388
  32   2.0000      -0.418409       -11.3855
  33   2.0000      -0.360003        -9.7962
  34   0.0000       0.118863         3.2344
  35   0.0000       0.133336         3.6283
  36   0.0000       0.155499         4.2314
  37   0.0000       0.158429         4.3111
  38   0.0000       0.169434         4.6105

MULLIKEN ATOMIC CHARGES
-----------------------
   0 N :   -0.465714
   1 C :    0.233890
   2 O :   -0.339381
   3 C :   -0.194938
   4 C :   -0.099089
   5 C :   -0.214296
   6 C :    0.024088
   7 O :   -0.334984
   8 C :   -0.010457
   9 H :    0.258865
  10 H :    0.270325
  11 H :    0.143613
  12 H :    0.146435
  13 H :    0.141337
  14 H :    0.108900
  15 H :    0.107197
  16 H :    0.105454
  17 H :    0.118756
Sum of atomic charges:    0.0000000

LOEWDIN ATOMIC CHARGES
----------------------
   0 N :   -0.010387
   1 C :   -0.477472
   2 O :    0.084922
   3 C :   -0.191333
   4 C :   -0.186161
   5 C :   -0.149316
   6 C :   -0.287597
   7 O :    0.148743
   8 C :   -0.259581
   9 H :    0.173994
  10 H :    0.174234
  11 H :    0.162529
  12 H :    0.162273
  13 H :    0.143043
  14 H :    0.125842
  15 H :    0.126615
  16 H :    0.129429
  17 H :    0.130221

  Mayer bond orders larger than 0.1
B(  0-N ,  1-C ) :   1.1501 B(  0-N ,  9-H ) :   0.8595 B(  0-N , 10-H ) :   0.8594
B(  1-C ,  2-O ) :   2.0110 B(  1-C ,  3-C ) :   0.9123 B(  3-C ,  4-C ) :   0.8425
B(  3-C , 11-H ) :   0.9178 B(  3-C , 12-H ) :   0.9234 B(  4-C ,  5-C ) :   1.7440
B(  4-C ,  8-C ) :   0.9798 B(  5-C ,  6-C ) :   0.9764 B(  5-C , 13-H ) :   0.9145
B(  6-C ,  7-O ) :   0.9385 B(  6-C , 14-H ) :   0.9161 B(  6-C , 15-H ) :   0.9157
B(  7-O ,  8-C ) :   0.9443 B(  8-C , 16-H ) :   0.9031 B(  8-C , 17-H ) :   0.9147

MP2 TOTAL ENERGY:     -438.396074995 Eh
FINAL SINGLE POINT ENERGY      -438.396074994630

DIPOLE MOMENT
-------------
                                X             Y             Z
Electronic contribution:      1.06934       2.54318      -1.54727
Nuclear contribution   :     -1.25770      -3.02339       2.76133
                        -----------------------------------------
Total Dipole Moment    :     -0.18836      -0.48021       1.21406
                        -----------------------------------------
Magnitude (a.u.)       :      1.31909
Magnitude (Debye)      :      3.35287

                             ****ORCA TERMINATED NORMALLY****
TOTAL RUN TIME: 0 days 0 hours 16 minutes 24 seconds 631 msec
