                         Program Version 3.0.3 - RELEASE   -
|  1> ! RI-MP2 RIJK def2-TZVP def2-TZVP/C def2-TZVP/JK TIGHTSCF
|  2> % maxcore 2000
|  3> % mp2 density relaxed end
|  4> *xyz 0 1
|  5>  O        0.1645411291    -0.0785015213     0.1225516723
|  6>  C        0.0451874238     1.1255031441     0.1127392945
|  7>  C       -1.2454361497     1.9385958672    -0.0385009998
|  8>  C       -0.8636805559     3.3676170602     0.3533910930
|  9>  C       -1.7266456241     4.5604500944    -0.1090062652
| 10>  C       -2.0263283066     4.7538293394     1.3892881649
| 11>  O       -1.1751468776     3.6446841190     1.7457125730
| 12>  C        0.6575073295     3.4254046891     0.0952631025
| 13>  N        1.0617246071     2.0393172483     0.2125836331
| 14>  H       -1.5645176362     1.8823914237    -1.0858781409
| 15>  H       -2.0443782641     1.5371525400     0.5861086924
| 16>  H       -1.1690284459     5.3719762451    -0.5816933053
| 17>  H       -2.5804419248     4.2999091307    -0.7365865341
| 18>  H       -1.6797207345     5.6951564590     1.8313366961
| 19>  H       -3.0664127530     4.5828464728     1.6908202018
| 20>  H        0.8673801036     3.8366246368    -0.9039586144
| 21>  H        1.1389870687     4.0626525348     0.8428859027
| 22>  H        2.0212114108     1.7336249568     0.2388435734
| 23> *
| 24>
| 25>                          ****END OF INPUT****

CARTESIAN COORDINATES (ANGSTROEM)
---------------------------------
  O      0.164541   -0.078502    0.122552
  C      0.045187    1.125503    0.112739
  C     -1.245436    1.938596   -0.038501
  C     -0.863681    3.367617    0.353391
  C     -1.726646    4.560450   -0.109006
  C     -2.026328    4.753829    1.389288
  O     -1.175147    3.644684    1.745713
  C      0.657507    3.425405    0.095263
  N      1.061725    2.039317    0.212584
  H     -1.564518    1.882391   -1.085878
  H     -2.044378    1.537153    0.586109
  H     -1.169028    5.371976   -0.581693
  H     -2.580442    4.299909   -0.736587
  H     -1.679721    5.695156    1.831337
  H     -3.066413    4.582846    1.690820
  H      0.867380    3.836625   -0.903959
  H      1.138987    4.062653    0.842886
  H      2.021211    1.733625    0.238844

 Total Charge           Charge          ....    0
 Multiplicity           Mult            ....    1
 Number of Electrons    NEL             ....   68
 Basis Dimension        Dim             ....  333

ORBITAL ENERGIES
----------------

  NO   OCC          E(Eh)            E(eV)
   0   2.0000     -20.557775      -559.4055
   1   2.0000     -20.513547      -558.2020
   2   2.0000     -15.581978      -424.0072
   3   2.0000     -11.345637      -308.7305
   4   2.0000     -11.309302      -307.7417
   5   2.0000     -11.290537      -307.2311
   6   2.0000     -11.278103      -306.8928
   7   2.0000     -11.246465      -306.0319
   8   2.0000     -11.241021      -305.8837
   9   2.0000      -1.393499       -37.9190
  10   2.0000      -1.376987       -37.4697
  11   2.0000      -1.248071       -33.9617
  12   2.0000      -1.058525       -28.8039
  13   2.0000      -1.015102       -27.6223
  14   2.0000      -0.975730       -26.5510
  15   2.0000      -0.875393       -23.8207
  16   2.0000      -0.798496       -21.7282
  17   2.0000      -0.753460       -20.5027
  18   2.0000      -0.699406       -19.0318
  19   2.0000      -0.677656       -18.4400
  20   2.0000      -0.670569       -18.2471
  21   2.0000      -0.660553       -17.9746
  22   2.0000      -0.619534       -16.8584
  23   2.0000      -0.599869       -16.3233
  24   2.0000      -0.586344       -15.9552
  25   2.0000      -0.579490       -15.7687
  26   2.0000      -0.549613       -14.9557
  27   2.0000      -0.527401       -14.3513
  28   2.0000      -0.510958       -13.9039
  29   2.0000      -0.489399       -13.3172
  30   2.0000      -0.472157       -12.8481
  31   2.0000      -0.431109       -11.7311
  32   2.0000      -0.406234       -11.0542
  33   2.0000      -0.391284       -10.6474
  34   0.0000       0.124536         3.3888
  35   0.0000       0.143184         3.8962
  36   0.0000       0.154499         4.2041
  37   0.0000       0.161980         4.4077
  38   0.0000       0.179146         4.8748

MULLIKEN ATOMIC CHARGES
-----------------------
   0 O :   -0.335840
   1 C :    0.183387
   2 C :   -0.213670
   3 C :    0.224055
   4 C :   -0.292247
   5 C :   -0.024193
   6 O :   -0.336252
   7 C :   -0.138281
   8 N :   -0.304421
   9 H :    0.135371
  10 H :    0.145279
  11 H :    0.128770
  12 H :    0.134572
  13 H :    0.102102
  14 H :    0.102677
  15 H :    0.118963
  16 H :    0.132940
  17 H :    0.236787
Sum of atomic charges:    0.0000000

LOEWDIN ATOMIC CHARGES
----------------------
   0 O :    0.084809
   1 C :   -0.445244
   2 C :   -0.177823
   3 C :   -0.298958
   4 C :   -0.207311
   5 C :   -0.270312
   6 O :    0.154491
   7 C :   -0.231379
   8 N :    0.119447
   9 H :    0.157558
  10 H :    0.156949
  11 H :    0.134774
  12 H :    0.135285
  13 H :    0.116845
  14 H :    0.117953
  15 H :    0.130821
  16 H :    0.139037
  17 H :    0.183058

  Mayer bond orders larger than 0.1
B(  0-O ,  1-C ) :   2.0211 B(  1-C ,  2-C ) :   0.9229 B(  1-C ,  8-N ) :   1.1687
B(  2-C ,  3-C ) :   0.9052 B(  2-C ,  9-H ) :   0.9058 B(  2-C , 10-H ) :   0.9011
B(  3-C ,  4-C ) :   0.8725 B(  3-C ,  6-O ) :   0.9554 B(  3-C ,  7-C ) :   0.9141
B(  4-C ,  5-C ) :   0.9815 B(  4-C , 11-H ) :   0.9240 B(  4-C , 12-H ) :   0.9260
B(  5-C ,  6-O ) :   0.9394 B(  5-C , 13-H ) :   0.9175 B(  5-C , 14-H ) :   0.9168
B(  7-C ,  8-N ) :   0.9032 B(  7-C , 15-H ) :   0.9249 B(  7-C , 16-H ) :   0.9202
B(  8-N , 17-H ) :   0.8655

MP2 TOTAL ENERGY:     -438.392271611 Eh
FINAL SINGLE POINT ENERGY      -438.392271610870

DIPOLE MOMENT
-------------
                                X             Y             Z
Electronic contribution:      2.75121      -5.89530       1.32017
Nuclear contribution   :     -2.82474       7.74225      -1.96829
                        -----------------------------------------
Total Dipole Moment    :     -0.07353       1.84695      -0.64812
                        -----------------------------------------
Magnitude (a.u.)       :      1.95875
Magnitude (Debye)      :      4.97874

                             ****ORCA TERMINATED NORMALLY****
TOTAL RUN TIME: 0 days 0 hours 16 minutes 26 seconds 383 msec
