                         Program Version 3.0.3 - RELEASE   -
|  1> ! RI-MP2 RIJK def2-TZVP def2-TZVP/C def2-TZVP/JK TIGHTSCF
|  2> % maxcore 2000
|  3> % mp2 density relaxed end
|  4> *xyz 0 1
|  5>  N        0.0379748421     1.3750503000     0.1718664660
|  6>  C       -0.0812276594     0.0193271730     0.0651330543
|  7>  C       -1.1494571476    -0.8371122826     0.0455112392
|  8>  C       -0.5236907502    -2.1095571182    -0.0053127522
|  9>  N        0.7948100969    -2.0435593762    -0.0179465187
| 10>  O        1.0676494332    -0.6742678513     0.0262100145
| 11>  C       -1.1706755684    -3.3802458101    -0.0433976410
| 12>  N       -1.7338179070    -4.3893564940    -0.0742544781
| 13>  H        0.9247661923     1.7542504292    -0.1263120698
| 14>  H       -0.7592668171     1.9122062827    -0.1306872794
| 15>  H       -2.2004193849    -0.6108543524     0.0703038752
| 16> *
| 17>
| 18>                          ****END OF INPUT****

CARTESIAN COORDINATES (ANGSTROEM)
---------------------------------
  N      0.037975    1.375050    0.171866
  C     -0.081228    0.019327    0.065133
  C     -1.149457   -0.837112    0.045511
  C     -0.523691   -2.109557   -0.005313
  N      0.794810   -2.043559   -0.017947
  O      1.067649   -0.674268    0.026210
  C     -1.170676   -3.380246   -0.043398
  N     -1.733818   -4.389356   -0.074254
  H      0.924766    1.754250   -0.126312
  H     -0.759267    1.912206   -0.130687
  H     -2.200419   -0.610854    0.070304

 Total Charge           Charge          ....    0
 Multiplicity           Mult            ....    1
 Number of Electrons    NEL             ....   56
 Basis Dimension        Dim             ....  266

ORBITAL ENERGIES
----------------

  NO   OCC          E(Eh)            E(eV)
   0   2.0000     -20.670743      -562.4795
   1   2.0000     -15.648215      -425.8096
   2   2.0000     -15.620324      -425.0506
   3   2.0000     -15.596394      -424.3995
   4   2.0000     -11.386824      -309.8512
   5   2.0000     -11.337364      -308.5054
   6   2.0000     -11.294777      -307.3465
   7   2.0000     -11.254981      -306.2636
   8   2.0000      -1.525861       -41.5208
   9   2.0000      -1.276310       -34.7302
  10   2.0000      -1.242604       -33.8130
  11   2.0000      -1.188540       -32.3418
  12   2.0000      -1.078536       -29.3485
  13   2.0000      -0.923025       -25.1168
  14   2.0000      -0.854059       -23.2401
  15   2.0000      -0.788848       -21.4657
  16   2.0000      -0.734067       -19.9750
  17   2.0000      -0.697384       -18.9768
  18   2.0000      -0.664393       -18.0791
  19   2.0000      -0.660124       -17.9629
  20   2.0000      -0.601993       -16.3811
  21   2.0000      -0.576444       -15.6858
  22   2.0000      -0.544104       -14.8058
  23   2.0000      -0.521465       -14.1898
  24   2.0000      -0.514487       -13.9999
  25   2.0000      -0.483825       -13.1655
  26   2.0000      -0.433326       -11.7914
  27   2.0000      -0.355227        -9.6662
  28   0.0000       0.081170         2.2088
  29   0.0000       0.105235         2.8636
  30   0.0000       0.150952         4.1076
  31   0.0000       0.161896         4.4054
  32   0.0000       0.169014         4.5991

MULLIKEN ATOMIC CHARGES
-----------------------
   0 N :   -0.505468
   1 C :    0.282714
   2 C :   -0.278714
   3 C :    0.246273
   4 N :   -0.124562
   5 O :   -0.113457
   6 C :   -0.184717
   7 N :   -0.041914
   8 H :    0.277045
   9 H :    0.271963
  10 H :    0.170837
Sum of atomic charges:    0.0000000

LOEWDIN ATOMIC CHARGES
----------------------
   0 N :   -0.035038
   1 C :   -0.369299
   2 C :   -0.150166
   3 C :   -0.292072
   4 N :    0.079583
   5 O :    0.292144
   6 C :   -0.136340
   7 N :    0.090855
   8 H :    0.183889
   9 H :    0.183142
  10 H :    0.153303

  Mayer bond orders larger than 0.1
B(  0-N ,  1-C ) :   1.1159 B(  0-N ,  8-H ) :   0.8592 B(  0-N ,  9-H ) :   0.8675
B(  1-C ,  2-C ) :   1.4783 B(  1-C ,  5-O ) :   1.1411 B(  2-C ,  3-C ) :   1.2251
B(  2-C , 10-H ) :   0.8947 B(  3-C ,  4-N ) :   1.5265 B(  3-C ,  6-C ) :   0.8958
B(  4-N ,  5-O ) :   0.8717 B(  6-C ,  7-N ) :   2.8427

MP2 TOTAL ENERGY:     -392.929027786 Eh
FINAL SINGLE POINT ENERGY      -392.929027786033

DIPOLE MOMENT
-------------
                                X             Y             Z
Electronic contribution:      0.83018      -4.24465      -0.04798
Nuclear contribution   :     -1.04461       6.85453      -0.22887
                        -----------------------------------------
Total Dipole Moment    :     -0.21443       2.60989      -0.27685
                        -----------------------------------------
Magnitude (a.u.)       :      2.63327
Magnitude (Debye)      :      6.69325

                             ****ORCA TERMINATED NORMALLY****
TOTAL RUN TIME: 0 days 0 hours 9 minutes 47 seconds 121 msec
