                         Program Version 3.0.3 - RELEASE   -
|  1> ! RI-MP2 RIJK def2-TZVP def2-TZVP/C def2-TZVP/JK TIGHTSCF
|  2> % maxcore 2000
|  3> % mp2 density relaxed end
|  4> *xyz 0 1
|  5>  O       -0.2078343208    -0.0608812411    -0.1731217239
|  6>  C       -0.0464160059     1.1200585816    -0.0402558117
|  7>  C       -1.2237162738     2.1654679646    -0.0170375090
|  8>  O       -0.6956528445     3.4675606922     0.2944106881
|  9>  C        0.5797749420     3.1872956968     0.7784338357
| 10>  C        1.9715458622     3.8588480325     0.8343669604
| 11>  C        2.1571801511     2.3437332367     1.2619100369
| 12>  C        0.9023824060     2.5110665934     2.1544953025
| 13>  C        1.2021341349     1.9865207641     0.0704476140
| 14>  H       -1.7245862643     2.2024208406    -0.9898377906
| 15>  H       -1.9548523310     1.8476864478     0.7368315048
| 16>  H        2.4137027750     4.1543235665    -0.1197592321
| 17>  H        2.1459530440     4.5995606363     1.6181114625
| 18>  H        3.0961356720     1.8640610817     1.5252950683
| 19>  H        0.9930149459     3.1762477093     3.0154161677
| 20>  H        0.3622188332     1.5956096479     2.4077416286
| 21>  H        1.6002678241     2.1854295590    -0.9320154723
| 22> *
| 23>
| 24>                          ****END OF INPUT****

CARTESIAN COORDINATES (ANGSTROEM)
---------------------------------
  O     -0.207834   -0.060881   -0.173122
  C     -0.046416    1.120059   -0.040256
  C     -1.223716    2.165468   -0.017038
  O     -0.695653    3.467561    0.294411
  C      0.579775    3.187296    0.778434
  C      1.971546    3.858848    0.834367
  C      2.157180    2.343733    1.261910
  C      0.902382    2.511067    2.154495
  C      1.202134    1.986521    0.070448
  H     -1.724586    2.202421   -0.989838
  H     -1.954852    1.847686    0.736832
  H      2.413703    4.154324   -0.119759
  H      2.145953    4.599561    1.618111
  H      3.096136    1.864061    1.525295
  H      0.993015    3.176248    3.015416
  H      0.362219    1.595610    2.407742
  H      1.600268    2.185430   -0.932015

 Total Charge           Charge          ....    0
 Multiplicity           Mult            ....    1
 Number of Electrons    NEL             ....   66
 Basis Dimension        Dim             ....  327

ORBITAL ENERGIES
----------------

  NO   OCC          E(Eh)            E(eV)
   0   2.0000     -20.579960      -560.0092
   1   2.0000     -20.561560      -559.5085
   2   2.0000     -11.346987      -308.7672
   3   2.0000     -11.312410      -307.8263
   4   2.0000     -11.299080      -307.4636
   5   2.0000     -11.276751      -306.8560
   6   2.0000     -11.256571      -306.3069
   7   2.0000     -11.248311      -306.0821
   8   2.0000     -11.245086      -305.9944
   9   2.0000      -1.415373       -38.5143
  10   2.0000      -1.396957       -38.0131
  11   2.0000      -1.228779       -33.4368
  12   2.0000      -1.016028       -27.6475
  13   2.0000      -0.944061       -25.6892
  14   2.0000      -0.930353       -25.3162
  15   2.0000      -0.859727       -23.3943
  16   2.0000      -0.781001       -21.2521
  17   2.0000      -0.739051       -20.1106
  18   2.0000      -0.690082       -18.7781
  19   2.0000      -0.679630       -18.4937
  20   2.0000      -0.665455       -18.1079
  21   2.0000      -0.645749       -17.5717
  22   2.0000      -0.615836       -16.7578
  23   2.0000      -0.590900       -16.0792
  24   2.0000      -0.560957       -15.2644
  25   2.0000      -0.547019       -14.8851
  26   2.0000      -0.511881       -13.9290
  27   2.0000      -0.503627       -13.7044
  28   2.0000      -0.485507       -13.2113
  29   2.0000      -0.474876       -12.9220
  30   2.0000      -0.448157       -12.1950
  31   2.0000      -0.420995       -11.4559
  32   2.0000      -0.393882       -10.7181
  33   0.0000       0.121650         3.3103
  34   0.0000       0.140397         3.8204
  35   0.0000       0.156438         4.2569
  36   0.0000       0.159901         4.3511
  37   0.0000       0.167385         4.5548

MULLIKEN ATOMIC CHARGES
-----------------------
   0 O :   -0.244043
   1 C :    0.085227
   2 C :   -0.039266
   3 O :   -0.312971
   4 C :    0.098116
   5 C :   -0.176187
   6 C :   -0.134244
   7 C :   -0.236235
   8 C :   -0.080349
   9 H :    0.139907
  10 H :    0.125805
  11 H :    0.121945
  12 H :    0.126606
  13 H :    0.156039
  14 H :    0.124083
  15 H :    0.128588
  16 H :    0.116978
Sum of atomic charges:    0.0000000

LOEWDIN ATOMIC CHARGES
----------------------
   0 O :    0.169884
   1 C :   -0.298730
   2 C :   -0.239837
   3 O :    0.190806
   4 C :   -0.310850
   5 C :   -0.157837
   6 C :   -0.144208
   7 C :   -0.167426
   8 C :   -0.143568
   9 H :    0.137606
  10 H :    0.136628
  11 H :    0.132865
  12 H :    0.131765
  13 H :    0.132308
  14 H :    0.131989
  15 H :    0.136745
  16 H :    0.161859

  Mayer bond orders larger than 0.1
B(  0-O ,  1-C ) :   2.0400 B(  1-C ,  2-C ) :   0.8941 B(  1-C ,  8-C ) :   0.9024
B(  2-C ,  3-O ) :   0.9063 B(  2-C ,  9-H ) :   0.9063 B(  2-C , 10-H ) :   0.9079
B(  3-O ,  4-C ) :   0.9484 B(  4-C ,  5-C ) :   0.8932 B(  4-C ,  7-C ) :   0.9388
B(  4-C ,  8-C ) :   0.8637 B(  5-C ,  6-C ) :   0.8873 B(  5-C , 11-H ) :   0.9208
B(  5-C , 12-H ) :   0.9291 B(  6-C ,  7-C ) :   0.9126 B(  6-C ,  8-C ) :   0.8623
B(  6-C , 13-H ) :   0.8898 B(  7-C , 14-H ) :   0.9340 B(  7-C , 15-H ) :   0.9032
B(  8-C , 16-H ) :   0.9021

MP2 TOTAL ENERGY:     -421.057807209 Eh
FINAL SINGLE POINT ENERGY      -421.057807208861

DIPOLE MOMENT
-------------
                                X             Y             Z
Electronic contribution:     -2.43938      -2.63460      -2.34780
Nuclear contribution   :      2.90220       3.18754       2.57644
                        -----------------------------------------
Total Dipole Moment    :      0.46282       0.55294       0.22864
                        -----------------------------------------
Magnitude (a.u.)       :      0.75645
Magnitude (Debye)      :      1.92275

                             ****ORCA TERMINATED NORMALLY****
TOTAL RUN TIME: 0 days 0 hours 19 minutes 4 seconds 558 msec
