                         Program Version 3.0.3 - RELEASE   -
|  1> ! RI-MP2 RIJK def2-TZVP def2-TZVP/C def2-TZVP/JK TIGHTSCF
|  2> % maxcore 2000
|  3> % mp2 density relaxed end
|  4> *xyz 0 1
|  5>  C        0.0327714979     1.5627246522     0.3095834956
|  6>  C       -0.0202918654     0.0594595418     0.1586082041
|  7>  C        1.1852277643    -0.7067333381    -0.3555120499
|  8>  C        0.7743172599    -0.8265322640     1.0928715150
|  9>  O        1.5962647409    -0.2100217736     2.0641109276
| 10>  C        1.6199947543    -1.0042703778     3.2617940211
| 11>  C        1.1712801321    -0.1620735918     4.4565286347
| 12>  C        0.7263269530    -2.1777414810     2.9469975462
| 13>  C        0.2484258623    -2.0607661225     1.7119120397
| 14>  H        1.0020998152     1.8795934394     0.7017983202
| 15>  H       -0.1314388905     2.0612196684    -0.6520329798
| 16>  H       -0.7352376961     1.9156882662     1.0064546713
| 17>  H       -0.9890070898    -0.3364893268    -0.1384357246
| 18>  H        1.0382887406    -1.5532245383    -1.0185864216
| 19>  H        2.0895003014    -0.1353732993    -0.5397897138
| 20>  H        2.6582443466    -1.3339957853     3.4341442033
| 21>  H        0.1371682649     0.1688930409     4.3242554348
| 22>  H        1.2383316156    -0.7428569805     5.3828380231
| 23>  H        1.8108240604     0.7194148928     4.5573477148
| 24>  H        0.5264808782    -2.9722291099     3.6543118586
| 25>  H       -0.4231369459    -2.7370196229     1.1987212296
| 26> *
| 27>
| 28>                          ****END OF INPUT****

CARTESIAN COORDINATES (ANGSTROEM)
---------------------------------
  C      0.032771    1.562725    0.309583
  C     -0.020292    0.059460    0.158608
  C      1.185228   -0.706733   -0.355512
  C      0.774317   -0.826532    1.092872
  O      1.596265   -0.210022    2.064111
  C      1.619995   -1.004270    3.261794
  C      1.171280   -0.162074    4.456529
  C      0.726327   -2.177741    2.946998
  C      0.248426   -2.060766    1.711912
  H      1.002100    1.879593    0.701798
  H     -0.131439    2.061220   -0.652033
  H     -0.735238    1.915688    1.006455
  H     -0.989007   -0.336489   -0.138436
  H      1.038289   -1.553225   -1.018586
  H      2.089500   -0.135373   -0.539790
  H      2.658244   -1.333996    3.434144
  H      0.137168    0.168893    4.324255
  H      1.238332   -0.742857    5.382838
  H      1.810824    0.719415    4.557348
  H      0.526481   -2.972229    3.654312
  H     -0.423137   -2.737020    1.198721

 Total Charge           Charge          ....    0
 Multiplicity           Mult            ....    1
 Number of Electrons    NEL             ....   68
 Basis Dimension        Dim             ....  351

ORBITAL ENERGIES
----------------

  NO   OCC          E(Eh)            E(eV)
   0   2.0000     -20.549280      -559.1743
   1   2.0000     -11.284106      -307.0561
   2   2.0000     -11.283506      -307.0398
   3   2.0000     -11.233641      -305.6829
   4   2.0000     -11.228508      -305.5432
   5   2.0000     -11.226947      -305.5008
   6   2.0000     -11.217500      -305.2437
   7   2.0000     -11.213913      -305.1461
   8   2.0000     -11.209553      -305.0275
   9   2.0000      -1.379557       -37.5397
  10   2.0000      -1.137592       -30.9555
  11   2.0000      -1.074163       -29.2295
  12   2.0000      -1.005810       -27.3695
  13   2.0000      -0.951842       -25.9009
  14   2.0000      -0.867194       -23.5976
  15   2.0000      -0.795065       -21.6348
  16   2.0000      -0.771751       -21.0004
  17   2.0000      -0.752569       -20.4784
  18   2.0000      -0.688932       -18.7468
  19   2.0000      -0.640488       -17.4286
  20   2.0000      -0.628426       -17.1003
  21   2.0000      -0.606828       -16.5126
  22   2.0000      -0.573724       -15.6118
  23   2.0000      -0.554238       -15.0816
  24   2.0000      -0.552400       -15.0316
  25   2.0000      -0.539165       -14.6714
  26   2.0000      -0.524022       -14.2594
  27   2.0000      -0.513010       -13.9597
  28   2.0000      -0.495538       -13.4843
  29   2.0000      -0.481632       -13.1059
  30   2.0000      -0.477279       -12.9874
  31   2.0000      -0.414342       -11.2748
  32   2.0000      -0.406779       -11.0690
  33   2.0000      -0.322494        -8.7755
  34   0.0000       0.137234         3.7343
  35   0.0000       0.149598         4.0708
  36   0.0000       0.159452         4.3389
  37   0.0000       0.166462         4.5297
  38   0.0000       0.185619         5.0509

MULLIKEN ATOMIC CHARGES
-----------------------
   0 C :   -0.424877
   1 C :   -0.097994
   2 C :   -0.316686
   3 C :    0.268515
   4 O :   -0.324035
   5 C :    0.175706
   6 C :   -0.394913
   7 C :   -0.237293
   8 C :   -0.176546
   9 H :    0.146448
  10 H :    0.131623
  11 H :    0.128629
  12 H :    0.113306
  13 H :    0.128949
  14 H :    0.129985
  15 H :    0.092242
  16 H :    0.129235
  17 H :    0.117928
  18 H :    0.137292
  19 H :    0.135023
  20 H :    0.137464
Sum of atomic charges:   -0.0000000

LOEWDIN ATOMIC CHARGES
----------------------
   0 C :   -0.294343
   1 C :   -0.212498
   2 C :   -0.186610
   3 C :   -0.288501
   4 O :    0.226868
   5 C :   -0.302301
   6 C :   -0.290611
   7 C :   -0.139278
   8 C :   -0.118519
   9 H :    0.131387
  10 H :    0.124213
  11 H :    0.125470
  12 H :    0.146722
  13 H :    0.131705
  14 H :    0.141321
  15 H :    0.141958
  16 H :    0.125501
  17 H :    0.124296
  18 H :    0.126002
  19 H :    0.141318
  20 H :    0.145897

  Mayer bond orders larger than 0.1
B(  0-C ,  1-C ) :   0.8954 B(  0-C ,  9-H ) :   0.9327 B(  0-C , 10-H ) :   0.9388
B(  0-C , 11-H ) :   0.9404 B(  1-C ,  2-C ) :   0.9050 B(  1-C ,  3-C ) :   0.8243
B(  1-C , 12-H ) :   0.9195 B(  2-C ,  3-C ) :   0.8554 B(  2-C , 13-H ) :   0.9195
B(  2-C , 14-H ) :   0.9149 B(  3-C ,  4-O ) :   0.9738 B(  3-C ,  8-C ) :   0.9403
B(  4-O ,  5-C ) :   0.9072 B(  5-C ,  6-C ) :   0.8983 B(  5-C ,  7-C ) :   0.9500
B(  5-C , 15-H ) :   0.9090 B(  6-C , 16-H ) :   0.9355 B(  6-C , 17-H ) :   0.9305
B(  6-C , 18-H ) :   0.9354 B(  7-C ,  8-C ) :   1.8095 B(  7-C , 19-H ) :   0.9195
B(  8-C , 20-H ) :   0.9094

MP2 TOTAL ENERGY:     -386.400557502 Eh
FINAL SINGLE POINT ENERGY      -386.400557502017

DIPOLE MOMENT
-------------
                                X             Y             Z
Electronic contribution:      1.31595      -3.89633      -0.63602
Nuclear contribution   :     -1.58955       3.50175       0.77469
                        -----------------------------------------
Total Dipole Moment    :     -0.27360      -0.39458       0.13867
                        -----------------------------------------
Magnitude (a.u.)       :      0.49978
Magnitude (Debye)      :      1.27034

                             ****ORCA TERMINATED NORMALLY****
TOTAL RUN TIME: 0 days 0 hours 18 minutes 30 seconds 990 msec
