                         Program Version 3.0.3 - RELEASE   -
|  1> ! RI-MP2 RIJK def2-TZVP def2-TZVP/C def2-TZVP/JK TIGHTSCF
|  2> % maxcore 2000
|  3> % mp2 density relaxed end
|  4> *xyz 0 1
|  5>  C        0.1386766330     1.4562634865    -0.4406602289
|  6>  C        0.1846706252    -0.0346824027    -0.1818080576
|  7>  C        1.5101930809    -0.7592836179    -0.1541339829
|  8>  C        0.6902334708    -0.6383077443     1.1030575219
|  9>  C        1.1604687431     0.0165254593     2.4233574789
| 10>  C        0.4166285940     1.2574382538     2.9166786777
| 11>  C        0.7632046784    -1.3032776565     3.1577943864
| 12>  C        0.1067608749    -1.8537293064     1.8545489177
| 13>  C       -1.4142958585    -1.9743953599     1.8887190587
| 14>  H        1.0026620836     1.9638207163    -0.0012368663
| 15>  H        0.1518152696     1.6604513111    -1.5174554085
| 16>  H       -0.7649702878     1.9159001448    -0.0260338273
| 17>  H       -0.6332771521    -0.5834963708    -0.6452955670
| 18>  H        1.5900644571    -1.7342845243    -0.6264303155
| 19>  H        2.4095106288    -0.1532551007    -0.2311259264
| 20>  H        2.2375986139     0.2141383397     2.4415121743
| 21>  H       -0.6690424709     1.1182843279     2.8741354423
| 22>  H        0.6828837811     1.4664478127     3.9592948207
| 23>  H        0.6604173219     2.1463905043     2.3278322592
| 24>  H        1.6174529904    -1.8907133422     3.5021623639
| 25>  H        0.0760981740    -1.1693775272     3.9991984075
| 26>  H        0.5348673316    -2.8062276351     1.5227541992
| 27>  H       -1.8833721839    -1.0400115892     2.2153815034
| 28>  H       -1.8209243708    -2.2212171010     0.9016021055
| 29>  H       -1.7253908882    -2.7642275882     2.5819351932
| 30> *
| 31>
| 32>                          ****END OF INPUT****

CARTESIAN COORDINATES (ANGSTROEM)
---------------------------------
  C      0.138677    1.456263   -0.440660
  C      0.184671   -0.034682   -0.181808
  C      1.510193   -0.759284   -0.154134
  C      0.690233   -0.638308    1.103058
  C      1.160469    0.016525    2.423357
  C      0.416629    1.257438    2.916679
  C      0.763205   -1.303278    3.157794
  C      0.106761   -1.853729    1.854549
  C     -1.414296   -1.974395    1.888719
  H      1.002662    1.963821   -0.001237
  H      0.151815    1.660451   -1.517455
  H     -0.764970    1.915900   -0.026034
  H     -0.633277   -0.583496   -0.645296
  H      1.590064   -1.734285   -0.626430
  H      2.409511   -0.153255   -0.231126
  H      2.237599    0.214138    2.441512
  H     -0.669042    1.118284    2.874135
  H      0.682884    1.466448    3.959295
  H      0.660417    2.146391    2.327832
  H      1.617453   -1.890713    3.502162
  H      0.076098   -1.169378    3.999198
  H      0.534867   -2.806228    1.522754
  H     -1.883372   -1.040012    2.215382
  H     -1.820924   -2.221217    0.901602
  H     -1.725391   -2.764228    2.581935

 Total Charge           Charge          ....    0
 Multiplicity           Mult            ....    1
 Number of Electrons    NEL             ....   70
 Basis Dimension        Dim             ....  375

ORBITAL ENERGIES
----------------

  NO   OCC          E(Eh)            E(eV)
   0   2.0000     -11.223646      -305.4109
   1   2.0000     -11.222517      -305.3802
   2   2.0000     -11.221984      -305.3657
   3   2.0000     -11.220031      -305.3126
   4   2.0000     -11.213128      -305.1247
   5   2.0000     -11.212371      -305.1041
   6   2.0000     -11.211029      -305.0676
   7   2.0000     -11.209150      -305.0165
   8   2.0000     -11.208779      -305.0064
   9   2.0000      -1.163855       -31.6701
  10   2.0000      -1.078817       -29.3561
  11   2.0000      -1.000963       -27.2376
  12   2.0000      -0.956092       -26.0166
  13   2.0000      -0.925659       -25.1885
  14   2.0000      -0.825701       -22.4685
  15   2.0000      -0.808319       -21.9955
  16   2.0000      -0.783818       -21.3288
  17   2.0000      -0.693117       -18.8607
  18   2.0000      -0.659624       -17.9493
  19   2.0000      -0.628032       -17.0896
  20   2.0000      -0.598829       -16.2950
  21   2.0000      -0.574292       -15.6273
  22   2.0000      -0.567183       -15.4338
  23   2.0000      -0.561495       -15.2791
  24   2.0000      -0.549874       -14.9628
  25   2.0000      -0.538774       -14.6608
  26   2.0000      -0.526974       -14.3397
  27   2.0000      -0.499267       -13.5857
  28   2.0000      -0.488285       -13.2869
  29   2.0000      -0.483594       -13.1593
  30   2.0000      -0.477733       -12.9998
  31   2.0000      -0.440757       -11.9936
  32   2.0000      -0.411268       -11.1912
  33   2.0000      -0.380814       -10.3625
  34   2.0000      -0.373429       -10.1615
  35   0.0000       0.135314         3.6821
  36   0.0000       0.154335         4.1997
  37   0.0000       0.156420         4.2564
  38   0.0000       0.163833         4.4581
  39   0.0000       0.191844         5.2203

MULLIKEN ATOMIC CHARGES
-----------------------
   0 C :   -0.423512
   1 C :   -0.039564
   2 C :   -0.327910
   3 C :   -0.004180
   4 C :   -0.002426
   5 C :   -0.434150
   6 C :   -0.241411
   7 C :   -0.003699
   8 C :   -0.440984
   9 H :    0.125224
  10 H :    0.137481
  11 H :    0.132800
  12 H :    0.111071
  13 H :    0.125648
  14 H :    0.120502
  15 H :    0.089976
  16 H :    0.124091
  17 H :    0.133961
  18 H :    0.125933
  19 H :    0.115355
  20 H :    0.105207
  21 H :    0.088303
  22 H :    0.124826
  23 H :    0.124489
  24 H :    0.132969
Sum of atomic charges:    0.0000000

LOEWDIN ATOMIC CHARGES
----------------------
   0 C :   -0.294227
   1 C :   -0.215964
   2 C :   -0.191228
   3 C :   -0.171293
   4 C :   -0.207376
   5 C :   -0.294887
   6 C :   -0.187005
   7 C :   -0.210278
   8 C :   -0.296221
   9 H :    0.124931
  10 H :    0.125075
  11 H :    0.123436
  12 H :    0.148730
  13 H :    0.131025
  14 H :    0.133975
  15 H :    0.143286
  16 H :    0.122855
  17 H :    0.123917
  18 H :    0.120174
  19 H :    0.130026
  20 H :    0.130523
  21 H :    0.143065
  22 H :    0.122663
  23 H :    0.121214
  24 H :    0.123583

  Mayer bond orders larger than 0.1
B(  0-C ,  1-C ) :   0.8934 B(  0-C ,  9-H ) :   0.9394 B(  0-C , 10-H ) :   0.9367
B(  0-C , 11-H ) :   0.9424 B(  1-C ,  2-C ) :   0.9237 B(  1-C ,  3-C ) :   0.8258
B(  1-C , 12-H ) :   0.9266 B(  2-C ,  3-C ) :   0.8388 B(  2-C , 13-H ) :   0.9232
B(  2-C , 14-H ) :   0.9233 B(  3-C ,  4-C ) :   0.8740 B(  3-C ,  7-C ) :   0.8662
B(  4-C ,  5-C ) :   0.8860 B(  4-C ,  6-C ) :   0.9596 B(  4-C , 15-H ) :   0.9174
B(  5-C , 16-H ) :   0.9390 B(  5-C , 17-H ) :   0.9375 B(  5-C , 18-H ) :   0.9406
B(  6-C ,  7-C ) :   0.9610 B(  6-C , 19-H ) :   0.9141 B(  6-C , 20-H ) :   0.9236
B(  7-C ,  8-C ) :   0.8866 B(  7-C , 21-H ) :   0.9149 B(  8-C , 22-H ) :   0.9380
B(  8-C , 23-H ) :   0.9418 B(  8-C , 24-H ) :   0.9381

MP2 TOTAL ENERGY:     -351.689205319 Eh
FINAL SINGLE POINT ENERGY      -351.689205319436

DIPOLE MOMENT
-------------
                                X             Y             Z
Electronic contribution:      2.33747      -2.39961      -0.75922
Nuclear contribution   :     -2.33185       2.39822       0.76406
                        -----------------------------------------
Total Dipole Moment    :      0.00561      -0.00139       0.00483
                        -----------------------------------------
Magnitude (a.u.)       :      0.00754
Magnitude (Debye)      :      0.01916

                             ****ORCA TERMINATED NORMALLY****
TOTAL RUN TIME: 0 days 0 hours 22 minutes 51 seconds 779 msec
