                         Program Version 3.0.3 - RELEASE   -
|  1> ! RI-MP2 RIJK def2-TZVP def2-TZVP/C def2-TZVP/JK TIGHTSCF
|  2> % maxcore 2000
|  3> % mp2 density relaxed end
|  4> *xyz 0 1
|  5>  O        0.1275175356     1.3668712051     0.2151484511
|  6>  C        0.0702690449     0.0027485883     0.0260284468
|  7>  C        1.1239792514    -0.8872136583    -0.6044045101
|  8>  C        0.4824511626    -1.9432096616    -1.4868545611
|  9>  C       -0.8203961690    -2.1204626080    -0.7242163696
| 10>  C       -0.5989090901    -1.9216044836     0.7834841218
| 11>  C        0.6974208675    -1.0772976914     0.8599440910
| 12>  C       -1.2479315734    -0.8415716868    -0.0661438369
| 13>  O       -2.5256005236    -0.3385459863    -0.1433981014
| 14>  H        0.0620098355     1.7946708505    -0.6465890648
| 15>  H        2.1062458494    -0.4739374938    -0.8050332653
| 16>  H        0.3204440489    -1.5895642181    -2.5121141615
| 17>  H        1.0691667944    -2.8677603928    -1.5286311162
| 18>  H       -1.5884911193    -2.8171203195    -1.0398059304
| 19>  H       -1.0017255433    -2.5788285396     1.5416132700
| 20>  H        1.3756219135    -0.9953483737     1.6975726348
| 21>  H       -2.6593107750     0.2416464094     0.6153764418
| 22> *
| 23>
| 24>                          ****END OF INPUT****

CARTESIAN COORDINATES (ANGSTROEM)
---------------------------------
  O      0.127518    1.366871    0.215148
  C      0.070269    0.002749    0.026028
  C      1.123979   -0.887214   -0.604405
  C      0.482451   -1.943210   -1.486855
  C     -0.820396   -2.120463   -0.724216
  C     -0.598909   -1.921604    0.783484
  C      0.697421   -1.077298    0.859944
  C     -1.247932   -0.841572   -0.066144
  O     -2.525601   -0.338546   -0.143398
  H      0.062010    1.794671   -0.646589
  H      2.106246   -0.473937   -0.805033
  H      0.320444   -1.589564   -2.512114
  H      1.069167   -2.867760   -1.528631
  H     -1.588491   -2.817120   -1.039806
  H     -1.001726   -2.578829    1.541613
  H      1.375622   -0.995348    1.697573
  H     -2.659311    0.241646    0.615376

 Total Charge           Charge          ....    0
 Multiplicity           Mult            ....    1
 Number of Electrons    NEL             ....   66
 Basis Dimension        Dim             ....  327

ORBITAL ENERGIES
----------------

  NO   OCC          E(Eh)            E(eV)
   0   2.0000     -20.575888      -559.8984
   1   2.0000     -20.572253      -559.7995
   2   2.0000     -11.286812      -307.1298
   3   2.0000     -11.286287      -307.1155
   4   2.0000     -11.233933      -305.6909
   5   2.0000     -11.230862      -305.6073
   6   2.0000     -11.230714      -305.6033
   7   2.0000     -11.229697      -305.5756
   8   2.0000     -11.224941      -305.4462
   9   2.0000      -1.391839       -37.8739
  10   2.0000      -1.375723       -37.4353
  11   2.0000      -1.234246       -33.5855
  12   2.0000      -1.047534       -28.5048
  13   2.0000      -0.994208       -27.0538
  14   2.0000      -0.863305       -23.4917
  15   2.0000      -0.793419       -21.5900
  16   2.0000      -0.771099       -20.9827
  17   2.0000      -0.749650       -20.3990
  18   2.0000      -0.738927       -20.1072
  19   2.0000      -0.654468       -17.8090
  20   2.0000      -0.644182       -17.5291
  21   2.0000      -0.623331       -16.9617
  22   2.0000      -0.610861       -16.6224
  23   2.0000      -0.589489       -16.0408
  24   2.0000      -0.575455       -15.6589
  25   2.0000      -0.539206       -14.6725
  26   2.0000      -0.520101       -14.1527
  27   2.0000      -0.492659       -13.4059
  28   2.0000      -0.489733       -13.3263
  29   2.0000      -0.421334       -11.4651
  30   2.0000      -0.405018       -11.0211
  31   2.0000      -0.378994       -10.3129
  32   2.0000      -0.336893        -9.1673
  33   0.0000       0.132314         3.6004
  34   0.0000       0.154953         4.2165
  35   0.0000       0.164605         4.4791
  36   0.0000       0.178133         4.8473
  37   0.0000       0.185093         5.0366

MULLIKEN ATOMIC CHARGES
-----------------------
   0 O :   -0.455846
   1 C :    0.187578
   2 C :   -0.215926
   3 C :   -0.135988
   4 C :   -0.174625
   5 C :   -0.166803
   6 C :   -0.173427
   7 C :    0.128798
   8 O :   -0.447643
   9 H :    0.333948
  10 H :    0.133508
  11 H :    0.111858
  12 H :    0.109975
  13 H :    0.131793
  14 H :    0.149510
  15 H :    0.147897
  16 H :    0.335395
Sum of atomic charges:   -0.0000000

LOEWDIN ATOMIC CHARGES
----------------------
   0 O :    0.034585
   1 C :   -0.280485
   2 C :   -0.158841
   3 C :   -0.210788
   4 C :   -0.149734
   5 C :   -0.123242
   6 C :   -0.116484
   7 C :   -0.279223
   8 O :    0.040607
   9 H :    0.190036
  10 H :    0.148428
  11 H :    0.141314
  12 H :    0.140691
  13 H :    0.152050
  14 H :    0.138162
  15 H :    0.141430
  16 H :    0.191496

  Mayer bond orders larger than 0.1
B(  0-O ,  1-C ) :   1.0282 B(  0-O ,  9-H ) :   0.8325 B(  1-C ,  2-C ) :   0.8649
B(  1-C ,  6-C ) :   0.9201 B(  1-C ,  7-C ) :   0.9300 B(  2-C ,  3-C ) :   0.9309
B(  2-C ,  6-C ) :   0.8392 B(  2-C , 10-H ) :   0.9210 B(  3-C ,  4-C ) :   0.9453
B(  3-C , 11-H ) :   0.9181 B(  3-C , 12-H ) :   0.9087 B(  4-C ,  5-C ) :   0.8432
B(  4-C ,  7-C ) :   0.8951 B(  4-C , 13-H ) :   0.9176 B(  5-C ,  6-C ) :   0.8648
B(  5-C ,  7-C ) :   0.8644 B(  5-C , 14-H ) :   0.9109 B(  6-C , 15-H ) :   0.9009
B(  7-C ,  8-O ) :   1.0597 B(  8-O , 16-H ) :   0.8315

MP2 TOTAL ENERGY:     -421.068108795 Eh
FINAL SINGLE POINT ENERGY      -421.068108795172

DIPOLE MOMENT
-------------
                                X             Y             Z
Electronic contribution:     -1.98513       2.75226       1.41322
Nuclear contribution   :      2.22986      -2.72009      -1.53314
                        -----------------------------------------
Total Dipole Moment    :      0.24473       0.03217      -0.11992
                        -----------------------------------------
Magnitude (a.u.)       :      0.27442
Magnitude (Debye)      :      0.69753

                             ****ORCA TERMINATED NORMALLY****
TOTAL RUN TIME: 0 days 0 hours 16 minutes 8 seconds 817 msec
