                         Program Version 3.0.3 - RELEASE   -
|  1> ! RI-MP2 RIJK def2-TZVP def2-TZVP/C def2-TZVP/JK TIGHTSCF
|  2> % maxcore 2000
|  3> % mp2 density relaxed end
|  4> *xyz 0 1
|  5>  O        0.0896807448     1.4036621694     0.2065084438
|  6>  C        0.1409900793     0.0225359737    -0.1151953466
|  7>  C       -1.2461439629    -0.5828637901    -0.0927248521
|  8>  C       -1.5318938335    -2.0976148067    -0.1130431842
|  9>  C       -0.8883660069    -2.6739577012     1.1726100894
| 10>  C       -2.1818781718    -2.6300069011     1.9705007114
| 11>  C       -1.1978549190    -1.5096140219     2.1160945324
| 12>  N       -1.9508866664    -0.5378859855     1.2551193907
| 13>  C       -2.7554228544    -1.7813590927     0.8134841863
| 14>  H       -0.5235756065     1.4886905045     0.9466110814
| 15>  H        0.5766861470    -0.0557117251    -1.1178258571
| 16>  H        0.8014875227    -0.5261604596     0.5746335330
| 17>  H       -1.8931052235    -0.0534392749    -0.8022957593
| 18>  H       -1.5693213675    -2.7073594010    -1.0150028812
| 19>  H       -0.0342638773    -3.3268110187     1.2852024732
| 20>  H       -2.6181398662    -3.3053120760     2.6928724340
| 21>  H       -0.5836205430    -1.2106872239     2.9547350428
| 22>  H       -3.7888859148    -1.6493826490     0.5002559120
| 23> *
| 24>
| 25>                          ****END OF INPUT****

CARTESIAN COORDINATES (ANGSTROEM)
---------------------------------
  O      0.089681    1.403662    0.206508
  C      0.140990    0.022536   -0.115195
  C     -1.246144   -0.582864   -0.092725
  C     -1.531894   -2.097615   -0.113043
  C     -0.888366   -2.673958    1.172610
  C     -2.181878   -2.630007    1.970501
  C     -1.197855   -1.509614    2.116095
  N     -1.950887   -0.537886    1.255119
  C     -2.755423   -1.781359    0.813484
  H     -0.523576    1.488691    0.946611
  H      0.576686   -0.055712   -1.117826
  H      0.801488   -0.526160    0.574634
  H     -1.893105   -0.053439   -0.802296
  H     -1.569321   -2.707359   -1.015003
  H     -0.034264   -3.326811    1.285202
  H     -2.618140   -3.305312    2.692872
  H     -0.583621   -1.210687    2.954735
  H     -3.788886   -1.649383    0.500256

 Total Charge           Charge          ....    0
 Multiplicity           Mult            ....    1
 Number of Electrons    NEL             ....   66
 Basis Dimension        Dim             ....  333

ORBITAL ENERGIES
----------------

  NO   OCC          E(Eh)            E(eV)
   0   2.0000     -20.547104      -559.1151
   1   2.0000     -15.561279      -423.4439
   2   2.0000     -11.275992      -306.8353
   3   2.0000     -11.270593      -306.6884
   4   2.0000     -11.266230      -306.5697
   5   2.0000     -11.256908      -306.3160
   6   2.0000     -11.246814      -306.0414
   7   2.0000     -11.245684      -306.0106
   8   2.0000     -11.244673      -305.9831
   9   2.0000      -1.354271       -36.8516
  10   2.0000      -1.319006       -35.8920
  11   2.0000      -1.098427       -29.8897
  12   2.0000      -1.008102       -27.4318
  13   2.0000      -0.961468       -26.1629
  14   2.0000      -0.890259       -24.2252
  15   2.0000      -0.805148       -21.9092
  16   2.0000      -0.760333       -20.6897
  17   2.0000      -0.728172       -19.8146
  18   2.0000      -0.707836       -19.2612
  19   2.0000      -0.686978       -18.6936
  20   2.0000      -0.648748       -17.6533
  21   2.0000      -0.617435       -16.8013
  22   2.0000      -0.598671       -16.2907
  23   2.0000      -0.568173       -15.4608
  24   2.0000      -0.552654       -15.0385
  25   2.0000      -0.539209       -14.6726
  26   2.0000      -0.487381       -13.2623
  27   2.0000      -0.481353       -13.0983
  28   2.0000      -0.446192       -12.1415
  29   2.0000      -0.441015       -12.0006
  30   2.0000      -0.415558       -11.3079
  31   2.0000      -0.390325       -10.6213
  32   2.0000      -0.360283        -9.8038
  33   0.0000       0.143000         3.8912
  34   0.0000       0.157081         4.2744
  35   0.0000       0.161284         4.3888
  36   0.0000       0.165967         4.5162
  37   0.0000       0.188026         5.1164

MULLIKEN ATOMIC CHARGES
-----------------------
   0 O :   -0.477547
   1 C :   -0.016342
   2 C :   -0.121754
   3 C :   -0.003005
   4 C :   -0.236648
   5 C :   -0.224572
   6 C :   -0.012941
   7 N :   -0.227053
   8 C :   -0.051667
   9 H :    0.326414
  10 H :    0.110478
  11 H :    0.104888
  12 H :    0.112335
  13 H :    0.132602
  14 H :    0.145726
  15 H :    0.151418
  16 H :    0.143556
  17 H :    0.144112
Sum of atomic charges:   -0.0000000

LOEWDIN ATOMIC CHARGES
----------------------
   0 O :   -0.047574
   1 C :   -0.327008
   2 C :   -0.256455
   3 C :   -0.150500
   4 C :   -0.151554
   5 C :   -0.138704
   6 C :   -0.192397
   7 N :    0.125806
   8 C :   -0.121416
   9 H :    0.177999
  10 H :    0.131230
  11 H :    0.122695
  12 H :    0.153993
  13 H :    0.136717
  14 H :    0.137528
  15 H :    0.134055
  16 H :    0.134634
  17 H :    0.130952

  Mayer bond orders larger than 0.1
B(  0-O ,  1-C ) :   0.9257 B(  0-O ,  9-H ) :   0.8337 B(  1-C ,  2-C ) :   0.9615
B(  1-C , 10-H ) :   0.9278 B(  1-C , 11-H ) :   0.9166 B(  2-C ,  3-C ) :   0.9158
B(  2-C ,  7-N ) :   0.9100 B(  2-C , 12-H ) :   0.9212 B(  3-C ,  4-C ) :   0.8593
B(  3-C ,  8-C ) :   0.9438 B(  3-C , 13-H ) :   0.9131 B(  4-C ,  5-C ) :   0.8532
B(  4-C ,  6-C ) :   0.8709 B(  4-C , 14-H ) :   0.9272 B(  5-C ,  6-C ) :   0.8631
B(  5-C ,  8-C ) :   0.9479 B(  5-C , 15-H ) :   0.9099 B(  6-C ,  7-N ) :   0.8862
B(  6-C , 16-H ) :   0.9291 B(  7-N ,  8-C ) :   0.9671 B(  8-C , 17-H ) :   0.8942

MP2 TOTAL ENERGY:     -401.157524482 Eh
FINAL SINGLE POINT ENERGY      -401.157524482329

DIPOLE MOMENT
-------------
                                X             Y             Z
Electronic contribution:     -1.57196       0.43109       1.00606
Nuclear contribution   :      1.37450      -1.57768      -0.94307
                        -----------------------------------------
Total Dipole Moment    :     -0.19746      -1.14659       0.06299
                        -----------------------------------------
Magnitude (a.u.)       :      1.16517
Magnitude (Debye)      :      2.96163

                             ****ORCA TERMINATED NORMALLY****
TOTAL RUN TIME: 0 days 0 hours 16 minutes 58 seconds 629 msec
