                         Program Version 3.0.3 - RELEASE   -
|  1> ! RI-MP2 RIJK def2-TZVP def2-TZVP/C def2-TZVP/JK TIGHTSCF
|  2> % maxcore 2000
|  3> % mp2 density relaxed end
|  4> *xyz 0 1
|  5>  C        0.0096389288     1.4872675799     0.0882996009
|  6>  C        0.0109975150     0.0000290811    -0.0454467033
|  7>  C       -0.0382268466    -0.8041474551    -1.1685481411
|  8>  C       -0.0456348244    -2.1538916885    -0.7165578802
|  9>  C        0.0024585617    -2.1324295260     0.6503986061
| 10>  C        0.0832502452    -3.4775902079     1.2957417174
| 11>  C       -0.2695298529    -4.3946590432     0.0775976120
| 12>  C       -0.0137256320    -3.5677966755    -1.2264509867
| 13>  N        0.0464134232    -0.8274309672     1.0658491344
| 14>  H        0.8932766749     1.8587744303     0.6234222475
| 15>  H        0.0093483027     1.9470144326    -0.9027671899
| 16>  H       -0.8738239121     1.8596046811     0.6236451321
| 17>  H       -0.0726671995    -0.4398653631    -2.1849690998
| 18>  H        1.0894621468    -3.6924442251     1.6846046327
| 19>  H       -0.6122044084    -3.6285358810     2.1302985418
| 20>  H        0.2912406594    -5.3330268305     0.0943585462
| 21>  H       -1.3313156255    -4.6536221727     0.1310683081
| 22>  H       -0.7673419176    -3.7884439644    -1.9909020774
| 23>  H        0.9594438736    -3.8188326069    -1.6711291726
| 24>  H        0.0631637576    -0.5038865380     2.0175257320
| 25> *
| 26>
| 27>                          ****END OF INPUT****

CARTESIAN COORDINATES (ANGSTROEM)
---------------------------------
  C      0.009639    1.487268    0.088300
  C      0.010998    0.000029   -0.045447
  C     -0.038227   -0.804147   -1.168548
  C     -0.045635   -2.153892   -0.716558
  C      0.002459   -2.132430    0.650399
  C      0.083250   -3.477590    1.295742
  C     -0.269530   -4.394659    0.077598
  C     -0.013726   -3.567797   -1.226451
  N      0.046413   -0.827431    1.065849
  H      0.893277    1.858774    0.623422
  H      0.009348    1.947014   -0.902767
  H     -0.873824    1.859605    0.623645
  H     -0.072667   -0.439865   -2.184969
  H      1.089462   -3.692444    1.684605
  H     -0.612204   -3.628536    2.130299
  H      0.291241   -5.333027    0.094359
  H     -1.331316   -4.653622    0.131068
  H     -0.767342   -3.788444   -1.990902
  H      0.959444   -3.818833   -1.671129
  H      0.063164   -0.503887    2.017526

 Total Charge           Charge          ....    0
 Multiplicity           Mult            ....    1
 Number of Electrons    NEL             ....   66
 Basis Dimension        Dim             ....  345

ORBITAL ENERGIES
----------------

  NO   OCC          E(Eh)            E(eV)
   0   2.0000     -15.590164      -424.2299
   1   2.0000     -11.250482      -306.1412
   2   2.0000     -11.231211      -305.6168
   3   2.0000     -11.227714      -305.5216
   4   2.0000     -11.226611      -305.4916
   5   2.0000     -11.219188      -305.2896
   6   2.0000     -11.216282      -305.2105
   7   2.0000     -11.197173      -304.6906
   8   2.0000     -11.190962      -304.5215
   9   2.0000      -1.279763       -34.8241
  10   2.0000      -1.104227       -30.0475
  11   2.0000      -1.033626       -28.1264
  12   2.0000      -0.992726       -27.0134
  13   2.0000      -0.939078       -25.5536
  14   2.0000      -0.892207       -24.2782
  15   2.0000      -0.793150       -21.5827
  16   2.0000      -0.763586       -20.7782
  17   2.0000      -0.726588       -19.7715
  18   2.0000      -0.678034       -18.4502
  19   2.0000      -0.633081       -17.2270
  20   2.0000      -0.587191       -15.9783
  21   2.0000      -0.582389       -15.8476
  22   2.0000      -0.561760       -15.2863
  23   2.0000      -0.553155       -15.0521
  24   2.0000      -0.548832       -14.9345
  25   2.0000      -0.527694       -14.3593
  26   2.0000      -0.512524       -13.9465
  27   2.0000      -0.488699       -13.2982
  28   2.0000      -0.473102       -12.8738
  29   2.0000      -0.469238       -12.7686
  30   2.0000      -0.465300       -12.6615
  31   2.0000      -0.332268        -9.0415
  32   2.0000      -0.268208        -7.2983
  33   0.0000       0.130443         3.5495
  34   0.0000       0.147267         4.0073
  35   0.0000       0.164578         4.4784
  36   0.0000       0.168828         4.5940
  37   0.0000       0.180523         4.9123

MULLIKEN ATOMIC CHARGES
-----------------------
   0 C :   -0.460342
   1 C :    0.218766
   2 C :   -0.365756
   3 C :    0.050164
   4 C :    0.039170
   5 C :   -0.216212
   6 C :   -0.216832
   7 C :   -0.199480
   8 N :   -0.316627
   9 H :    0.139035
  10 H :    0.148116
  11 H :    0.139059
  12 H :    0.116991
  13 H :    0.111529
  14 H :    0.119429
  15 H :    0.119809
  16 H :    0.109383
  17 H :    0.118958
  18 H :    0.108687
  19 H :    0.236152
Sum of atomic charges:    0.0000000

LOEWDIN ATOMIC CHARGES
----------------------
   0 C :   -0.286731
   1 C :   -0.248829
   2 C :   -0.159120
   3 C :   -0.162818
   4 C :   -0.212453
   5 C :   -0.223756
   6 C :   -0.222719
   7 C :   -0.215772
   8 N :    0.209007
   9 H :    0.127142
  10 H :    0.137361
  11 H :    0.127035
  12 H :    0.137862
  13 H :    0.136309
  14 H :    0.133933
  15 H :    0.127712
  16 H :    0.135830
  17 H :    0.134578
  18 H :    0.135936
  19 H :    0.189494

  Mayer bond orders larger than 0.1
B(  0-C ,  1-C ) :   0.8499 B(  0-C ,  9-H ) :   0.9391 B(  0-C , 10-H ) :   0.9549
B(  0-C , 11-H ) :   0.9351 B(  1-C ,  2-C ) :   1.4782 B(  1-C ,  8-N ) :   1.0949
B(  2-C ,  3-C ) :   1.2474 B(  2-C , 12-H ) :   0.9348 B(  3-C ,  4-C ) :   1.4400
B(  3-C ,  7-C ) :   0.9095 B(  4-C ,  5-C ) :   0.9288 B(  4-C ,  8-N ) :   1.1259
B(  5-C ,  6-C ) :   0.9500 B(  5-C , 13-H ) :   0.9052 B(  5-C , 14-H ) :   0.9278
B(  6-C ,  7-C ) :   0.9592 B(  6-C , 15-H ) :   0.9407 B(  6-C , 16-H ) :   0.9274
B(  7-C , 17-H ) :   0.9353 B(  7-C , 18-H ) :   0.9044 B(  8-N , 19-H ) :   0.8743

MP2 TOTAL ENERGY:     -365.399361735 Eh
FINAL SINGLE POINT ENERGY      -365.399361735049

DIPOLE MOMENT
-------------
                                X             Y             Z
Electronic contribution:      0.12087       1.06533       0.39615
Nuclear contribution   :     -0.08777      -0.83228       0.27638
                        -----------------------------------------
Total Dipole Moment    :      0.03310       0.23305       0.67254
                        -----------------------------------------
Magnitude (a.u.)       :      0.71254
Magnitude (Debye)      :      1.81113

                             ****ORCA TERMINATED NORMALLY****
TOTAL RUN TIME: 0 days 0 hours 18 minutes 12 seconds 913 msec
