                         Program Version 3.0.3 - RELEASE   -
|  1> ! RI-MP2 RIJK def2-TZVP def2-TZVP/C def2-TZVP/JK TIGHTSCF
|  2> % maxcore 2000
|  3> % mp2 density relaxed end
|  4> *xyz 0 1
|  5>  C        0.0389534185     1.4934919876    -0.0861486396
|  6>  C       -0.0581126570    -0.0038820253    -0.0222356904
|  7>  O        0.4189076400    -0.6760007954    -1.2031456781
|  8>  C       -0.4755852225    -1.7860987035    -0.8764133014
|  9>  C        0.3390031764    -2.8135225523    -0.0952393365
| 10>  C        1.1623159174    -2.0194238866     0.9515946477
| 11>  C        0.3841583815    -0.7469475051     1.3163892582
| 12>  C       -1.1144425846    -1.0959426876     1.5603574374
| 13>  C       -1.3384307822    -0.8657920052     0.0563568945
| 14>  H        1.0891226201     1.8053232139    -0.1201050838
| 15>  H       -0.4613626706     1.8769389881    -0.9803413972
| 16>  H       -0.4201334462     1.9493276345     0.7970618703
| 17>  H       -0.9621605182    -2.1837718244    -1.7705492737
| 18>  H       -0.3297918562    -3.5408487701     0.3791235210
| 19>  H        0.9947161860    -3.3719309327    -0.7702757283
| 20>  H        1.3558408021    -2.6224966611     1.8448635104
| 21>  H        2.1308850078    -1.7439279015     0.5254826091
| 22>  H        0.8943643286    -0.1440344099     2.0711684360
| 23>  H       -1.3396676654    -2.0769572544     1.9898161186
| 24>  H       -1.6319055713    -0.3316100144     2.1471641339
| 25>  H       -2.3065521841    -0.5574505146    -0.3413791181
| 26> *
| 27>
| 28>                          ****END OF INPUT****

CARTESIAN COORDINATES (ANGSTROEM)
---------------------------------
  C      0.038953    1.493492   -0.086149
  C     -0.058113   -0.003882   -0.022236
  O      0.418908   -0.676001   -1.203146
  C     -0.475585   -1.786099   -0.876413
  C      0.339003   -2.813523   -0.095239
  C      1.162316   -2.019424    0.951595
  C      0.384158   -0.746948    1.316389
  C     -1.114443   -1.095943    1.560357
  C     -1.338431   -0.865792    0.056357
  H      1.089123    1.805323   -0.120105
  H     -0.461363    1.876939   -0.980341
  H     -0.420133    1.949328    0.797062
  H     -0.962161   -2.183772   -1.770549
  H     -0.329792   -3.540849    0.379124
  H      0.994716   -3.371931   -0.770276
  H      1.355841   -2.622497    1.844864
  H      2.130885   -1.743928    0.525483
  H      0.894364   -0.144034    2.071168
  H     -1.339668   -2.076957    1.989816
  H     -1.631906   -0.331610    2.147164
  H     -2.306552   -0.557451   -0.341379

 Total Charge           Charge          ....    0
 Multiplicity           Mult            ....    1
 Number of Electrons    NEL             ....   68
 Basis Dimension        Dim             ....  351

ORBITAL ENERGIES
----------------

  NO   OCC          E(Eh)            E(eV)
   0   2.0000     -20.536738      -558.8331
   1   2.0000     -11.280646      -306.9620
   2   2.0000     -11.279184      -306.9222
   3   2.0000     -11.226972      -305.5014
   4   2.0000     -11.225690      -305.4666
   5   2.0000     -11.222713      -305.3855
   6   2.0000     -11.219193      -305.2898
   7   2.0000     -11.218224      -305.2634
   8   2.0000     -11.215590      -305.1917
   9   2.0000      -1.376876       -37.4667
  10   2.0000      -1.131657       -30.7940
  11   2.0000      -1.040715       -28.3193
  12   2.0000      -0.988287       -26.8927
  13   2.0000      -0.957818       -26.0635
  14   2.0000      -0.858613       -23.3641
  15   2.0000      -0.810157       -22.0455
  16   2.0000      -0.798499       -21.7283
  17   2.0000      -0.692848       -18.8533
  18   2.0000      -0.662715       -18.0334
  19   2.0000      -0.656073       -17.8527
  20   2.0000      -0.629064       -17.1177
  21   2.0000      -0.601287       -16.3619
  22   2.0000      -0.570110       -15.5135
  23   2.0000      -0.563272       -15.3274
  24   2.0000      -0.544928       -14.8282
  25   2.0000      -0.535487       -14.5713
  26   2.0000      -0.517228       -14.0745
  27   2.0000      -0.505599       -13.7580
  28   2.0000      -0.494502       -13.4561
  29   2.0000      -0.471910       -12.8413
  30   2.0000      -0.440611       -11.9896
  31   2.0000      -0.421464       -11.4686
  32   2.0000      -0.407543       -11.0898
  33   2.0000      -0.375835       -10.2270
  34   0.0000       0.134831         3.6689
  35   0.0000       0.152392         4.1468
  36   0.0000       0.166501         4.5307
  37   0.0000       0.172197         4.6857
  38   0.0000       0.186254         5.0682

MULLIKEN ATOMIC CHARGES
-----------------------
   0 C :   -0.446663
   1 C :    0.166749
   2 O :   -0.330687
   3 C :    0.016988
   4 C :   -0.213015
   5 C :   -0.293811
   6 C :    0.038622
   7 C :   -0.327998
   8 C :   -0.070824
   9 H :    0.139920
  10 H :    0.138299
  11 H :    0.131724
  12 H :    0.110548
  13 H :    0.113475
  14 H :    0.121999
  15 H :    0.120830
  16 H :    0.115374
  17 H :    0.114797
  18 H :    0.116280
  19 H :    0.121986
  20 H :    0.115408
Sum of atomic charges:    0.0000000

LOEWDIN ATOMIC CHARGES
----------------------
   0 C :   -0.270628
   1 C :   -0.291029
   2 O :    0.174414
   3 C :   -0.228834
   4 C :   -0.239878
   5 C :   -0.232658
   6 C :   -0.175437
   7 C :   -0.204945
   8 C :   -0.153214
   9 H :    0.133596
  10 H :    0.130505
  11 H :    0.132282
  12 H :    0.132453
  13 H :    0.138778
  14 H :    0.139633
  15 H :    0.136334
  16 H :    0.142454
  17 H :    0.137811
  18 H :    0.127037
  19 H :    0.137732
  20 H :    0.133594

  Mayer bond orders larger than 0.1
B(  0-C ,  1-C ) :   0.8491 B(  0-C ,  9-H ) :   0.9398 B(  0-C , 10-H ) :   0.9454
B(  0-C , 11-H ) :   0.9371 B(  1-C ,  2-O ) :   0.9712 B(  1-C ,  6-C ) :   0.8305
B(  1-C ,  8-C ) :   0.8901 B(  2-O ,  3-C ) :   0.9511 B(  3-C ,  4-C ) :   0.9387
B(  3-C ,  8-C ) :   0.9390 B(  3-C , 12-H ) :   0.9157 B(  4-C ,  5-C ) :   0.9673
B(  4-C , 13-H ) :   0.9102 B(  4-C , 14-H ) :   0.9170 B(  5-C ,  6-C ) :   0.8801
B(  5-C , 15-H ) :   0.9303 B(  5-C , 16-H ) :   0.9155 B(  6-C ,  7-C ) :   0.9194
B(  6-C , 17-H ) :   0.9160 B(  7-C ,  8-C ) :   0.9568 B(  7-C , 18-H ) :   0.9169
B(  7-C , 19-H ) :   0.9279 B(  8-C , 20-H ) :   0.9203

MP2 TOTAL ENERGY:     -386.406336881 Eh
FINAL SINGLE POINT ENERGY      -386.406336881156

DIPOLE MOMENT
-------------
                                X             Y             Z
Electronic contribution:     -0.08629      -0.35548      -3.05696
Nuclear contribution   :     -0.27949       0.25399       3.55863
                        -----------------------------------------
Total Dipole Moment    :     -0.36579      -0.10149       0.50167
                        -----------------------------------------
Magnitude (a.u.)       :      0.62910
Magnitude (Debye)      :      1.59905

                             ****ORCA TERMINATED NORMALLY****
TOTAL RUN TIME: 0 days 0 hours 21 minutes 29 seconds 22 msec
