                         Program Version 3.0.3 - RELEASE   -
|  1> ! RI-MP2 RIJK def2-TZVP def2-TZVP/C def2-TZVP/JK TIGHTSCF
|  2> % maxcore 2000
|  3> % mp2 density relaxed end
|  4> *xyz 0 1
|  5>  O       -0.2025973995     1.4693441342     0.1485231002
|  6>  C       -0.0362872141     0.0638503027     0.2544176360
|  7>  C       -1.4073648919    -0.5580054232     0.0143002973
|  8>  C       -1.9469619642    -0.3330830864    -1.4245675975
|  9>  O       -2.1322374984    -1.6222514972    -2.0017128720
| 10>  C       -2.4442088385    -2.5021913016    -0.9396792939
| 11>  C       -1.4683182731    -2.1111136822     0.1850265272
| 12>  C       -0.1265826371    -2.7790683579    -0.0440782052
| 13>  O        0.6058834250    -3.1554273417     0.8360762855
| 14>  H        0.6554125277     1.8862436579     0.2702383989
| 15>  H        0.6850697714    -0.3070025145    -0.4920186554
| 16>  H        0.3408484855    -0.2283486018     1.2458198227
| 17>  H       -2.0917385314    -0.1036736088     0.7367731067
| 18>  H       -2.8996401526     0.2140854269    -1.3989825158
| 19>  H       -1.2509514820     0.2244901409    -2.0562093800
| 20>  H       -3.4865387036    -2.3829508500    -0.6019571649
| 21>  H       -2.3150052292    -3.5264823046    -1.3029029702
| 22>  H       -1.8122943860    -2.3870501782     1.1843352657
| 23>  H        0.1463918920    -2.9085683747    -1.1162717653
| 24> *
| 25>
| 26>                          ****END OF INPUT****

CARTESIAN COORDINATES (ANGSTROEM)
---------------------------------
  O     -0.202597    1.469344    0.148523
  C     -0.036287    0.063850    0.254418
  C     -1.407365   -0.558005    0.014300
  C     -1.946962   -0.333083   -1.424568
  O     -2.132237   -1.622251   -2.001713
  C     -2.444209   -2.502191   -0.939679
  C     -1.468318   -2.111114    0.185027
  C     -0.126583   -2.779068   -0.044078
  O      0.605883   -3.155427    0.836076
  H      0.655413    1.886244    0.270238
  H      0.685070   -0.307003   -0.492019
  H      0.340848   -0.228349    1.245820
  H     -2.091739   -0.103674    0.736773
  H     -2.899640    0.214085   -1.398983
  H     -1.250951    0.224490   -2.056209
  H     -3.486539   -2.382951   -0.601957
  H     -2.315005   -3.526482   -1.302903
  H     -1.812294   -2.387050    1.184335
  H      0.146392   -2.908568   -1.116272

 Total Charge           Charge          ....    0
 Multiplicity           Mult            ....    1
 Number of Electrons    NEL             ....   70
 Basis Dimension        Dim             ....  339

ORBITAL ENERGIES
----------------

  NO   OCC          E(Eh)            E(eV)
   0   2.0000     -20.568823      -559.7061
   1   2.0000     -20.565830      -559.6247
   2   2.0000     -20.560771      -559.4870
   3   2.0000     -11.334226      -308.4200
   4   2.0000     -11.291865      -307.2673
   5   2.0000     -11.289753      -307.2098
   6   2.0000     -11.280456      -306.9568
   7   2.0000     -11.252182      -306.1874
   8   2.0000     -11.250473      -306.1409
   9   2.0000      -1.400680       -38.1144
  10   2.0000      -1.392572       -37.8938
  11   2.0000      -1.373534       -37.3758
  12   2.0000      -1.100438       -29.9444
  13   2.0000      -1.025634       -27.9089
  14   2.0000      -0.926824       -25.2202
  15   2.0000      -0.880336       -23.9552
  16   2.0000      -0.814714       -22.1695
  17   2.0000      -0.775222       -21.0949
  18   2.0000      -0.720431       -19.6039
  19   2.0000      -0.699766       -19.0416
  20   2.0000      -0.681330       -18.5399
  21   2.0000      -0.657299       -17.8860
  22   2.0000      -0.639544       -17.4029
  23   2.0000      -0.627636       -17.0789
  24   2.0000      -0.611295       -16.6342
  25   2.0000      -0.574519       -15.6335
  26   2.0000      -0.551671       -15.0117
  27   2.0000      -0.544950       -14.8288
  28   2.0000      -0.513381       -13.9698
  29   2.0000      -0.508260       -13.8305
  30   2.0000      -0.494469       -13.4552
  31   2.0000      -0.478529       -13.0214
  32   2.0000      -0.453819       -12.3490
  33   2.0000      -0.433908       -11.8072
  34   2.0000      -0.414487       -11.2788
  35   0.0000       0.124521         3.3884
  36   0.0000       0.128928         3.5083
  37   0.0000       0.138151         3.7593
  38   0.0000       0.162446         4.4204
  39   0.0000       0.174877         4.7587

MULLIKEN ATOMIC CHARGES
-----------------------
   0 O :   -0.469091
   1 C :   -0.104115
   2 C :   -0.071989
   3 C :   -0.079764
   4 O :   -0.314904
   5 C :   -0.075910
   6 C :    0.048208
   7 C :   -0.042349
   8 O :   -0.255237
   9 H :    0.321093
  10 H :    0.107948
  11 H :    0.123982
  12 H :    0.111585
  13 H :    0.099182
  14 H :    0.129517
  15 H :    0.106931
  16 H :    0.133030
  17 H :    0.120837
  18 H :    0.111048
Sum of atomic charges:   -0.0000000

LOEWDIN ATOMIC CHARGES
----------------------
   0 O :   -0.040418
   1 C :   -0.334188
   2 C :   -0.222819
   3 C :   -0.271154
   4 O :    0.152879
   5 C :   -0.291357
   6 C :   -0.222941
   7 C :   -0.279939
   8 O :    0.133099
   9 H :    0.175183
  10 H :    0.122949
  11 H :    0.125329
  12 H :    0.159309
  13 H :    0.122812
  14 H :    0.132809
  15 H :    0.125726
  16 H :    0.132858
  17 H :    0.159966
  18 H :    0.119897

  Mayer bond orders larger than 0.1
B(  0-O ,  1-C ) :   1.0034 B(  0-O ,  9-H ) :   0.8461 B(  1-C ,  2-C ) :   0.9337
B(  1-C , 10-H ) :   0.9150 B(  1-C , 11-H ) :   0.9315 B(  2-C ,  3-C ) :   0.9262
B(  2-C ,  6-C ) :   0.8760 B(  2-C , 12-H ) :   0.9133 B(  3-C ,  4-O ) :   0.9359
B(  3-C , 13-H ) :   0.9286 B(  3-C , 14-H ) :   0.9172 B(  4-O ,  5-C ) :   0.9142
B(  5-C ,  6-C ) :   0.9023 B(  5-C , 15-H ) :   0.9173 B(  5-C , 16-H ) :   0.9283
B(  6-C ,  7-C ) :   0.7838 B(  6-C , 17-H ) :   0.8993 B(  6-C , 18-H ) :  -0.1033
B(  7-C ,  8-O ) :   1.9883 B(  7-C , 18-H ) :   0.9535

MP2 TOTAL ENERGY:     -459.433363125 Eh
FINAL SINGLE POINT ENERGY      -459.433363125483

DIPOLE MOMENT
-------------
                                X             Y             Z
Electronic contribution:      1.79177      -2.28626       0.27837
Nuclear contribution   :     -1.96525       2.69960      -0.19110
                        -----------------------------------------
Total Dipole Moment    :     -0.17348       0.41334       0.08726
                        -----------------------------------------
Magnitude (a.u.)       :      0.45668
Magnitude (Debye)      :      1.16079

                             ****ORCA TERMINATED NORMALLY****
TOTAL RUN TIME: 0 days 0 hours 18 minutes 56 seconds 949 msec
