                         Program Version 3.0.3 - RELEASE   -
|  1> ! RI-MP2 RIJK def2-TZVP def2-TZVP/C def2-TZVP/JK TIGHTSCF
|  2> % maxcore 2000
|  3> % mp2 density relaxed end
|  4> *xyz 0 1
|  5>  N        0.1668153733     1.4282512560    -0.1288765126
|  6>  C        0.0084235551     0.0421355029    -0.0632146727
|  7>  C       -1.1110256117    -0.7844198291    -0.0947068437
|  8>  O       -2.3869052501    -0.3413178235    -0.1461704826
|  9>  N       -0.7727900624    -2.0828749969    -0.0804561338
| 10>  C        0.5603219165    -2.1100315509    -0.0337231764
| 11>  N        1.0607222646    -0.8283989822    -0.0320708410
| 12>  C        1.4429742995    -3.2605349546     0.0237362738
| 13>  O        1.1023110606    -4.4218944899     0.0098131056
| 14>  H        0.4763969474     1.8397100512     0.7469454260
| 15>  H       -0.7058554776     1.8689823605    -0.3946063593
| 16>  H       -2.9506953404    -1.1236625243    -0.1887050883
| 17>  H        2.0330591591    -0.5641796453    -0.0562364624
| 18>  H        2.5211255961    -2.9717412940     0.0812502975
| 19> *
| 20>
| 21>                          ****END OF INPUT****

CARTESIAN COORDINATES (ANGSTROEM)
---------------------------------
  N      0.166815    1.428251   -0.128877
  C      0.008424    0.042136   -0.063215
  C     -1.111026   -0.784420   -0.094707
  O     -2.386905   -0.341318   -0.146170
  N     -0.772790   -2.082875   -0.080456
  C      0.560322   -2.110032   -0.033723
  N      1.060722   -0.828399   -0.032071
  C      1.442974   -3.260535    0.023736
  O      1.102311   -4.421894    0.009813
  H      0.476397    1.839710    0.746945
  H     -0.705855    1.868982   -0.394606
  H     -2.950695   -1.123663   -0.188705
  H      2.033059   -0.564180   -0.056236
  H      2.521126   -2.971741    0.081250

 Total Charge           Charge          ....    0
 Multiplicity           Mult            ....    1
 Number of Electrons    NEL             ....   66
 Basis Dimension        Dim             ....  309

ORBITAL ENERGIES
----------------

  NO   OCC          E(Eh)            E(eV)
   0   2.0000     -20.595907      -560.4431
   1   2.0000     -20.555010      -559.3302
   2   2.0000     -15.646487      -425.7626
   3   2.0000     -15.589240      -424.2048
   4   2.0000     -15.573840      -423.7857
   5   2.0000     -11.342115      -308.6346
   6   2.0000     -11.319050      -308.0070
   7   2.0000     -11.315565      -307.9122
   8   2.0000     -11.308509      -307.7202
   9   2.0000      -1.426354       -38.8131
  10   2.0000      -1.392774       -37.8993
  11   2.0000      -1.359975       -37.0068
  12   2.0000      -1.232941       -33.5500
  13   2.0000      -1.182041       -32.1650
  14   2.0000      -1.025258       -27.8987
  15   2.0000      -0.911025       -24.7903
  16   2.0000      -0.838217       -22.8090
  17   2.0000      -0.809044       -22.0152
  18   2.0000      -0.765809       -20.8387
  19   2.0000      -0.709615       -19.3096
  20   2.0000      -0.686779       -18.6882
  21   2.0000      -0.669739       -18.2245
  22   2.0000      -0.661004       -17.9868
  23   2.0000      -0.636759       -17.3271
  24   2.0000      -0.626778       -17.0555
  25   2.0000      -0.580117       -15.7858
  26   2.0000      -0.575731       -15.6664
  27   2.0000      -0.531546       -14.4641
  28   2.0000      -0.495102       -13.4724
  29   2.0000      -0.458586       -12.4787
  30   2.0000      -0.436925       -11.8893
  31   2.0000      -0.412307       -11.2194
  32   2.0000      -0.296894        -8.0789
  33   0.0000       0.072111         1.9622
  34   0.0000       0.111021         3.0210
  35   0.0000       0.131083         3.5670
  36   0.0000       0.155007         4.2179
  37   0.0000       0.189465         5.1556

MULLIKEN ATOMIC CHARGES
-----------------------
   0 N :   -0.533370
   1 C :    0.135194
   2 C :    0.225061
   3 O :   -0.453387
   4 N :   -0.281947
   5 C :    0.247936
   6 N :   -0.271785
   7 C :    0.001064
   8 O :   -0.267912
   9 H :    0.263307
  10 H :    0.271832
  11 H :    0.351168
  12 H :    0.257355
  13 H :    0.055483
Sum of atomic charges:   -0.0000000

LOEWDIN ATOMIC CHARGES
----------------------
   0 N :   -0.095916
   1 C :   -0.310426
   2 C :   -0.387846
   3 O :    0.063752
   4 N :    0.142750
   5 C :   -0.330482
   6 N :    0.235352
   7 C :   -0.313256
   8 O :    0.128273
   9 H :    0.171926
  10 H :    0.181172
  11 H :    0.204486
  12 H :    0.201337
  13 H :    0.108878

  Mayer bond orders larger than 0.1
B(  0-N ,  1-C ) :   1.0600 B(  0-N ,  9-H ) :   0.8666 B(  0-N , 10-H ) :   0.8782
B(  1-C ,  2-C ) :   1.3589 B(  1-C ,  6-N ) :   1.1679 B(  2-C ,  3-O ) :   1.1137
B(  2-C ,  4-N ) :   1.3611 B(  3-O , 11-H ) :   0.8143 B(  4-N ,  5-C ) :   1.4181
B(  5-C ,  6-N ) :   1.0973 B(  5-C ,  7-C ) :   0.8239 B(  5-C ,  8-O ) :  -0.1173
B(  5-C , 13-H ) :  -0.1428 B(  6-N , 12-H ) :   0.8546 B(  7-C ,  8-O ) :   2.0310
B(  7-C , 13-H ) :   1.0136

MP2 TOTAL ENERGY:     -469.299292551 Eh
FINAL SINGLE POINT ENERGY      -469.299292551325

DIPOLE MOMENT
-------------
                                X             Y             Z
Electronic contribution:     -0.83957      -3.35570      -0.11541
Nuclear contribution   :      1.34636       5.41565       0.44904
                        -----------------------------------------
Total Dipole Moment    :      0.50678       2.05995       0.33363
                        -----------------------------------------
Magnitude (a.u.)       :      2.14745
Magnitude (Debye)      :      5.45837

                             ****ORCA TERMINATED NORMALLY****
TOTAL RUN TIME: 0 days 0 hours 13 minutes 38 seconds 310 msec
