                         Program Version 3.0.3 - RELEASE   -
|  1> ! RI-MP2 RIJK def2-TZVP def2-TZVP/C def2-TZVP/JK TIGHTSCF
|  2> % maxcore 2000
|  3> % mp2 density relaxed end
|  4> *xyz 0 1
|  5>  C       -0.0386581187     1.3141083898    -0.1753570749
|  6>  O       -0.0524295331    -0.0162000182     0.2910864042
|  7>  C       -1.2794704846    -0.6598368033     0.1265789121
|  8>  C       -1.6415547420    -1.2161767607    -1.3112044618
|  9>  C       -0.5192084787    -2.2558357695    -1.4481584450
| 10>  C       -0.3075597199    -2.7764446575    -0.2414841552
| 11>  C       -1.2873898050    -2.0980807365     0.7322083503
| 12>  C       -2.7161874143    -2.4733897390     0.3103705849
| 13>  C       -2.9252028707    -1.9489355684    -0.8993838614
| 14>  H        0.9304501534     1.7409185074     0.0935491186
| 15>  H       -0.1570375023     1.3723370320    -1.2673887814
| 16>  H       -0.8342463982     1.9171780825     0.2897911119
| 17>  H       -2.0925108613    -0.0349264451     0.5233826426
| 18>  H       -1.7419236151    -0.5001675790    -2.1266077430
| 19>  H       -0.0384418884    -2.5118067954    -2.3822868071
| 20>  H        0.3830562603    -3.5587709457     0.0414114200
| 21>  H       -1.0551729741    -2.1854363031     1.7929276379
| 22>  H       -3.3925010960    -3.0686604909     0.9087161798
| 23>  H       -3.8153583214    -2.0124806894    -1.5108153425
| 24> *
| 25>
| 26>                          ****END OF INPUT****

CARTESIAN COORDINATES (ANGSTROEM)
---------------------------------
  C     -0.038658    1.314108   -0.175357
  O     -0.052430   -0.016200    0.291086
  C     -1.279470   -0.659837    0.126579
  C     -1.641555   -1.216177   -1.311204
  C     -0.519208   -2.255836   -1.448158
  C     -0.307560   -2.776445   -0.241484
  C     -1.287390   -2.098081    0.732208
  C     -2.716187   -2.473390    0.310371
  C     -2.925203   -1.948936   -0.899384
  H      0.930450    1.740919    0.093549
  H     -0.157038    1.372337   -1.267389
  H     -0.834246    1.917178    0.289791
  H     -2.092511   -0.034926    0.523383
  H     -1.741924   -0.500168   -2.126608
  H     -0.038442   -2.511807   -2.382287
  H      0.383056   -3.558771    0.041411
  H     -1.055173   -2.185436    1.792928
  H     -3.392501   -3.068660    0.908716
  H     -3.815358   -2.012481   -1.510815

 Total Charge           Charge          ....    0
 Multiplicity           Mult            ....    1
 Number of Electrons    NEL             ....   66
 Basis Dimension        Dim             ....  339

ORBITAL ENERGIES
----------------

  NO   OCC          E(Eh)            E(eV)
   0   2.0000     -20.551886      -559.2452
   1   2.0000     -11.284300      -307.0614
   2   2.0000     -11.269949      -306.6709
   3   2.0000     -11.236517      -305.7612
   4   2.0000     -11.235415      -305.7312
   5   2.0000     -11.224633      -305.4378
   6   2.0000     -11.222867      -305.3897
   7   2.0000     -11.218039      -305.2584
   8   2.0000     -11.216112      -305.2059
   9   2.0000      -1.379449       -37.5367
  10   2.0000      -1.179187       -32.0873
  11   2.0000      -1.016774       -27.6678
  12   2.0000      -0.968249       -26.3474
  13   2.0000      -0.955506       -26.0007
  14   2.0000      -0.890329       -24.2271
  15   2.0000      -0.772352       -21.0168
  16   2.0000      -0.762650       -20.7528
  17   2.0000      -0.708363       -19.2755
  18   2.0000      -0.695501       -18.9256
  19   2.0000      -0.674290       -18.3484
  20   2.0000      -0.627350       -17.0711
  21   2.0000      -0.616959       -16.7883
  22   2.0000      -0.605559       -16.4781
  23   2.0000      -0.549726       -14.9588
  24   2.0000      -0.523709       -14.2508
  25   2.0000      -0.522859       -14.2277
  26   2.0000      -0.516810       -14.0631
  27   2.0000      -0.497933       -13.5495
  28   2.0000      -0.464280       -12.6337
  29   2.0000      -0.454919       -12.3790
  30   2.0000      -0.406791       -11.0693
  31   2.0000      -0.361492        -9.8367
  32   2.0000      -0.323304        -8.7975
  33   0.0000       0.126466         3.4413
  34   0.0000       0.143419         3.9026
  35   0.0000       0.168625         4.5885
  36   0.0000       0.173335         4.7167
  37   0.0000       0.179802         4.8927

MULLIKEN ATOMIC CHARGES
-----------------------
   0 C :   -0.226216
   1 O :   -0.292402
   2 C :    0.081205
   3 C :   -0.000092
   4 C :   -0.218482
   5 C :   -0.192931
   6 C :    0.030719
   7 C :   -0.215190
   8 C :   -0.218198
   9 H :    0.143233
  10 H :    0.114107
  11 H :    0.111898
  12 H :    0.095450
  13 H :    0.131666
  14 H :    0.128384
  15 H :    0.128749
  16 H :    0.135866
  17 H :    0.132064
  18 H :    0.130168
Sum of atomic charges:   -0.0000000

LOEWDIN ATOMIC CHARGES
----------------------
   0 C :   -0.352724
   1 O :    0.178950
   2 C :   -0.261220
   3 C :   -0.176951
   4 C :   -0.128055
   5 C :   -0.121838
   6 C :   -0.167477
   7 C :   -0.125230
   8 C :   -0.128191
   9 H :    0.114497
  10 H :    0.102026
  11 H :    0.102756
  12 H :    0.139833
  13 H :    0.140934
  14 H :    0.134135
  15 H :    0.134592
  16 H :    0.145225
  17 H :    0.134609
  18 H :    0.134130

  Mayer bond orders larger than 0.1
B(  0-C ,  1-O ) :   0.9078 B(  0-C ,  9-H ) :   0.9420 B(  0-C , 10-H ) :   0.9350
B(  0-C , 11-H ) :   0.9331 B(  1-O ,  2-C ) :   1.0049 B(  2-C ,  3-C ) :   0.8896
B(  2-C ,  6-C ) :   0.8866 B(  2-C , 12-H ) :   0.9307 B(  3-C ,  4-C ) :   0.8887
B(  3-C ,  8-C ) :   0.9259 B(  3-C , 13-H ) :   0.9098 B(  4-C ,  5-C ) :   1.8182
B(  4-C , 14-H ) :   0.9241 B(  5-C ,  6-C ) :   0.9254 B(  5-C , 15-H ) :   0.9252
B(  6-C ,  7-C ) :   0.9310 B(  6-C , 16-H ) :   0.9058 B(  7-C ,  8-C ) :   1.7691
B(  7-C , 17-H ) :   0.9272 B(  8-C , 18-H ) :   0.9248

MP2 TOTAL ENERGY:     -385.184815917 Eh
FINAL SINGLE POINT ENERGY      -385.184815917082

DIPOLE MOMENT
-------------
                                X             Y             Z
Electronic contribution:     -0.07620      -3.28638       0.63628
Nuclear contribution   :     -0.20456       3.60190      -0.79928
                        -----------------------------------------
Total Dipole Moment    :     -0.28075       0.31552      -0.16300
                        -----------------------------------------
Magnitude (a.u.)       :      0.45271
Magnitude (Debye)      :      1.15069

                             ****ORCA TERMINATED NORMALLY****
TOTAL RUN TIME: 0 days 0 hours 20 minutes 45 seconds 244 msec
