                         Program Version 3.0.3 - RELEASE   -
|  1> ! RI-MP2 RIJK def2-TZVP def2-TZVP/C def2-TZVP/JK TIGHTSCF
|  2> % maxcore 2000
|  3> % mp2 density relaxed end
|  4> *xyz 0 1
|  5>  C        0.0021468379     1.5722429333    -0.0451790919
|  6>  C       -0.0890024817     0.0779715802     0.1049149278
|  7>  O        1.1191639245    -0.6809047031    -0.1142953497
|  8>  C        0.5766829965    -0.6449239787     1.1878438596
|  9>  C        1.3293385826    -0.1741540194     2.4298132668
| 10>  N        0.2862562975    -0.0756352337     3.4647960583
| 11>  C        0.9249395063    -1.4073735304     3.1948114709
| 12>  C        0.2268469182    -1.9446843500     1.9520945246
| 13>  O       -0.2178695750    -3.0029956732     1.6257498226
| 14>  H        0.9068048803     1.9601956624     0.4297658461
| 15>  H        0.0211407982     1.8513006595    -1.1035169062
| 16>  H       -0.8678995262     2.0498956095     0.4166481902
| 17>  H       -0.9712997618    -0.3953651676    -0.3273078808
| 18>  H        2.2679954442     0.3605482960     2.4732188546
| 19>  H        0.7243354417     0.2736041577     4.3182098171
| 20>  H        1.4408538368    -1.9511534323     3.9748859898
| 21> *
| 22>
| 23>                          ****END OF INPUT****

CARTESIAN COORDINATES (ANGSTROEM)
---------------------------------
  C      0.002147    1.572243   -0.045179
  C     -0.089002    0.077972    0.104915
  O      1.119164   -0.680905   -0.114295
  C      0.576683   -0.644924    1.187844
  C      1.329339   -0.174154    2.429813
  N      0.286256   -0.075635    3.464796
  C      0.924940   -1.407374    3.194811
  C      0.226847   -1.944684    1.952095
  O     -0.217870   -3.002996    1.625750
  H      0.906805    1.960196    0.429766
  H      0.021141    1.851301   -1.103517
  H     -0.867900    2.049896    0.416648
  H     -0.971300   -0.395365   -0.327308
  H      2.267995    0.360548    2.473219
  H      0.724335    0.273604    4.318210
  H      1.440854   -1.951153    3.974886

 Total Charge           Charge          ....    0
 Multiplicity           Mult            ....    1
 Number of Electrons    NEL             ....   66
 Basis Dimension        Dim             ....  321

ORBITAL ENERGIES
----------------

  NO   OCC          E(Eh)            E(eV)
   0   2.0000     -20.585444      -560.1584
   1   2.0000     -20.565619      -559.6189
   2   2.0000     -15.600687      -424.5163
   3   2.0000     -11.348023      -308.7954
   4   2.0000     -11.312714      -307.8346
   5   2.0000     -11.303351      -307.5798
   6   2.0000     -11.298130      -307.4378
   7   2.0000     -11.292788      -307.2924
   8   2.0000     -11.236283      -305.7548
   9   2.0000      -1.434997       -39.0482
  10   2.0000      -1.405546       -38.2469
  11   2.0000      -1.309833       -35.6424
  12   2.0000      -1.043195       -28.3868
  13   2.0000      -1.024733       -27.8844
  14   2.0000      -0.904243       -24.6057
  15   2.0000      -0.871854       -23.7244
  16   2.0000      -0.823096       -22.3976
  17   2.0000      -0.747596       -20.3431
  18   2.0000      -0.725219       -19.7342
  19   2.0000      -0.694191       -18.8899
  20   2.0000      -0.660743       -17.9797
  21   2.0000      -0.620204       -16.8766
  22   2.0000      -0.610463       -16.6115
  23   2.0000      -0.587360       -15.9829
  24   2.0000      -0.574784       -15.6407
  25   2.0000      -0.556956       -15.1555
  26   2.0000      -0.537833       -14.6352
  27   2.0000      -0.521871       -14.2008
  28   2.0000      -0.509066       -13.8524
  29   2.0000      -0.471062       -12.8183
  30   2.0000      -0.458846       -12.4858
  31   2.0000      -0.408046       -11.1035
  32   2.0000      -0.391503       -10.6533
  33   0.0000       0.107722         2.9313
  34   0.0000       0.133567         3.6345
  35   0.0000       0.151372         4.1190
  36   0.0000       0.169945         4.6244
  37   0.0000       0.178937         4.8691

MULLIKEN ATOMIC CHARGES
-----------------------
   0 C :   -0.386675
   1 C :    0.048084
   2 O :   -0.327896
   3 C :    0.128869
   4 C :   -0.053578
   5 N :   -0.379619
   6 C :   -0.080271
   7 C :    0.180370
   8 O :   -0.236118
   9 H :    0.133361
  10 H :    0.144172
  11 H :    0.140522
  12 H :    0.132898
  13 H :    0.166780
  14 H :    0.228406
  15 H :    0.160695
Sum of atomic charges:    0.0000000

LOEWDIN ATOMIC CHARGES
----------------------
   0 C :   -0.285730
   1 C :   -0.246552
   2 O :    0.206104
   3 C :   -0.253833
   4 C :   -0.186755
   5 N :    0.018921
   6 C :   -0.176615
   7 C :   -0.259955
   8 O :    0.187013
   9 H :    0.130618
  10 H :    0.131329
  11 H :    0.135513
  12 H :    0.145645
  13 H :    0.139080
  14 H :    0.178385
  15 H :    0.136834

  Mayer bond orders larger than 0.1
B(  0-C ,  1-C ) :   0.9007 B(  0-C ,  9-H ) :   0.9402 B(  0-C , 10-H ) :   0.9325
B(  0-C , 11-H ) :   0.9241 B(  1-C ,  2-O ) :   0.8688 B(  1-C ,  3-C ) :   0.9692
B(  1-C , 12-H ) :   0.9055 B(  2-O ,  3-C ) :   0.9176 B(  3-C ,  4-C ) :   0.8734
B(  3-C ,  7-C ) :   0.8749 B(  4-C ,  5-N ) :   0.9270 B(  4-C ,  6-C ) :   0.8796
B(  4-C , 13-H ) :   0.9059 B(  5-N ,  6-C ) :   0.8631 B(  5-N , 14-H ) :   0.8617
B(  6-C ,  7-C ) :   0.9014 B(  6-C , 15-H ) :   0.9105 B(  7-C ,  8-O ) :   2.0610

MP2 TOTAL ENERGY:     -437.096792718 Eh
FINAL SINGLE POINT ENERGY      -437.096792718154

DIPOLE MOMENT
-------------
                                X             Y             Z
Electronic contribution:      0.27055      -7.16347       1.18506
Nuclear contribution   :      0.27648       8.38040      -0.37688
                        -----------------------------------------
Total Dipole Moment    :      0.54703       1.21693       0.80818
                        -----------------------------------------
Magnitude (a.u.)       :      1.55991
Magnitude (Debye)      :      3.96498

                             ****ORCA TERMINATED NORMALLY****
TOTAL RUN TIME: 0 days 0 hours 15 minutes 58 seconds 701 msec
