                         Program Version 3.0.3 - RELEASE   -
|  1> ! RI-MP2 RIJK def2-TZVP def2-TZVP/C def2-TZVP/JK TIGHTSCF
|  2> % maxcore 2000
|  3> % mp2 density relaxed end
|  4> *xyz 0 1
|  5>  C        0.0508998377     1.4826992912    -0.0359043242
|  6>  N       -0.1232507686     0.0496322600     0.1045457277
|  7>  C        0.5561245911    -0.6609829620     1.0568809650
|  8>  C        0.7083035713    -2.0435384447     1.1460022129
|  9>  O        1.4267278163    -2.3445208043     2.2859541612
| 10>  C        1.7158063836    -1.1861476496     2.8861427417
| 11>  C        1.2237917817    -0.1158266683     2.2004686794
| 12>  C        0.2643772930    -3.1049765487     0.2915525138
| 13>  O        0.4492253403    -4.2959909336     0.4516248662
| 14>  H        1.0874802946     1.7739810047    -0.2609175295
| 15>  H       -0.5911590852     1.8367774034    -0.8448160118
| 16>  H       -0.2585356808     1.9961189612     0.8803471743
| 17>  H       -0.3461089185    -0.4480023634    -0.7416191090
| 18>  H        2.2837238163    -1.2567289939     3.8009396333
| 19>  H        1.3242050480     0.9217717859     2.4728998472
| 20>  H       -0.3039952408    -2.7284595480    -0.5938741083
| 21> *
| 22>
| 23>                          ****END OF INPUT****

CARTESIAN COORDINATES (ANGSTROEM)
---------------------------------
  C      0.050900    1.482699   -0.035904
  N     -0.123251    0.049632    0.104546
  C      0.556125   -0.660983    1.056881
  C      0.708304   -2.043538    1.146002
  O      1.426728   -2.344521    2.285954
  C      1.715806   -1.186148    2.886143
  C      1.223792   -0.115827    2.200469
  C      0.264377   -3.104977    0.291553
  O      0.449225   -4.295991    0.451625
  H      1.087480    1.773981   -0.260918
  H     -0.591159    1.836777   -0.844816
  H     -0.258536    1.996119    0.880347
  H     -0.346109   -0.448002   -0.741619
  H      2.283724   -1.256729    3.800940
  H      1.324205    0.921772    2.472900
  H     -0.303995   -2.728460   -0.593874

 Total Charge           Charge          ....    0
 Multiplicity           Mult            ....    1
 Number of Electrons    NEL             ....   66
 Basis Dimension        Dim             ....  321

ORBITAL ENERGIES
----------------

  NO   OCC          E(Eh)            E(eV)
   0   2.0000     -20.628119      -561.3196
   1   2.0000     -20.527553      -558.5831
   2   2.0000     -15.594411      -424.3455
   3   2.0000     -11.322543      -308.1021
   4   2.0000     -11.321477      -308.0730
   5   2.0000     -11.311072      -307.7899
   6   2.0000     -11.280533      -306.9589
   7   2.0000     -11.274481      -306.7942
   8   2.0000     -11.243457      -305.9500
   9   2.0000      -1.470134       -40.0044
  10   2.0000      -1.364159       -37.1207
  11   2.0000      -1.267424       -34.4883
  12   2.0000      -1.090345       -29.6698
  13   2.0000      -1.041802       -28.3489
  14   2.0000      -0.950727       -25.8706
  15   2.0000      -0.884217       -24.0608
  16   2.0000      -0.809622       -22.0309
  17   2.0000      -0.794180       -21.6107
  18   2.0000      -0.728808       -19.8319
  19   2.0000      -0.679496       -18.4900
  20   2.0000      -0.657397       -17.8887
  21   2.0000      -0.643091       -17.4994
  22   2.0000      -0.630671       -17.1614
  23   2.0000      -0.622965       -16.9518
  24   2.0000      -0.620037       -16.8721
  25   2.0000      -0.590311       -16.0632
  26   2.0000      -0.560794       -15.2600
  27   2.0000      -0.543524       -14.7900
  28   2.0000      -0.519130       -14.1263
  29   2.0000      -0.486564       -13.2401
  30   2.0000      -0.415810       -11.3148
  31   2.0000      -0.374608       -10.1936
  32   2.0000      -0.310644        -8.4530
  33   0.0000       0.082096         2.2340
  34   0.0000       0.123160         3.3513
  35   0.0000       0.138491         3.7685
  36   0.0000       0.169872         4.6225
  37   0.0000       0.178159         4.8480

MULLIKEN ATOMIC CHARGES
-----------------------
   0 C :   -0.289129
   1 N :   -0.341016
   2 C :    0.203635
   3 C :    0.134393
   4 O :   -0.184529
   5 C :    0.026974
   6 C :   -0.278268
   7 C :    0.006734
   8 O :   -0.293451
   9 H :    0.138180
  10 H :    0.147405
  11 H :    0.142768
  12 H :    0.233582
  13 H :    0.154352
  14 H :    0.148430
  15 H :    0.049941
Sum of atomic charges:    0.0000000

LOEWDIN ATOMIC CHARGES
----------------------
   0 C :   -0.318734
   1 N :    0.065507
   2 C :   -0.214884
   3 C :   -0.240275
   4 O :    0.381060
   5 C :   -0.231834
   6 C :   -0.163267
   7 C :   -0.319334
   8 O :    0.107792
   9 H :    0.111642
  10 H :    0.122579
  11 H :    0.120227
  12 H :    0.182819
  13 H :    0.137470
  14 H :    0.147071
  15 H :    0.112161

  Mayer bond orders larger than 0.1
B(  0-C ,  1-N ) :   0.9037 B(  0-C ,  9-H ) :   0.9315 B(  0-C , 10-H ) :   0.9346
B(  0-C , 11-H ) :   0.9351 B(  1-N ,  2-C ) :   1.1219 B(  1-N , 12-H ) :   0.8757
B(  2-C ,  3-C ) :   1.2770 B(  2-C ,  6-C ) :   1.1987 B(  3-C ,  4-O ) :   1.0095
B(  3-C ,  7-C ) :   0.8804 B(  3-C ,  8-O ) :  -0.1112 B(  3-C , 15-H ) :  -0.1520
B(  4-O ,  5-C ) :   1.1106 B(  5-C ,  6-C ) :   1.4963 B(  5-C , 13-H ) :   0.9356
B(  6-C , 14-H ) :   0.9144 B(  7-C ,  8-O ) :   2.0111 B(  7-C , 15-H ) :   1.0201

MP2 TOTAL ENERGY:     -437.179363899 Eh
FINAL SINGLE POINT ENERGY      -437.179363899290

DIPOLE MOMENT
-------------
                                X             Y             Z
Electronic contribution:      1.45169      -8.68391       2.70598
Nuclear contribution   :     -1.50157      10.89296      -2.95812
                        -----------------------------------------
Total Dipole Moment    :     -0.04988       2.20905      -0.25214
                        -----------------------------------------
Magnitude (a.u.)       :      2.22395
Magnitude (Debye)      :      5.65284

                             ****ORCA TERMINATED NORMALLY****
TOTAL RUN TIME: 0 days 0 hours 16 minutes 41 seconds 879 msec
