                         Program Version 3.0.3 - RELEASE   -
|  1> ! RI-MP2 RIJK def2-TZVP def2-TZVP/C def2-TZVP/JK TIGHTSCF
|  2> % maxcore 2000
|  3> % mp2 density relaxed end
|  4> *xyz 0 1
|  5>  O       -0.0354736076     1.3519720378    -0.1446039769
|  6>  C        0.0288871667    -0.0560569226     0.0056602266
|  7>  C        0.2102555444    -0.5154780552     1.4822756938
|  8>  C       -1.3343569031    -0.6550657881     1.5944599270
|  9>  C       -1.4096335554    -0.6158834269     0.0472788507
| 10>  C       -2.6116077188     0.0169191460    -0.7234090855
| 11>  C       -2.8217710447    -1.3374821991    -1.4147119488
| 12>  O       -1.5982430627    -1.6664177162    -2.0887130028
| 13>  C       -1.6947059812    -1.9383414543    -0.6866176906
| 14>  H        0.8508223316     1.7046276044    -0.0147961187
| 15>  H        0.6953329904    -0.5033664928    -0.7429553482
| 16>  H        0.7285741007    -1.4757120265     1.5567318664
| 17>  H        0.6960743551     0.2023810950     2.1480196503
| 18>  H       -1.7265296984    -1.5483253232     2.0887033883
| 19>  H       -1.7968575740     0.2264901338     2.0447899021
| 20>  H       -3.4276352951     0.2883433966    -0.0476984967
| 21>  H       -2.3800324138     0.8564304273    -1.3810201105
| 22>  H       -3.7307136872    -1.7829030964    -1.8022925962
| 23>  H       -1.5112427968    -2.9563188595    -0.3586450103
| 24> *
| 25>
| 26>                          ****END OF INPUT****

CARTESIAN COORDINATES (ANGSTROEM)
---------------------------------
  O     -0.035474    1.351972   -0.144604
  C      0.028887   -0.056057    0.005660
  C      0.210256   -0.515478    1.482276
  C     -1.334357   -0.655066    1.594460
  C     -1.409634   -0.615883    0.047279
  C     -2.611608    0.016919   -0.723409
  C     -2.821771   -1.337482   -1.414712
  O     -1.598243   -1.666418   -2.088713
  C     -1.694706   -1.938341   -0.686618
  H      0.850822    1.704628   -0.014796
  H      0.695333   -0.503366   -0.742955
  H      0.728574   -1.475712    1.556732
  H      0.696074    0.202381    2.148020
  H     -1.726530   -1.548325    2.088703
  H     -1.796858    0.226490    2.044790
  H     -3.427635    0.288343   -0.047698
  H     -2.380032    0.856430   -1.381020
  H     -3.730714   -1.782903   -1.802293
  H     -1.511243   -2.956319   -0.358645

 Total Charge           Charge          ....    0
 Multiplicity           Mult            ....    1
 Number of Electrons    NEL             ....   68
 Basis Dimension        Dim             ....  339

ORBITAL ENERGIES
----------------

  NO   OCC          E(Eh)            E(eV)
   0   2.0000     -20.563401      -559.5586
   1   2.0000     -20.556460      -559.3697
   2   2.0000     -11.282584      -307.0147
   3   2.0000     -11.281210      -306.9773
   4   2.0000     -11.276794      -306.8572
   5   2.0000     -11.239284      -305.8365
   6   2.0000     -11.226342      -305.4843
   7   2.0000     -11.225182      -305.4527
   8   2.0000     -11.224801      -305.4424
   9   2.0000      -1.413761       -38.4704
  10   2.0000      -1.362956       -37.0879
  11   2.0000      -1.134105       -30.8606
  12   2.0000      -1.039669       -28.2908
  13   2.0000      -0.898249       -24.4426
  14   2.0000      -0.892033       -24.2734
  15   2.0000      -0.868151       -23.6236
  16   2.0000      -0.798702       -21.7338
  17   2.0000      -0.729631       -19.8543
  18   2.0000      -0.697940       -18.9919
  19   2.0000      -0.694143       -18.8886
  20   2.0000      -0.641200       -17.4479
  21   2.0000      -0.620429       -16.8827
  22   2.0000      -0.596450       -16.2302
  23   2.0000      -0.584411       -15.9026
  24   2.0000      -0.563657       -15.3379
  25   2.0000      -0.531859       -14.4726
  26   2.0000      -0.522189       -14.2095
  27   2.0000      -0.506948       -13.7948
  28   2.0000      -0.487162       -13.2563
  29   2.0000      -0.458609       -12.4794
  30   2.0000      -0.447996       -12.1906
  31   2.0000      -0.421618       -11.4728
  32   2.0000      -0.416194       -11.3252
  33   2.0000      -0.388411       -10.5692
  34   0.0000       0.136443         3.7128
  35   0.0000       0.151850         4.1320
  36   0.0000       0.160355         4.3635
  37   0.0000       0.175721         4.7816
  38   0.0000       0.186006         5.0615

MULLIKEN ATOMIC CHARGES
-----------------------
   0 O :   -0.463334
   1 C :   -0.024237
   2 C :   -0.228725
   3 C :   -0.278734
   4 C :    0.226382
   5 C :   -0.198955
   6 C :   -0.036114
   7 O :   -0.324367
   8 C :   -0.076750
   9 H :    0.315532
  10 H :    0.099903
  11 H :    0.116974
  12 H :    0.112137
  13 H :    0.123361
  14 H :    0.118699
  15 H :    0.116788
  16 H :    0.130816
  17 H :    0.133141
  18 H :    0.137483
Sum of atomic charges:   -0.0000000

LOEWDIN ATOMIC CHARGES
----------------------
   0 O :   -0.012531
   1 C :   -0.285828
   2 C :   -0.227296
   3 C :   -0.196743
   4 C :   -0.194799
   5 C :   -0.175193
   6 C :   -0.237844
   7 O :    0.174458
   8 C :   -0.211603
   9 H :    0.175413
  10 H :    0.126481
  11 H :    0.133942
  12 H :    0.125262
  13 H :    0.127438
  14 H :    0.139916
  15 H :    0.139839
  16 H :    0.139897
  17 H :    0.127767
  18 H :    0.131422

  Mayer bond orders larger than 0.1
B(  0-O ,  1-C ) :   1.1024 B(  0-O ,  4-C ) :  -0.1264 B(  0-O ,  9-H ) :   0.8448
B(  1-C ,  2-C ) :   0.9132 B(  1-C ,  4-C ) :   0.8422 B(  1-C , 10-H ) :   0.9714
B(  2-C ,  3-C ) :   0.9475 B(  2-C , 11-H ) :   0.9163 B(  2-C , 12-H ) :   0.9203
B(  3-C ,  4-C ) :   0.8927 B(  3-C , 13-H ) :   0.9291 B(  3-C , 14-H ) :   0.9104
B(  4-C ,  5-C ) :   0.9439 B(  4-C ,  8-C ) :   0.8487 B(  5-C ,  6-C ) :   0.9416
B(  5-C , 15-H ) :   0.9128 B(  5-C , 16-H ) :   0.8868 B(  6-C ,  7-O ) :   0.9196
B(  6-C ,  8-C ) :   0.9328 B(  6-C , 17-H ) :   0.9289 B(  7-O ,  8-C ) :   0.9359
B(  8-C , 18-H ) :   0.9199

MP2 TOTAL ENERGY:     -422.260829027 Eh
FINAL SINGLE POINT ENERGY      -422.260829027172

DIPOLE MOMENT
-------------
                                X             Y             Z
Electronic contribution:     -0.40077      -0.78077      -4.58618
Nuclear contribution   :      0.54478       0.63685       5.37182
                        -----------------------------------------
Total Dipole Moment    :      0.14400      -0.14392       0.78565
                        -----------------------------------------
Magnitude (a.u.)       :      0.81160
Magnitude (Debye)      :      2.06292

                             ****ORCA TERMINATED NORMALLY****
TOTAL RUN TIME: 0 days 0 hours 18 minutes 36 seconds 951 msec
