                         Program Version 3.0.3 - RELEASE   -
|  1> ! RI-MP2 RIJK def2-TZVP def2-TZVP/C def2-TZVP/JK TIGHTSCF
|  2> % maxcore 2000
|  3> % mp2 density relaxed end
|  4> *xyz 0 1
|  5>  C       -0.4411431194     1.5091871670    -0.0365585826
|  6>  C       -0.0154959121     0.0355605719    -0.0082235919
|  7>  C        0.6729456763    -0.3668690949    -1.3271156570
|  8>  O        1.7392655138     0.4940086314    -1.7061976789
|  9>  C        2.9140992236     0.3778952471    -0.9597420191
| 10>  O        2.8236254584     0.9201260432     0.3388497071
| 11>  C        2.3001657242     0.0295121122     1.2864825170
| 12>  C        1.3194711642     0.5896775865     2.2670341445
| 13>  C        0.8480906895    -0.3735759178     1.1932520294
| 14>  H        0.4252782633     2.1691984128    -0.1138141553
| 15>  H       -1.0824742123     1.7011561906    -0.9032331117
| 16>  H       -1.0044697879     1.7715524288     0.8632897451
| 17>  H       -0.9301853649    -0.5708227644     0.0453434625
| 18>  H        1.0348634306    -1.4060295151    -1.2606140110
| 19>  H       -0.0450401463    -0.3124265838    -2.1525553162
| 20>  H        3.2315049097    -0.6784075409    -0.9026981625
| 21>  H        3.6641603515     0.9715806356    -1.4877171907
| 22>  H        3.0208993209    -0.7118797986     1.6317157530
| 23>  H        1.3564578736     0.2491202756     3.2958064713
| 24>  H        1.0742895724     1.6377335330     2.1447471004
| 25>  H        0.6485239708    -1.3845881604     1.5396106167
| 26> *
| 27>
| 28>                          ****END OF INPUT****

CARTESIAN COORDINATES (ANGSTROEM)
---------------------------------
  C     -0.441143    1.509187   -0.036559
  C     -0.015496    0.035561   -0.008224
  C      0.672946   -0.366869   -1.327116
  O      1.739266    0.494009   -1.706198
  C      2.914099    0.377895   -0.959742
  O      2.823625    0.920126    0.338850
  C      2.300166    0.029512    1.286483
  C      1.319471    0.589678    2.267034
  C      0.848091   -0.373576    1.193252
  H      0.425278    2.169198   -0.113814
  H     -1.082474    1.701156   -0.903233
  H     -1.004470    1.771552    0.863290
  H     -0.930185   -0.570823    0.045343
  H      1.034863   -1.406030   -1.260614
  H     -0.045040   -0.312427   -2.152555
  H      3.231505   -0.678408   -0.902698
  H      3.664160    0.971581   -1.487717
  H      3.020899   -0.711880    1.631716
  H      1.356458    0.249120    3.295806
  H      1.074290    1.637734    2.144747
  H      0.648524   -1.384588    1.539611

 Total Charge           Charge          ....    0
 Multiplicity           Mult            ....    1
 Number of Electrons    NEL             ....   70
 Basis Dimension        Dim             ....  351

ORBITAL ENERGIES
----------------

  NO   OCC          E(Eh)            E(eV)
   0   2.0000     -20.562261      -559.5276
   1   2.0000     -20.557210      -559.3901
   2   2.0000     -11.325876      -308.1928
   3   2.0000     -11.280844      -306.9674
   4   2.0000     -11.275631      -306.8255
   5   2.0000     -11.235184      -305.7249
   6   2.0000     -11.233490      -305.6788
   7   2.0000     -11.225644      -305.4653
   8   2.0000     -11.207701      -304.9770
   9   2.0000      -1.416190       -38.5365
  10   2.0000      -1.350582       -36.7512
  11   2.0000      -1.146154       -31.1884
  12   2.0000      -1.045148       -28.4399
  13   2.0000      -0.954380       -25.9700
  14   2.0000      -0.904628       -24.6162
  15   2.0000      -0.834648       -22.7119
  16   2.0000      -0.807514       -21.9736
  17   2.0000      -0.753988       -20.5171
  18   2.0000      -0.706579       -19.2270
  19   2.0000      -0.687550       -18.7092
  20   2.0000      -0.673792       -18.3348
  21   2.0000      -0.652646       -17.7594
  22   2.0000      -0.609918       -16.5967
  23   2.0000      -0.591754       -16.1024
  24   2.0000      -0.584257       -15.8984
  25   2.0000      -0.541230       -14.7276
  26   2.0000      -0.525777       -14.3071
  27   2.0000      -0.520054       -14.1514
  28   2.0000      -0.503823       -13.7097
  29   2.0000      -0.496017       -13.4973
  30   2.0000      -0.472041       -12.8449
  31   2.0000      -0.461875       -12.5683
  32   2.0000      -0.441849       -12.0233
  33   2.0000      -0.410160       -11.1610
  34   2.0000      -0.382215       -10.4006
  35   0.0000       0.136415         3.7120
  36   0.0000       0.157612         4.2888
  37   0.0000       0.167503         4.5580
  38   0.0000       0.172074         4.6824
  39   0.0000       0.193258         5.2588

MULLIKEN ATOMIC CHARGES
-----------------------
   0 C :   -0.480754
   1 C :    0.047387
   2 C :   -0.077528
   3 O :   -0.304716
   4 C :    0.061911
   5 O :   -0.302201
   6 C :    0.010068
   7 C :   -0.268008
   8 C :   -0.156718
   9 H :    0.159851
  10 H :    0.128483
  11 H :    0.137090
  12 H :    0.094429
  13 H :    0.102182
  14 H :    0.128410
  15 H :    0.087271
  16 H :    0.125389
  17 H :    0.108465
  18 H :    0.132021
  19 H :    0.147442
  20 H :    0.119526
Sum of atomic charges:    0.0000000

LOEWDIN ATOMIC CHARGES
----------------------
   0 C :   -0.291542
   1 C :   -0.267537
   2 C :   -0.291010
   3 O :    0.166345
   4 C :   -0.395166
   5 O :    0.188818
   6 C :   -0.298433
   7 C :   -0.200390
   8 C :   -0.191112
   9 H :    0.128648
  10 H :    0.125301
  11 H :    0.123141
  12 H :    0.159063
  13 H :    0.124346
  14 H :    0.131444
  15 H :    0.107888
  16 H :    0.122860
  17 H :    0.132114
  18 H :    0.132500
  19 H :    0.143478
  20 H :    0.149244

  Mayer bond orders larger than 0.1
B(  0-C ,  1-C ) :   0.8727 B(  0-C ,  9-H ) :   0.9385 B(  0-C , 10-H ) :   0.9319
B(  0-C , 11-H ) :   0.9388 B(  1-C ,  2-C ) :   0.9068 B(  1-C ,  8-C ) :   0.8836
B(  1-C , 12-H ) :   0.9186 B(  2-C ,  3-O ) :   0.9019 B(  2-C , 13-H ) :   0.9386
B(  2-C , 14-H ) :   0.9318 B(  3-O ,  4-C ) :   0.9941 B(  4-C ,  5-O ) :   0.9462
B(  4-C , 15-H ) :   0.9366 B(  4-C , 16-H ) :   0.9316 B(  5-O ,  6-C ) :   0.9658
B(  6-C ,  7-C ) :   0.8911 B(  6-C ,  8-C ) :   0.8886 B(  6-C , 17-H ) :   0.9464
B(  7-C ,  8-C ) :   0.8930 B(  7-C , 18-H ) :   0.9248 B(  7-C , 19-H ) :   0.9182
B(  8-C , 20-H ) :   0.9219

MP2 TOTAL ENERGY:     -423.505065029 Eh
FINAL SINGLE POINT ENERGY      -423.505065028575

DIPOLE MOMENT
-------------
                                X             Y             Z
Electronic contribution:      4.46329       0.21012      -1.37105
Nuclear contribution   :     -4.72078      -0.95835       1.64498
                        -----------------------------------------
Total Dipole Moment    :     -0.25749      -0.74823       0.27393
                        -----------------------------------------
Magnitude (a.u.)       :      0.83736
Magnitude (Debye)      :      2.12841

                             ****ORCA TERMINATED NORMALLY****
TOTAL RUN TIME: 0 days 0 hours 19 minutes 7 seconds 326 msec
