                         Program Version 3.0.3 - RELEASE   -
|  1> ! RI-MP2 RIJK def2-TZVP def2-TZVP/C def2-TZVP/JK TIGHTSCF
|  2> % maxcore 2000
|  3> % mp2 density relaxed end
|  4> *xyz 0 1
|  5>  O       -0.0491008536    -0.0995178661     0.1798648175
|  6>  C        0.0437545946     1.0827071054    -0.0068789993
|  7>  O        1.1620623561     1.8052131160    -0.0149777300
|  8>  C        2.3825370651     1.0613832740     0.2300757978
|  9>  C        3.5166656305     2.0408389543     0.1970788541
| 10>  C        4.8606310499     1.6054682048    -0.2024532023
| 11>  O        4.0400508532     2.3648286899    -1.0879698986
| 12>  C       -1.1154782398     1.9467150118    -0.2624959067
| 13>  N       -2.0626076367     2.5782659223    -0.4555961365
| 14>  H        2.3016598815     0.5687020162     1.2041959780
| 15>  H        2.4974596342     0.2980254490    -0.5436001288
| 16>  H        3.4185721310     2.8880847003     0.8755514118
| 17>  H        5.7286059228     2.1233009469     0.2009762898
| 18>  H        5.0300259110     0.5695694852    -0.4935741567
| 19> *
| 20>
| 21>                          ****END OF INPUT****

CARTESIAN COORDINATES (ANGSTROEM)
---------------------------------
  O     -0.049101   -0.099518    0.179865
  C      0.043755    1.082707   -0.006879
  O      1.162062    1.805213   -0.014978
  C      2.382537    1.061383    0.230076
  C      3.516666    2.040839    0.197079
  C      4.860631    1.605468   -0.202453
  O      4.040051    2.364829   -1.087970
  C     -1.115478    1.946715   -0.262496
  N     -2.062608    2.578266   -0.455596
  H      2.301660    0.568702    1.204196
  H      2.497460    0.298025   -0.543600
  H      3.418572    2.888085    0.875551
  H      5.728606    2.123301    0.200976
  H      5.030026    0.569569   -0.493574

 Total Charge           Charge          ....    0
 Multiplicity           Mult            ....    1
 Number of Electrons    NEL             ....   66
 Basis Dimension        Dim             ....  309

ORBITAL ENERGIES
----------------

  NO   OCC          E(Eh)            E(eV)
   0   2.0000     -20.651487      -561.9555
   1   2.0000     -20.599630      -560.5444
   2   2.0000     -20.594156      -560.3955
   3   2.0000     -15.617583      -424.9760
   4   2.0000     -11.454108      -311.6821
   5   2.0000     -11.329845      -308.3008
   6   2.0000     -11.317322      -307.9600
   7   2.0000     -11.310326      -307.7696
   8   2.0000     -11.307271      -307.6865
   9   2.0000      -1.515075       -41.2273
  10   2.0000      -1.440793       -39.2060
  11   2.0000      -1.415510       -38.5180
  12   2.0000      -1.253054       -34.0973
  13   2.0000      -1.071583       -29.1593
  14   2.0000      -0.962623       -26.1943
  15   2.0000      -0.918345       -24.9894
  16   2.0000      -0.847655       -23.0659
  17   2.0000      -0.798505       -21.7284
  18   2.0000      -0.744424       -20.2568
  19   2.0000      -0.725886       -19.7524
  20   2.0000      -0.702835       -19.1251
  21   2.0000      -0.679438       -18.4884
  22   2.0000      -0.619251       -16.8507
  23   2.0000      -0.612691       -16.6722
  24   2.0000      -0.594325       -16.1724
  25   2.0000      -0.562525       -15.3071
  26   2.0000      -0.556404       -15.1405
  27   2.0000      -0.530572       -14.4376
  28   2.0000      -0.510235       -13.8842
  29   2.0000      -0.498626       -13.5683
  30   2.0000      -0.498342       -13.5606
  31   2.0000      -0.476560       -12.9678
  32   2.0000      -0.471111       -12.8196
  33   0.0000       0.071627         1.9491
  34   0.0000       0.132801         3.6137
  35   0.0000       0.148726         4.0470
  36   0.0000       0.157195         4.2775
  37   0.0000       0.166798         4.5388

MULLIKEN ATOMIC CHARGES
-----------------------
   0 O :   -0.276696
   1 C :    0.417610
   2 O :   -0.205928
   3 C :   -0.118491
   4 C :    0.059059
   5 C :   -0.089577
   6 O :   -0.316344
   7 C :   -0.125402
   8 N :   -0.037847
   9 H :    0.143410
  10 H :    0.151992
  11 H :    0.141224
  12 H :    0.129038
  13 H :    0.127954
Sum of atomic charges:   -0.0000000

LOEWDIN ATOMIC CHARGES
----------------------
   0 O :    0.176662
   1 C :   -0.491683
   2 O :    0.288458
   3 C :   -0.243896
   4 C :   -0.297818
   5 C :   -0.255764
   6 O :    0.159739
   7 C :   -0.122750
   8 N :    0.107645
   9 H :    0.142114
  10 H :    0.145147
  11 H :    0.144269
  12 H :    0.124209
  13 H :    0.123669

  Mayer bond orders larger than 0.1
B(  0-O ,  1-C ) :   1.9201 B(  1-C ,  2-O ) :   1.1703 B(  1-C ,  7-C ) :   0.9049
B(  2-O ,  3-C ) :   0.8123 B(  3-C ,  4-C ) :   0.9161 B(  3-C ,  9-H ) :   0.9234
B(  3-C , 10-H ) :   0.9289 B(  4-C ,  5-C ) :   0.9708 B(  4-C ,  6-O ) :   0.9126
B(  4-C , 11-H ) :   0.9128 B(  5-C ,  6-O ) :   0.9050 B(  5-C , 12-H ) :   0.9164
B(  5-C , 13-H ) :   0.9150 B(  7-C ,  8-N ) :   2.7948

MP2 TOTAL ENERGY:     -473.065708172 Eh
FINAL SINGLE POINT ENERGY      -473.065708172074

DIPOLE MOMENT
-------------
                                X             Y             Z
Electronic contribution:     -9.03234       0.88362      -1.11622
Nuclear contribution   :     10.81670      -1.36139       1.91265
                        -----------------------------------------
Total Dipole Moment    :      1.78436      -0.47777       0.79644
                        -----------------------------------------
Magnitude (a.u.)       :      2.01160
Magnitude (Debye)      :      5.11307

                             ****ORCA TERMINATED NORMALLY****
TOTAL RUN TIME: 0 days 0 hours 12 minutes 0 seconds 566 msec
