                         Program Version 3.0.3 - RELEASE   -
|  1> ! RI-MP2 RIJK def2-TZVP def2-TZVP/C def2-TZVP/JK TIGHTSCF
|  2> % maxcore 2000
|  3> % mp2 density relaxed end
|  4> *xyz 0 1
|  5>  N       -0.1223858808     1.2799333760     0.4604942218
|  6>  C       -0.0783799712    -0.0805974440     0.1460439868
|  7>  C       -1.1208909738    -0.9163316599    -0.1988323677
|  8>  N       -0.4929546824    -2.1252081329    -0.4987908416
|  9>  C        0.8366163391    -1.9594911595    -0.3083110770
| 10>  N        1.1258326758    -0.7352625313     0.0839936891
| 11>  C       -2.5736454003    -0.7033732074    -0.3220686264
| 12>  C       -3.5469304879    -1.5959982783     0.4241949205
| 13>  C       -3.3603726923    -0.1684944260     0.8588335958
| 14>  H        0.6729864117     1.5480147551     1.0256403120
| 15>  H       -0.9885691292     1.5617067721     0.8997293011
| 16>  H       -0.9623497128    -2.9675348872    -0.7847360343
| 17>  H        1.5503694832    -2.7549501454    -0.4617287396
| 18>  H       -2.9290140164    -0.3582593511    -1.2924704136
| 19>  H       -4.4721538403    -1.8657242983    -0.0725687299
| 20>  H       -3.1342788751    -2.3705653103     1.0610309978
| 21>  H       -2.8215565753     0.0037675026     1.7839504877
| 22>  H       -4.1572114420     0.5392005258     0.6599398075
| 23> *
| 24>
| 25>                          ****END OF INPUT****

CARTESIAN COORDINATES (ANGSTROEM)
---------------------------------
  N     -0.122386    1.279933    0.460494
  C     -0.078380   -0.080597    0.146044
  C     -1.120891   -0.916332   -0.198832
  N     -0.492955   -2.125208   -0.498791
  C      0.836616   -1.959491   -0.308311
  N      1.125833   -0.735263    0.083994
  C     -2.573645   -0.703373   -0.322069
  C     -3.546930   -1.595998    0.424195
  C     -3.360373   -0.168494    0.858834
  H      0.672986    1.548015    1.025640
  H     -0.988569    1.561707    0.899729
  H     -0.962350   -2.967535   -0.784736
  H      1.550369   -2.754950   -0.461729
  H     -2.929014   -0.358259   -1.292470
  H     -4.472154   -1.865724   -0.072569
  H     -3.134279   -2.370565    1.061031
  H     -2.821557    0.003768    1.783950
  H     -4.157211    0.539201    0.659940

 Total Charge           Charge          ....    0
 Multiplicity           Mult            ....    1
 Number of Electrons    NEL             ....   66
 Basis Dimension        Dim             ....  333

ORBITAL ENERGIES
----------------

  NO   OCC          E(Eh)            E(eV)
   0   2.0000     -15.606898      -424.6853
   1   2.0000     -15.547313      -423.0639
   2   2.0000     -15.532602      -422.6636
   3   2.0000     -11.291007      -307.2439
   4   2.0000     -11.271423      -306.7110
   5   2.0000     -11.245546      -306.0069
   6   2.0000     -11.239498      -305.8423
   7   2.0000     -11.235763      -305.7407
   8   2.0000     -11.234918      -305.7177
   9   2.0000      -1.333641       -36.2902
  10   2.0000      -1.203165       -32.7398
  11   2.0000      -1.157421       -31.4950
  12   2.0000      -1.129972       -30.7481
  13   2.0000      -0.986362       -26.8403
  14   2.0000      -0.851278       -23.1645
  15   2.0000      -0.835799       -22.7432
  16   2.0000      -0.815665       -22.1954
  17   2.0000      -0.764392       -20.8002
  18   2.0000      -0.728255       -19.8168
  19   2.0000      -0.676535       -18.4095
  20   2.0000      -0.660073       -17.9615
  21   2.0000      -0.626680       -17.0528
  22   2.0000      -0.609286       -16.5795
  23   2.0000      -0.589530       -16.0419
  24   2.0000      -0.570851       -15.5336
  25   2.0000      -0.533326       -14.5125
  26   2.0000      -0.524273       -14.2662
  27   2.0000      -0.474332       -12.9072
  28   2.0000      -0.450982       -12.2718
  29   2.0000      -0.438274       -11.9260
  30   2.0000      -0.413412       -11.2495
  31   2.0000      -0.373129       -10.1534
  32   2.0000      -0.277597        -7.5538
  33   0.0000       0.130828         3.5600
  34   0.0000       0.138612         3.7718
  35   0.0000       0.157318         4.2808
  36   0.0000       0.170026         4.6266
  37   0.0000       0.178239         4.8501

MULLIKEN ATOMIC CHARGES
-----------------------
   0 N :   -0.516741
   1 C :    0.158705
   2 C :    0.050055
   3 N :   -0.277161
   4 C :    0.042912
   5 N :   -0.320324
   6 C :   -0.174475
   7 C :   -0.257716
   8 C :   -0.275293
   9 H :    0.251211
  10 H :    0.240752
  11 H :    0.246937
  12 H :    0.144525
  13 H :    0.137019
  14 H :    0.134179
  15 H :    0.136280
  16 H :    0.142947
  17 H :    0.136189
Sum of atomic charges:   -0.0000000

LOEWDIN ATOMIC CHARGES
----------------------
   0 N :   -0.087905
   1 C :   -0.337170
   2 C :   -0.221194
   3 N :    0.195074
   4 C :   -0.328918
   5 N :    0.091006
   6 C :   -0.207291
   7 C :   -0.224037
   8 C :   -0.222434
   9 H :    0.170841
  10 H :    0.163507
  11 H :    0.193457
  12 H :    0.128339
  13 H :    0.154422
  14 H :    0.131654
  15 H :    0.133797
  16 H :    0.134833
  17 H :    0.132019

  Mayer bond orders larger than 0.1
B(  0-N ,  1-C ) :   1.0430 B(  0-N ,  9-H ) :   0.8768 B(  0-N , 10-H ) :   0.8798
B(  1-C ,  2-C ) :   1.4689 B(  1-C ,  5-N ) :   1.3189 B(  2-C ,  3-N ) :   1.0572
B(  2-C ,  6-C ) :   0.8987 B(  3-N ,  4-C ) :   1.2048 B(  3-N , 11-H ) :   0.8649
B(  4-C ,  5-N ) :   1.5130 B(  4-C , 12-H ) :   0.9278 B(  6-C ,  7-C ) :   0.8735
B(  6-C ,  8-C ) :   0.8756 B(  6-C , 13-H ) :   0.9365 B(  7-C ,  8-C ) :   0.9117
B(  7-C , 14-H ) :   0.9309 B(  7-C , 15-H ) :   0.9283 B(  8-C , 16-H ) :   0.9300
B(  8-C , 17-H ) :   0.9295

MP2 TOTAL ENERGY:     -397.462491403 Eh
FINAL SINGLE POINT ENERGY      -397.462491402614

DIPOLE MOMENT
-------------
                                X             Y             Z
Electronic contribution:      6.16447      -0.96817      -1.76140
Nuclear contribution   :     -7.34872       0.19657       1.91070
                        -----------------------------------------
Total Dipole Moment    :     -1.18425      -0.77160       0.14930
                        -----------------------------------------
Magnitude (a.u.)       :      1.42131
Magnitude (Debye)      :      3.61268

                             ****ORCA TERMINATED NORMALLY****
TOTAL RUN TIME: 0 days 0 hours 16 minutes 58 seconds 404 msec
