                         Program Version 3.0.3 - RELEASE   -
|  1> ! RI-MP2 RIJK def2-TZVP def2-TZVP/C def2-TZVP/JK TIGHTSCF
|  2> % maxcore 2000
|  3> % mp2 density relaxed end
|  4> *xyz 0 1
|  5>  C       -0.6658931885     1.8188061129    -0.2574311947
|  6>  C       -0.5040009058     0.2948376905    -0.2941302490
|  7>  C       -1.7998888510    -0.4554289892    -0.1073758657
|  8>  C       -2.7969042427    -0.3669173474     1.1023106338
|  9>  C       -3.4104810110    -1.4266454760     0.1413225991
| 10>  C       -3.0743534374    -0.4402651283    -1.0133662385
| 11>  C       -1.9633605260    -2.0087643953    -0.0171323719
| 12>  C       -1.6126452126    -2.9118411473    -1.1947154221
| 13>  O       -1.3486318284    -2.5336795322     1.1507035130
| 14>  H        0.2966521551     2.3205368867    -0.3960055190
| 15>  H       -1.3404732243     2.1661164019    -1.0471529219
| 16>  H       -1.0797226829     2.1486199990     0.7011197011
| 17>  H       -0.0516133178    -0.0042512265    -1.2494433260
| 18>  H        0.1952269361    -0.0235193696     0.4893758376
| 19>  H       -2.4356571171    -0.7198591566     2.0655671529
| 20>  H       -3.3547280279     0.5690504815     1.1880709639
| 21>  H       -4.3389878323    -1.9844858286     0.2789116342
| 22>  H       -3.6426093915     0.4927850085    -1.0045592562
| 23>  H       -2.9934879367    -0.8294116350    -2.0292014991
| 24>  H       -2.0161221524    -2.5741374139    -2.1497096275
| 25>  H       -0.5250993111    -2.9929639549    -1.2880227987
| 26>  H       -2.0044704064    -3.9224702516    -1.0187489320
| 27>  H       -1.5495530573    -3.4737428486     1.1958984668
| 28> *
| 29>
| 30>                          ****END OF INPUT****

CARTESIAN COORDINATES (ANGSTROEM)
---------------------------------
  C     -0.665893    1.818806   -0.257431
  C     -0.504001    0.294838   -0.294130
  C     -1.799889   -0.455429   -0.107376
  C     -2.796904   -0.366917    1.102311
  C     -3.410481   -1.426645    0.141323
  C     -3.074353   -0.440265   -1.013366
  C     -1.963361   -2.008764   -0.017132
  C     -1.612645   -2.911841   -1.194715
  O     -1.348632   -2.533680    1.150704
  H      0.296652    2.320537   -0.396006
  H     -1.340473    2.166116   -1.047153
  H     -1.079723    2.148620    0.701120
  H     -0.051613   -0.004251   -1.249443
  H      0.195227   -0.023519    0.489376
  H     -2.435657   -0.719859    2.065567
  H     -3.354728    0.569050    1.188071
  H     -4.338988   -1.984486    0.278912
  H     -3.642609    0.492785   -1.004559
  H     -2.993488   -0.829412   -2.029201
  H     -2.016122   -2.574137   -2.149710
  H     -0.525099   -2.992964   -1.288023
  H     -2.004470   -3.922470   -1.018749
  H     -1.549553   -3.473743    1.195898

 Total Charge           Charge          ....    0
 Multiplicity           Mult            ....    1
 Number of Electrons    NEL             ....   70
 Basis Dimension        Dim             ....  363

ORBITAL ENERGIES
----------------

  NO   OCC          E(Eh)            E(eV)
   0   2.0000     -20.549326      -559.1756
   1   2.0000     -11.285677      -307.0989
   2   2.0000     -11.238953      -305.8275
   3   2.0000     -11.234420      -305.7041
   4   2.0000     -11.221804      -305.3608
   5   2.0000     -11.217575      -305.2457
   6   2.0000     -11.214905      -305.1731
   7   2.0000     -11.214769      -305.1694
   8   2.0000     -11.209628      -305.0295
   9   2.0000      -1.362660       -37.0799
  10   2.0000      -1.194715       -32.5099
  11   2.0000      -1.029751       -28.0210
  12   2.0000      -0.989578       -26.9278
  13   2.0000      -0.895091       -24.3567
  14   2.0000      -0.883783       -24.0490
  15   2.0000      -0.844687       -22.9851
  16   2.0000      -0.793323       -21.5874
  17   2.0000      -0.717301       -19.5187
  18   2.0000      -0.652511       -17.7557
  19   2.0000      -0.647431       -17.6175
  20   2.0000      -0.633263       -17.2319
  21   2.0000      -0.606722       -16.5098
  22   2.0000      -0.601043       -16.3552
  23   2.0000      -0.562666       -15.3109
  24   2.0000      -0.540142       -14.6980
  25   2.0000      -0.532055       -14.4780
  26   2.0000      -0.518686       -14.1142
  27   2.0000      -0.510192       -13.8830
  28   2.0000      -0.502394       -13.6708
  29   2.0000      -0.486213       -13.2305
  30   2.0000      -0.449180       -12.2228
  31   2.0000      -0.431184       -11.7331
  32   2.0000      -0.425267       -11.5721
  33   2.0000      -0.419421       -11.4130
  34   2.0000      -0.395826       -10.7710
  35   0.0000       0.131548         3.5796
  36   0.0000       0.144590         3.9345
  37   0.0000       0.169093         4.6012
  38   0.0000       0.171741         4.6733
  39   0.0000       0.190937         5.1957

MULLIKEN ATOMIC CHARGES
-----------------------
   0 C :   -0.402637
   1 C :   -0.223138
   2 C :    0.012676
   3 C :   -0.233938
   4 C :   -0.127141
   5 C :   -0.259812
   6 C :    0.215752
   7 C :   -0.443849
   8 O :   -0.476744
   9 H :    0.134563
  10 H :    0.125492
  11 H :    0.130528
  12 H :    0.108952
  13 H :    0.128894
  14 H :    0.131731
  15 H :    0.112832
  16 H :    0.131152
  17 H :    0.114503
  18 H :    0.110105
  19 H :    0.124491
  20 H :    0.148197
  21 H :    0.123475
  22 H :    0.313918
Sum of atomic charges:   -0.0000000

LOEWDIN ATOMIC CHARGES
----------------------
   0 C :   -0.311913
   1 C :   -0.257080
   2 C :   -0.181903
   3 C :   -0.174404
   4 C :   -0.156141
   5 C :   -0.177901
   6 C :   -0.312288
   7 C :   -0.281768
   8 O :    0.011304
   9 H :    0.120458
  10 H :    0.120847
  11 H :    0.122457
  12 H :    0.141376
  13 H :    0.147319
  14 H :    0.131698
  15 H :    0.127464
  16 H :    0.121835
  17 H :    0.130955
  18 H :    0.122088
  19 H :    0.126092
  20 H :    0.130211
  21 H :    0.124429
  22 H :    0.174863

  Mayer bond orders larger than 0.1
B(  0-C ,  1-C ) :   0.9213 B(  0-C ,  9-H ) :   0.9422 B(  0-C , 10-H ) :   0.9384
B(  0-C , 11-H ) :   0.9395 B(  1-C ,  2-C ) :   0.8454 B(  1-C , 12-H ) :   0.9313
B(  1-C , 13-H ) :   0.9419 B(  2-C ,  3-C ) :   0.9219 B(  2-C ,  5-C ) :   0.8972
B(  2-C ,  6-C ) :   0.8544 B(  2-C ,  8-O ) :  -0.1196 B(  3-C ,  4-C ) :   0.9212
B(  3-C , 14-H ) :   0.9140 B(  3-C , 15-H ) :   0.9347 B(  4-C ,  5-C ) :   0.8988
B(  4-C ,  6-C ) :   0.8795 B(  4-C , 16-H ) :   0.8825 B(  5-C , 17-H ) :   0.9206
B(  5-C , 18-H ) :   0.9356 B(  6-C ,  7-C ) :   0.9513 B(  6-C ,  8-O ) :   1.0510
B(  7-C , 19-H ) :   0.9306 B(  7-C , 20-H ) :   0.9441 B(  7-C , 21-H ) :   0.9247
B(  8-O , 22-H ) :   0.8406

MP2 TOTAL ENERGY:     -387.581454755 Eh
FINAL SINGLE POINT ENERGY      -387.581454754806

DIPOLE MOMENT
-------------
                                X             Y             Z
Electronic contribution:     -1.51781      -4.05204       3.03896
Nuclear contribution   :      1.34016       3.70981      -3.40060
                        -----------------------------------------
Total Dipole Moment    :     -0.17765      -0.34223      -0.36163
                        -----------------------------------------
Magnitude (a.u.)       :      0.52864
Magnitude (Debye)      :      1.34369

                             ****ORCA TERMINATED NORMALLY****
TOTAL RUN TIME: 0 days 0 hours 20 minutes 47 seconds 736 msec
