                         Program Version 3.0.3 - RELEASE   -
|  1> ! RI-MP2 RIJK def2-TZVP def2-TZVP/C def2-TZVP/JK TIGHTSCF
|  2> % maxcore 2000
|  3> % mp2 density relaxed end
|  4> *xyz 0 1
|  5>  C       -0.0742595704     1.5250296764    -0.0372362420
|  6>  C        0.1003362957     0.0206583537     0.0812276978
|  7>  N        1.1323601005    -0.6222802644    -0.8000833175
|  8>  C        2.4000714229    -0.6342460947     0.0289148399
|  9>  C        2.1439056663    -0.0017278069     1.3925772680
| 10>  C        0.7393920611    -0.6627017091     1.3159186247
| 11>  C       -0.0452409810    -0.9934484456     2.5583539391
| 12>  C        1.3575344913    -1.6660535254     0.2386785985
| 13>  C        1.2790202504    -3.1380459148     0.0164586793
| 14>  H        0.8577154546     2.0685945303     0.1361753706
| 15>  H       -0.4222266561     1.7791495690    -1.0438053633
| 16>  H       -0.8212292474     1.8870346352     0.6782716388
| 17>  H       -0.8497549824    -0.4750927332    -0.1541609141
| 18>  H        3.3249103528    -0.6995165313    -0.5299783640
| 19>  H        2.7607120829    -0.4848205112     2.1564123903
| 20>  H        2.2055098795     1.0844991492     1.5131114140
| 21>  H       -0.3352229855    -0.0803939695     3.0922089681
| 22>  H       -0.9631338217    -1.5416383464     2.3177850248
| 23>  H        0.5390825987    -1.6073624005     3.2526798585
| 24>  H        0.2399607912    -3.4772192135    -0.0650868393
| 25>  H        1.7918309357    -3.4025155104    -0.9136217643
| 26>  H        1.7493953808    -3.6918799167     0.8365865320
| 27> *
| 28>
| 29>                          ****END OF INPUT****

CARTESIAN COORDINATES (ANGSTROEM)
---------------------------------
  C     -0.074260    1.525030   -0.037236
  C      0.100336    0.020658    0.081228
  N      1.132360   -0.622280   -0.800083
  C      2.400071   -0.634246    0.028915
  C      2.143906   -0.001728    1.392577
  C      0.739392   -0.662702    1.315919
  C     -0.045241   -0.993448    2.558354
  C      1.357534   -1.666054    0.238679
  C      1.279020   -3.138046    0.016459
  H      0.857715    2.068595    0.136175
  H     -0.422227    1.779150   -1.043805
  H     -0.821229    1.887035    0.678272
  H     -0.849755   -0.475093   -0.154161
  H      3.324910   -0.699517   -0.529978
  H      2.760712   -0.484821    2.156412
  H      2.205510    1.084499    1.513111
  H     -0.335223   -0.080394    3.092209
  H     -0.963134   -1.541638    2.317785
  H      0.539083   -1.607362    3.252680
  H      0.239961   -3.477219   -0.065087
  H      1.791831   -3.402516   -0.913622
  H      1.749395   -3.691880    0.836587

 Total Charge           Charge          ....    0
 Multiplicity           Mult            ....    1
 Number of Electrons    NEL             ....   68
 Basis Dimension        Dim             ....  357

ORBITAL ENERGIES
----------------

  NO   OCC          E(Eh)            E(eV)
   0   2.0000     -15.548562      -423.0979
   1   2.0000     -11.257317      -306.3272
   2   2.0000     -11.250964      -306.1543
   3   2.0000     -11.250418      -306.1394
   4   2.0000     -11.241472      -305.8960
   5   2.0000     -11.225565      -305.4632
   6   2.0000     -11.223458      -305.4058
   7   2.0000     -11.221073      -305.3409
   8   2.0000     -11.209354      -305.0220
   9   2.0000      -1.305878       -35.5347
  10   2.0000      -1.047096       -28.4929
  11   2.0000      -1.030317       -28.0364
  12   2.0000      -0.989197       -26.9174
  13   2.0000      -0.957536       -26.0559
  14   2.0000      -0.885645       -24.0996
  15   2.0000      -0.812796       -22.1173
  16   2.0000      -0.747386       -20.3374
  17   2.0000      -0.695116       -18.9151
  18   2.0000      -0.651104       -17.7174
  19   2.0000      -0.625973       -17.0336
  20   2.0000      -0.609902       -16.5963
  21   2.0000      -0.593489       -16.1496
  22   2.0000      -0.564066       -15.3490
  23   2.0000      -0.557474       -15.1696
  24   2.0000      -0.553966       -15.0742
  25   2.0000      -0.545137       -14.8339
  26   2.0000      -0.538578       -14.6554
  27   2.0000      -0.521935       -14.2026
  28   2.0000      -0.492115       -13.3911
  29   2.0000      -0.459276       -12.4975
  30   2.0000      -0.429171       -11.6783
  31   2.0000      -0.411799       -11.2056
  32   2.0000      -0.393315       -10.7026
  33   2.0000      -0.354306        -9.6412
  34   0.0000       0.126445         3.4408
  35   0.0000       0.155184         4.2228
  36   0.0000       0.169062         4.6004
  37   0.0000       0.172974         4.7069
  38   0.0000       0.187980         5.1152

MULLIKEN ATOMIC CHARGES
-----------------------
   0 C :   -0.430418
   1 C :    0.019798
   2 N :   -0.248904
   3 C :   -0.136829
   4 C :   -0.232122
   5 C :    0.053996
   6 C :   -0.391985
   7 C :    0.110562
   8 C :   -0.415433
   9 H :    0.129380
  10 H :    0.142793
  11 H :    0.127434
  12 H :    0.096723
  13 H :    0.123406
  14 H :    0.116750
  15 H :    0.112685
  16 H :    0.138153
  17 H :    0.133208
  18 H :    0.133277
  19 H :    0.134948
  20 H :    0.147887
  21 H :    0.134691
Sum of atomic charges:   -0.0000000

LOEWDIN ATOMIC CHARGES
----------------------
   0 C :   -0.294581
   1 C :   -0.246777
   2 N :    0.154053
   3 C :   -0.190082
   4 C :   -0.188629
   5 C :   -0.198221
   6 C :   -0.278454
   7 C :   -0.200880
   8 C :   -0.275897
   9 H :    0.123614
  10 H :    0.130246
  11 H :    0.126678
  12 H :    0.151201
  13 H :    0.133295
  14 H :    0.144073
  15 H :    0.122529
  16 H :    0.131592
  17 H :    0.128511
  18 H :    0.128503
  19 H :    0.130866
  20 H :    0.138021
  21 H :    0.130338

  Mayer bond orders larger than 0.1
B(  0-C ,  1-C ) :   0.8998 B(  0-C ,  9-H ) :   0.9419 B(  0-C , 10-H ) :   0.9389
B(  0-C , 11-H ) :   0.9325 B(  1-C ,  2-N ) :   0.9366 B(  1-C ,  5-C ) :   0.9711
B(  1-C , 12-H ) :   0.9161 B(  2-N ,  3-C ) :   0.9036 B(  2-N ,  7-C ) :   0.8331
B(  3-C ,  4-C ) :   0.9082 B(  3-C ,  7-C ) :   0.8342 B(  3-C , 13-H ) :   0.9471
B(  4-C ,  5-C ) :   0.9261 B(  4-C , 14-H ) :   0.9076 B(  4-C , 15-H ) :   0.9216
B(  5-C ,  6-C ) :   0.8622 B(  5-C ,  7-C ) :   0.8972 B(  6-C , 16-H ) :   0.9356
B(  6-C , 17-H ) :   0.9421 B(  6-C , 18-H ) :   0.9380 B(  7-C ,  8-C ) :   0.7740
B(  8-C , 19-H ) :   0.9442 B(  8-C , 20-H ) :   0.9492 B(  8-C , 21-H ) :   0.9464

MP2 TOTAL ENERGY:     -366.505398338 Eh
FINAL SINGLE POINT ENERGY      -366.505398337683

DIPOLE MOMENT
-------------
                                X             Y             Z
Electronic contribution:      2.46301      -0.36170      -3.16251
Nuclear contribution   :     -2.51485       0.21843       3.90356
                        -----------------------------------------
Total Dipole Moment    :     -0.05184      -0.14327       0.74104
                        -----------------------------------------
Magnitude (a.u.)       :      0.75654
Magnitude (Debye)      :      1.92298

                             ****ORCA TERMINATED NORMALLY****
TOTAL RUN TIME: 0 days 0 hours 22 minutes 54 seconds 761 msec
