                         Program Version 3.0.3 - RELEASE   -
|  1> ! RI-MP2 RIJK def2-TZVP def2-TZVP/C def2-TZVP/JK TIGHTSCF
|  2> % maxcore 2000
|  3> % mp2 density relaxed end
|  4> *xyz 0 1
|  5>  N       -0.1360219910     1.2259514038    -0.5729792694
|  6>  C       -0.0542966083     0.0675058683    -0.1078448993
|  7>  O        1.0133154303    -0.6657967489     0.3798302214
|  8>  C        0.1916668591    -1.8503747198     0.5812595203
|  9>  C        0.1420405312    -2.3143302910     2.0175727338
| 10>  O        0.6295617233    -1.7261597795     2.9433853239
| 11>  C       -1.0280864965    -1.0499187394     0.0808520724
| 12>  C       -2.4478121128    -0.9626363899     0.4906062120
| 13>  N       -2.0645696544    -1.4862787532    -0.8287423537
| 14>  H        0.7611431750     1.7115569332    -0.5732814943
| 15>  H        0.4895481019    -2.6667844324    -0.0858404913
| 16>  H       -0.4192426228    -3.2680187128     2.1484360491
| 17>  H       -2.8629233451    -1.7003515103     1.1710447090
| 18>  H       -2.8722995489     0.0345647706     0.5642078113
| 19>  H       -2.1950532610    -0.7822235786    -1.5532377549
| 20> *
| 21>
| 22>                          ****END OF INPUT****

CARTESIAN COORDINATES (ANGSTROEM)
---------------------------------
  N     -0.136022    1.225951   -0.572979
  C     -0.054297    0.067506   -0.107845
  O      1.013315   -0.665797    0.379830
  C      0.191667   -1.850375    0.581260
  C      0.142041   -2.314330    2.017573
  O      0.629562   -1.726160    2.943385
  C     -1.028086   -1.049919    0.080852
  C     -2.447812   -0.962636    0.490606
  N     -2.064570   -1.486279   -0.828742
  H      0.761143    1.711557   -0.573281
  H      0.489548   -2.666784   -0.085840
  H     -0.419243   -3.268019    2.148436
  H     -2.862923   -1.700352    1.171045
  H     -2.872300    0.034565    0.564208
  H     -2.195053   -0.782224   -1.553238

 Total Charge           Charge          ....    0
 Multiplicity           Mult            ....    1
 Number of Electrons    NEL             ....   66
 Basis Dimension        Dim             ....  315

ORBITAL ENERGIES
----------------

  NO   OCC          E(Eh)            E(eV)
   0   2.0000     -20.612219      -560.8870
   1   2.0000     -20.579917      -560.0080
   2   2.0000     -15.596576      -424.4044
   3   2.0000     -15.555812      -423.2952
   4   2.0000     -11.358081      -309.0691
   5   2.0000     -11.353820      -308.9532
   6   2.0000     -11.330770      -308.3259
   7   2.0000     -11.310708      -307.7800
   8   2.0000     -11.293120      -307.3014
   9   2.0000      -1.459608       -39.7180
  10   2.0000      -1.415262       -38.5112
  11   2.0000      -1.302920       -35.4542
  12   2.0000      -1.215795       -33.0835
  13   2.0000      -1.037973       -28.2447
  14   2.0000      -0.950275       -25.8583
  15   2.0000      -0.914329       -24.8802
  16   2.0000      -0.822396       -22.3785
  17   2.0000      -0.765275       -20.8242
  18   2.0000      -0.731570       -19.9070
  19   2.0000      -0.724092       -19.7035
  20   2.0000      -0.701785       -19.0965
  21   2.0000      -0.668368       -18.1872
  22   2.0000      -0.651012       -17.7149
  23   2.0000      -0.602470       -16.3940
  24   2.0000      -0.578549       -15.7431
  25   2.0000      -0.566212       -15.4074
  26   2.0000      -0.529436       -14.4067
  27   2.0000      -0.513467       -13.9722
  28   2.0000      -0.504491       -13.7279
  29   2.0000      -0.456815       -12.4306
  30   2.0000      -0.454587       -12.3699
  31   2.0000      -0.438238       -11.9251
  32   2.0000      -0.406372       -11.0579
  33   0.0000       0.107018         2.9121
  34   0.0000       0.135264         3.6807
  35   0.0000       0.143926         3.9164
  36   0.0000       0.154533         4.2050
  37   0.0000       0.160228         4.3600

MULLIKEN ATOMIC CHARGES
-----------------------
   0 N :   -0.366836
   1 C :    0.113865
   2 O :   -0.254071
   3 C :    0.203061
   4 C :    0.051579
   5 O :   -0.234448
   6 C :    0.005030
   7 C :   -0.160432
   8 N :   -0.365200
   9 H :    0.240626
  10 H :    0.137865
  11 H :    0.089425
  12 H :    0.135753
  13 H :    0.158257
  14 H :    0.245525
Sum of atomic charges:    0.0000000

LOEWDIN ATOMIC CHARGES
----------------------
   0 N :   -0.040704
   1 C :   -0.368358
   2 O :    0.257109
   3 C :   -0.209911
   4 C :   -0.277110
   5 O :    0.162109
   6 C :   -0.244775
   7 C :   -0.213786
   8 N :    0.033379
   9 H :    0.178661
  10 H :    0.154863
  11 H :    0.117916
  12 H :    0.132032
  13 H :    0.136025
  14 H :    0.182549

  Mayer bond orders larger than 0.1
B(  0-N ,  1-C ) :   2.0740 B(  0-N ,  9-H ) :   0.8470 B(  1-C ,  2-O ) :   1.0643
B(  1-C ,  6-C ) :   0.9423 B(  2-O ,  3-C ) :   0.9100 B(  3-C ,  4-C ) :   0.8424
B(  3-C ,  6-C ) :   0.8815 B(  3-C , 10-H ) :   0.8954 B(  4-C ,  5-O ) :   2.0282
B(  4-C , 11-H ) :   0.9310 B(  6-C ,  7-C ) :   0.8862 B(  6-C ,  8-N ) :   0.9063
B(  7-C ,  8-N ) :   0.9480 B(  7-C , 12-H ) :   0.9133 B(  7-C , 13-H ) :   0.9138
B(  8-N , 14-H ) :   0.8579

MP2 TOTAL ENERGY:     -453.167247137 Eh
FINAL SINGLE POINT ENERGY      -453.167247137255

DIPOLE MOMENT
-------------
                                X             Y             Z
Electronic contribution:      3.86706       0.28619       1.23063
Nuclear contribution   :     -4.39601      -0.80988      -1.62750
                        -----------------------------------------
Total Dipole Moment    :     -0.52895      -0.52369      -0.39688
                        -----------------------------------------
Magnitude (a.u.)       :      0.84353
Magnitude (Debye)      :      2.14410

                             ****ORCA TERMINATED NORMALLY****
TOTAL RUN TIME: 0 days 0 hours 13 minutes 31 seconds 262 msec
