                         Program Version 3.0.3 - RELEASE   -
|  1> ! RI-MP2 RIJK def2-TZVP def2-TZVP/C def2-TZVP/JK TIGHTSCF
|  2> % maxcore 2000
|  3> % mp2 density relaxed end
|  4> *xyz 0 1
|  5>  N       -0.0895900277    -1.1894931805     0.0027757827
|  6>  C       -0.0538276394    -0.0325490834    -0.0018087950
|  7>  C       -0.0235410739     1.4006775661     0.0011947923
|  8>  C        0.4880721789     2.1597910808     1.2292057443
|  9>  C        1.0291626220     1.4015250973     2.4398192002
| 10>  C        2.5694317950     1.4182791279     2.5045771139
| 11>  C        3.1963679609     1.1210259784     1.1639076906
| 12>  C        2.6109200154     1.4427718158     0.0098770961
| 13>  C        1.3110370883     2.1578995556    -0.0247054835
| 14>  H       -0.8444868839     1.8553780562    -0.5434542581
| 15>  H       -0.0710753678     3.0640000244     1.4444485520
| 16>  H        0.6097439782     1.8308069996     3.3543979758
| 17>  H        0.6954676473     0.3594053759     2.4038831907
| 18>  H        2.9248216976     2.3959379757     2.8619390635
| 19>  H        2.9102401731     0.6896017303     3.2475073218
| 20>  H        4.1651223355     0.6291903616     1.1586209383
| 21>  H        3.0823977321     1.2086405088    -0.9401222041
| 22>  H        1.2823602984     3.0489573194    -0.6463880415
| 23> *
| 24>
| 25>                          ****END OF INPUT****

CARTESIAN COORDINATES (ANGSTROEM)
---------------------------------
  N     -0.089590   -1.189493    0.002776
  C     -0.053828   -0.032549   -0.001809
  C     -0.023541    1.400678    0.001195
  C      0.488072    2.159791    1.229206
  C      1.029163    1.401525    2.439819
  C      2.569432    1.418279    2.504577
  C      3.196368    1.121026    1.163908
  C      2.610920    1.442772    0.009877
  C      1.311037    2.157900   -0.024705
  H     -0.844487    1.855378   -0.543454
  H     -0.071075    3.064000    1.444449
  H      0.609744    1.830807    3.354398
  H      0.695468    0.359405    2.403883
  H      2.924822    2.395938    2.861939
  H      2.910240    0.689602    3.247507
  H      4.165122    0.629190    1.158621
  H      3.082398    1.208641   -0.940122
  H      1.282360    3.048957   -0.646388

 Total Charge           Charge          ....    0
 Multiplicity           Mult            ....    1
 Number of Electrons    NEL             ....   64
 Basis Dimension        Dim             ....  333

ORBITAL ENERGIES
----------------

  NO   OCC          E(Eh)            E(eV)
   0   2.0000     -15.560583      -423.4250
   1   2.0000     -11.280642      -306.9619
   2   2.0000     -11.267426      -306.6022
   3   2.0000     -11.264117      -306.5122
   4   2.0000     -11.262393      -306.4653
   5   2.0000     -11.239697      -305.8477
   6   2.0000     -11.238701      -305.8206
   7   2.0000     -11.237179      -305.7792
   8   2.0000     -11.235815      -305.7421
   9   2.0000      -1.219639       -33.1881
  10   2.0000      -1.185260       -32.2526
  11   2.0000      -1.081932       -29.4409
  12   2.0000      -1.022939       -27.8356
  13   2.0000      -0.927631       -25.2421
  14   2.0000      -0.866502       -23.5787
  15   2.0000      -0.837642       -22.7934
  16   2.0000      -0.722210       -19.6523
  17   2.0000      -0.705871       -19.2077
  18   2.0000      -0.667618       -18.1668
  19   2.0000      -0.655216       -17.8293
  20   2.0000      -0.608855       -16.5678
  21   2.0000      -0.582361       -15.8468
  22   2.0000      -0.561473       -15.2784
  23   2.0000      -0.552246       -15.0274
  24   2.0000      -0.543594       -14.7919
  25   2.0000      -0.521767       -14.1980
  26   2.0000      -0.492523       -13.4022
  27   2.0000      -0.478388       -13.0176
  28   2.0000      -0.467343       -12.7170
  29   2.0000      -0.429558       -11.6889
  30   2.0000      -0.412190       -11.2163
  31   2.0000      -0.353032        -9.6065
  32   0.0000       0.124025         3.3749
  33   0.0000       0.132016         3.5923
  34   0.0000       0.152573         4.1517
  35   0.0000       0.159072         4.3286
  36   0.0000       0.168182         4.5765

MULLIKEN ATOMIC CHARGES
-----------------------
   0 N :   -0.058187
   1 C :   -0.180684
   2 C :   -0.096787
   3 C :   -0.049883
   4 C :   -0.271465
   5 C :   -0.188138
   6 C :   -0.133113
   7 C :   -0.226221
   8 C :   -0.021583
   9 H :    0.154046
  10 H :    0.136404
  11 H :    0.130628
  12 H :    0.149083
  13 H :    0.125488
  14 H :    0.130547
  15 H :    0.129881
  16 H :    0.130679
  17 H :    0.139304
Sum of atomic charges:    0.0000000

LOEWDIN ATOMIC CHARGES
----------------------
   0 N :    0.060235
   1 C :   -0.181719
   2 C :   -0.169516
   3 C :   -0.149575
   4 C :   -0.223484
   5 C :   -0.242524
   6 C :   -0.148196
   7 C :   -0.149057
   8 C :   -0.153501
   9 H :    0.169013
  10 H :    0.151711
  11 H :    0.142071
  12 H :    0.152704
  13 H :    0.147035
  14 H :    0.144515
  15 H :    0.144093
  16 H :    0.148070
  17 H :    0.158124

  Mayer bond orders larger than 0.1
B(  0-N ,  1-C ) :   2.8424 B(  1-C ,  2-C ) :   1.0019 B(  2-C ,  3-C ) :   0.8424
B(  2-C ,  8-C ) :   0.8225 B(  2-C ,  9-H ) :   0.9122 B(  3-C ,  4-C ) :   0.9195
B(  3-C ,  8-C ) :   0.8669 B(  3-C , 10-H ) :   0.9243 B(  4-C ,  5-C ) :   0.9361
B(  4-C , 11-H ) :   0.9377 B(  4-C , 12-H ) :   0.9230 B(  5-C ,  6-C ) :   0.9309
B(  5-C , 13-H ) :   0.9124 B(  5-C , 14-H ) :   0.9347 B(  6-C ,  7-C ) :   1.7982
B(  6-C , 15-H ) :   0.9249 B(  7-C ,  8-C ) :   0.9565 B(  7-C , 16-H ) :   0.9269
B(  8-C , 17-H ) :   0.9217

MP2 TOTAL ENERGY:     -364.161951977 Eh
FINAL SINGLE POINT ENERGY      -364.161951976999

DIPOLE MOMENT
-------------
                                X             Y             Z
Electronic contribution:     -3.10450      -3.23358      -4.12864
Nuclear contribution   :      3.40017       4.81970       4.45772
                        -----------------------------------------
Total Dipole Moment    :      0.29567       1.58612       0.32908
                        -----------------------------------------
Magnitude (a.u.)       :      1.64666
Magnitude (Debye)      :      4.18549

                             ****ORCA TERMINATED NORMALLY****
TOTAL RUN TIME: 0 days 0 hours 19 minutes 11 seconds 661 msec
