                         Program Version 3.0.3 - RELEASE   -
|  1> ! RI-MP2 RIJK def2-TZVP def2-TZVP/C def2-TZVP/JK TIGHTSCF
|  2> % maxcore 2000
|  3> % mp2 density relaxed end
|  4> *xyz 0 1
|  5>  C        0.0023823739     1.5339290132    -0.0359029998
|  6>  C        1.5332893038     1.7263737277    -0.0190516276
|  7>  C        2.0153471409     1.4243183933     1.4533757645
|  8>  C        0.9824445355     0.5828036221     2.2869788897
|  9>  C        0.4645800345    -0.5062273732     1.3674038972
| 10>  N       -0.9283700968    -0.6795240988     0.8770535496
| 11>  C        0.0420491187     0.0101644754     0.0351559291
| 12>  C        1.0240358059    -0.3427598511    -1.0546914315
| 13>  C        1.9274169320     0.6453466454    -1.0481924949
| 14>  H       -0.5317635006     2.0025830049     0.7908030063
| 15>  H       -0.4365824850     1.8708721895    -0.9794939857
| 16>  H        1.8687344628     2.7214789476    -0.3206445328
| 17>  H        2.9740667398     0.8953377498     1.4247109818
| 18>  H        2.2006415520     2.3712085971     1.9711956510
| 19>  H        1.4675255398     0.1762695233     3.1804021420
| 20>  H        0.1643596417     1.2163769122     2.6394400607
| 21>  H        1.0803769895    -1.4033250208     1.3329326857
| 22>  H       -1.0611620609    -1.6507916345     0.6039017481
| 23>  H        1.0442334296    -1.2592134757    -1.6310985694
| 24>  H        2.8284620430     0.6931583325    -1.6479140639
| 25> *
| 26>
| 27>                          ****END OF INPUT****

CARTESIAN COORDINATES (ANGSTROEM)
---------------------------------
  C      0.002382    1.533929   -0.035903
  C      1.533289    1.726374   -0.019052
  C      2.015347    1.424318    1.453376
  C      0.982445    0.582804    2.286979
  C      0.464580   -0.506227    1.367404
  N     -0.928370   -0.679524    0.877054
  C      0.042049    0.010164    0.035156
  C      1.024036   -0.342760   -1.054691
  C      1.927417    0.645347   -1.048192
  H     -0.531764    2.002583    0.790803
  H     -0.436582    1.870872   -0.979494
  H      1.868734    2.721479   -0.320645
  H      2.974067    0.895338    1.424711
  H      2.200642    2.371209    1.971196
  H      1.467526    0.176270    3.180402
  H      0.164360    1.216377    2.639440
  H      1.080377   -1.403325    1.332933
  H     -1.061162   -1.650792    0.603902
  H      1.044233   -1.259213   -1.631099
  H      2.828462    0.693158   -1.647914

 Total Charge           Charge          ....    0
 Multiplicity           Mult            ....    1
 Number of Electrons    NEL             ....   66
 Basis Dimension        Dim             ....  345

ORBITAL ENERGIES
----------------

  NO   OCC          E(Eh)            E(eV)
   0   2.0000     -15.564652      -423.5357
   1   2.0000     -11.255511      -306.2780
   2   2.0000     -11.245938      -306.0175
   3   2.0000     -11.233577      -305.6812
   4   2.0000     -11.233388      -305.6760
   5   2.0000     -11.224766      -305.4414
   6   2.0000     -11.224074      -305.4226
   7   2.0000     -11.223578      -305.4091
   8   2.0000     -11.215091      -305.1781
   9   2.0000      -1.268302       -34.5123
  10   2.0000      -1.131310       -30.7845
  11   2.0000      -1.038335       -28.2545
  12   2.0000      -0.963959       -26.2307
  13   2.0000      -0.933626       -25.4053
  14   2.0000      -0.843804       -22.9611
  15   2.0000      -0.821561       -22.3558
  16   2.0000      -0.740245       -20.1431
  17   2.0000      -0.719871       -19.5887
  18   2.0000      -0.694119       -18.8879
  19   2.0000      -0.650442       -17.6994
  20   2.0000      -0.606348       -16.4996
  21   2.0000      -0.599004       -16.2997
  22   2.0000      -0.557336       -15.1659
  23   2.0000      -0.540140       -14.6980
  24   2.0000      -0.534285       -14.5386
  25   2.0000      -0.522184       -14.2093
  26   2.0000      -0.487910       -13.2767
  27   2.0000      -0.470037       -12.7904
  28   2.0000      -0.455625       -12.3982
  29   2.0000      -0.442224       -12.0335
  30   2.0000      -0.426827       -11.6146
  31   2.0000      -0.407363       -11.0849
  32   2.0000      -0.312136        -8.4937
  33   0.0000       0.133846         3.6421
  34   0.0000       0.139365         3.7923
  35   0.0000       0.159340         4.3359
  36   0.0000       0.170090         4.6284
  37   0.0000       0.173043         4.7088

MULLIKEN ATOMIC CHARGES
-----------------------
   0 C :   -0.238763
   1 C :    0.004689
   2 C :   -0.289778
   3 C :   -0.251256
   4 C :   -0.064213
   5 N :   -0.351003
   6 C :    0.207405
   7 C :   -0.288991
   8 C :   -0.178264
   9 H :    0.125222
  10 H :    0.115075
  11 H :    0.116380
  12 H :    0.118359
  13 H :    0.123527
  14 H :    0.128104
  15 H :    0.130447
  16 H :    0.111510
  17 H :    0.222893
  18 H :    0.129289
  19 H :    0.129370
Sum of atomic charges:    0.0000000

LOEWDIN ATOMIC CHARGES
----------------------
   0 C :   -0.175328
   1 C :   -0.205175
   2 C :   -0.214995
   3 C :   -0.242962
   4 C :   -0.221190
   5 N :    0.032846
   6 C :   -0.276794
   7 C :   -0.121554
   8 C :   -0.131711
   9 H :    0.139690
  10 H :    0.143281
  11 H :    0.143533
  12 H :    0.136829
  13 H :    0.135185
  14 H :    0.135620
  15 H :    0.141496
  16 H :    0.139925
  17 H :    0.170468
  18 H :    0.137315
  19 H :    0.133519

  Mayer bond orders larger than 0.1
B(  0-C ,  1-C ) :   0.9572 B(  0-C ,  6-C ) :   0.9107 B(  0-C ,  9-H ) :   0.9280
B(  0-C , 10-H ) :   0.9104 B(  1-C ,  2-C ) :   0.8672 B(  1-C ,  8-C ) :   0.8991
B(  1-C , 11-H ) :   0.9259 B(  2-C ,  3-C ) :   0.9230 B(  2-C , 12-H ) :   0.9351
B(  2-C , 13-H ) :   0.9273 B(  3-C ,  4-C ) :   0.9134 B(  3-C , 14-H ) :   0.9291
B(  3-C , 15-H ) :   0.9236 B(  4-C ,  5-N ) :   0.9853 B(  4-C ,  6-C ) :   0.8077
B(  4-C , 16-H ) :   0.9313 B(  5-N ,  6-C ) :   1.0501 B(  5-N , 17-H ) :   0.8654
B(  6-C ,  7-C ) :   0.9144 B(  7-C ,  8-C ) :   1.7584 B(  7-C , 18-H ) :   0.9313
B(  8-C , 19-H ) :   0.9234

MP2 TOTAL ENERGY:     -365.315584559 Eh
FINAL SINGLE POINT ENERGY      -365.315584559164

DIPOLE MOMENT
-------------
                                X             Y             Z
Electronic contribution:     -2.23185      -2.32915      -2.24911
Nuclear contribution   :      2.80992       2.12090       2.17962
                        -----------------------------------------
Total Dipole Moment    :      0.57807      -0.20825      -0.06949
                        -----------------------------------------
Magnitude (a.u.)       :      0.61835
Magnitude (Debye)      :      1.57173

                             ****ORCA TERMINATED NORMALLY****
TOTAL RUN TIME: 0 days 0 hours 21 minutes 50 seconds 971 msec
