                         Program Version 3.0.3 - RELEASE   -
|  1> ! RI-MP2 RIJK def2-TZVP def2-TZVP/C def2-TZVP/JK TIGHTSCF
|  2> % maxcore 2000
|  3> % mp2 density relaxed end
|  4> *xyz 0 1
|  5>  C       -0.0456064903     1.4920223483    -0.0075871959
|  6>  C        0.0128158289     0.0370255615     0.0062863320
|  7>  C        0.0703450866    -1.1663283145     0.0094686148
|  8>  C        0.1058942757    -2.6238253067     0.0349884327
|  9>  C        0.7677641070    -3.1786108402     1.3181879598
| 10>  C        0.6720661708    -4.7096856964     1.3465436377
| 11>  C       -0.7733175123    -5.1558287386     1.1192762883
| 12>  O       -1.2985617240    -4.6275697829    -0.0881266082
| 13>  C       -1.3170516901    -3.2147709648    -0.0942306769
| 14>  H        0.4853497576     1.9043778246    -0.8728353248
| 15>  H       -1.0805516120     1.8488018287    -0.0547766526
| 16>  H        0.4094276130     1.9184316520     0.8933944050
| 17>  H        0.6797069292    -2.9872076291    -0.8292613213
| 18>  H        1.8082411187    -2.8452030078     1.3774028725
| 19>  H        0.2490841453    -2.7557030314     2.1882016481
| 20>  H        1.3022455313    -5.1381541541     0.5574522801
| 21>  H        1.0358068830    -5.1021785053     2.3030258211
| 22>  H       -0.8469653371    -6.2437244035     1.0327902827
| 23>  H       -1.4009779243    -4.8402354341     1.9713982265
| 24>  H       -1.9418446602    -2.8290323257     0.7291440020
| 25>  H       -1.7740424368    -2.9110229501    -1.0393269537
| 26> *
| 27>
| 28>                          ****END OF INPUT****

CARTESIAN COORDINATES (ANGSTROEM)
---------------------------------
  C     -0.045606    1.492022   -0.007587
  C      0.012816    0.037026    0.006286
  C      0.070345   -1.166328    0.009469
  C      0.105894   -2.623825    0.034988
  C      0.767764   -3.178611    1.318188
  C      0.672066   -4.709686    1.346544
  C     -0.773318   -5.155829    1.119276
  O     -1.298562   -4.627570   -0.088127
  C     -1.317052   -3.214771   -0.094231
  H      0.485350    1.904378   -0.872835
  H     -1.080552    1.848802   -0.054777
  H      0.409428    1.918432    0.893394
  H      0.679707   -2.987208   -0.829261
  H      1.808241   -2.845203    1.377403
  H      0.249084   -2.755703    2.188202
  H      1.302246   -5.138154    0.557452
  H      1.035807   -5.102179    2.303026
  H     -0.846965   -6.243724    1.032790
  H     -1.400978   -4.840235    1.971398
  H     -1.941845   -2.829032    0.729144
  H     -1.774042   -2.911023   -1.039327

 Total Charge           Charge          ....    0
 Multiplicity           Mult            ....    1
 Number of Electrons    NEL             ....   68
 Basis Dimension        Dim             ....  351

ORBITAL ENERGIES
----------------

  NO   OCC          E(Eh)            E(eV)
   0   2.0000     -20.552006      -559.2485
   1   2.0000     -11.274189      -306.7863
   2   2.0000     -11.272244      -306.7334
   3   2.0000     -11.248923      -306.0988
   4   2.0000     -11.245411      -306.0032
   5   2.0000     -11.228229      -305.5356
   6   2.0000     -11.223768      -305.4143
   7   2.0000     -11.221568      -305.3544
   8   2.0000     -11.214791      -305.1700
   9   2.0000      -1.374833       -37.4111
  10   2.0000      -1.101316       -29.9683
  11   2.0000      -1.052200       -28.6318
  12   2.0000      -1.028286       -27.9811
  13   2.0000      -0.947973       -25.7956
  14   2.0000      -0.881459       -23.9857
  15   2.0000      -0.867907       -23.6170
  16   2.0000      -0.780755       -21.2454
  17   2.0000      -0.690521       -18.7900
  18   2.0000      -0.660897       -17.9839
  19   2.0000      -0.644803       -17.5460
  20   2.0000      -0.624019       -16.9804
  21   2.0000      -0.617312       -16.7979
  22   2.0000      -0.590538       -16.0694
  23   2.0000      -0.584284       -15.8992
  24   2.0000      -0.579155       -15.7596
  25   2.0000      -0.555827       -15.1248
  26   2.0000      -0.544400       -14.8139
  27   2.0000      -0.511664       -13.9231
  28   2.0000      -0.488990       -13.3061
  29   2.0000      -0.477667       -12.9980
  30   2.0000      -0.454038       -12.3550
  31   2.0000      -0.416082       -11.3222
  32   2.0000      -0.365200        -9.9376
  33   2.0000      -0.361619        -9.8402
  34   0.0000       0.132766         3.6127
  35   0.0000       0.146131         3.9764
  36   0.0000       0.159153         4.3308
  37   0.0000       0.175006         4.7622
  38   0.0000       0.181423         4.9368

MULLIKEN ATOMIC CHARGES
-----------------------
   0 C :   -0.487051
   1 C :    0.072438
   2 C :   -0.040844
   3 C :   -0.184528
   4 C :   -0.227022
   5 C :   -0.186425
   6 C :   -0.075951
   7 O :   -0.305535
   8 C :   -0.073188
   9 H :    0.162631
  10 H :    0.162118
  11 H :    0.161511
  12 H :    0.106735
  13 H :    0.128239
  14 H :    0.115954
  15 H :    0.104496
  16 H :    0.121300
  17 H :    0.129112
  18 H :    0.089350
  19 H :    0.097622
  20 H :    0.129036
Sum of atomic charges:   -0.0000000

LOEWDIN ATOMIC CHARGES
----------------------
   0 C :   -0.296310
   1 C :   -0.101935
   2 C :   -0.066339
   3 C :   -0.249115
   4 C :   -0.229539
   5 C :   -0.271224
   6 C :   -0.318793
   7 O :    0.155424
   8 C :   -0.284465
   9 H :    0.140598
  10 H :    0.140411
  11 H :    0.140196
  12 H :    0.169587
  13 H :    0.140735
  14 H :    0.142820
  15 H :    0.139617
  16 H :    0.139619
  17 H :    0.129048
  18 H :    0.120307
  19 H :    0.125129
  20 H :    0.134228

  Mayer bond orders larger than 0.1
B(  0-C ,  1-C ) :   0.8279 B(  0-C ,  9-H ) :   0.9511 B(  0-C , 10-H ) :   0.9488
B(  0-C , 11-H ) :   0.9492 B(  1-C ,  2-C ) :   2.6682 B(  1-C ,  3-C ) :  -0.1229
B(  2-C ,  3-C ) :   1.0919 B(  3-C ,  4-C ) :   0.9297 B(  3-C ,  8-C ) :   0.9246
B(  3-C , 12-H ) :   0.9015 B(  4-C ,  5-C ) :   0.9280 B(  4-C , 13-H ) :   0.9269
B(  4-C , 14-H ) :   0.9304 B(  5-C ,  6-C ) :   0.9360 B(  5-C , 15-H ) :   0.9185
B(  5-C , 16-H ) :   0.9244 B(  6-C ,  7-O ) :   0.9358 B(  6-C , 17-H ) :   0.9297
B(  6-C , 18-H ) :   0.9369 B(  7-O ,  8-C ) :   0.9482 B(  8-C , 19-H ) :   0.9386
B(  8-C , 20-H ) :   0.9230

MP2 TOTAL ENERGY:     -386.395328229 Eh
FINAL SINGLE POINT ENERGY      -386.395328229038

DIPOLE MOMENT
-------------
                                X             Y             Z
Electronic contribution:     -1.24535      -1.10797      -2.62426
Nuclear contribution   :      1.50986       1.46102       3.04726
                        -----------------------------------------
Total Dipole Moment    :      0.26451       0.35305       0.42300
                        -----------------------------------------
Magnitude (a.u.)       :      0.61118
Magnitude (Debye)      :      1.55350

                             ****ORCA TERMINATED NORMALLY****
TOTAL RUN TIME: 0 days 0 hours 21 minutes 4 seconds 58 msec
