                         Program Version 3.0.3 - RELEASE   -
|  1> ! RI-MP2 RIJK def2-TZVP def2-TZVP/C def2-TZVP/JK TIGHTSCF
|  2> % maxcore 2000
|  3> % mp2 density relaxed end
|  4> *xyz 0 1
|  5>  C       -0.1748129541     1.5430950249     0.0031092175
|  6>  N        0.0145406329     0.1036541981    -0.1322469775
|  7>  C        0.4095634973    -0.6822424374    -1.2807917488
|  8>  C        1.2462421551    -0.1714079755    -2.4464286765
|  9>  C        1.7296142329     1.2584464361    -2.5087062912
| 10>  C        2.6158556700     0.1964138448    -1.9153884657
| 11>  C        2.6213513066    -0.0410519942    -0.4033602802
| 12>  O        2.9684823021     1.1596224090     0.2859056752
| 13>  C        1.2480002003    -0.6416164672    -0.0289329306
| 14>  H       -0.8128835990     1.9066522345    -0.8077234049
| 15>  H       -0.7064099087     1.7269817844     0.9447960146
| 16>  H        0.7522492183     2.1215006171     0.0251860416
| 17>  H       -0.2562855808    -1.5125669436    -1.5094030867
| 18>  H        1.1353042064    -0.7144927327    -3.3783601331
| 19>  H        2.0212623144     1.6215359860    -3.4891190167
| 20>  H        1.2931091810     2.0169334982    -1.8797938981
| 21>  H        3.5199703551    -0.0610123787    -2.4555028043
| 22>  H        3.3743319637    -0.8162950032    -0.1893001475
| 23>  H        2.9474328906     0.9732261016     1.2303914001
| 24>  H        1.2574102858    -1.4357846119     0.7187544428
| 25> *
| 26>
| 27>                          ****END OF INPUT****

CARTESIAN COORDINATES (ANGSTROEM)
---------------------------------
  C     -0.174813    1.543095    0.003109
  N      0.014541    0.103654   -0.132247
  C      0.409563   -0.682242   -1.280792
  C      1.246242   -0.171408   -2.446429
  C      1.729614    1.258446   -2.508706
  C      2.615856    0.196414   -1.915388
  C      2.621351   -0.041052   -0.403360
  O      2.968482    1.159622    0.285906
  C      1.248000   -0.641616   -0.028933
  H     -0.812884    1.906652   -0.807723
  H     -0.706410    1.726982    0.944796
  H      0.752249    2.121501    0.025186
  H     -0.256286   -1.512567   -1.509403
  H      1.135304   -0.714493   -3.378360
  H      2.021262    1.621536   -3.489119
  H      1.293109    2.016933   -1.879794
  H      3.519970   -0.061012   -2.455503
  H      3.374332   -0.816295   -0.189300
  H      2.947433    0.973226    1.230391
  H      1.257410   -1.435785    0.718754

 Total Charge           Charge          ....    0
 Multiplicity           Mult            ....    1
 Number of Electrons    NEL             ....   68
 Basis Dimension        Dim             ....  345

ORBITAL ENERGIES
----------------

  NO   OCC          E(Eh)            E(eV)
   0   2.0000     -20.556541      -559.3719
   1   2.0000     -15.550898      -423.1614
   2   2.0000     -11.287309      -307.1433
   3   2.0000     -11.259885      -306.3970
   4   2.0000     -11.251154      -306.1595
   5   2.0000     -11.238652      -305.8193
   6   2.0000     -11.233503      -305.6791
   7   2.0000     -11.227681      -305.5207
   8   2.0000     -11.225535      -305.4623
   9   2.0000      -1.362317       -37.0705
  10   2.0000      -1.272234       -34.6193
  11   2.0000      -1.146075       -31.1863
  12   2.0000      -1.006297       -27.3827
  13   2.0000      -0.957987       -26.0682
  14   2.0000      -0.870937       -23.6994
  15   2.0000      -0.816289       -22.2123
  16   2.0000      -0.772197       -21.0126
  17   2.0000      -0.740613       -20.1531
  18   2.0000      -0.715848       -19.4792
  19   2.0000      -0.681015       -18.5314
  20   2.0000      -0.630240       -17.1497
  21   2.0000      -0.619723       -16.8635
  22   2.0000      -0.598043       -16.2736
  23   2.0000      -0.579305       -15.7637
  24   2.0000      -0.575013       -15.6469
  25   2.0000      -0.542618       -14.7654
  26   2.0000      -0.539526       -14.6812
  27   2.0000      -0.492098       -13.3907
  28   2.0000      -0.469568       -12.7776
  29   2.0000      -0.446260       -12.1433
  30   2.0000      -0.439297       -11.9539
  31   2.0000      -0.416320       -11.3286
  32   2.0000      -0.394868       -10.7449
  33   2.0000      -0.343263        -9.3407
  34   0.0000       0.131397         3.5755
  35   0.0000       0.153113         4.1664
  36   0.0000       0.166080         4.5193
  37   0.0000       0.177396         4.8272
  38   0.0000       0.191440         5.2093

MULLIKEN ATOMIC CHARGES
-----------------------
   0 C :   -0.340276
   1 N :   -0.197925
   2 C :   -0.068715
   3 C :   -0.110111
   4 C :   -0.266149
   5 C :   -0.096436
   6 C :    0.087439
   7 O :   -0.460184
   8 C :   -0.142090
   9 H :    0.140956
  10 H :    0.139279
  11 H :    0.151262
  12 H :    0.119312
  13 H :    0.120838
  14 H :    0.127986
  15 H :    0.142560
  16 H :    0.128231
  17 H :    0.087008
  18 H :    0.314539
  19 H :    0.122477
Sum of atomic charges:    0.0000000

LOEWDIN ATOMIC CHARGES
----------------------
   0 C :   -0.335545
   1 N :    0.127994
   2 C :   -0.208350
   3 C :   -0.179077
   4 C :   -0.191680
   5 C :   -0.172667
   6 C :   -0.294380
   7 O :   -0.022383
   8 C :   -0.221915
   9 H :    0.119430
  10 H :    0.115941
  11 H :    0.110032
  12 H :    0.139868
  13 H :    0.145621
  14 H :    0.136634
  15 H :    0.136278
  16 H :    0.143741
  17 H :    0.142962
  18 H :    0.174279
  19 H :    0.133218

  Mayer bond orders larger than 0.1
B(  0-C ,  1-N ) :   0.8579 B(  0-C ,  9-H ) :   0.9329 B(  0-C , 10-H ) :   0.9393
B(  0-C , 11-H ) :   0.9236 B(  1-N ,  2-C ) :   0.9586 B(  1-N ,  8-C ) :   0.9474
B(  2-C ,  3-C ) :   0.9109 B(  2-C ,  8-C ) :   0.8779 B(  2-C , 12-H ) :   0.9303
B(  3-C ,  4-C ) :   0.9010 B(  3-C ,  5-C ) :   0.8523 B(  3-C , 13-H ) :   0.9249
B(  4-C ,  5-C ) :   0.8934 B(  4-C , 14-H ) :   0.9335 B(  4-C , 15-H ) :   0.9115
B(  5-C ,  6-C ) :   0.9101 B(  5-C , 16-H ) :   0.9249 B(  6-C ,  7-O ) :   1.0121
B(  6-C ,  8-C ) :   0.9510 B(  6-C , 17-H ) :   0.9301 B(  7-O , 18-H ) :   0.8456
B(  8-C , 19-H ) :   0.9167

MP2 TOTAL ENERGY:     -402.398235200 Eh
FINAL SINGLE POINT ENERGY      -402.398235200332

DIPOLE MOMENT
-------------
                                X             Y             Z
Electronic contribution:      1.30816      -2.17263       0.92575
Nuclear contribution   :     -1.09856       1.89616      -0.93215
                        -----------------------------------------
Total Dipole Moment    :      0.20960      -0.27647      -0.00640
                        -----------------------------------------
Magnitude (a.u.)       :      0.34700
Magnitude (Debye)      :      0.88200

                             ****ORCA TERMINATED NORMALLY****
TOTAL RUN TIME: 0 days 0 hours 18 minutes 45 seconds 264 msec
