                         Program Version 3.0.3 - RELEASE   -
|  1> ! RI-MP2 RIJK def2-TZVP def2-TZVP/C def2-TZVP/JK TIGHTSCF
|  2> % maxcore 2000
|  3> % mp2 density relaxed end
|  4> *xyz 0 1
|  5>  C       -0.3173218338     1.4836486767     0.3421010601
|  6>  O        0.2906476835     0.2500455918     0.0111800818
|  7>  C        0.7102458485    -0.4655381878     1.1322651420
|  8>  C       -0.3002606005    -1.3780606770     1.9435679071
|  9>  C       -0.2269263270    -2.4308789338     0.7633590641
| 10>  C       -1.0394240141    -2.2824487532    -0.5174692510
| 11>  C        1.2609660643    -1.9034620958     0.8884774111
| 12>  C        0.9897148874    -2.0730480571     2.3935995153
| 13>  O        1.4923156116    -2.5367396543     3.3697797448
| 14>  H        0.3546124390     2.1107747976     0.9470330030
| 15>  H       -0.5331528132     1.9972113888    -0.5970023979
| 16>  H       -1.2550048899     1.3413840756     0.8978188931
| 17>  H        1.3409499257     0.1784605292     1.7629591541
| 18>  H       -1.1652172244    -1.0849005109     2.5346997545
| 19>  H       -0.3319653781    -3.4605607764     1.1223403015
| 20>  H       -0.9636050223    -1.2911469509    -0.9551114804
| 21>  H       -0.6952517852    -3.0172805422    -1.2537169221
| 22>  H       -2.0929187632    -2.5019508207    -0.3106980376
| 23>  H        2.1317865918    -2.1913792896     0.3039048963
| 24> *
| 25>
| 26>                          ****END OF INPUT****

CARTESIAN COORDINATES (ANGSTROEM)
---------------------------------
  C     -0.317322    1.483649    0.342101
  O      0.290648    0.250046    0.011180
  C      0.710246   -0.465538    1.132265
  C     -0.300261   -1.378061    1.943568
  C     -0.226926   -2.430879    0.763359
  C     -1.039424   -2.282449   -0.517469
  C      1.260966   -1.903462    0.888477
  C      0.989715   -2.073048    2.393600
  O      1.492316   -2.536740    3.369780
  H      0.354612    2.110775    0.947033
  H     -0.533153    1.997211   -0.597002
  H     -1.255005    1.341384    0.897819
  H      1.340950    0.178461    1.762959
  H     -1.165217   -1.084901    2.534700
  H     -0.331965   -3.460561    1.122340
  H     -0.963605   -1.291147   -0.955111
  H     -0.695252   -3.017281   -1.253717
  H     -2.092919   -2.501951   -0.310698
  H      2.131787   -2.191379    0.303905

 Total Charge           Charge          ....    0
 Multiplicity           Mult            ....    1
 Number of Electrons    NEL             ....   68
 Basis Dimension        Dim             ....  339

ORBITAL ENERGIES
----------------

  NO   OCC          E(Eh)            E(eV)
   0   2.0000     -20.574683      -559.8656
   1   2.0000     -20.552444      -559.2604
   2   2.0000     -11.342334      -308.6406
   3   2.0000     -11.313334      -307.8515
   4   2.0000     -11.285973      -307.1069
   5   2.0000     -11.264162      -306.5134
   6   2.0000     -11.259626      -306.3900
   7   2.0000     -11.259256      -306.3799
   8   2.0000     -11.218619      -305.2741
   9   2.0000      -1.404157       -38.2091
  10   2.0000      -1.396704       -38.0063
  11   2.0000      -1.219825       -33.1931
  12   2.0000      -1.005486       -27.3607
  13   2.0000      -0.961329       -26.1591
  14   2.0000      -0.893354       -24.3094
  15   2.0000      -0.867047       -23.5935
  16   2.0000      -0.793192       -21.5838
  17   2.0000      -0.734141       -19.9770
  18   2.0000      -0.702391       -19.1130
  19   2.0000      -0.678257       -18.4563
  20   2.0000      -0.648648       -17.6506
  21   2.0000      -0.635769       -17.3002
  22   2.0000      -0.612158       -16.6577
  23   2.0000      -0.606625       -16.5071
  24   2.0000      -0.571357       -15.5474
  25   2.0000      -0.562872       -15.3165
  26   2.0000      -0.547401       -14.8955
  27   2.0000      -0.515057       -14.0154
  28   2.0000      -0.499738       -13.5986
  29   2.0000      -0.487409       -13.2631
  30   2.0000      -0.458191       -12.4680
  31   2.0000      -0.456157       -12.4127
  32   2.0000      -0.423977       -11.5370
  33   2.0000      -0.384183       -10.4541
  34   0.0000       0.131775         3.5858
  35   0.0000       0.148570         4.0428
  36   0.0000       0.164397         4.4735
  37   0.0000       0.168382         4.5819
  38   0.0000       0.173894         4.7319

MULLIKEN ATOMIC CHARGES
-----------------------
   0 C :   -0.212558
   1 O :   -0.324075
   2 C :    0.026888
   3 C :   -0.092703
   4 C :   -0.091856
   5 C :   -0.424369
   6 C :   -0.064156
   7 C :    0.090534
   8 O :   -0.251190
   9 H :    0.120192
  10 H :    0.146354
  11 H :    0.120438
  12 H :    0.102366
  13 H :    0.156010
  14 H :    0.118215
  15 H :    0.161771
  16 H :    0.132387
  17 H :    0.130261
  18 H :    0.155490
Sum of atomic charges:   -0.0000000

LOEWDIN ATOMIC CHARGES
----------------------
   0 C :   -0.346640
   1 O :    0.168803
   2 C :   -0.265186
   3 C :   -0.116627
   4 C :   -0.183880
   5 C :   -0.295015
   6 C :   -0.106772
   7 C :   -0.285906
   8 O :    0.165643
   9 H :    0.106742
  10 H :    0.115786
  11 H :    0.104585
  12 H :    0.138351
  13 H :    0.130481
  14 H :    0.153428
  15 H :    0.128728
  16 H :    0.127511
  17 H :    0.126303
  18 H :    0.133665

  Mayer bond orders larger than 0.1
B(  0-C ,  1-O ) :   0.8872 B(  0-C ,  9-H ) :   0.9325 B(  0-C , 10-H ) :   0.9400
B(  0-C , 11-H ) :   0.9337 B(  1-O ,  2-C ) :   0.9549 B(  2-C ,  3-C ) :   0.9018
B(  2-C ,  6-C ) :   0.8855 B(  2-C , 12-H ) :   0.9375 B(  3-C ,  4-C ) :   0.8749
B(  3-C ,  7-C ) :   0.8203 B(  3-C , 13-H ) :   0.8705 B(  4-C ,  5-C ) :   0.8792
B(  4-C ,  6-C ) :   0.8753 B(  4-C , 14-H ) :   0.9282 B(  5-C , 15-H ) :   0.9322
B(  5-C , 16-H ) :   0.9377 B(  5-C , 17-H ) :   0.9373 B(  6-C ,  7-C ) :   0.8286
B(  6-C , 18-H ) :   0.8706 B(  7-C ,  8-O ) :   2.0686

MP2 TOTAL ENERGY:     -422.262417341 Eh
FINAL SINGLE POINT ENERGY      -422.262417341132

DIPOLE MOMENT
-------------
                                X             Y             Z
Electronic contribution:      5.17656      -3.27369       5.71463
Nuclear contribution   :     -5.83667       3.97015      -6.36695
                        -----------------------------------------
Total Dipole Moment    :     -0.66011       0.69646      -0.65232
                        -----------------------------------------
Magnitude (a.u.)       :      1.16032
Magnitude (Debye)      :      2.94929

                             ****ORCA TERMINATED NORMALLY****
TOTAL RUN TIME: 0 days 0 hours 18 minutes 27 seconds 652 msec
