                         Program Version 3.0.3 - RELEASE   -
|  1> ! RI-MP2 RIJK def2-TZVP def2-TZVP/C def2-TZVP/JK TIGHTSCF
|  2> % maxcore 2000
|  3> % mp2 density relaxed end
|  4> *xyz 0 1
|  5>  C       -0.0328575328     1.4861403778     0.1333604485
|  6>  O        1.2355089201     2.0137052990    -0.3366167245
|  7>  C        2.2406794027     1.2119275757    -0.7687597422
|  8>  N        2.2888353925    -0.0586956883    -0.8501147629
|  9>  C        1.1128240154    -0.6681120745    -0.4206564226
| 10>  C        0.0366174592     0.0087641970     0.0332470642
| 11>  O       -0.9330534620    -0.8819933468     0.3681237975
| 12>  C       -0.3564667973    -2.0900937005     0.0835344392
| 13>  N        0.8462748824    -2.0301695319    -0.3837803298
| 14>  H       -0.1783191599     1.8472160274     1.1607062993
| 15>  H       -0.8231684940     1.9286581092    -0.4883654230
| 16>  H        3.0838891755     1.8276621756    -1.0679458310
| 17>  H       -0.9615066018    -2.9611105894     0.2770263472
| 18> *
| 19>
| 20>                          ****END OF INPUT****

CARTESIAN COORDINATES (ANGSTROEM)
---------------------------------
  C     -0.032858    1.486140    0.133360
  O      1.235509    2.013705   -0.336617
  C      2.240679    1.211928   -0.768760
  N      2.288835   -0.058696   -0.850115
  C      1.112824   -0.668112   -0.420656
  C      0.036617    0.008764    0.033247
  O     -0.933053   -0.881993    0.368124
  C     -0.356467   -2.090094    0.083534
  N      0.846275   -2.030170   -0.383780
  H     -0.178319    1.847216    1.160706
  H     -0.823168    1.928658   -0.488365
  H      3.083889    1.827662   -1.067946
  H     -0.961507   -2.961111    0.277026

 Total Charge           Charge          ....    0
 Multiplicity           Mult            ....    1
 Number of Electrons    NEL             ....   64
 Basis Dimension        Dim             ....  303

ORBITAL ENERGIES
----------------

  NO   OCC          E(Eh)            E(eV)
   0   2.0000     -20.651814      -561.9644
   1   2.0000     -20.620599      -561.1150
   2   2.0000     -15.576923      -423.8696
   3   2.0000     -15.567020      -423.6002
   4   2.0000     -11.358584      -309.0828
   5   2.0000     -11.345854      -308.7364
   6   2.0000     -11.329830      -308.3003
   7   2.0000     -11.296829      -307.4023
   8   2.0000     -11.294816      -307.3476
   9   2.0000      -1.497985       -40.7622
  10   2.0000      -1.445369       -39.3305
  11   2.0000      -1.272864       -34.6364
  12   2.0000      -1.219811       -33.1927
  13   2.0000      -1.083502       -29.4836
  14   2.0000      -0.961863       -26.1736
  15   2.0000      -0.894516       -24.3410
  16   2.0000      -0.850444       -23.1418
  17   2.0000      -0.767461       -20.8837
  18   2.0000      -0.760678       -20.6991
  19   2.0000      -0.704297       -19.1649
  20   2.0000      -0.697104       -18.9692
  21   2.0000      -0.666069       -18.1247
  22   2.0000      -0.656257       -17.8577
  23   2.0000      -0.605854       -16.4861
  24   2.0000      -0.600180       -16.3317
  25   2.0000      -0.562684       -15.3114
  26   2.0000      -0.550717       -14.9858
  27   2.0000      -0.494549       -13.4574
  28   2.0000      -0.485956       -13.2235
  29   2.0000      -0.441241       -12.0068
  30   2.0000      -0.432573       -11.7709
  31   2.0000      -0.316589        -8.6148
  32   0.0000       0.110713         3.0126
  33   0.0000       0.137769         3.7489
  34   0.0000       0.148300         4.0355
  35   0.0000       0.172542         4.6951
  36   0.0000       0.181186         4.9303

MULLIKEN ATOMIC CHARGES
-----------------------
   0 C :   -0.009311
   1 O :   -0.243089
   2 C :    0.113826
   3 N :   -0.267853
   4 C :    0.126958
   5 C :    0.042064
   6 O :   -0.213190
   7 C :    0.097944
   8 N :   -0.233270
   9 H :    0.136506
  10 H :    0.136526
  11 H :    0.150661
  12 H :    0.162227
Sum of atomic charges:    0.0000000

LOEWDIN ATOMIC CHARGES
----------------------
   0 C :   -0.220949
   1 O :    0.236524
   2 C :   -0.319859
   3 N :    0.127004
   4 C :   -0.305395
   5 C :   -0.249773
   6 O :    0.348173
   7 C :   -0.306140
   8 N :    0.142398
   9 H :    0.137172
  10 H :    0.137180
  11 H :    0.139307
  12 H :    0.134357

  Mayer bond orders larger than 0.1
B(  0-C ,  1-O ) :   0.8838 B(  0-C ,  5-C ) :   0.9389 B(  0-C ,  9-H ) :   0.9201
B(  0-C , 10-H ) :   0.9201 B(  1-O ,  2-C ) :   1.0772 B(  2-C ,  3-N ) :   1.7473
B(  2-C , 11-H ) :   0.9275 B(  3-N ,  4-C ) :   1.0699 B(  4-C ,  5-C ) :   1.5325
B(  4-C ,  8-N ) :   1.2271 B(  5-C ,  6-O ) :   1.0436 B(  6-O ,  7-C ) :   1.0516
B(  7-C ,  8-N ) :   1.6455 B(  7-C , 12-H ) :   0.9278

MP2 TOTAL ENERGY:     -452.027667191 Eh
FINAL SINGLE POINT ENERGY      -452.027667190786

DIPOLE MOMENT
-------------
                                X             Y             Z
Electronic contribution:      0.52220      -1.94799      -0.30055
Nuclear contribution   :     -1.55311       2.76264       0.74380
                        -----------------------------------------
Total Dipole Moment    :     -1.03091       0.81464       0.44325
                        -----------------------------------------
Magnitude (a.u.)       :      1.38668
Magnitude (Debye)      :      3.52465

                             ****ORCA TERMINATED NORMALLY****
TOTAL RUN TIME: 0 days 0 hours 14 minutes 14 seconds 191 msec
