                         Program Version 3.0.3 - RELEASE   -
|  1> ! RI-MP2 RIJK def2-TZVP def2-TZVP/C def2-TZVP/JK TIGHTSCF
|  2> % maxcore 2000
|  3> % mp2 density relaxed end
|  4> *xyz 0 1
|  5>  O       -0.1239913647     1.2242614361     1.2389648509
|  6>  C        0.0246284660     0.1179738274     0.4064698391
|  7>  C       -0.6405206567    -1.1877679357     0.7504416094
|  8>  C       -1.1901054559    -0.3313178006    -0.3673107082
|  9>  N       -2.4354321603     0.3333738057    -0.1517660389
| 10>  C       -2.7163664056     1.6558101022    -0.1719387325
| 11>  N       -4.0079899677     1.8583152228    -0.0002669929
| 12>  C       -4.4894384656     0.5890252239     0.1190333401
| 13>  N       -3.5858129955    -0.3712015648     0.0341855463
| 14>  H        0.3320970700     1.0460068811     2.0677665394
| 15>  H        0.9684686101     0.0760053625    -0.1365759726
| 16>  H       -0.1521401723    -2.1203854825     0.4937924212
| 17>  H       -1.2406892095    -1.2066960698     1.6526654719
| 18>  H       -1.0383784836    -0.6650593245    -1.3890166945
| 19>  H       -1.9519931831     2.4073563920    -0.2870112061
| 20>  H       -5.5349785157     0.3678373344     0.2753123572
| 21> *
| 22>
| 23>                          ****END OF INPUT****

CARTESIAN COORDINATES (ANGSTROEM)
---------------------------------
  O     -0.123991    1.224261    1.238965
  C      0.024628    0.117974    0.406470
  C     -0.640521   -1.187768    0.750442
  C     -1.190105   -0.331318   -0.367311
  N     -2.435432    0.333374   -0.151766
  C     -2.716366    1.655810   -0.171939
  N     -4.007990    1.858315   -0.000267
  C     -4.489438    0.589025    0.119033
  N     -3.585813   -0.371202    0.034186
  H      0.332097    1.046007    2.067767
  H      0.968469    0.076005   -0.136576
  H     -0.152140   -2.120385    0.493792
  H     -1.240689   -1.206696    1.652665
  H     -1.038378   -0.665059   -1.389017
  H     -1.951993    2.407356   -0.287011
  H     -5.534979    0.367837    0.275312

 Total Charge           Charge          ....    0
 Multiplicity           Mult            ....    1
 Number of Electrons    NEL             ....   66
 Basis Dimension        Dim             ....  321

ORBITAL ENERGIES
----------------

  NO   OCC          E(Eh)            E(eV)
   0   2.0000     -20.586715      -560.1930
   1   2.0000     -15.644750      -425.7153
   2   2.0000     -15.584057      -424.0638
   3   2.0000     -15.546997      -423.0553
   4   2.0000     -11.312083      -307.8174
   5   2.0000     -11.305663      -307.6427
   6   2.0000     -11.292127      -307.2744
   7   2.0000     -11.278282      -306.8977
   8   2.0000     -11.249372      -306.1110
   9   2.0000      -1.410061       -38.3697
  10   2.0000      -1.394899       -37.9571
  11   2.0000      -1.212224       -32.9863
  12   2.0000      -1.151379       -31.3306
  13   2.0000      -1.093516       -29.7561
  14   2.0000      -0.895522       -24.3684
  15   2.0000      -0.859380       -23.3849
  16   2.0000      -0.820662       -22.3314
  17   2.0000      -0.791988       -21.5511
  18   2.0000      -0.748671       -20.3724
  19   2.0000      -0.712233       -19.3808
  20   2.0000      -0.686512       -18.6809
  21   2.0000      -0.642146       -17.4737
  22   2.0000      -0.621982       -16.9250
  23   2.0000      -0.587691       -15.9919
  24   2.0000      -0.581657       -15.8277
  25   2.0000      -0.564276       -15.3547
  26   2.0000      -0.535717       -14.5776
  27   2.0000      -0.497181       -13.5290
  28   2.0000      -0.451525       -12.2866
  29   2.0000      -0.446218       -12.1422
  30   2.0000      -0.432635       -11.7726
  31   2.0000      -0.392783       -10.6882
  32   2.0000      -0.361131        -9.8269
  33   0.0000       0.126752         3.4491
  34   0.0000       0.134536         3.6609
  35   0.0000       0.166025         4.5178
  36   0.0000       0.169140         4.6025
  37   0.0000       0.183901         5.0042

MULLIKEN ATOMIC CHARGES
-----------------------
   0 O :   -0.462130
   1 C :    0.029389
   2 C :   -0.277310
   3 C :   -0.063700
   4 N :    0.090534
   5 C :    0.025121
   6 N :   -0.312079
   7 C :    0.030585
   8 N :   -0.266572
   9 H :    0.334059
  10 H :    0.117424
  11 H :    0.143051
  12 H :    0.164005
  13 H :    0.147457
  14 H :    0.159992
  15 H :    0.140173
Sum of atomic charges:    0.0000000

LOEWDIN ATOMIC CHARGES
----------------------
   0 O :    0.010321
   1 C :   -0.316812
   2 C :   -0.199861
   3 C :   -0.213828
   4 N :    0.207734
   5 C :   -0.288853
   6 N :    0.074282
   7 C :   -0.346971
   8 N :    0.044184
   9 H :    0.186930
  10 H :    0.135304
  11 H :    0.137961
  12 H :    0.148703
  13 H :    0.150908
  14 H :    0.140351
  15 H :    0.129647

  Mayer bond orders larger than 0.1
B(  0-O ,  1-C ) :   1.0260 B(  0-O ,  9-H ) :   0.8340 B(  1-C ,  2-C ) :   0.8943
B(  1-C ,  3-C ) :   0.8566 B(  1-C , 10-H ) :   0.9459 B(  2-C ,  3-C ) :   0.8583
B(  2-C , 11-H ) :   0.9185 B(  2-C , 12-H ) :   0.9271 B(  3-C ,  4-N ) :   0.9364
B(  3-C , 13-H ) :   0.9247 B(  4-N ,  5-C ) :   1.2227 B(  4-N ,  8-N ) :   0.9926
B(  5-C ,  6-N ) :   1.5033 B(  5-C , 14-H ) :   0.9163 B(  6-N ,  7-C ) :   1.2893
B(  7-C ,  8-N ) :   1.4902 B(  7-C , 15-H ) :   0.9339

MP2 TOTAL ENERGY:     -433.341896559 Eh
FINAL SINGLE POINT ENERGY      -433.341896559153

DIPOLE MOMENT
-------------
                                X             Y             Z
Electronic contribution:     -3.83553       2.25836      -0.74460
Nuclear contribution   :      5.53656      -2.96784       0.96197
                        -----------------------------------------
Total Dipole Moment    :      1.70103      -0.70948       0.21738
                        -----------------------------------------
Magnitude (a.u.)       :      1.85583
Magnitude (Debye)      :      4.71715

                             ****ORCA TERMINATED NORMALLY****
TOTAL RUN TIME: 0 days 0 hours 17 minutes 4 seconds 760 msec
