                         Program Version 3.0.3 - RELEASE   -
|  1> ! RI-MP2 RIJK def2-TZVP def2-TZVP/C def2-TZVP/JK TIGHTSCF
|  2> % maxcore 2000
|  3> % mp2 density relaxed end
|  4> *xyz 0 1
|  5>  C       -0.1791304196     1.4873782765     0.3534352604
|  6>  C       -0.1075951168     0.0105253916     0.1313472891
|  7>  C       -1.1503512966    -0.9046469724    -0.5179253691
|  8>  C       -0.2689764468    -2.0840657551    -0.0275075721
|  9>  C        0.3744000766    -1.0843759223     1.0081834554
| 10>  N        1.2691610165    -0.5897975467    -0.0879876913
| 11>  C        1.0117209324    -1.8705055963    -0.8407652160
| 12>  C        2.1577938972    -2.8133555120    -0.5539333750
| 13>  O        2.0571522704    -3.8361255047     0.0743712939
| 14>  H        0.6754105026     1.8300340204     0.9427822009
| 15>  H       -0.1691099455     2.0270184688    -0.6000924376
| 16>  H       -1.0986561544     1.7557585372     0.8844762221
| 17>  H       -2.0964566416    -0.8472617703     0.0271065271
| 18>  H       -1.3386646676    -0.8207311896    -1.5947324311
| 19>  H       -0.6737554676    -3.0733303920     0.1660704350
| 20>  H        0.6631117466    -1.1406839737     2.0493421257
| 21>  H        0.9218753572    -1.7396467331    -1.9303055334
| 22>  H        3.1350084570    -2.4759548464    -0.9652714140
| 23> *
| 24>
| 25>                          ****END OF INPUT****

CARTESIAN COORDINATES (ANGSTROEM)
---------------------------------
  C     -0.179130    1.487378    0.353435
  C     -0.107595    0.010525    0.131347
  C     -1.150351   -0.904647   -0.517925
  C     -0.268976   -2.084066   -0.027508
  C      0.374400   -1.084376    1.008183
  N      1.269161   -0.589798   -0.087988
  C      1.011721   -1.870506   -0.840765
  C      2.157794   -2.813356   -0.553933
  O      2.057152   -3.836126    0.074371
  H      0.675411    1.830034    0.942782
  H     -0.169110    2.027018   -0.600092
  H     -1.098656    1.755759    0.884476
  H     -2.096457   -0.847262    0.027107
  H     -1.338665   -0.820731   -1.594732
  H     -0.673755   -3.073330    0.166070
  H      0.663112   -1.140684    2.049342
  H      0.921875   -1.739647   -1.930306
  H      3.135008   -2.475955   -0.965271

 Total Charge           Charge          ....    0
 Multiplicity           Mult            ....    1
 Number of Electrons    NEL             ....   66
 Basis Dimension        Dim             ....  333

ORBITAL ENERGIES
----------------

  NO   OCC          E(Eh)            E(eV)
   0   2.0000     -20.560026      -559.4668
   1   2.0000     -15.573765      -423.7837
   2   2.0000     -11.330923      -308.3301
   3   2.0000     -11.277983      -306.8895
   4   2.0000     -11.274953      -306.8071
   5   2.0000     -11.268684      -306.6365
   6   2.0000     -11.252406      -306.1935
   7   2.0000     -11.241821      -305.9055
   8   2.0000     -11.228363      -305.5393
   9   2.0000      -1.398820       -38.0638
  10   2.0000      -1.325084       -36.0574
  11   2.0000      -1.052153       -28.6305
  12   2.0000      -1.033680       -28.1279
  13   2.0000      -0.970993       -26.4221
  14   2.0000      -0.880751       -23.9664
  15   2.0000      -0.837062       -22.7776
  16   2.0000      -0.748959       -20.3802
  17   2.0000      -0.731422       -19.9030
  18   2.0000      -0.690485       -18.7890
  19   2.0000      -0.676078       -18.3970
  20   2.0000      -0.647459       -17.6182
  21   2.0000      -0.618111       -16.8196
  22   2.0000      -0.601770       -16.3750
  23   2.0000      -0.577599       -15.7173
  24   2.0000      -0.558667       -15.2021
  25   2.0000      -0.542171       -14.7532
  26   2.0000      -0.519104       -14.1255
  27   2.0000      -0.489165       -13.3109
  28   2.0000      -0.461360       -12.5542
  29   2.0000      -0.449196       -12.2233
  30   2.0000      -0.426582       -11.6079
  31   2.0000      -0.414552       -11.2805
  32   2.0000      -0.378494       -10.2993
  33   0.0000       0.129548         3.5252
  34   0.0000       0.139178         3.7872
  35   0.0000       0.155902         4.2423
  36   0.0000       0.163631         4.4526
  37   0.0000       0.178776         4.8648

MULLIKEN ATOMIC CHARGES
-----------------------
   0 C :   -0.424451
   1 C :    0.093227
   2 C :   -0.189123
   3 C :   -0.099899
   4 C :   -0.148622
   5 N :   -0.283900
   6 C :    0.102833
   7 C :    0.049915
   8 O :   -0.262428
   9 H :    0.148358
  10 H :    0.135752
  11 H :    0.131694
  12 H :    0.126124
  13 H :    0.113570
  14 H :    0.150866
  15 H :    0.154711
  16 H :    0.111621
  17 H :    0.089750
Sum of atomic charges:    0.0000000

LOEWDIN ATOMIC CHARGES
----------------------
   0 C :   -0.270015
   1 C :   -0.259489
   2 C :   -0.179986
   3 C :   -0.152679
   4 C :   -0.138059
   5 N :    0.157262
   6 C :   -0.242076
   7 C :   -0.264398
   8 O :    0.143547
   9 H :    0.136810
  10 H :    0.131757
  11 H :    0.130216
  12 H :    0.145407
  13 H :    0.127141
  14 H :    0.138382
  15 H :    0.133893
  16 H :    0.145847
  17 H :    0.116441

  Mayer bond orders larger than 0.1
B(  0-C ,  1-C ) :   0.8858 B(  0-C ,  9-H ) :   0.9374 B(  0-C , 10-H ) :   0.9403
B(  0-C , 11-H ) :   0.9375 B(  1-C ,  2-C ) :   0.9079 B(  1-C ,  4-C ) :   0.8677
B(  1-C ,  5-N ) :   0.8398 B(  2-C ,  3-C ) :   0.9120 B(  2-C , 12-H ) :   0.9186
B(  2-C , 13-H ) :   0.9176 B(  3-C ,  4-C ) :   0.9289 B(  3-C ,  6-C ) :   0.8816
B(  3-C , 14-H ) :   0.9089 B(  4-C ,  5-N ) :   0.8723 B(  4-C , 15-H ) :   0.8928
B(  5-N ,  6-C ) :   0.8368 B(  6-C ,  7-C ) :   0.8475 B(  6-C ,  8-O ) :  -0.1019
B(  6-C , 16-H ) :   0.8933 B(  7-C ,  8-O ) :   2.0178 B(  7-C , 17-H ) :   0.9548

MP2 TOTAL ENERGY:     -401.197401497 Eh
FINAL SINGLE POINT ENERGY      -401.197401496965

DIPOLE MOMENT
-------------
                                X             Y             Z
Electronic contribution:      4.16354      -6.18846       0.21162
Nuclear contribution   :     -4.94703       6.82096      -0.51416
                        -----------------------------------------
Total Dipole Moment    :     -0.78349       0.63250      -0.30254
                        -----------------------------------------
Magnitude (a.u.)       :      1.05140
Magnitude (Debye)      :      2.67245

                             ****ORCA TERMINATED NORMALLY****
TOTAL RUN TIME: 0 days 0 hours 19 minutes 15 seconds 430 msec
