                         Program Version 3.0.3 - RELEASE   -
|  1> ! RI-MP2 RIJK def2-TZVP def2-TZVP/C def2-TZVP/JK TIGHTSCF
|  2> % maxcore 2000
|  3> % mp2 density relaxed end
|  4> *xyz 0 1
|  5>  O        0.0162172611     1.3772568839    -0.0980945265
|  6>  C        0.0062654692    -0.0298525154     0.0267144958
|  7>  C        0.2824626300    -0.6781863432     1.3921813943
|  8>  O        1.5081771903    -1.2271660415     1.7359462419
|  9>  C       -0.7678980341    -0.3270470913     2.4047134057
| 10>  C       -1.0815686093    -1.3702157442     1.3515083105
| 11>  C       -1.3983500418    -0.6591044837     0.0524658808
| 12>  C       -2.6711012399     0.0226129773    -0.3501706977
| 13>  C       -2.1582572352    -1.1686009488    -1.1319552561
| 14>  H        0.9268761164     1.6641620029    -0.2173847871
| 15>  H        0.6405005467    -0.5044259835    -0.7356153133
| 16>  H        1.9291851666    -0.6492749369     2.3806249383
| 17>  H       -0.5717453924    -0.7292142208     3.3944243870
| 18>  H       -1.2643747508     0.6392799575     2.3857117820
| 19>  H       -1.3288410213    -2.3942403287     1.6014062134
| 20>  H       -3.5469371578    -0.1141608374     0.2759316677
| 21>  H       -2.5823558926     1.0047303757    -0.8015857132
| 22>  H       -1.7427549723    -0.9950298419    -2.1199556118
| 23>  H       -2.6870684927    -2.1111629399    -1.0312005413
| 24> *
| 25>
| 26>                          ****END OF INPUT****

CARTESIAN COORDINATES (ANGSTROEM)
---------------------------------
  O      0.016217    1.377257   -0.098095
  C      0.006265   -0.029853    0.026714
  C      0.282463   -0.678186    1.392181
  O      1.508177   -1.227166    1.735946
  C     -0.767898   -0.327047    2.404713
  C     -1.081569   -1.370216    1.351508
  C     -1.398350   -0.659104    0.052466
  C     -2.671101    0.022613   -0.350171
  C     -2.158257   -1.168601   -1.131955
  H      0.926876    1.664162   -0.217385
  H      0.640501   -0.504426   -0.735615
  H      1.929185   -0.649275    2.380625
  H     -0.571745   -0.729214    3.394424
  H     -1.264375    0.639280    2.385712
  H     -1.328841   -2.394240    1.601406
  H     -3.546937   -0.114161    0.275932
  H     -2.582356    1.004730   -0.801586
  H     -1.742755   -0.995030   -2.119956
  H     -2.687068   -2.111163   -1.031201

 Total Charge           Charge          ....    0
 Multiplicity           Mult            ....    1
 Number of Electrons    NEL             ....   68
 Basis Dimension        Dim             ....  339

ORBITAL ENERGIES
----------------

  NO   OCC          E(Eh)            E(eV)
   0   2.0000     -20.570518      -559.7523
   1   2.0000     -20.558420      -559.4230
   2   2.0000     -11.285850      -307.1036
   3   2.0000     -11.283036      -307.0270
   4   2.0000     -11.235349      -305.7294
   5   2.0000     -11.233087      -305.6678
   6   2.0000     -11.229125      -305.5600
   7   2.0000     -11.222017      -305.3666
   8   2.0000     -11.216460      -305.2154
   9   2.0000      -1.383175       -37.6381
  10   2.0000      -1.362566       -37.0773
  11   2.0000      -1.190764       -32.4023
  12   2.0000      -1.108599       -30.1665
  13   2.0000      -0.953785       -25.9538
  14   2.0000      -0.845189       -22.9988
  15   2.0000      -0.822167       -22.3723
  16   2.0000      -0.801199       -21.8017
  17   2.0000      -0.720493       -19.6056
  18   2.0000      -0.706424       -19.2228
  19   2.0000      -0.696374       -18.9493
  20   2.0000      -0.661896       -18.0111
  21   2.0000      -0.645823       -17.5737
  22   2.0000      -0.610421       -16.6104
  23   2.0000      -0.597349       -16.2547
  24   2.0000      -0.562717       -15.3123
  25   2.0000      -0.545917       -14.8552
  26   2.0000      -0.521179       -14.1820
  27   2.0000      -0.509912       -13.8754
  28   2.0000      -0.472420       -12.8552
  29   2.0000      -0.456142       -12.4122
  30   2.0000      -0.449418       -12.2293
  31   2.0000      -0.421094       -11.4586
  32   2.0000      -0.383358       -10.4317
  33   2.0000      -0.358051        -9.7431
  34   0.0000       0.128638         3.5004
  35   0.0000       0.153753         4.1838
  36   0.0000       0.160519         4.3679
  37   0.0000       0.169185         4.6038
  38   0.0000       0.182464         4.9651

MULLIKEN ATOMIC CHARGES
-----------------------
   0 O :   -0.455822
   1 C :    0.058979
   2 C :    0.167815
   3 O :   -0.453553
   4 C :   -0.314544
   5 C :   -0.120226
   6 C :    0.021505
   7 C :   -0.268702
   8 C :   -0.297596
   9 H :    0.316282
  10 H :    0.081863
  11 H :    0.330336
  12 H :    0.137271
  13 H :    0.139504
  14 H :    0.138514
  15 H :    0.125298
  16 H :    0.137764
  17 H :    0.128938
  18 H :    0.126374
Sum of atomic charges:   -0.0000000

LOEWDIN ATOMIC CHARGES
----------------------
   0 O :   -0.012834
   1 C :   -0.252560
   2 C :   -0.315547
   3 O :    0.024816
   4 C :   -0.188848
   5 C :   -0.118540
   6 C :   -0.196541
   7 C :   -0.201086
   8 C :   -0.202581
   9 H :    0.175283
  10 H :    0.142318
  11 H :    0.184790
  12 H :    0.141950
  13 H :    0.137438
  14 H :    0.141339
  15 H :    0.133920
  16 H :    0.138338
  17 H :    0.134285
  18 H :    0.134059

  Mayer bond orders larger than 0.1
B(  0-O ,  1-C ) :   1.1258 B(  0-O ,  6-C ) :  -0.1244 B(  0-O ,  9-H ) :   0.8439
B(  1-C ,  2-C ) :   0.9396 B(  1-C ,  6-C ) :   0.9361 B(  1-C , 10-H ) :   0.9296
B(  2-C ,  3-O ) :   1.0503 B(  2-C ,  4-C ) :   0.9180 B(  2-C ,  5-C ) :   0.8171
B(  3-O , 11-H ) :   0.8345 B(  4-C ,  5-C ) :   0.8708 B(  4-C , 12-H ) :   0.9329
B(  4-C , 13-H ) :   0.8907 B(  5-C ,  6-C ) :   0.9098 B(  5-C , 14-H ) :   0.8917
B(  6-C ,  7-C ) :   0.8409 B(  6-C ,  8-C ) :   0.8599 B(  7-C ,  8-C ) :   0.9434
B(  7-C , 15-H ) :   0.9222 B(  7-C , 16-H ) :   0.9163 B(  8-C , 17-H ) :   0.9233
B(  8-C , 18-H ) :   0.9229

MP2 TOTAL ENERGY:     -422.268831623 Eh
FINAL SINGLE POINT ENERGY      -422.268831623328

DIPOLE MOMENT
-------------
                                X             Y             Z
Electronic contribution:      4.03266       0.19272       1.13534
Nuclear contribution   :     -3.64427      -0.01956      -0.85759
                        -----------------------------------------
Total Dipole Moment    :      0.38839       0.17317       0.27774
                        -----------------------------------------
Magnitude (a.u.)       :      0.50791
Magnitude (Debye)      :      1.29101

                             ****ORCA TERMINATED NORMALLY****
TOTAL RUN TIME: 0 days 0 hours 18 minutes 10 seconds 622 msec
