                         Program Version 3.0.3 - RELEASE   -
|  1> ! RI-MP2 RIJK def2-TZVP def2-TZVP/C def2-TZVP/JK TIGHTSCF
|  2> % maxcore 2000
|  3> % mp2 density relaxed end
|  4> *xyz 0 1
|  5>  C        0.0839744846     1.5043012828    -0.0930094118
|  6>  C       -0.0176674177    -0.0148983221    -0.0001663085
|  7>  O        0.7015806701    -0.5226573331     1.1113162576
|  8>  C       -1.4938209433    -0.5264407745     0.0663158083
|  9>  C       -2.2804168152    -0.0117939397    -1.0549544008
| 10>  N       -2.8848435980     0.3701877937    -1.9638990596
| 11>  C       -1.5453514327    -2.0541396375     0.1262984841
| 12>  C       -2.7698656457    -2.8157686693    -0.2107231530
| 13>  N       -1.5840578572    -2.8776070578    -1.0875883798
| 14>  H        1.1354989424     1.8021606965    -0.1017698198
| 15>  H       -0.3953532101     1.8854597943    -0.9981919210
| 16>  H       -0.4019183544     1.9800974642     0.7689438780
| 17>  H        0.4524051967    -0.4732130599    -0.8771072358
| 18>  H        0.4913349733     0.0212533344     1.8790567243
| 19>  H       -1.9328742287    -0.1249247289     0.9916619388
| 20>  H       -0.8786659952    -2.4365388407     0.8929545958
| 21>  H       -2.9972548742    -3.7341866813     0.3225067046
| 22>  H       -3.6377283302    -2.2629058264    -0.5604020440
| 23>  H       -1.7459277644    -2.2951025746    -1.9076331674
| 24> *
| 25>
| 26>                          ****END OF INPUT****

CARTESIAN COORDINATES (ANGSTROEM)
---------------------------------
  C      0.083974    1.504301   -0.093009
  C     -0.017667   -0.014898   -0.000166
  O      0.701581   -0.522657    1.111316
  C     -1.493821   -0.526441    0.066316
  C     -2.280417   -0.011794   -1.054954
  N     -2.884844    0.370188   -1.963899
  C     -1.545351   -2.054140    0.126298
  C     -2.769866   -2.815769   -0.210723
  N     -1.584058   -2.877607   -1.087588
  H      1.135499    1.802161   -0.101770
  H     -0.395353    1.885460   -0.998192
  H     -0.401918    1.980097    0.768944
  H      0.452405   -0.473213   -0.877107
  H      0.491335    0.021253    1.879057
  H     -1.932874   -0.124925    0.991662
  H     -0.878666   -2.436539    0.892955
  H     -2.997255   -3.734187    0.322507
  H     -3.637728   -2.262906   -0.560402
  H     -1.745928   -2.295103   -1.907633

 Total Charge           Charge          ....    0
 Multiplicity           Mult            ....    1
 Number of Electrons    NEL             ....   68
 Basis Dimension        Dim             ....  339

ORBITAL ENERGIES
----------------

  NO   OCC          E(Eh)            E(eV)
   0   2.0000     -20.580820      -560.0326
   1   2.0000     -15.583761      -424.0557
   2   2.0000     -15.566802      -423.5942
   3   2.0000     -11.315465      -307.9095
   4   2.0000     -11.296442      -307.3918
   5   2.0000     -11.285700      -307.0995
   6   2.0000     -11.279349      -306.9267
   7   2.0000     -11.263726      -306.5016
   8   2.0000     -11.239934      -305.8542
   9   2.0000      -1.390531       -37.8383
  10   2.0000      -1.276356       -34.7314
  11   2.0000      -1.231453       -33.5095
  12   2.0000      -1.096477       -29.8366
  13   2.0000      -1.005096       -27.3501
  14   2.0000      -0.901338       -24.5266
  15   2.0000      -0.861388       -23.4396
  16   2.0000      -0.840360       -22.8673
  17   2.0000      -0.727715       -19.8021
  18   2.0000      -0.710845       -19.3431
  19   2.0000      -0.676332       -18.4039
  20   2.0000      -0.664378       -18.0787
  21   2.0000      -0.629403       -17.1269
  22   2.0000      -0.618446       -16.8288
  23   2.0000      -0.580228       -15.7888
  24   2.0000      -0.568749       -15.4764
  25   2.0000      -0.549412       -14.9503
  26   2.0000      -0.538335       -14.6488
  27   2.0000      -0.511601       -13.9214
  28   2.0000      -0.501708       -13.6522
  29   2.0000      -0.494475       -13.4553
  30   2.0000      -0.488601       -13.2955
  31   2.0000      -0.467798       -12.7294
  32   2.0000      -0.443899       -12.0791
  33   2.0000      -0.399610       -10.8739
  34   0.0000       0.111934         3.0459
  35   0.0000       0.147630         4.0172
  36   0.0000       0.157134         4.2758
  37   0.0000       0.164286         4.4704
  38   0.0000       0.168217         4.5774

MULLIKEN ATOMIC CHARGES
-----------------------
   0 C :   -0.404224
   1 C :    0.059536
   2 O :   -0.456359
   3 C :    0.067254
   4 C :   -0.278379
   5 N :   -0.039610
   6 C :   -0.044304
   7 C :   -0.175151
   8 N :   -0.368463
   9 H :    0.159143
  10 H :    0.160793
  11 H :    0.120181
  12 H :    0.114662
  13 H :    0.316874
  14 H :    0.122403
  15 H :    0.140946
  16 H :    0.127994
  17 H :    0.146278
  18 H :    0.230427
Sum of atomic charges:   -0.0000000

LOEWDIN ATOMIC CHARGES
----------------------
   0 C :   -0.296277
   1 C :   -0.334524
   2 O :   -0.002756
   3 C :   -0.223588
   4 C :   -0.180956
   5 N :    0.067596
   6 C :   -0.250328
   7 C :   -0.256917
   8 N :   -0.005597
   9 H :    0.131689
  10 H :    0.136948
  11 H :    0.124785
  12 H :    0.154523
  13 H :    0.177782
  14 H :    0.180224
  15 H :    0.153043
  16 H :    0.126343
  17 H :    0.128669
  18 H :    0.169341

  Mayer bond orders larger than 0.1
B(  0-C ,  1-C ) :   0.9451 B(  0-C ,  9-H ) :   0.9396 B(  0-C , 10-H ) :   0.9277
B(  0-C , 11-H ) :   0.9144 B(  1-C ,  2-O ) :   0.9406 B(  1-C ,  3-C ) :   0.8833
B(  1-C , 12-H ) :   0.9093 B(  2-O , 13-H ) :   0.8377 B(  3-C ,  4-C ) :   0.8707
B(  3-C ,  6-C ) :   0.9063 B(  3-C , 14-H ) :   0.8737 B(  4-C ,  5-N ) :   2.8618
B(  6-C ,  7-C ) :   0.9234 B(  6-C ,  8-N ) :   0.9062 B(  6-C , 15-H ) :   0.9150
B(  7-C ,  8-N ) :   0.9338 B(  7-C , 16-H ) :   0.9234 B(  7-C , 17-H ) :   0.9133
B(  8-N , 18-H ) :   0.8754

MP2 TOTAL ENERGY:     -418.492001070 Eh
FINAL SINGLE POINT ENERGY      -418.492001069576

DIPOLE MOMENT
-------------
                                X             Y             Z
Electronic contribution:     -2.27963      -1.25560      -2.03626
Nuclear contribution   :      2.44956       1.86523       3.25944
                        -----------------------------------------
Total Dipole Moment    :      0.16992       0.60963       1.22318
                        -----------------------------------------
Magnitude (a.u.)       :      1.37721
Magnitude (Debye)      :      3.50058

                             ****ORCA TERMINATED NORMALLY****
TOTAL RUN TIME: 0 days 0 hours 18 minutes 3 seconds 552 msec
