                         Program Version 3.0.3 - RELEASE   -
|  1> ! RI-MP2 RIJK def2-TZVP def2-TZVP/C def2-TZVP/JK TIGHTSCF
|  2> % maxcore 2000
|  3> % mp2 density relaxed end
|  4> *xyz 0 1
|  5>  N       -0.2113883281    -1.0915425218    -0.4507317496
|  6>  C       -0.1006174030     0.0354728578    -0.2215501221
|  7>  C       -0.0048144961     1.4770190773     0.0267034990
|  8>  C       -0.7330787052     1.8886319272     1.3315139071
|  9>  N        0.1061590042     1.6036384701     2.4783920444
| 10>  C        1.2451479655     2.5051351927     2.5718103810
| 11>  C        2.0679156310     2.4542781387     1.2993689449
| 12>  N        2.4107064600     1.1259743784     0.7890897886
| 13>  C        1.4575083909     1.9492931693     0.0368300627
| 14>  H       -0.5158035248     1.9746409014    -0.8061716394
| 15>  H       -0.9861750673     2.9624000551     1.2366728206
| 16>  H       -1.6704142439     1.3341888717     1.4203453871
| 17>  H       -0.4305307002     1.6098372151     3.3355040678
| 18>  H        0.9458137087     3.5604539003     2.7298057099
| 19>  H        1.8656102367     2.2073041219     3.4244846129
| 20>  H        2.8075752174     3.2474289330     1.2097509308
| 21>  H        3.3186350293     1.1316215903     0.3336775365
| 22>  H        1.7967376649     2.3838054913    -0.8995875021
| 23> *
| 24>
| 25>                          ****END OF INPUT****

CARTESIAN COORDINATES (ANGSTROEM)
---------------------------------
  N     -0.211388   -1.091543   -0.450732
  C     -0.100617    0.035473   -0.221550
  C     -0.004814    1.477019    0.026703
  C     -0.733079    1.888632    1.331514
  N      0.106159    1.603638    2.478392
  C      1.245148    2.505135    2.571810
  C      2.067916    2.454278    1.299369
  N      2.410706    1.125974    0.789090
  C      1.457508    1.949293    0.036830
  H     -0.515804    1.974641   -0.806172
  H     -0.986175    2.962400    1.236673
  H     -1.670414    1.334189    1.420345
  H     -0.430531    1.609837    3.335504
  H      0.945814    3.560454    2.729806
  H      1.865610    2.207304    3.424485
  H      2.807575    3.247429    1.209751
  H      3.318635    1.131622    0.333678
  H      1.796738    2.383805   -0.899588

 Total Charge           Charge          ....    0
 Multiplicity           Mult            ....    1
 Number of Electrons    NEL             ....   66
 Basis Dimension        Dim             ....  333

ORBITAL ENERGIES
----------------

  NO   OCC          E(Eh)            E(eV)
   0   2.0000     -15.567331      -423.6086
   1   2.0000     -15.554917      -423.2708
   2   2.0000     -15.552324      -423.2003
   3   2.0000     -11.283141      -307.0299
   4   2.0000     -11.282428      -307.0105
   5   2.0000     -11.275812      -306.8305
   6   2.0000     -11.275737      -306.8284
   7   2.0000     -11.265832      -306.5589
   8   2.0000     -11.257225      -306.3247
   9   2.0000      -1.290699       -35.1217
  10   2.0000      -1.219806       -33.1926
  11   2.0000      -1.200890       -32.6779
  12   2.0000      -1.072665       -29.1887
  13   2.0000      -0.978548       -26.6276
  14   2.0000      -0.890911       -24.2429
  15   2.0000      -0.866696       -23.5840
  16   2.0000      -0.776602       -21.1324
  17   2.0000      -0.745346       -20.2819
  18   2.0000      -0.686439       -18.6790
  19   2.0000      -0.675656       -18.3855
  20   2.0000      -0.631800       -17.1922
  21   2.0000      -0.622584       -16.9414
  22   2.0000      -0.590167       -16.0593
  23   2.0000      -0.574031       -15.6202
  24   2.0000      -0.542887       -14.7727
  25   2.0000      -0.539531       -14.6814
  26   2.0000      -0.501889       -13.6571
  27   2.0000      -0.485438       -13.2095
  28   2.0000      -0.475375       -12.9356
  29   2.0000      -0.445788       -12.1305
  30   2.0000      -0.438185       -11.9236
  31   2.0000      -0.400860       -10.9080
  32   2.0000      -0.381547       -10.3824
  33   0.0000       0.115001         3.1293
  34   0.0000       0.139188         3.7875
  35   0.0000       0.144449         3.9307
  36   0.0000       0.160078         4.3559
  37   0.0000       0.176640         4.8066

MULLIKEN ATOMIC CHARGES
-----------------------
   0 N :   -0.054283
   1 C :   -0.233954
   2 C :    0.153066
   3 C :   -0.192360
   4 N :   -0.353353
   5 C :   -0.112588
   6 C :   -0.048558
   7 N :   -0.381806
   8 C :   -0.077245
   9 H :    0.127803
  10 H :    0.112021
  11 H :    0.146815
  12 H :    0.210133
  13 H :    0.091947
  14 H :    0.123942
  15 H :    0.127852
  16 H :    0.221444
  17 H :    0.139126
Sum of atomic charges:    0.0000000

LOEWDIN ATOMIC CHARGES
----------------------
   0 N :    0.059568
   1 C :   -0.164764
   2 C :   -0.222229
   3 C :   -0.265024
   4 N :   -0.003633
   5 C :   -0.289202
   6 C :   -0.256116
   7 N :    0.032587
   8 C :   -0.217333
   9 H :    0.177695
  10 H :    0.123325
  11 H :    0.141780
  12 H :    0.171614
  13 H :    0.123258
  14 H :    0.138773
  15 H :    0.139328
  16 H :    0.170302
  17 H :    0.140068

  Mayer bond orders larger than 0.1
B(  0-N ,  1-C ) :   2.8887 B(  1-C ,  2-C ) :   0.9198 B(  2-C ,  3-C ) :   0.8757
B(  2-C ,  8-C ) :   0.8675 B(  2-C ,  9-H ) :   0.9140 B(  3-C ,  4-N ) :   0.9971
B(  3-C , 10-H ) :   0.9382 B(  3-C , 11-H ) :   0.9214 B(  4-N ,  5-C ) :   0.9831
B(  4-N , 12-H ) :   0.8822 B(  5-C ,  6-C ) :   0.9458 B(  5-C , 13-H ) :   0.9379
B(  5-C , 14-H ) :   0.9109 B(  6-C ,  7-N ) :   0.9197 B(  6-C ,  8-C ) :   0.9285
B(  6-C , 15-H ) :   0.9212 B(  7-N ,  8-C ) :   0.9332 B(  7-N , 16-H ) :   0.8628
B(  8-C , 17-H ) :   0.9205

MP2 TOTAL ENERGY:     -397.428340493 Eh
FINAL SINGLE POINT ENERGY      -397.428340493082

DIPOLE MOMENT
-------------
                                X             Y             Z
Electronic contribution:     -0.48309      -5.37138      -3.20731
Nuclear contribution   :      0.74697       7.66302       3.55683
                        -----------------------------------------
Total Dipole Moment    :      0.26388       2.29164       0.34952
                        -----------------------------------------
Magnitude (a.u.)       :      2.33311
Magnitude (Debye)      :      5.93030

                             ****ORCA TERMINATED NORMALLY****
TOTAL RUN TIME: 0 days 0 hours 18 minutes 49 seconds 518 msec
