                         Program Version 3.0.3 - RELEASE   -
|  1> ! RI-MP2 RIJK def2-TZVP def2-TZVP/C def2-TZVP/JK TIGHTSCF
|  2> % maxcore 2000
|  3> % mp2 density relaxed end
|  4> *xyz 0 1
|  5>  C        0.2465955073     1.5008388824     0.1366188809
|  6>  C       -0.2043096418     0.0560377066    -0.1094200661
|  7>  C        0.5494695483    -0.5886567712    -1.2525779964
|  8>  C        1.9150439468    -1.2710451689    -1.0408497940
|  9>  C        2.4848801837    -1.4013807448     0.2644793324
| 10>  C        2.9684456258    -1.5142837331     1.3620232755
| 11>  C        0.6644668321    -2.0620635433    -1.4617143521
| 12>  C        0.0408995684    -3.0764998346    -0.5333209179
| 13>  O        0.6157495842    -2.4213735333    -2.8176793891
| 14>  H        1.3068868182     1.5351754330     0.4050136048
| 15>  H        0.1059789894     2.1173010917    -0.7580778462
| 16>  H       -0.3237974938     1.9581741216     0.9508113197
| 17>  H       -0.0650225555    -0.5247730084     0.8074802309
| 18>  H       -1.2783715295     0.0349316325    -0.3343073050
| 19>  H        0.5040238710    -0.0355684881    -2.1876320599
| 20>  H        2.6282044433    -1.1203294833    -1.8458815011
| 21>  H        3.4011924401    -1.6157867366     2.3260286958
| 22>  H        0.1376255953    -2.7870892431     0.5140771012
| 23>  H       -1.0193331610    -3.2061105586    -0.7718739338
| 24>  H        0.5362759275    -4.0485209047    -0.6486597788
| 25>  H        1.0870660102    -3.2565009556    -2.9195791307
| 26> *
| 27>
| 28>                          ****END OF INPUT****

CARTESIAN COORDINATES (ANGSTROEM)
---------------------------------
  C      0.246596    1.500839    0.136619
  C     -0.204310    0.056038   -0.109420
  C      0.549470   -0.588657   -1.252578
  C      1.915044   -1.271045   -1.040850
  C      2.484880   -1.401381    0.264479
  C      2.968446   -1.514284    1.362023
  C      0.664467   -2.062064   -1.461714
  C      0.040900   -3.076500   -0.533321
  O      0.615750   -2.421374   -2.817679
  H      1.306887    1.535175    0.405014
  H      0.105979    2.117301   -0.758078
  H     -0.323797    1.958174    0.950811
  H     -0.065023   -0.524773    0.807480
  H     -1.278372    0.034932   -0.334307
  H      0.504024   -0.035568   -2.187632
  H      2.628204   -1.120329   -1.845882
  H      3.401192   -1.615787    2.326029
  H      0.137626   -2.787089    0.514077
  H     -1.019333   -3.206111   -0.771874
  H      0.536276   -4.048521   -0.648660
  H      1.087066   -3.256501   -2.919579

 Total Charge           Charge          ....    0
 Multiplicity           Mult            ....    1
 Number of Electrons    NEL             ....   68
 Basis Dimension        Dim             ....  351

ORBITAL ENERGIES
----------------

  NO   OCC          E(Eh)            E(eV)
   0   2.0000     -20.566650      -559.6470
   1   2.0000     -11.298728      -307.4540
   2   2.0000     -11.249308      -306.1092
   3   2.0000     -11.238246      -305.8082
   4   2.0000     -11.235111      -305.7229
   5   2.0000     -11.224986      -305.4474
   6   2.0000     -11.224098      -305.4232
   7   2.0000     -11.219499      -305.2981
   8   2.0000     -11.211593      -305.0829
   9   2.0000      -1.379242       -37.5311
  10   2.0000      -1.156658       -31.4743
  11   2.0000      -1.035732       -28.1837
  12   2.0000      -1.017463       -27.6866
  13   2.0000      -0.974549       -26.5188
  14   2.0000      -0.883566       -24.0430
  15   2.0000      -0.838596       -22.8194
  16   2.0000      -0.755907       -20.5693
  17   2.0000      -0.716580       -19.4991
  18   2.0000      -0.701088       -19.0776
  19   2.0000      -0.657339       -17.8871
  20   2.0000      -0.647777       -17.6269
  21   2.0000      -0.609064       -16.5735
  22   2.0000      -0.589467       -16.0402
  23   2.0000      -0.562957       -15.3188
  24   2.0000      -0.552282       -15.0284
  25   2.0000      -0.541379       -14.7317
  26   2.0000      -0.520446       -14.1621
  27   2.0000      -0.511212       -13.9108
  28   2.0000      -0.490210       -13.3393
  29   2.0000      -0.479159       -13.0386
  30   2.0000      -0.450356       -12.2548
  31   2.0000      -0.427387       -11.6298
  32   2.0000      -0.375011       -10.2046
  33   2.0000      -0.348618        -9.4864
  34   0.0000       0.131311         3.5731
  35   0.0000       0.149535         4.0690
  36   0.0000       0.158079         4.3015
  37   0.0000       0.169223         4.6048
  38   0.0000       0.170902         4.6505

MULLIKEN ATOMIC CHARGES
-----------------------
   0 C :   -0.405314
   1 C :   -0.182667
   2 C :   -0.104149
   3 C :   -0.368422
   4 C :    0.001226
   5 C :   -0.135264
   6 C :    0.237393
   7 C :   -0.402495
   8 O :   -0.451886
   9 H :    0.142828
  10 H :    0.122385
  11 H :    0.132420
  12 H :    0.110954
  13 H :    0.120432
  14 H :    0.126543
  15 H :    0.143093
  16 H :    0.186364
  17 H :    0.141619
  18 H :    0.144800
  19 H :    0.122278
  20 H :    0.317864
Sum of atomic charges:    0.0000000

LOEWDIN ATOMIC CHARGES
----------------------
   0 C :   -0.310327
   1 C :   -0.265280
   2 C :   -0.155210
   3 C :   -0.165151
   4 C :   -0.100114
   5 C :   -0.107318
   6 C :   -0.339689
   7 C :   -0.266159
   8 O :    0.027125
   9 H :    0.125982
  10 H :    0.120619
  11 H :    0.120724
  12 H :    0.142853
  13 H :    0.141284
  14 H :    0.161417
  15 H :    0.167009
  16 H :    0.125758
  17 H :    0.135154
  18 H :    0.132093
  19 H :    0.128345
  20 H :    0.180884

  Mayer bond orders larger than 0.1
B(  0-C ,  1-C ) :   0.9164 B(  0-C ,  9-H ) :   0.9376 B(  0-C , 10-H ) :   0.9383
B(  0-C , 11-H ) :   0.9409 B(  1-C ,  2-C ) :   0.9098 B(  1-C , 12-H ) :   0.9270
B(  1-C , 13-H ) :   0.9367 B(  2-C ,  3-C ) :   0.8662 B(  2-C ,  6-C ) :   0.8514
B(  2-C , 14-H ) :   0.9163 B(  3-C ,  4-C ) :   1.1053 B(  3-C ,  5-C ) :  -0.1240
B(  3-C ,  6-C ) :   0.8211 B(  3-C , 15-H ) :   0.9593 B(  4-C ,  5-C ) :   2.5430
B(  5-C , 16-H ) :   0.9068 B(  6-C ,  7-C ) :   0.9560 B(  6-C ,  8-O ) :   1.0034
B(  7-C , 17-H ) :   0.9258 B(  7-C , 18-H ) :   0.9386 B(  7-C , 19-H ) :   0.9195
B(  8-O , 20-H ) :   0.8404

MP2 TOTAL ENERGY:     -386.368865485 Eh
FINAL SINGLE POINT ENERGY      -386.368865485345

DIPOLE MOMENT
-------------
                                X             Y             Z
Electronic contribution:      4.36713      -3.64868      -2.91728
Nuclear contribution   :     -4.38904       3.32236       3.14490
                        -----------------------------------------
Total Dipole Moment    :     -0.02190      -0.32632       0.22762
                        -----------------------------------------
Magnitude (a.u.)       :      0.39847
Magnitude (Debye)      :      1.01282

                             ****ORCA TERMINATED NORMALLY****
TOTAL RUN TIME: 0 days 0 hours 20 minutes 50 seconds 319 msec
