                         Program Version 3.0.3 - RELEASE   -
|  1> ! RI-MP2 RIJK def2-TZVP def2-TZVP/C def2-TZVP/JK TIGHTSCF
|  2> % maxcore 2000
|  3> % mp2 density relaxed end
|  4> *xyz 0 1
|  5>  N        0.0604125894     1.2835043691    -0.0046213950
|  6>  C       -0.0304413888     0.0213110214     0.0189060538
|  7>  N       -1.2352731755    -0.6762791841    -0.0411630914
|  8>  C       -1.2864636710    -2.1114917010    -0.0287395264
|  9>  C       -1.9506476755    -2.7524654798     1.1771605406
| 10>  C       -2.7532564262    -2.4050372876    -0.0485751477
| 11>  O       -3.4280980198    -1.1693979329    -0.0590833763
| 12>  C       -2.5299507247    -0.1233960133    -0.0524276964
| 13>  O       -2.8606401502     1.0186038807    -0.0337138683
| 14>  H        1.0400292280     1.5578138222     0.0461606467
| 15>  H        0.8101089033    -0.6806852866     0.0824599100
| 16>  H       -0.5531340716    -2.6341284190    -0.6307455648
| 17>  H       -1.7541067414    -3.8059286122     1.3432381411
| 18>  H       -2.0838479363    -2.1513702921     2.0698673373
| 19>  H       -3.2277270896    -3.1553211648    -0.6670089730
| 20> *
| 21>
| 22>                          ****END OF INPUT****

CARTESIAN COORDINATES (ANGSTROEM)
---------------------------------
  N      0.060413    1.283504   -0.004621
  C     -0.030441    0.021311    0.018906
  N     -1.235273   -0.676279   -0.041163
  C     -1.286464   -2.111492   -0.028740
  C     -1.950648   -2.752465    1.177161
  C     -2.753256   -2.405037   -0.048575
  O     -3.428098   -1.169398   -0.059083
  C     -2.529951   -0.123396   -0.052428
  O     -2.860640    1.018604   -0.033714
  H      1.040029    1.557814    0.046161
  H      0.810109   -0.680685    0.082460
  H     -0.553134   -2.634128   -0.630746
  H     -1.754107   -3.805929    1.343238
  H     -2.083848   -2.151370    2.069867
  H     -3.227727   -3.155321   -0.667009

 Total Charge           Charge          ....    0
 Multiplicity           Mult            ....    1
 Number of Electrons    NEL             ....   66
 Basis Dimension        Dim             ....  315

ORBITAL ENERGIES
----------------

  NO   OCC          E(Eh)            E(eV)
   0   2.0000     -20.616717      -561.0094
   1   2.0000     -20.537530      -558.8546
   2   2.0000     -15.625044      -425.1791
   3   2.0000     -15.550003      -423.1371
   4   2.0000     -11.414107      -310.5937
   5   2.0000     -11.335397      -308.4518
   6   2.0000     -11.323386      -308.1250
   7   2.0000     -11.307821      -307.7015
   8   2.0000     -11.263124      -306.4852
   9   2.0000      -1.484807       -40.4037
  10   2.0000      -1.381399       -37.5898
  11   2.0000      -1.304479       -35.4967
  12   2.0000      -1.205443       -32.8018
  13   2.0000      -1.141697       -31.0672
  14   2.0000      -0.928459       -25.2647
  15   2.0000      -0.883264       -24.0348
  16   2.0000      -0.879175       -23.9236
  17   2.0000      -0.770959       -20.9789
  18   2.0000      -0.738812       -20.1041
  19   2.0000      -0.708736       -19.2857
  20   2.0000      -0.680675       -18.5221
  21   2.0000      -0.668339       -18.1864
  22   2.0000      -0.638257       -17.3679
  23   2.0000      -0.634458       -17.2645
  24   2.0000      -0.602216       -16.3871
  25   2.0000      -0.584859       -15.9148
  26   2.0000      -0.574384       -15.6298
  27   2.0000      -0.503474       -13.7002
  28   2.0000      -0.478936       -13.0325
  29   2.0000      -0.470044       -12.7905
  30   2.0000      -0.432105       -11.7582
  31   2.0000      -0.429024       -11.6743
  32   2.0000      -0.373976       -10.1764
  33   0.0000       0.122808         3.3418
  34   0.0000       0.135660         3.6915
  35   0.0000       0.148307         4.0356
  36   0.0000       0.161221         4.3870
  37   0.0000       0.167057         4.5458

MULLIKEN ATOMIC CHARGES
-----------------------
   0 N :   -0.324043
   1 C :   -0.028778
   2 N :   -0.056992
   3 C :   -0.122959
   4 C :   -0.255989
   5 C :    0.025237
   6 O :   -0.231252
   7 C :    0.303717
   8 O :   -0.249814
   9 H :    0.224148
  10 H :    0.108195
  11 H :    0.154711
  12 H :    0.142536
  13 H :    0.163818
  14 H :    0.147465
Sum of atomic charges:   -0.0000000

LOEWDIN ATOMIC CHARGES
----------------------
   0 N :   -0.054194
   1 C :   -0.314013
   2 N :    0.221486
   3 C :   -0.220264
   4 C :   -0.196604
   5 C :   -0.250445
   6 O :    0.274795
   7 C :   -0.495707
   8 O :    0.163852
   9 H :    0.168636
  10 H :    0.123737
  11 H :    0.146504
  12 H :    0.143117
  13 H :    0.146153
  14 H :    0.142947

  Mayer bond orders larger than 0.1
B(  0-N ,  1-C ) :   1.9720 B(  0-N ,  9-H ) :   0.8502 B(  1-C ,  2-N ) :   0.9798
B(  1-C , 10-H ) :   0.9249 B(  2-N ,  3-C ) :   0.9248 B(  2-N ,  7-C ) :   1.0126
B(  3-C ,  4-C ) :   0.8671 B(  3-C ,  5-C ) :   0.9191 B(  3-C , 11-H ) :   0.9142
B(  4-C ,  5-C ) :   0.8645 B(  4-C , 12-H ) :   0.9150 B(  4-C , 13-H ) :   0.9181
B(  5-C ,  6-O ) :   0.9252 B(  5-C , 14-H ) :   0.9392 B(  6-O ,  7-C ) :   1.0562
B(  7-C ,  8-O ) :   2.0623

MP2 TOTAL ENERGY:     -453.219845524 Eh
FINAL SINGLE POINT ENERGY      -453.219845523738

DIPOLE MOMENT
-------------
                                X             Y             Z
Electronic contribution:     -3.28772       3.81222      -1.43829
Nuclear contribution   :      4.63006      -5.99770       1.52172
                        -----------------------------------------
Total Dipole Moment    :      1.34233      -2.18548       0.08344
                        -----------------------------------------
Magnitude (a.u.)       :      2.56615
Magnitude (Debye)      :      6.52265

                             ****ORCA TERMINATED NORMALLY****
TOTAL RUN TIME: 0 days 0 hours 13 minutes 36 seconds 100 msec
