                         Program Version 3.0.3 - RELEASE   -
|  1> ! RI-MP2 RIJK def2-TZVP def2-TZVP/C def2-TZVP/JK TIGHTSCF
|  2> % maxcore 2000
|  3> % mp2 density relaxed end
|  4> *xyz 0 1
|  5>  C        0.7925492273    -0.2529375551    -1.3400149557
|  6>  C       -0.0163943765    -0.0928339469    -0.0519125297
|  7>  C        0.7046281217    -0.6230566726     1.2104421476
|  8>  C       -0.1078685133    -0.3046328932     2.4858750341
|  9>  C        0.6142786536    -0.7056075980     3.7866469411
| 10>  C       -0.1589282353    -0.3833877159     4.9792429171
| 11>  C       -0.8174104559    -0.1072349428     5.9463060624
| 12>  C        0.9819942779    -2.0556733170     1.1028606289
| 13>  C        1.1837095426    -3.2385250119     1.0166323434
| 14>  H        1.0226650384    -1.3049412219    -1.5313291324
| 15>  H        0.2373872608     0.1352709268    -2.1991619970
| 16>  H        1.7414262086     0.2921995505    -1.2825883721
| 17>  H       -0.2443325864     0.9668332177     0.1146545550
| 18>  H       -0.9784118269    -0.6101613000    -0.1473049369
| 19>  H        1.6694257581    -0.0984105499     1.2867686594
| 20>  H       -0.3158853664     0.7704438116     2.5059917440
| 21>  H       -1.0747109705    -0.8166860820     2.4376136056
| 22>  H        0.8298015520    -1.7803886959     3.7629159541
| 23>  H        1.5882066858    -0.2000961692     3.8350940400
| 24>  H       -1.3893072537     0.1300587588     6.8086110835
| 25>  H        1.3739834482    -4.2804866331     0.9397798977
| 26> *
| 27>
| 28>                          ****END OF INPUT****

CARTESIAN COORDINATES (ANGSTROEM)
---------------------------------
  C      0.792549   -0.252938   -1.340015
  C     -0.016394   -0.092834   -0.051913
  C      0.704628   -0.623057    1.210442
  C     -0.107869   -0.304633    2.485875
  C      0.614279   -0.705608    3.786647
  C     -0.158928   -0.383388    4.979243
  C     -0.817410   -0.107235    5.946306
  C      0.981994   -2.055673    1.102861
  C      1.183710   -3.238525    1.016632
  H      1.022665   -1.304941   -1.531329
  H      0.237387    0.135271   -2.199162
  H      1.741426    0.292200   -1.282588
  H     -0.244333    0.966833    0.114655
  H     -0.978412   -0.610161   -0.147305
  H      1.669426   -0.098411    1.286769
  H     -0.315885    0.770444    2.505992
  H     -1.074711   -0.816686    2.437614
  H      0.829802   -1.780389    3.762916
  H      1.588207   -0.200096    3.835094
  H     -1.389307    0.130059    6.808611
  H      1.373983   -4.280487    0.939780

 Total Charge           Charge          ....    0
 Multiplicity           Mult            ....    1
 Number of Electrons    NEL             ....   66
 Basis Dimension        Dim             ....  351

ORBITAL ENERGIES
----------------

  NO   OCC          E(Eh)            E(eV)
   0   2.0000     -11.260236      -306.4066
   1   2.0000     -11.250364      -306.1380
   2   2.0000     -11.238618      -305.8183
   3   2.0000     -11.234053      -305.6941
   4   2.0000     -11.232661      -305.6562
   5   2.0000     -11.231059      -305.6126
   6   2.0000     -11.222373      -305.3763
   7   2.0000     -11.216862      -305.2263
   8   2.0000     -11.215733      -305.1956
   9   2.0000      -1.124929       -30.6109
  10   2.0000      -1.067066       -29.0364
  11   2.0000      -1.018006       -27.7013
  12   2.0000      -0.999533       -27.1987
  13   2.0000      -0.941124       -25.6093
  14   2.0000      -0.847959       -23.0741
  15   2.0000      -0.825874       -22.4732
  16   2.0000      -0.720686       -19.6109
  17   2.0000      -0.716608       -19.4999
  18   2.0000      -0.674580       -18.3563
  19   2.0000      -0.642687       -17.4884
  20   2.0000      -0.617966       -16.8157
  21   2.0000      -0.593008       -16.1366
  22   2.0000      -0.586228       -15.9521
  23   2.0000      -0.567246       -15.4356
  24   2.0000      -0.522259       -14.2114
  25   2.0000      -0.506705       -13.7881
  26   2.0000      -0.494837       -13.4652
  27   2.0000      -0.489316       -13.3150
  28   2.0000      -0.486230       -13.2310
  29   2.0000      -0.395466       -10.7612
  30   2.0000      -0.387073       -10.5328
  31   2.0000      -0.382515       -10.4088
  32   2.0000      -0.375284       -10.2120
  33   0.0000       0.127102         3.4586
  34   0.0000       0.153382         4.1737
  35   0.0000       0.160893         4.3781
  36   0.0000       0.161769         4.4020
  37   0.0000       0.170272         4.6333

MULLIKEN ATOMIC CHARGES
-----------------------
   0 C :   -0.399333
   1 C :   -0.186844
   2 C :   -0.115491
   3 C :   -0.198341
   4 C :   -0.392578
   5 C :   -0.009551
   6 C :   -0.124785
   7 C :   -0.062256
   8 C :   -0.183394
   9 H :    0.145452
  10 H :    0.135594
  11 H :    0.120877
  12 H :    0.115802
  13 H :    0.114922
  14 H :    0.109498
  15 H :    0.126547
  16 H :    0.125525
  17 H :    0.162711
  18 H :    0.138341
  19 H :    0.188658
  20 H :    0.188647
Sum of atomic charges:   -0.0000000

LOEWDIN ATOMIC CHARGES
----------------------
   0 C :   -0.313446
   1 C :   -0.254916
   2 C :   -0.247110
   3 C :   -0.211525
   4 C :   -0.244117
   5 C :   -0.111810
   6 C :   -0.110718
   7 C :   -0.091071
   8 C :   -0.102986
   9 H :    0.127356
  10 H :    0.122216
  11 H :    0.121385
  12 H :    0.138707
  13 H :    0.141958
  14 H :    0.170655
  15 H :    0.144793
  16 H :    0.148088
  17 H :    0.163464
  18 H :    0.156858
  19 H :    0.125439
  20 H :    0.126783

  Mayer bond orders larger than 0.1
B(  0-C ,  1-C ) :   0.9258 B(  0-C ,  9-H ) :   0.9367 B(  0-C , 10-H ) :   0.9404
B(  0-C , 11-H ) :   0.9364 B(  1-C ,  2-C ) :   0.9097 B(  1-C , 12-H ) :   0.9339
B(  1-C , 13-H ) :   0.9222 B(  2-C ,  3-C ) :   0.9157 B(  2-C ,  7-C ) :   1.0510
B(  2-C , 14-H ) :   0.9361 B(  3-C ,  4-C ) :   0.9360 B(  3-C , 15-H ) :   0.9326
B(  3-C , 16-H ) :   0.9127 B(  4-C ,  5-C ) :   1.1164 B(  4-C ,  6-C ) :  -0.1197
B(  4-C , 17-H ) :   0.9222 B(  4-C , 18-H ) :   0.9228 B(  5-C ,  6-C ) :   2.6119
B(  6-C , 19-H ) :   0.8957 B(  7-C ,  8-C ) :   2.6253 B(  8-C , 20-H ) :   0.9017

MP2 TOTAL ENERGY:     -349.233280057 Eh
FINAL SINGLE POINT ENERGY      -349.233280057206

DIPOLE MOMENT
-------------
                                X             Y             Z
Electronic contribution:     -0.14554      -2.85234       7.27738
Nuclear contribution   :      0.18971       2.99998      -7.58012
                        -----------------------------------------
Total Dipole Moment    :      0.04417       0.14765      -0.30274
                        -----------------------------------------
Magnitude (a.u.)       :      0.33971
Magnitude (Debye)      :      0.86347

                             ****ORCA TERMINATED NORMALLY****
TOTAL RUN TIME: 0 days 0 hours 18 minutes 26 seconds 490 msec
