                         Program Version 3.0.3 - RELEASE   -
|  1> ! RI-MP2 RIJK def2-TZVP def2-TZVP/C def2-TZVP/JK TIGHTSCF
|  2> % maxcore 2000
|  3> % mp2 density relaxed end
|  4> *xyz 0 1
|  5>  O        0.0742025738     1.1600095337    -0.5090501180
|  6>  C       -0.0601199600    -0.0363201861     0.2439126493
|  7>  C       -1.4202911388    -0.5745313657     0.2475120018
|  8>  C       -2.5641138142    -0.9574977376     0.1769714274
|  9>  C       -3.8908862543    -1.4768476313     0.1008574747
| 10>  C       -4.4508555041    -1.9971237964    -1.2431386555
| 11>  O       -3.6876593056    -1.9371123030    -2.3909778269
| 12>  C       -4.0462133034    -2.9772202903    -0.1864669895
| 13>  O       -2.8926532453    -3.7025519706    -0.4933997888
| 14>  H       -0.3399705249     1.0090711726    -1.3654345653
| 15>  H        0.6345522472    -0.8148078627    -0.1119519215
| 16>  H        0.2501064734     0.2168795024     1.2640565502
| 17>  H       -4.6203336235    -1.0478802438     0.7817812921
| 18>  H       -5.5047388292    -1.8064050016    -1.4203672033
| 19>  H       -3.0153413596    -2.6289738361    -2.2941921106
| 20>  H       -4.7880872475    -3.5354439593     0.3785919436
| 21>  H       -2.1543707741    -3.3149963841    -0.0033766798
| 22> *
| 23>
| 24>                          ****END OF INPUT****

CARTESIAN COORDINATES (ANGSTROEM)
---------------------------------
  O      0.074203    1.160010   -0.509050
  C     -0.060120   -0.036320    0.243913
  C     -1.420291   -0.574531    0.247512
  C     -2.564114   -0.957498    0.176971
  C     -3.890886   -1.476848    0.100857
  C     -4.450856   -1.997124   -1.243139
  O     -3.687659   -1.937112   -2.390978
  C     -4.046213   -2.977220   -0.186467
  O     -2.892653   -3.702552   -0.493400
  H     -0.339971    1.009071   -1.365435
  H      0.634552   -0.814808   -0.111952
  H      0.250106    0.216880    1.264057
  H     -4.620334   -1.047880    0.781781
  H     -5.504739   -1.806405   -1.420367
  H     -3.015341   -2.628974   -2.294192
  H     -4.788087   -3.535444    0.378592
  H     -2.154371   -3.314996   -0.003377

 Total Charge           Charge          ....    0
 Multiplicity           Mult            ....    1
 Number of Electrons    NEL             ....   68
 Basis Dimension        Dim             ....  327

ORBITAL ENERGIES
----------------

  NO   OCC          E(Eh)            E(eV)
   0   2.0000     -20.587747      -560.2211
   1   2.0000     -20.568926      -559.7089
   2   2.0000     -20.567677      -559.6750
   3   2.0000     -11.311038      -307.7890
   4   2.0000     -11.307975      -307.7057
   5   2.0000     -11.304868      -307.6211
   6   2.0000     -11.266877      -306.5873
   7   2.0000     -11.246332      -306.0283
   8   2.0000     -11.237900      -305.7988
   9   2.0000      -1.411875       -38.4191
  10   2.0000      -1.372757       -37.3546
  11   2.0000      -1.372575       -37.3497
  12   2.0000      -1.144307       -31.1382
  13   2.0000      -1.055669       -28.7262
  14   2.0000      -0.960262       -26.1301
  15   2.0000      -0.873603       -23.7719
  16   2.0000      -0.840685       -22.8762
  17   2.0000      -0.744217       -20.2512
  18   2.0000      -0.732198       -19.9241
  19   2.0000      -0.716286       -19.4911
  20   2.0000      -0.685680       -18.6583
  21   2.0000      -0.663072       -18.0431
  22   2.0000      -0.623719       -16.9722
  23   2.0000      -0.617582       -16.8053
  24   2.0000      -0.599950       -16.3255
  25   2.0000      -0.592011       -16.1094
  26   2.0000      -0.554817       -15.0973
  27   2.0000      -0.543418       -14.7872
  28   2.0000      -0.516895       -14.0654
  29   2.0000      -0.478718       -13.0266
  30   2.0000      -0.464295       -12.6341
  31   2.0000      -0.429147       -11.6777
  32   2.0000      -0.382833       -10.4174
  33   2.0000      -0.362137        -9.8542
  34   0.0000       0.122456         3.3322
  35   0.0000       0.140582         3.8254
  36   0.0000       0.148154         4.0315
  37   0.0000       0.172649         4.6980
  38   0.0000       0.176998         4.8164

MULLIKEN ATOMIC CHARGES
-----------------------
   0 O :   -0.457111
   1 C :   -0.043605
   2 C :   -0.072758
   3 C :   -0.038859
   4 C :   -0.265042
   5 C :    0.089075
   6 O :   -0.465107
   7 C :    0.064161
   8 O :   -0.497982
   9 H :    0.324240
  10 H :    0.125613
  11 H :    0.139082
  12 H :    0.149466
  13 H :    0.134075
  14 H :    0.339914
  15 H :    0.127621
  16 H :    0.347217
Sum of atomic charges:    0.0000000

LOEWDIN ATOMIC CHARGES
----------------------
   0 O :   -0.039045
   1 C :   -0.336674
   2 C :   -0.086551
   3 C :   -0.071101
   4 C :   -0.193697
   5 C :   -0.290985
   6 O :    0.020773
   7 C :   -0.289879
   8 O :    0.006799
   9 H :    0.179710
  10 H :    0.133597
  11 H :    0.145966
  12 H :    0.165214
  13 H :    0.141556
  14 H :    0.187856
  15 H :    0.135955
  16 H :    0.190504

  Mayer bond orders larger than 0.1
B(  0-O ,  1-C ) :   0.9573 B(  0-O ,  9-H ) :   0.8395 B(  1-C ,  2-C ) :   0.8757
B(  1-C , 10-H ) :   0.9662 B(  1-C , 11-H ) :   0.9268 B(  2-C ,  3-C ) :   2.6508
B(  3-C ,  4-C ) :   1.0898 B(  4-C ,  5-C ) :   0.8164 B(  4-C ,  7-C ) :   0.8602
B(  4-C , 12-H ) :   0.9054 B(  5-C ,  6-O ) :   1.0402 B(  5-C ,  7-C ) :   0.8814
B(  5-C , 13-H ) :   0.9440 B(  6-O , 14-H ) :   0.8087 B(  7-C ,  8-O ) :   0.9734
B(  7-C , 15-H ) :   0.9376 B(  8-O , 16-H ) :   0.8153

MP2 TOTAL ENERGY:     -458.161188391 Eh
FINAL SINGLE POINT ENERGY      -458.161188391312

DIPOLE MOMENT
-------------
                                X             Y             Z
Electronic contribution:     -0.72790       0.08421      -0.65998
Nuclear contribution   :      0.49739      -0.64473       1.18124
                        -----------------------------------------
Total Dipole Moment    :     -0.23052      -0.56052       0.52126
                        -----------------------------------------
Magnitude (a.u.)       :      0.79940
Magnitude (Debye)      :      2.03191

                             ****ORCA TERMINATED NORMALLY****
TOTAL RUN TIME: 0 days 0 hours 14 minutes 7 seconds 18 msec
