                         Program Version 3.0.3 - RELEASE   -
|  1> ! RI-MP2 RIJK def2-TZVP def2-TZVP/C def2-TZVP/JK TIGHTSCF
|  2> % maxcore 2000
|  3> % mp2 density relaxed end
|  4> *xyz 0 1
|  5>  C       -0.1396230667     1.5576744251     0.0036035782
|  6>  C        0.0284961358     0.0365380459     0.0104215341
|  7>  N        0.6835139064    -0.4686227034    -1.1869790303
|  8>  C        0.0873599676    -0.8605011075    -2.3845738083
|  9>  C        1.1139462685    -1.1974113076    -3.2158216725
| 10>  N        2.3356663086    -1.0232231506    -2.5849426382
| 11>  C        2.0200166766    -0.5879506279    -1.3944523271
| 12>  O        2.8751537381    -0.2645891812    -0.4041440715
| 13>  H        0.8348581170     2.0511298805    -0.0450435185
| 14>  H       -0.7331580651     1.8815484815    -0.8562079612
| 15>  H       -0.6466152237     1.8859214245     0.9162475168
| 16>  H        0.6257577831    -0.2755041963     0.8712785015
| 17>  H       -0.9434596304    -0.4596133604     0.0898704958
| 18>  H       -0.9836528106    -0.8648348197    -2.4998896314
| 19>  H        1.0577389966    -1.5606955701    -4.2301657023
| 20>  H        3.7588369181    -0.4455379627    -0.7479473149
| 21> *
| 22>
| 23>                          ****END OF INPUT****

CARTESIAN COORDINATES (ANGSTROEM)
---------------------------------
  C     -0.139623    1.557674    0.003604
  C      0.028496    0.036538    0.010422
  N      0.683514   -0.468623   -1.186979
  C      0.087360   -0.860501   -2.384574
  C      1.113946   -1.197411   -3.215822
  N      2.335666   -1.023223   -2.584943
  C      2.020017   -0.587951   -1.394452
  O      2.875154   -0.264589   -0.404144
  H      0.834858    2.051130   -0.045044
  H     -0.733158    1.881548   -0.856208
  H     -0.646615    1.885921    0.916248
  H      0.625758   -0.275504    0.871279
  H     -0.943460   -0.459613    0.089870
  H     -0.983653   -0.864835   -2.499890
  H      1.057739   -1.560696   -4.230166
  H      3.758837   -0.445538   -0.747947

 Total Charge           Charge          ....    0
 Multiplicity           Mult            ....    1
 Number of Electrons    NEL             ....   60
 Basis Dimension        Dim             ....  296

ORBITAL ENERGIES
----------------

  NO   OCC          E(Eh)            E(eV)
   0   2.0000     -20.607296      -560.7530
   1   2.0000     -15.609748      -424.7628
   2   2.0000     -15.532644      -422.6647
   3   2.0000     -11.352245      -308.9103
   4   2.0000     -11.281428      -306.9833
   5   2.0000     -11.248782      -306.0949
   6   2.0000     -11.240791      -305.8775
   7   2.0000     -11.228720      -305.5490
   8   2.0000      -1.441478       -39.2246
   9   2.0000      -1.324450       -36.0401
  10   2.0000      -1.186906       -32.2974
  11   2.0000      -1.034542       -28.1513
  12   2.0000      -0.988023       -26.8855
  13   2.0000      -0.885598       -24.0984
  14   2.0000      -0.831109       -22.6156
  15   2.0000      -0.784184       -21.3387
  16   2.0000      -0.722432       -19.6584
  17   2.0000      -0.670647       -18.2492
  18   2.0000      -0.653514       -17.7830
  19   2.0000      -0.643687       -17.5156
  20   2.0000      -0.603575       -16.4241
  21   2.0000      -0.598370       -16.2825
  22   2.0000      -0.568922       -15.4812
  23   2.0000      -0.554580       -15.0909
  24   2.0000      -0.537431       -14.6243
  25   2.0000      -0.514922       -14.0117
  26   2.0000      -0.509798       -13.8723
  27   2.0000      -0.438699       -11.9376
  28   2.0000      -0.386122       -10.5069
  29   2.0000      -0.303387        -8.2556
  30   0.0000       0.131849         3.5878
  31   0.0000       0.151321         4.1177
  32   0.0000       0.166036         4.5181
  33   0.0000       0.176929         4.8145
  34   0.0000       0.187933         5.1139

MULLIKEN ATOMIC CHARGES
-----------------------
   0 C :   -0.390556
   1 C :   -0.165810
   2 N :   -0.035130
   3 C :   -0.138847
   4 C :   -0.123283
   5 N :   -0.316843
   6 C :    0.286331
   7 O :   -0.444035
   8 H :    0.147183
   9 H :    0.134171
  10 H :    0.133071
  11 H :    0.148657
  12 H :    0.137475
  13 H :    0.144654
  14 H :    0.131375
  15 H :    0.351585
Sum of atomic charges:    0.0000000

LOEWDIN ATOMIC CHARGES
----------------------
   0 C :   -0.309026
   1 C :   -0.264854
   2 N :    0.252841
   3 C :   -0.231117
   4 C :   -0.264736
   5 N :    0.071675
   6 C :   -0.463123
   7 O :    0.072395
   8 H :    0.128001
   9 H :    0.124191
  10 H :    0.125735
  11 H :    0.144500
  12 H :    0.139314
  13 H :    0.135208
  14 H :    0.131655
  15 H :    0.207340

  Mayer bond orders larger than 0.1
B(  0-C ,  1-C ) :   0.9243 B(  0-C ,  8-H ) :   0.9349 B(  0-C ,  9-H ) :   0.9332
B(  0-C , 10-H ) :   0.9331 B(  1-C ,  2-N ) :   0.8559 B(  1-C , 11-H ) :   0.9258
B(  1-C , 12-H ) :   0.9341 B(  2-N ,  3-C ) :   1.0524 B(  2-N ,  6-C ) :   1.1985
B(  3-C ,  4-C ) :   1.5635 B(  3-C , 13-H ) :   0.9187 B(  4-C ,  5-N ) :   1.2356
B(  4-C , 14-H ) :   0.9406 B(  5-N ,  6-C ) :   1.5897 B(  6-C ,  7-O ) :   1.0750
B(  7-O , 15-H ) :   0.8132

MP2 TOTAL ENERGY:     -379.331968536 Eh
FINAL SINGLE POINT ENERGY      -379.331968535660

DIPOLE MOMENT
-------------
                                X             Y             Z
Electronic contribution:      5.08386      -4.08958      -3.17208
Nuclear contribution   :     -5.79413       4.44988       3.92777
                        -----------------------------------------
Total Dipole Moment    :     -0.71027       0.36031       0.75569
                        -----------------------------------------
Magnitude (a.u.)       :      1.09789
Magnitude (Debye)      :      2.79062

                             ****ORCA TERMINATED NORMALLY****
TOTAL RUN TIME: 0 days 0 hours 11 minutes 48 seconds 647 msec
