                         Program Version 3.0.3 - RELEASE   -
|  1> ! RI-MP2 RIJK def2-TZVP def2-TZVP/C def2-TZVP/JK TIGHTSCF
|  2> % maxcore 2000
|  3> % mp2 density relaxed end
|  4> *xyz 0 1
|  5>  C       -0.1370385822     1.4711807865     0.3645188597
|  6>  C        0.0075030217    -0.0161834122     0.0150609560
|  7>  C       -1.4048050533    -0.5587564310    -0.2413733665
|  8>  C        1.1030856677    -0.4626350547    -0.9883283361
|  9>  C        2.2109685294    -0.0799650726     0.1038140274
| 10>  C        1.0772833262    -0.8505327331     0.8621437599
| 11>  C        0.5375162456    -2.0169018377     1.7089615681
| 12>  O        0.1860818960    -2.7113143571     0.4545170567
| 13>  C        1.1600266405    -1.8598345024    -0.2501638959
| 14>  H        0.7747218280     1.9503885256     0.7226989754
| 15>  H       -0.4879393041     2.0350975972    -0.5075244389
| 16>  H       -0.8939948490     1.5924940064     1.1474270266
| 17>  H       -1.9293559726     0.1272123209    -0.9174415110
| 18>  H       -1.4200981173    -1.5547834619    -0.6768575241
| 19>  H       -1.9859150960    -0.5907677155     0.6878829312
| 20>  H        1.1604317398    -0.2264765769    -2.0568547557
| 21>  H        3.1624952336    -0.6093955341     0.0223524656
| 22>  H        2.3749274540     0.9811267471     0.2829263762
| 23>  H        1.2872884649    -2.5880704338     2.2697582184
| 24>  H       -0.3445729692    -1.8297772274     2.3285862448
| 25>  H        2.0751269463    -2.4360207933    -0.4157815579
| 26> *
| 27>
| 28>                          ****END OF INPUT****

CARTESIAN COORDINATES (ANGSTROEM)
---------------------------------
  C     -0.137039    1.471181    0.364519
  C      0.007503   -0.016183    0.015061
  C     -1.404805   -0.558756   -0.241373
  C      1.103086   -0.462635   -0.988328
  C      2.210969   -0.079965    0.103814
  C      1.077283   -0.850533    0.862144
  C      0.537516   -2.016902    1.708962
  O      0.186082   -2.711314    0.454517
  C      1.160027   -1.859835   -0.250164
  H      0.774722    1.950389    0.722699
  H     -0.487939    2.035098   -0.507524
  H     -0.893995    1.592494    1.147427
  H     -1.929356    0.127212   -0.917442
  H     -1.420098   -1.554783   -0.676858
  H     -1.985915   -0.590768    0.687883
  H      1.160432   -0.226477   -2.056855
  H      3.162495   -0.609396    0.022352
  H      2.374927    0.981127    0.282926
  H      1.287288   -2.588070    2.269758
  H     -0.344573   -1.829777    2.328586
  H      2.075127   -2.436021   -0.415782

 Total Charge           Charge          ....    0
 Multiplicity           Mult            ....    1
 Number of Electrons    NEL             ....   68
 Basis Dimension        Dim             ....  351

ORBITAL ENERGIES
----------------

  NO   OCC          E(Eh)            E(eV)
   0   2.0000     -20.549170      -559.1713
   1   2.0000     -11.291618      -307.2605
   2   2.0000     -11.277134      -306.8664
   3   2.0000     -11.260702      -306.4193
   4   2.0000     -11.253308      -306.2181
   5   2.0000     -11.244893      -305.9891
   6   2.0000     -11.244301      -305.9730
   7   2.0000     -11.212446      -305.1062
   8   2.0000     -11.202214      -304.8278
   9   2.0000      -1.370877       -37.3034
  10   2.0000      -1.197546       -32.5869
  11   2.0000      -1.026350       -27.9284
  12   2.0000      -0.949661       -25.8416
  13   2.0000      -0.931741       -25.3539
  14   2.0000      -0.878632       -23.9088
  15   2.0000      -0.844867       -22.9900
  16   2.0000      -0.808184       -21.9918
  17   2.0000      -0.687463       -18.7068
  18   2.0000      -0.666307       -18.1311
  19   2.0000      -0.643052       -17.4983
  20   2.0000      -0.629252       -17.1228
  21   2.0000      -0.606434       -16.5019
  22   2.0000      -0.576262       -15.6809
  23   2.0000      -0.569828       -15.5058
  24   2.0000      -0.551476       -15.0064
  25   2.0000      -0.525715       -14.3054
  26   2.0000      -0.513471       -13.9722
  27   2.0000      -0.499636       -13.5958
  28   2.0000      -0.480263       -13.0686
  29   2.0000      -0.453930       -12.3521
  30   2.0000      -0.446274       -12.1437
  31   2.0000      -0.420106       -11.4317
  32   2.0000      -0.406777       -11.0690
  33   2.0000      -0.362323        -9.8593
  34   0.0000       0.137579         3.7437
  35   0.0000       0.151396         4.1197
  36   0.0000       0.161651         4.3987
  37   0.0000       0.168273         4.5790
  38   0.0000       0.192551         5.2396

MULLIKEN ATOMIC CHARGES
-----------------------
   0 C :   -0.419932
   1 C :    0.073420
   2 C :   -0.424979
   3 C :   -0.105010
   4 C :   -0.207587
   5 C :   -0.047925
   6 C :   -0.034372
   7 O :   -0.330171
   8 C :   -0.004546
   9 H :    0.122593
  10 H :    0.135691
  11 H :    0.133131
  12 H :    0.125359
  13 H :    0.161979
  14 H :    0.122672
  15 H :    0.129433
  16 H :    0.122534
  17 H :    0.120634
  18 H :    0.109149
  19 H :    0.114162
  20 H :    0.103765
Sum of atomic charges:   -0.0000000

LOEWDIN ATOMIC CHARGES
----------------------
   0 C :   -0.272114
   1 C :   -0.224998
   2 C :   -0.271601
   3 C :   -0.119759
   4 C :   -0.160045
   5 C :   -0.161491
   6 C :   -0.224857
   7 O :    0.112224
   8 C :   -0.201702
   9 H :    0.120563
  10 H :    0.127716
  11 H :    0.129372
  12 H :    0.126901
  13 H :    0.131667
  14 H :    0.125535
  15 H :    0.122886
  16 H :    0.132428
  17 H :    0.124650
  18 H :    0.124037
  19 H :    0.123130
  20 H :    0.135459

  Mayer bond orders larger than 0.1
B(  0-C ,  1-C ) :   0.8975 B(  0-C ,  9-H ) :   0.9326 B(  0-C , 10-H ) :   0.9378
B(  0-C , 11-H ) :   0.9378 B(  1-C ,  2-C ) :   0.9130 B(  1-C ,  3-C ) :   0.8801
B(  1-C ,  5-C ) :   0.8446 B(  2-C , 12-H ) :   0.9303 B(  2-C , 13-H ) :   0.9284
B(  2-C , 14-H ) :   0.9346 B(  3-C ,  4-C ) :   0.8874 B(  3-C ,  8-C ) :   0.8494
B(  3-C , 15-H ) :   0.8764 B(  4-C ,  5-C ) :   0.9005 B(  4-C , 16-H ) :   0.9215
B(  4-C , 17-H ) :   0.9175 B(  5-C ,  6-C ) :   0.9184 B(  5-C ,  8-C ) :   0.8543
B(  6-C ,  7-O ) :   0.8908 B(  6-C , 18-H ) :   0.9102 B(  6-C , 19-H ) :   0.9119
B(  7-O ,  8-C ) :   0.9067 B(  8-C , 20-H ) :   0.9609

MP2 TOTAL ENERGY:     -386.275956869 Eh
FINAL SINGLE POINT ENERGY      -386.275956869133

DIPOLE MOMENT
-------------
                                X             Y             Z
Electronic contribution:      2.45043      -5.42850       0.08899
Nuclear contribution   :     -2.03880       6.00013       0.07425
                        -----------------------------------------
Total Dipole Moment    :      0.41164       0.57163       0.16325
                        -----------------------------------------
Magnitude (a.u.)       :      0.72308
Magnitude (Debye)      :      1.83793

                             ****ORCA TERMINATED NORMALLY****
TOTAL RUN TIME: 0 days 0 hours 24 minutes 45 seconds 671 msec
