                         Program Version 3.0.3 - RELEASE   -
|  1> ! RI-MP2 RIJK def2-TZVP def2-TZVP/C def2-TZVP/JK TIGHTSCF
|  2> % maxcore 2000
|  3> % mp2 density relaxed end
|  4> *xyz 0 1
|  5>  C       -0.0223639698     1.4288731562     0.0085604641
|  6>  O       -0.0334498748    -0.0083919219     0.0049295563
|  7>  C       -1.1957750059    -0.6501496956     0.0123635440
|  8>  C       -1.2490061958    -2.0045686470     0.0091623355
|  9>  C       -2.5306715602    -2.6500234045     0.0174647035
| 10>  O       -2.7876535676    -3.8191927521     0.0167200098
| 11>  O       -3.6258316369    -1.7450038266     0.0287374610
| 12>  N       -3.4837729749    -0.3656255842     0.0312636196
| 13>  N       -2.3446077367     0.1369251078     0.0235247601
| 14>  H        1.0332806025     1.6991785243     0.0011125633
| 15>  H       -0.5218832989     1.8265272697    -0.8775874623
| 16>  H       -0.5081483735     1.8219334120     0.9043355468
| 17>  H       -0.3560664875    -2.6145238381     0.0005340283
| 18> *
| 19>
| 20>                          ****END OF INPUT****

CARTESIAN COORDINATES (ANGSTROEM)
---------------------------------
  C     -0.022364    1.428873    0.008560
  O     -0.033450   -0.008392    0.004930
  C     -1.195775   -0.650150    0.012364
  C     -1.249006   -2.004569    0.009162
  C     -2.530672   -2.650023    0.017465
  O     -2.787654   -3.819193    0.016720
  O     -3.625832   -1.745004    0.028737
  N     -3.483773   -0.365626    0.031264
  N     -2.344608    0.136925    0.023525
  H      1.033281    1.699179    0.001113
  H     -0.521883    1.826527   -0.877587
  H     -0.508148    1.821933    0.904336
  H     -0.356066   -2.614524    0.000534

 Total Charge           Charge          ....    0
 Multiplicity           Mult            ....    1
 Number of Electrons    NEL             ....   66
 Basis Dimension        Dim             ....  303

ORBITAL ENERGIES
----------------

  NO   OCC          E(Eh)            E(eV)
   0   2.0000     -20.667922      -562.4028
   1   2.0000     -20.637439      -561.5733
   2   2.0000     -20.555332      -559.3390
   3   2.0000     -15.758511      -428.8109
   4   2.0000     -15.668389      -426.3585
   5   2.0000     -11.406843      -310.3960
   6   2.0000     -11.398917      -310.1803
   7   2.0000     -11.315676      -307.9152
   8   2.0000     -11.271845      -306.7225
   9   2.0000      -1.537599       -41.8402
  10   2.0000      -1.474667       -40.1277
  11   2.0000      -1.418022       -38.5863
  12   2.0000      -1.336832       -36.3770
  13   2.0000      -1.139302       -31.0020
  14   2.0000      -1.002694       -27.2847
  15   2.0000      -0.994604       -27.0646
  16   2.0000      -0.904609       -24.6157
  17   2.0000      -0.799425       -21.7534
  18   2.0000      -0.760632       -20.6979
  19   2.0000      -0.722669       -19.6648
  20   2.0000      -0.716521       -19.4975
  21   2.0000      -0.680535       -18.5183
  22   2.0000      -0.668715       -18.1967
  23   2.0000      -0.645546       -17.5662
  24   2.0000      -0.628229       -17.0950
  25   2.0000      -0.578548       -15.7431
  26   2.0000      -0.576842       -15.6967
  27   2.0000      -0.561912       -15.2904
  28   2.0000      -0.558570       -15.1995
  29   2.0000      -0.496377       -13.5071
  30   2.0000      -0.492202       -13.3935
  31   2.0000      -0.453613       -12.3434
  32   2.0000      -0.383439       -10.4339
  33   0.0000       0.031348         0.8530
  34   0.0000       0.133529         3.6335
  35   0.0000       0.134902         3.6709
  36   0.0000       0.170235         4.6323
  37   0.0000       0.178273         4.8510

MULLIKEN ATOMIC CHARGES
-----------------------
   0 C :   -0.211540
   1 O :   -0.244991
   2 C :    0.283195
   3 C :   -0.244714
   4 C :    0.266029
   5 O :   -0.278365
   6 O :   -0.091900
   7 N :   -0.028207
   8 N :   -0.075968
   9 H :    0.158049
  10 H :    0.148171
  11 H :    0.148182
  12 H :    0.172059
Sum of atomic charges:   -0.0000000

LOEWDIN ATOMIC CHARGES
----------------------
   0 C :   -0.297530
   1 O :    0.261655
   2 C :   -0.348190
   3 C :   -0.101085
   4 C :   -0.468534
   5 O :    0.151757
   6 O :    0.210216
   7 N :    0.001005
   8 N :    0.069575
   9 H :    0.120160
  10 H :    0.116220
  11 H :    0.116221
  12 H :    0.168531

  Mayer bond orders larger than 0.1
B(  0-C ,  1-O ) :   0.8213 B(  0-C ,  9-H ) :   0.9319 B(  0-C , 10-H ) :   0.9338
B(  0-C , 11-H ) :   0.9338 B(  1-O ,  2-C ) :   1.1471 B(  2-C ,  3-C ) :   1.4395
B(  2-C ,  8-N ) :   1.0557 B(  3-C ,  4-C ) :   1.0861 B(  3-C , 12-H ) :   0.9134
B(  4-C ,  5-O ) :   1.9899 B(  4-C ,  6-O ) :   1.0018 B(  6-O ,  7-N ) :   0.8883
B(  7-N ,  8-N ) :   1.4693

MP2 TOTAL ENERGY:     -489.070300072 Eh
FINAL SINGLE POINT ENERGY      -489.070300072226

DIPOLE MOMENT
-------------
                                X             Y             Z
Electronic contribution:     -5.31943      -5.13313       0.02844
Nuclear contribution   :      6.83049       6.52849      -0.03693
                        -----------------------------------------
Total Dipole Moment    :      1.51106       1.39536      -0.00849
                        -----------------------------------------
Magnitude (a.u.)       :      2.05679
Magnitude (Debye)      :      5.22795

                             ****ORCA TERMINATED NORMALLY****
TOTAL RUN TIME: 0 days 0 hours 14 minutes 14 seconds 623 msec
