                         Program Version 3.0.3 - RELEASE   -
|  1> ! RI-MP2 RIJK def2-TZVP def2-TZVP/C def2-TZVP/JK TIGHTSCF
|  2> % maxcore 2000
|  3> % mp2 density relaxed end
|  4> *xyz 0 1
|  5>  O       -0.1079459382     1.1960764859    -0.4506425603
|  6>  C        0.0190646266    -0.1508328232    -0.0657344558
|  7>  C        0.1819063207    -0.3909419272     1.4589921526
|  8>  N       -1.2739705781    -0.6363919244     1.5303845675
|  9>  C       -1.7740666609    -1.6165738040     2.4695172504
| 10>  C       -3.2858597923    -1.6446456032     2.4743927140
| 11>  C       -4.0525181087    -2.6477073151     1.7227760185
| 12>  O       -3.8899385557    -2.7535995638     3.1378104673
| 13>  C       -1.3170431130    -0.9259405423     0.0798396723
| 14>  H       -0.7735903176     1.5969343379     0.1203528313
| 15>  H        0.7754528335    -0.5878122513    -0.7179632298
| 16>  H        0.7887312316    -1.2850270083     1.6776712206
| 17>  H        0.5472435656     0.4494547323     2.0595280708
| 18>  H       -1.3968726062    -2.6376099984     2.2648925063
| 19>  H       -1.4228367765    -1.3392104765     3.4716599876
| 20>  H       -3.7587271685    -0.6820904454     2.6730515279
| 21>  H       -5.0612510921    -2.4174075156     1.3831068093
| 22>  H       -3.5240484953    -3.3987279603     1.1363164919
| 23>  H       -2.1828058187    -0.5268278936    -0.4590719488
| 24>  H       -1.2062875762    -1.9983355635    -0.1536336036
| 25> *
| 26>
| 27>                          ****END OF INPUT****

CARTESIAN COORDINATES (ANGSTROEM)
---------------------------------
  O     -0.107946    1.196076   -0.450643
  C      0.019065   -0.150833   -0.065734
  C      0.181906   -0.390942    1.458992
  N     -1.273971   -0.636392    1.530385
  C     -1.774067   -1.616574    2.469517
  C     -3.285860   -1.644646    2.474393
  C     -4.052518   -2.647707    1.722776
  O     -3.889939   -2.753600    3.137810
  C     -1.317043   -0.925941    0.079840
  H     -0.773590    1.596934    0.120353
  H      0.775453   -0.587812   -0.717963
  H      0.788731   -1.285027    1.677671
  H      0.547244    0.449455    2.059528
  H     -1.396873   -2.637610    2.264893
  H     -1.422837   -1.339210    3.471660
  H     -3.758727   -0.682090    2.673052
  H     -5.061251   -2.417408    1.383107
  H     -3.524048   -3.398728    1.136316
  H     -2.182806   -0.526828   -0.459072
  H     -1.206288   -1.998336   -0.153634

 Total Charge           Charge          ....    0
 Multiplicity           Mult            ....    1
 Number of Electrons    NEL             ....   70
 Basis Dimension        Dim             ....  345

ORBITAL ENERGIES
----------------

  NO   OCC          E(Eh)            E(eV)
   0   2.0000     -20.570322      -559.7469
   1   2.0000     -20.561289      -559.5011
   2   2.0000     -15.559686      -423.4006
   3   2.0000     -11.289651      -307.2070
   4   2.0000     -11.288470      -307.1749
   5   2.0000     -11.285099      -307.0832
   6   2.0000     -11.261240      -306.4339
   7   2.0000     -11.259611      -306.3896
   8   2.0000     -11.259534      -306.3875
   9   2.0000      -1.414527       -38.4912
  10   2.0000      -1.373348       -37.3707
  11   2.0000      -1.255069       -34.1522
  12   2.0000      -1.046954       -28.4891
  13   2.0000      -0.938480       -25.5373
  14   2.0000      -0.927122       -25.2283
  15   2.0000      -0.899410       -24.4742
  16   2.0000      -0.820444       -22.3254
  17   2.0000      -0.778370       -21.1805
  18   2.0000      -0.712052       -19.3759
  19   2.0000      -0.690679       -18.7943
  20   2.0000      -0.677097       -18.4248
  21   2.0000      -0.649996       -17.6873
  22   2.0000      -0.619102       -16.8466
  23   2.0000      -0.613365       -16.6905
  24   2.0000      -0.583523       -15.8785
  25   2.0000      -0.567671       -15.4471
  26   2.0000      -0.553098       -15.0506
  27   2.0000      -0.545327       -14.8391
  28   2.0000      -0.527281       -14.3480
  29   2.0000      -0.497288       -13.5319
  30   2.0000      -0.474317       -12.9068
  31   2.0000      -0.446992       -12.1633
  32   2.0000      -0.437320       -11.9001
  33   2.0000      -0.425866       -11.5884
  34   2.0000      -0.374611       -10.1937
  35   0.0000       0.133416         3.6304
  36   0.0000       0.152623         4.1531
  37   0.0000       0.158720         4.3190
  38   0.0000       0.163543         4.4502
  39   0.0000       0.180995         4.9251

MULLIKEN ATOMIC CHARGES
-----------------------
   0 O :   -0.466878
   1 C :    0.115222
   2 C :   -0.192890
   3 N :   -0.169148
   4 C :   -0.213214
   5 C :    0.068085
   6 C :   -0.082969
   7 O :   -0.331164
   8 C :   -0.206603
   9 H :    0.321935
  10 H :    0.121593
  11 H :    0.099478
  12 H :    0.124331
  13 H :    0.110700
  14 H :    0.131788
  15 H :    0.120547
  16 H :    0.119334
  17 H :    0.113314
  18 H :    0.124305
  19 H :    0.092232
Sum of atomic charges:   -0.0000000

LOEWDIN ATOMIC CHARGES
----------------------
   0 O :   -0.012641
   1 C :   -0.325264
   2 C :   -0.245534
   3 N :    0.082163
   4 C :   -0.288807
   5 C :   -0.292965
   6 C :   -0.269962
   7 O :    0.148184
   8 C :   -0.247008
   9 H :    0.181520
  10 H :    0.132934
  11 H :    0.123536
  12 H :    0.122697
  13 H :    0.127534
  14 H :    0.142822
  15 H :    0.137848
  16 H :    0.119441
  17 H :    0.118872
  18 H :    0.122555
  19 H :    0.122075

  Mayer bond orders larger than 0.1
B(  0-O ,  1-C ) :   0.9542 B(  0-O ,  9-H ) :   0.8368 B(  1-C ,  2-C ) :   0.9310
B(  1-C ,  8-C ) :   0.9312 B(  1-C , 10-H ) :   0.9349 B(  2-C ,  3-N ) :   0.9096
B(  2-C , 11-H ) :   0.9134 B(  2-C , 12-H ) :   0.9209 B(  3-N ,  4-C ) :   0.9268
B(  3-N ,  8-C ) :   0.9096 B(  4-C ,  5-C ) :   0.9014 B(  4-C , 13-H ) :   0.9233
B(  4-C , 14-H ) :   0.9218 B(  5-C ,  6-C ) :   0.9735 B(  5-C ,  7-O ) :   0.9008
B(  5-C , 15-H ) :   0.9176 B(  6-C ,  7-O ) :   0.9108 B(  6-C , 16-H ) :   0.9194
B(  6-C , 17-H ) :   0.9114 B(  8-C , 18-H ) :   0.9217 B(  8-C , 19-H ) :   0.9087

MP2 TOTAL ENERGY:     -439.504284852 Eh
FINAL SINGLE POINT ENERGY      -439.504284851712

DIPOLE MOMENT
-------------
                                X             Y             Z
Electronic contribution:     -1.53135       1.07111       1.18371
Nuclear contribution   :      1.58263      -1.20780      -1.41885
                        -----------------------------------------
Total Dipole Moment    :      0.05128      -0.13669      -0.23515
                        -----------------------------------------
Magnitude (a.u.)       :      0.27678
Magnitude (Debye)      :      0.70353

                             ****ORCA TERMINATED NORMALLY****
TOTAL RUN TIME: 0 days 0 hours 14 minutes 55 seconds 602 msec
