                         Program Version 3.0.3 - RELEASE   -
|  1> ! RI-MP2 RIJK def2-TZVP def2-TZVP/C def2-TZVP/JK TIGHTSCF
|  2> % maxcore 2000
|  3> % mp2 density relaxed end
|  4> *xyz 0 1
|  5>  O       -0.0131405239    -0.0397190424    -0.3747959188
|  6>  C       -0.0240006608     1.1459180415    -0.1465575521
|  7>  N       -1.1159951382     1.9573785092     0.0044249832
|  8>  C       -0.8672837743     3.3598337470     0.2750211517
|  9>  C       -1.0397696245     3.8023899340     1.7578579622
| 10>  C        0.4928828282     3.6680027674     1.9681251111
| 11>  C        0.6796719490     3.4364214907     0.4242652683
| 12>  C        1.2064562357     2.0717216103     0.0459705702
| 13>  O        2.3473023057     1.7178208875    -0.0714918660
| 14>  H       -2.0463894024     1.5689896343    -0.0409838403
| 15>  H       -1.3410026014     3.9990980572    -0.4751008372
| 16>  H       -1.3931318577     4.8328607687     1.8412342811
| 17>  H       -1.6788805304     3.1602569896     2.3673690483
| 18>  H        1.0012299770     4.5531313981     2.3516093585
| 19>  H        0.7958133594     2.8111760278     2.5736281580
| 20>  H        1.1920498186     4.2437608793    -0.0970222081
| 21> *
| 22>
| 23>                          ****END OF INPUT****

CARTESIAN COORDINATES (ANGSTROEM)
---------------------------------
  O     -0.013141   -0.039719   -0.374796
  C     -0.024001    1.145918   -0.146558
  N     -1.115995    1.957379    0.004425
  C     -0.867284    3.359834    0.275021
  C     -1.039770    3.802390    1.757858
  C      0.492883    3.668003    1.968125
  C      0.679672    3.436421    0.424265
  C      1.206456    2.071722    0.045971
  O      2.347302    1.717821   -0.071492
  H     -2.046389    1.568990   -0.040984
  H     -1.341003    3.999098   -0.475101
  H     -1.393132    4.832861    1.841234
  H     -1.678881    3.160257    2.367369
  H      1.001230    4.553131    2.351609
  H      0.795813    2.811176    2.573628
  H      1.192050    4.243761   -0.097022

 Total Charge           Charge          ....    0
 Multiplicity           Mult            ....    1
 Number of Electrons    NEL             ....   66
 Basis Dimension        Dim             ....  321

ORBITAL ENERGIES
----------------

  NO   OCC          E(Eh)            E(eV)
   0   2.0000     -20.573792      -559.8413
   1   2.0000     -20.536569      -558.8285
   2   2.0000     -15.607288      -424.6959
   3   2.0000     -11.363380      -309.2133
   4   2.0000     -11.348644      -308.8123
   5   2.0000     -11.301132      -307.5194
   6   2.0000     -11.265426      -306.5478
   7   2.0000     -11.258953      -306.3717
   8   2.0000     -11.251903      -306.1798
   9   2.0000      -1.420334       -38.6493
  10   2.0000      -1.389390       -37.8072
  11   2.0000      -1.278554       -34.7912
  12   2.0000      -1.137122       -30.9427
  13   2.0000      -1.003249       -27.2998
  14   2.0000      -0.934023       -25.4161
  15   2.0000      -0.888887       -24.1878
  16   2.0000      -0.796328       -21.6692
  17   2.0000      -0.767329       -20.8801
  18   2.0000      -0.720779       -19.6134
  19   2.0000      -0.692658       -18.8482
  20   2.0000      -0.662094       -18.0165
  21   2.0000      -0.648389       -17.6436
  22   2.0000      -0.623846       -16.9757
  23   2.0000      -0.603845       -16.4315
  24   2.0000      -0.596851       -16.2412
  25   2.0000      -0.549813       -14.9612
  26   2.0000      -0.533327       -14.5126
  27   2.0000      -0.516598       -14.0573
  28   2.0000      -0.508807       -13.8454
  29   2.0000      -0.476855       -12.9759
  30   2.0000      -0.470761       -12.8101
  31   2.0000      -0.404905       -11.0180
  32   2.0000      -0.397640       -10.8203
  33   0.0000       0.078696         2.1414
  34   0.0000       0.121181         3.2975
  35   0.0000       0.140661         3.8276
  36   0.0000       0.147113         4.0032
  37   0.0000       0.159996         4.3537

MULLIKEN ATOMIC CHARGES
-----------------------
   0 O :   -0.308235
   1 C :    0.188396
   2 N :   -0.303685
   3 C :   -0.009539
   4 C :   -0.188922
   5 C :   -0.318428
   6 C :    0.038305
   7 C :    0.098301
   8 O :   -0.239648
   9 H :    0.243622
  10 H :    0.131007
  11 H :    0.125986
  12 H :    0.118220
  13 H :    0.136601
  14 H :    0.145753
  15 H :    0.142265
Sum of atomic charges:   -0.0000000

LOEWDIN ATOMIC CHARGES
----------------------
   0 O :    0.116376
   1 C :   -0.428807
   2 N :    0.158995
   3 C :   -0.222647
   4 C :   -0.218473
   5 C :   -0.196071
   6 C :   -0.157902
   7 C :   -0.272000
   8 O :    0.194343
   9 H :    0.188436
  10 H :    0.137981
  11 H :    0.136449
  12 H :    0.130540
  13 H :    0.134440
  14 H :    0.140155
  15 H :    0.158184

  Mayer bond orders larger than 0.1
B(  0-O ,  1-C ) :   2.0024 B(  1-C ,  2-N ) :   1.1554 B(  1-C ,  6-C ) :  -0.1008
B(  1-C ,  7-C ) :   0.8761 B(  2-N ,  3-C ) :   0.8835 B(  2-N ,  9-H ) :   0.8565
B(  3-C ,  4-C ) :   0.9129 B(  3-C ,  6-C ) :   0.9128 B(  3-C , 10-H ) :   0.9224
B(  4-C ,  5-C ) :   0.9352 B(  4-C , 11-H ) :   0.9177 B(  4-C , 12-H ) :   0.9130
B(  5-C ,  6-C ) :   0.8784 B(  5-C , 13-H ) :   0.9297 B(  5-C , 14-H ) :   0.9152
B(  6-C ,  7-C ) :   0.8428 B(  6-C , 15-H ) :   0.9046 B(  7-C ,  8-O ) :   2.0129

MP2 TOTAL ENERGY:     -437.199947674 Eh
FINAL SINGLE POINT ENERGY      -437.199947673588

DIPOLE MOMENT
-------------
                                X             Y             Z
Electronic contribution:      3.08271      -6.44879      -4.57997
Nuclear contribution   :     -4.47237       8.36601       5.16685
                        -----------------------------------------
Total Dipole Moment    :     -1.38966       1.91722       0.58688
                        -----------------------------------------
Magnitude (a.u.)       :      2.43954
Magnitude (Debye)      :      6.20081

                             ****ORCA TERMINATED NORMALLY****
TOTAL RUN TIME: 0 days 0 hours 16 minutes 12 seconds 177 msec
