                         Program Version 3.0.3 - RELEASE   -
|  1> ! RI-MP2 RIJK def2-TZVP def2-TZVP/C def2-TZVP/JK TIGHTSCF
|  2> % maxcore 2000
|  3> % mp2 density relaxed end
|  4> *xyz 0 1
|  5>  O       -0.1169158962     1.3710840647     0.0612350749
|  6>  C       -0.0040104223    -0.0115057020    -0.0105337824
|  7>  C        0.3751460399    -0.7764704972    -1.3146915131
|  8>  C       -0.4310542793    -1.9191711167    -0.6773304797
|  9>  C       -0.0064927226    -2.0820737982     0.8410297212
| 10>  C        0.8050679411    -0.7914678356     1.0537825827
| 11>  O       -1.3332157448    -1.6521796567     1.2769038154
| 12>  C       -1.3296099983    -0.9035675894     0.0569345770
| 13>  H        0.7655509852     1.7526070872     0.1193710521
| 14>  H       -0.1466048735    -0.3752880162    -2.1881706458
| 15>  H        1.4359607586    -0.9189145125    -1.5417629952
| 16>  H       -0.8072675222    -2.7899166537    -1.2083165099
| 17>  H        0.3216628121    -3.0214181682     1.2839865182
| 18>  H        1.8688047310    -0.8676203232     0.8091242044
| 19>  H        0.6716012108    -0.4150720675     2.0698707624
| 20>  H       -2.2830414594    -0.4911978950    -0.2683821223
| 21> *
| 22>
| 23>                          ****END OF INPUT****

CARTESIAN COORDINATES (ANGSTROEM)
---------------------------------
  O     -0.116916    1.371084    0.061235
  C     -0.004010   -0.011506   -0.010534
  C      0.375146   -0.776470   -1.314692
  C     -0.431054   -1.919171   -0.677330
  C     -0.006493   -2.082074    0.841030
  C      0.805068   -0.791468    1.053783
  O     -1.333216   -1.652180    1.276904
  C     -1.329610   -0.903568    0.056935
  H      0.765551    1.752607    0.119371
  H     -0.146605   -0.375288   -2.188171
  H      1.435961   -0.918915   -1.541763
  H     -0.807268   -2.789917   -1.208317
  H      0.321663   -3.021418    1.283987
  H      1.868805   -0.867620    0.809124
  H      0.671601   -0.415072    2.069871
  H     -2.283041   -0.491198   -0.268382

 Total Charge           Charge          ....    0
 Multiplicity           Mult            ....    1
 Number of Electrons    NEL             ....   60
 Basis Dimension        Dim             ....  296

ORBITAL ENERGIES
----------------

  NO   OCC          E(Eh)            E(eV)
   0   2.0000     -20.567788      -559.6780
   1   2.0000     -20.548940      -559.1651
   2   2.0000     -11.296460      -307.3923
   3   2.0000     -11.294361      -307.3352
   4   2.0000     -11.285587      -307.0964
   5   2.0000     -11.240344      -305.8653
   6   2.0000     -11.230715      -305.6033
   7   2.0000     -11.228697      -305.5484
   8   2.0000      -1.400495       -38.1094
   9   2.0000      -1.373409       -37.3724
  10   2.0000      -1.146979       -31.2109
  11   2.0000      -0.993663       -27.0389
  12   2.0000      -0.922555       -25.1040
  13   2.0000      -0.889484       -24.2041
  14   2.0000      -0.787491       -21.4287
  15   2.0000      -0.731578       -19.9072
  16   2.0000      -0.728662       -19.8279
  17   2.0000      -0.664279       -18.0760
  18   2.0000      -0.644131       -17.5277
  19   2.0000      -0.619933       -16.8692
  20   2.0000      -0.616381       -16.7726
  21   2.0000      -0.566381       -15.4120
  22   2.0000      -0.543905       -14.8004
  23   2.0000      -0.521669       -14.1953
  24   2.0000      -0.516416       -14.0524
  25   2.0000      -0.495560       -13.4849
  26   2.0000      -0.447827       -12.1860
  27   2.0000      -0.435423       -11.8485
  28   2.0000      -0.416053       -11.3214
  29   2.0000      -0.392620       -10.6837
  30   0.0000       0.132097         3.5945
  31   0.0000       0.150448         4.0939
  32   0.0000       0.172258         4.6874
  33   0.0000       0.180132         4.9016
  34   0.0000       0.191790         5.2189

MULLIKEN ATOMIC CHARGES
-----------------------
   0 O :   -0.458986
   1 C :    0.224762
   2 C :   -0.260381
   3 C :   -0.124379
   4 C :    0.030313
   5 C :   -0.259586
   6 O :   -0.315410
   7 C :   -0.040832
   8 H :    0.323629
   9 H :    0.120777
  10 H :    0.116246
  11 H :    0.135426
  12 H :    0.132377
  13 H :    0.118889
  14 H :    0.125473
  15 H :    0.131683
Sum of atomic charges:   -0.0000000

LOEWDIN ATOMIC CHARGES
----------------------
   0 O :    0.021907
   1 C :   -0.335256
   2 C :   -0.199163
   3 C :   -0.161956
   4 C :   -0.213814
   5 C :   -0.202799
   6 O :    0.162149
   7 C :   -0.201547
   8 H :    0.183117
   9 H :    0.143465
  10 H :    0.124686
  11 H :    0.135153
  12 H :    0.129382
  13 H :    0.136128
  14 H :    0.143304
  15 H :    0.135244

  Mayer bond orders larger than 0.1
B(  0-O ,  1-C ) :   0.9932 B(  0-O ,  8-H ) :   0.8362 B(  1-C ,  2-C ) :   0.9267
B(  1-C ,  5-C ) :   0.9401 B(  1-C ,  7-C ) :   0.8417 B(  2-C ,  3-C ) :   0.9139
B(  2-C ,  9-H ) :   0.9169 B(  2-C , 10-H ) :   0.9153 B(  3-C ,  4-C ) :   0.8749
B(  3-C ,  7-C ) :   0.9277 B(  3-C , 11-H ) :   0.9235 B(  4-C ,  5-C ) :   0.9490
B(  4-C ,  6-O ) :   0.8834 B(  4-C , 12-H ) :   0.9101 B(  5-C , 13-H ) :   0.9127
B(  5-C , 14-H ) :   0.9135 B(  6-O ,  7-C ) :   0.9763 B(  7-C , 15-H ) :   0.9135

MP2 TOTAL ENERGY:     -383.065678785 Eh
FINAL SINGLE POINT ENERGY      -383.065678784752

DIPOLE MOMENT
-------------
                                X             Y             Z
Electronic contribution:     -2.62563       0.55793       1.66857
Nuclear contribution   :      3.60462      -0.67172      -2.18240
                        -----------------------------------------
Total Dipole Moment    :      0.97898      -0.11378      -0.51383
                        -----------------------------------------
Magnitude (a.u.)       :      1.11147
Magnitude (Debye)      :      2.82514

                             ****ORCA TERMINATED NORMALLY****
TOTAL RUN TIME: 0 days 0 hours 12 minutes 21 seconds 801 msec
