                         Program Version 3.0.3 - RELEASE   -
|  1> ! RI-MP2 RIJK def2-TZVP def2-TZVP/C def2-TZVP/JK TIGHTSCF
|  2> % maxcore 2000
|  3> % mp2 density relaxed end
|  4> *xyz 0 1
|  5>  C        0.0061612456     1.4834951332     0.1050035589
|  6>  C        1.3113050923     0.7404353013     0.0037224007
|  7>  N        2.0448605314     0.3953553695     1.2177463167
|  8>  C        1.2102253569    -0.3811252145     1.9953878630
|  9>  N        1.2329788857    -0.9253484908     3.1727728209
| 10>  O        0.0391984849    -1.6706585558     3.1992227846
| 11>  N       -0.6859312939    -1.5339245641     2.0293405572
| 12>  C        0.0217860931    -0.7361761081     1.2967006821
| 13>  C       -0.0096763969    -0.0390241435    -0.0039068633
| 14>  H       -0.2734596563     1.9322787548     1.0517917677
| 15>  H       -0.3209498205     2.0274391308    -0.7740165338
| 16>  H        1.9181669670     0.8333510505    -0.8890522008
| 17>  H        2.6184412722     1.1025773748     1.6535499818
| 18>  H       -0.3995491215    -0.5102546781    -0.8959181557
| 19> *
| 20>
| 21>                          ****END OF INPUT****

CARTESIAN COORDINATES (ANGSTROEM)
---------------------------------
  C      0.006161    1.483495    0.105004
  C      1.311305    0.740435    0.003722
  N      2.044861    0.395355    1.217746
  C      1.210225   -0.381125    1.995388
  N      1.232979   -0.925348    3.172773
  O      0.039198   -1.670659    3.199223
  N     -0.685931   -1.533925    2.029341
  C      0.021786   -0.736176    1.296701
  C     -0.009676   -0.039024   -0.003907
  H     -0.273460    1.932279    1.051792
  H     -0.320950    2.027439   -0.774017
  H      1.918167    0.833351   -0.889052
  H      2.618441    1.102577    1.653550
  H     -0.399549   -0.510255   -0.895918

 Total Charge           Charge          ....    0
 Multiplicity           Mult            ....    1
 Number of Electrons    NEL             ....   64
 Basis Dimension        Dim             ....  309

ORBITAL ENERGIES
----------------

  NO   OCC          E(Eh)            E(eV)
   0   2.0000     -20.652063      -561.9712
   1   2.0000     -15.648127      -425.8072
   2   2.0000     -15.626872      -425.2288
   3   2.0000     -15.608352      -424.7248
   4   2.0000     -11.319682      -308.0242
   5   2.0000     -11.308178      -307.7112
   6   2.0000     -11.291210      -307.2494
   7   2.0000     -11.282086      -307.0012
   8   2.0000     -11.267107      -306.5936
   9   2.0000      -1.506770       -41.0013
  10   2.0000      -1.311236       -35.6805
  11   2.0000      -1.206345       -32.8263
  12   2.0000      -1.144702       -31.1489
  13   2.0000      -1.133081       -30.8327
  14   2.0000      -0.931466       -25.3465
  15   2.0000      -0.865108       -23.5408
  16   2.0000      -0.839335       -22.8395
  17   2.0000      -0.800670       -21.7873
  18   2.0000      -0.713340       -19.4110
  19   2.0000      -0.706316       -19.2198
  20   2.0000      -0.674999       -18.3676
  21   2.0000      -0.663994       -18.0682
  22   2.0000      -0.642221       -17.4757
  23   2.0000      -0.575717       -15.6661
  24   2.0000      -0.565474       -15.3873
  25   2.0000      -0.542731       -14.7685
  26   2.0000      -0.504133       -13.7182
  27   2.0000      -0.496143       -13.5007
  28   2.0000      -0.479751       -13.0547
  29   2.0000      -0.453165       -12.3313
  30   2.0000      -0.403135       -10.9699
  31   2.0000      -0.363145        -9.8817
  32   0.0000       0.101123         2.7517
  33   0.0000       0.127851         3.4790
  34   0.0000       0.146651         3.9906
  35   0.0000       0.160300         4.3620
  36   0.0000       0.167307         4.5527

MULLIKEN ATOMIC CHARGES
-----------------------
   0 C :   -0.263818
   1 C :    0.003464
   2 N :   -0.337511
   3 C :    0.081591
   4 N :   -0.107714
   5 O :   -0.030770
   6 N :   -0.074142
   7 C :   -0.006061
   8 C :   -0.122895
   9 H :    0.158915
  10 H :    0.144720
  11 H :    0.144638
  12 H :    0.250947
  13 H :    0.158636
Sum of atomic charges:   -0.0000000

LOEWDIN ATOMIC CHARGES
----------------------
   0 C :   -0.188890
   1 C :   -0.205628
   2 N :    0.113419
   3 C :   -0.357529
   4 N :    0.037703
   5 O :    0.171430
   6 N :    0.056138
   7 C :   -0.260202
   8 C :   -0.139268
   9 H :    0.143510
  10 H :    0.141792
  11 H :    0.143922
  12 H :    0.188876
  13 H :    0.154727

  Mayer bond orders larger than 0.1
B(  0-C ,  1-C ) :   0.8896 B(  0-C ,  8-C ) :   0.8492 B(  0-C ,  9-H ) :   0.9184
B(  0-C , 10-H ) :   0.9238 B(  1-C ,  2-N ) :   0.9174 B(  1-C ,  8-C ) :   0.8881
B(  1-C , 11-H ) :   0.9298 B(  2-N ,  3-C ) :   1.1180 B(  2-N , 12-H ) :   0.8587
B(  3-C ,  4-N ) :   1.6453 B(  3-C ,  7-C ) :   1.1352 B(  4-N ,  5-O ) :   0.8733
B(  4-N ,  6-N ) :   0.1167 B(  5-O ,  6-N ) :   0.9180 B(  6-N ,  7-C ) :   1.6705
B(  7-C ,  8-C ) :   0.9803 B(  8-C , 13-H ) :   0.9164

MP2 TOTAL ENERGY:     -432.071970735 Eh
FINAL SINGLE POINT ENERGY      -432.071970734610

DIPOLE MOMENT
-------------
                                X             Y             Z
Electronic contribution:     -0.16342      -4.96049       5.27143
Nuclear contribution   :      0.61488       6.45038      -6.76292
                        -----------------------------------------
Total Dipole Moment    :      0.45147       1.48989      -1.49149
                        -----------------------------------------
Magnitude (a.u.)       :      2.15595
Magnitude (Debye)      :      5.47999

                             ****ORCA TERMINATED NORMALLY****
TOTAL RUN TIME: 0 days 0 hours 16 minutes 1 seconds 572 msec
