                         Program Version 3.0.3 - RELEASE   -
|  1> ! RI-MP2 RIJK def2-TZVP def2-TZVP/C def2-TZVP/JK TIGHTSCF
|  2> % maxcore 2000
|  3> % mp2 density relaxed end
|  4> *xyz 0 1
|  5>  O        0.0339999039     0.0929640026     0.7659671075
|  6>  C       -0.0125288234     1.0727463763     0.0730908435
|  7>  O       -1.2305835672     1.6274036290    -0.2074198777
|  8>  C       -1.5291377222     2.1320262054    -1.5115965798
|  9>  C       -0.8886677172     3.4666426061    -1.8622102516
| 10>  O        0.4499091860     3.3468442117    -2.2954215317
| 11>  C        1.3949902104     2.9020173859    -1.3797773721
| 12>  C        1.4234488157     3.2347890458     0.0717546308
| 13>  C        1.2285872972     1.7703968802    -0.3759107282
| 14>  H       -1.2634647431     1.3904318401    -2.2745253430
| 15>  H       -2.6163463008     2.2493248863    -1.5109474822
| 16>  H       -1.4245531076     3.8955191460    -2.7149788780
| 17>  H       -0.9866259058     4.1658425909    -1.0195495724
| 18>  H        2.3552060619     2.8819508106    -1.8846804026
| 19>  H        2.3636965129     3.5055608466     0.5377183760
| 20>  H        0.5523339607     3.6988416982     0.5182522437
| 21>  H        2.0872327887     1.1199407884    -0.2572988122
| 22> *
| 23>
| 24>                          ****END OF INPUT****

CARTESIAN COORDINATES (ANGSTROEM)
---------------------------------
  O      0.034000    0.092964    0.765967
  C     -0.012529    1.072746    0.073091
  O     -1.230584    1.627404   -0.207420
  C     -1.529138    2.132026   -1.511597
  C     -0.888668    3.466643   -1.862210
  O      0.449909    3.346844   -2.295422
  C      1.394990    2.902017   -1.379777
  C      1.423449    3.234789    0.071755
  C      1.228587    1.770397   -0.375911
  H     -1.263465    1.390432   -2.274525
  H     -2.616346    2.249325   -1.510947
  H     -1.424553    3.895519   -2.714979
  H     -0.986626    4.165843   -1.019550
  H      2.355206    2.881951   -1.884680
  H      2.363697    3.505561    0.537718
  H      0.552334    3.698842    0.518252
  H      2.087233    1.119941   -0.257299

 Total Charge           Charge          ....    0
 Multiplicity           Mult            ....    1
 Number of Electrons    NEL             ....   68
 Basis Dimension        Dim             ....  327

ORBITAL ENERGIES
----------------

  NO   OCC          E(Eh)            E(eV)
   0   2.0000     -20.595075      -560.4205
   1   2.0000     -20.585577      -560.1620
   2   2.0000     -20.539537      -558.9092
   3   2.0000     -11.383450      -309.7594
   4   2.0000     -11.316962      -307.9502
   5   2.0000     -11.305576      -307.6404
   6   2.0000     -11.300463      -307.5012
   7   2.0000     -11.260176      -306.4050
   8   2.0000     -11.256189      -306.2965
   9   2.0000      -1.453119       -39.5414
  10   2.0000      -1.410305       -38.3764
  11   2.0000      -1.359959       -37.0064
  12   2.0000      -1.162459       -31.6321
  13   2.0000      -1.039278       -28.2802
  14   2.0000      -0.940624       -25.5957
  15   2.0000      -0.891023       -24.2460
  16   2.0000      -0.813150       -22.1269
  17   2.0000      -0.774690       -21.0804
  18   2.0000      -0.741556       -20.1788
  19   2.0000      -0.722243       -19.6532
  20   2.0000      -0.670068       -18.2335
  21   2.0000      -0.663095       -18.0437
  22   2.0000      -0.641385       -17.4530
  23   2.0000      -0.626798       -17.0561
  24   2.0000      -0.600241       -16.3334
  25   2.0000      -0.570043       -15.5117
  26   2.0000      -0.559679       -15.2297
  27   2.0000      -0.551214       -14.9993
  28   2.0000      -0.527643       -14.3579
  29   2.0000      -0.494936       -13.4679
  30   2.0000      -0.470899       -12.8138
  31   2.0000      -0.456325       -12.4172
  32   2.0000      -0.428226       -11.6526
  33   2.0000      -0.402942       -10.9646
  34   0.0000       0.133085         3.6214
  35   0.0000       0.140432         3.8213
  36   0.0000       0.147495         4.0135
  37   0.0000       0.170911         4.6507
  38   0.0000       0.182561         4.9677

MULLIKEN ATOMIC CHARGES
-----------------------
   0 O :   -0.272020
   1 C :    0.258199
   2 O :   -0.248578
   3 C :   -0.067234
   4 C :   -0.092359
   5 O :   -0.286896
   6 C :    0.062147
   7 C :   -0.281323
   8 C :   -0.175931
   9 H :    0.125709
  10 H :    0.141765
  11 H :    0.137762
  12 H :    0.115431
  13 H :    0.135969
  14 H :    0.147734
  15 H :    0.152818
  16 H :    0.146807
Sum of atomic charges:   -0.0000000

LOEWDIN ATOMIC CHARGES
----------------------
   0 O :    0.150524
   1 C :   -0.463752
   2 O :    0.237278
   3 C :   -0.295778
   4 C :   -0.321794
   5 O :    0.201312
   6 C :   -0.290028
   7 C :   -0.186510
   8 C :   -0.173659
   9 H :    0.135369
  10 H :    0.141435
  11 H :    0.141112
  12 H :    0.127484
  13 H :    0.152603
  14 H :    0.137335
  15 H :    0.142944
  16 H :    0.164123

  Mayer bond orders larger than 0.1
B(  0-O ,  1-C ) :   2.0193 B(  1-C ,  2-O ) :   1.0635 B(  1-C ,  8-C ) :   0.9746
B(  2-O ,  3-C ) :   0.8592 B(  3-C ,  4-C ) :   0.9271 B(  3-C ,  9-H ) :   0.9276
B(  3-C , 10-H ) :   0.9238 B(  4-C ,  5-O ) :   0.9173 B(  4-C , 11-H ) :   0.9193
B(  4-C , 12-H ) :   0.9361 B(  5-O ,  6-C ) :   0.9871 B(  6-C ,  7-C ) :   0.9023
B(  6-C ,  8-C ) :   0.8158 B(  6-C , 13-H ) :   0.9393 B(  7-C ,  8-C ) :   0.7937
B(  7-C , 14-H ) :   0.9174 B(  7-C , 15-H ) :   0.9169 B(  8-C , 16-H ) :   0.9140

MP2 TOTAL ENERGY:     -458.224526030 Eh
FINAL SINGLE POINT ENERGY      -458.224526029828

DIPOLE MOMENT
-------------
                                X             Y             Z
Electronic contribution:     -0.34623      -3.98638       1.68660
Nuclear contribution   :      0.48675       5.11068      -2.42326
                        -----------------------------------------
Total Dipole Moment    :      0.14052       1.12431      -0.73665
                        -----------------------------------------
Magnitude (a.u.)       :      1.35147
Magnitude (Debye)      :      3.43516

                             ****ORCA TERMINATED NORMALLY****
TOTAL RUN TIME: 0 days 0 hours 16 minutes 48 seconds 251 msec
