                         Program Version 3.0.3 - RELEASE   -
|  1> ! RI-MP2 RIJK def2-TZVP def2-TZVP/C def2-TZVP/JK TIGHTSCF
|  2> % maxcore 2000
|  3> % mp2 density relaxed end
|  4> *xyz 0 1
|  5>  C       -0.1596949122     1.2795039919     0.9018833222
|  6>  C       -0.1501845020    -0.1203793186     0.2761277094
|  7>  C        0.5243150185    -0.1851318907    -1.1038379051
|  8>  C        2.0146819070     0.2246257443    -1.0177242636
|  9>  O        2.7808649545    -0.1500514476    -2.1490587300
| 10>  C        0.4225135191    -1.5805109524    -1.7727013243
| 11>  O        1.3329604426    -2.5229966134    -1.1883057827
| 12>  C       -0.9423484989    -2.1047080349    -1.8150831148
| 13>  C       -2.0614484834    -2.5444503590    -1.8324123762
| 14>  H        0.8498795905     1.6457643134     1.1117095385
| 15>  H       -0.6441520027     2.0029752485     0.2366312475
| 16>  H       -0.7104355878     1.2780241779     1.8474809065
| 17>  H        0.3574612289    -0.8160210327     0.9601743846
| 18>  H       -1.1807097291    -0.4781296673     0.1816409049
| 19>  H        0.0047168883     0.5083033104    -1.7791429991
| 20>  H        2.0907410736     1.3131704256    -0.9435149867
| 21>  H        2.4470767773    -0.1960532258    -0.0981572423
| 22>  H        2.9325934258    -1.0989110822    -2.0682547842
| 23>  H        0.7835928645    -1.4665645094    -2.7993479257
| 24>  H        0.9746229071    -2.7960627260    -0.3369649518
| 25>  H       -3.0476677817    -2.9379216518    -1.8633445072
| 26> *
| 27>
| 28>                          ****END OF INPUT****

CARTESIAN COORDINATES (ANGSTROEM)
---------------------------------
  C     -0.159695    1.279504    0.901883
  C     -0.150185   -0.120379    0.276128
  C      0.524315   -0.185132   -1.103838
  C      2.014682    0.224626   -1.017724
  O      2.780865   -0.150051   -2.149059
  C      0.422514   -1.580511   -1.772701
  O      1.332960   -2.522997   -1.188306
  C     -0.942348   -2.104708   -1.815083
  C     -2.061448   -2.544450   -1.832412
  H      0.849880    1.645764    1.111710
  H     -0.644152    2.002975    0.236631
  H     -0.710436    1.278024    1.847481
  H      0.357461   -0.816021    0.960174
  H     -1.180710   -0.478130    0.181641
  H      0.004717    0.508303   -1.779143
  H      2.090741    1.313170   -0.943515
  H      2.447077   -0.196053   -0.098157
  H      2.932593   -1.098911   -2.068255
  H      0.783593   -1.466565   -2.799348
  H      0.974623   -2.796063   -0.336965
  H     -3.047668   -2.937922   -1.863345

 Total Charge           Charge          ....    0
 Multiplicity           Mult            ....    1
 Number of Electrons    NEL             ....   70
 Basis Dimension        Dim             ....  351

ORBITAL ENERGIES
----------------

  NO   OCC          E(Eh)            E(eV)
   0   2.0000     -20.575720      -559.8938
   1   2.0000     -20.550157      -559.1982
   2   2.0000     -11.312998      -307.8423
   3   2.0000     -11.274346      -306.7905
   4   2.0000     -11.242403      -305.9213
   5   2.0000     -11.239007      -305.8289
   6   2.0000     -11.236009      -305.7474
   7   2.0000     -11.230214      -305.5896
   8   2.0000     -11.221868      -305.3626
   9   2.0000      -1.382490       -37.6195
  10   2.0000      -1.354539       -36.8589
  11   2.0000      -1.101291       -29.9677
  12   2.0000      -1.046945       -28.4888
  13   2.0000      -0.990038       -26.9403
  14   2.0000      -0.931187       -25.3389
  15   2.0000      -0.868836       -23.6422
  16   2.0000      -0.790136       -21.5007
  17   2.0000      -0.755007       -20.5448
  18   2.0000      -0.708248       -19.2724
  19   2.0000      -0.691339       -18.8123
  20   2.0000      -0.657611       -17.8945
  21   2.0000      -0.637603       -17.3500
  22   2.0000      -0.621844       -16.9212
  23   2.0000      -0.585295       -15.9267
  24   2.0000      -0.573885       -15.6162
  25   2.0000      -0.562103       -15.2956
  26   2.0000      -0.540559       -14.7094
  27   2.0000      -0.526719       -14.3328
  28   2.0000      -0.516785       -14.0624
  29   2.0000      -0.489938       -13.3319
  30   2.0000      -0.467837       -12.7305
  31   2.0000      -0.460595       -12.5334
  32   2.0000      -0.432383       -11.7657
  33   2.0000      -0.406074       -11.0498
  34   2.0000      -0.393285       -10.7018
  35   0.0000       0.125317         3.4100
  36   0.0000       0.141925         3.8620
  37   0.0000       0.156549         4.2599
  38   0.0000       0.157174         4.2769
  39   0.0000       0.169127         4.6022

MULLIKEN ATOMIC CHARGES
-----------------------
   0 C :   -0.404009
   1 C :   -0.256793
   2 C :   -0.008679
   3 C :   -0.063111
   4 O :   -0.468372
   5 C :   -0.101445
   6 O :   -0.484430
   7 C :   -0.066423
   8 C :   -0.111896
   9 H :    0.133790
  10 H :    0.129432
  11 H :    0.138200
  12 H :    0.096374
  13 H :    0.137149
  14 H :    0.095440
  15 H :    0.127508
  16 H :    0.102696
  17 H :    0.337173
  18 H :    0.147147
  19 H :    0.325324
  20 H :    0.194925
Sum of atomic charges:    0.0000000

LOEWDIN ATOMIC CHARGES
----------------------
   0 C :   -0.314503
   1 C :   -0.272971
   2 C :   -0.243346
   3 C :   -0.326400
   4 O :   -0.040732
   5 C :   -0.316356
   6 O :   -0.013958
   7 C :   -0.093892
   8 C :   -0.086878
   9 H :    0.121063
  10 H :    0.123509
  11 H :    0.122558
  12 H :    0.133391
  13 H :    0.145425
  14 H :    0.160652
  15 H :    0.129744
  16 H :    0.120854
  17 H :    0.176966
  18 H :    0.167595
  19 H :    0.178591
  20 H :    0.128688

  Mayer bond orders larger than 0.1
B(  0-C ,  1-C ) :   0.9183 B(  0-C ,  9-H ) :   0.9393 B(  0-C , 10-H ) :   0.9377
B(  0-C , 11-H ) :   0.9418 B(  1-C ,  2-C ) :   0.9011 B(  1-C , 12-H ) :   0.9226
B(  1-C , 13-H ) :   0.9299 B(  2-C ,  3-C ) :   0.8767 B(  2-C ,  5-C ) :   0.9073
B(  2-C , 14-H ) :   0.9020 B(  3-C ,  4-O ) :   0.9572 B(  3-C , 15-H ) :   0.9372
B(  3-C , 16-H ) :   0.9374 B(  4-O , 17-H ) :   0.8284 B(  5-C ,  6-O ) :   0.8248
B(  5-C ,  7-C ) :   1.1647 B(  5-C ,  8-C ) :  -0.1029 B(  5-C , 18-H ) :   0.9034
B(  6-O , 19-H ) :   0.8384 B(  7-C ,  8-C ) :   2.5745 B(  8-C , 20-H ) :   0.8904

MP2 TOTAL ENERGY:     -423.481870755 Eh
FINAL SINGLE POINT ENERGY      -423.481870754777

DIPOLE MOMENT
-------------
                                X             Y             Z
Electronic contribution:      0.50461      -6.58315      -5.89860
Nuclear contribution   :     -1.23682       6.46511       6.66928
                        -----------------------------------------
Total Dipole Moment    :     -0.73221      -0.11804       0.77067
                        -----------------------------------------
Magnitude (a.u.)       :      1.06958
Magnitude (Debye)      :      2.71866

                             ****ORCA TERMINATED NORMALLY****
TOTAL RUN TIME: 0 days 0 hours 19 minutes 49 seconds 347 msec
