                         Program Version 3.0.3 - RELEASE   -
|  1> ! RI-MP2 RIJK def2-TZVP def2-TZVP/C def2-TZVP/JK TIGHTSCF
|  2> % maxcore 2000
|  3> % mp2 density relaxed end
|  4> *xyz 0 1
|  5>  C       -0.6480307052     1.3752528106     0.0686887065
|  6>  C        0.0418730589     0.0304410755    -0.0314707318
|  7>  O        1.1884490561     0.0427410029    -0.9230417655
|  8>  C        2.0148327237    -0.6371215547     0.0432557667
|  9>  C        2.9037595794     0.3342649343     0.8461426246
| 10>  C        1.7618268620     0.4866798771     1.8992407407
| 11>  C        0.8934974726    -0.5545707880     1.1256782999
| 12>  C        0.3260191206    -1.7192985950     1.9046090606
| 13>  H        0.0416029506     2.1629120186     0.3824661760
| 14>  H       -1.0561740108     1.6567153232    -0.9073565041
| 15>  H       -1.4789805220     1.3285730166     0.7814372725
| 16>  H       -0.6843443625    -0.7213191361    -0.3801565588
| 17>  H        2.4471606873    -1.5616805811    -0.3521511524
| 18>  H        3.8072989862    -0.1300774355     1.2511385044
| 19>  H        3.1831818727     1.2323827132     0.2912803129
| 20>  H        2.0415343962     0.1358649115     2.8958818622
| 21>  H        1.3330420848     1.4854981104     2.0059133080
| 22>  H       -0.4705921296    -1.3871282641     2.5822962274
| 23>  H       -0.0990065148    -2.4787025745     1.2389963822
| 24>  H        1.0945040140    -2.2027375750     2.5177590781
| 25> *
| 26>
| 27>                          ****END OF INPUT****

CARTESIAN COORDINATES (ANGSTROEM)
---------------------------------
  C     -0.648031    1.375253    0.068689
  C      0.041873    0.030441   -0.031471
  O      1.188449    0.042741   -0.923042
  C      2.014833   -0.637122    0.043256
  C      2.903760    0.334265    0.846143
  C      1.761827    0.486680    1.899241
  C      0.893497   -0.554571    1.125678
  C      0.326019   -1.719299    1.904609
  H      0.041603    2.162912    0.382466
  H     -1.056174    1.656715   -0.907357
  H     -1.478981    1.328573    0.781437
  H     -0.684344   -0.721319   -0.380157
  H      2.447161   -1.561681   -0.352151
  H      3.807299   -0.130077    1.251139
  H      3.183182    1.232383    0.291280
  H      2.041534    0.135865    2.895882
  H      1.333042    1.485498    2.005913
  H     -0.470592   -1.387128    2.582296
  H     -0.099007   -2.478703    1.238996
  H      1.094504   -2.202738    2.517759

 Total Charge           Charge          ....    0
 Multiplicity           Mult            ....    1
 Number of Electrons    NEL             ....   62
 Basis Dimension        Dim             ....  320

ORBITAL ENERGIES
----------------

  NO   OCC          E(Eh)            E(eV)
   0   2.0000     -20.538791      -558.8889
   1   2.0000     -11.277599      -306.8791
   2   2.0000     -11.272264      -306.7339
   3   2.0000     -11.234015      -305.6931
   4   2.0000     -11.222938      -305.3917
   5   2.0000     -11.221221      -305.3450
   6   2.0000     -11.218901      -305.2818
   7   2.0000     -11.214314      -305.1570
   8   2.0000      -1.372369       -37.3441
   9   2.0000      -1.110864       -30.2281
  10   2.0000      -1.025615       -27.9084
  11   2.0000      -0.980191       -26.6724
  12   2.0000      -0.880022       -23.9466
  13   2.0000      -0.875828       -23.8325
  14   2.0000      -0.811508       -22.0822
  15   2.0000      -0.710059       -19.3217
  16   2.0000      -0.659930       -17.9576
  17   2.0000      -0.643557       -17.5121
  18   2.0000      -0.616762       -16.7829
  19   2.0000      -0.601699       -16.3731
  20   2.0000      -0.575881       -15.6705
  21   2.0000      -0.561603       -15.2820
  22   2.0000      -0.557205       -15.1623
  23   2.0000      -0.546654       -14.8752
  24   2.0000      -0.513469       -13.9722
  25   2.0000      -0.499071       -13.5804
  26   2.0000      -0.485212       -13.2033
  27   2.0000      -0.456561       -12.4236
  28   2.0000      -0.434636       -11.8270
  29   2.0000      -0.402335       -10.9481
  30   2.0000      -0.387922       -10.5559
  31   0.0000       0.132012         3.5922
  32   0.0000       0.159093         4.3291
  33   0.0000       0.160121         4.3571
  34   0.0000       0.180503         4.9117
  35   0.0000       0.189679         5.1614

MULLIKEN ATOMIC CHARGES
-----------------------
   0 C :   -0.414650
   1 C :    0.070360
   2 O :   -0.332043
   3 C :   -0.017696
   4 C :   -0.183278
   5 C :   -0.335881
   6 C :    0.193174
   7 C :   -0.411911
   8 H :    0.126762
   9 H :    0.142908
  10 H :    0.127996
  11 H :    0.070866
  12 H :    0.098073
  13 H :    0.111695
  14 H :    0.112561
  15 H :    0.119280
  16 H :    0.123324
  17 H :    0.133572
  18 H :    0.133488
  19 H :    0.131399
Sum of atomic charges:   -0.0000000

LOEWDIN ATOMIC CHARGES
----------------------
   0 C :   -0.295576
   1 C :   -0.265698
   2 O :    0.153729
   3 C :   -0.221611
   4 C :   -0.221134
   5 C :   -0.195376
   6 C :   -0.227297
   7 C :   -0.279085
   8 H :    0.123325
   9 H :    0.130293
  10 H :    0.128698
  11 H :    0.137950
  12 H :    0.123263
  13 H :    0.131475
  14 H :    0.132716
  15 H :    0.132601
  16 H :    0.127758
  17 H :    0.129546
  18 H :    0.127164
  19 H :    0.127261

  Mayer bond orders larger than 0.1
B(  0-C ,  1-C ) :   0.9024 B(  0-C ,  8-H ) :   0.9406 B(  0-C ,  9-H ) :   0.9347
B(  0-C , 10-H ) :   0.9287 B(  1-C ,  2-O ) :   0.9383 B(  1-C ,  6-C ) :   0.9329
B(  1-C , 11-H ) :   0.9068 B(  2-O ,  3-C ) :   0.9699 B(  3-C ,  4-C ) :   0.9066
B(  3-C ,  6-C ) :   0.9080 B(  3-C , 12-H ) :   0.9371 B(  4-C ,  5-C ) :   0.9634
B(  4-C , 13-H ) :   0.9092 B(  4-C , 14-H ) :   0.9135 B(  5-C ,  6-C ) :   0.8827
B(  5-C , 15-H ) :   0.9157 B(  5-C , 16-H ) :   0.9210 B(  6-C ,  7-C ) :   0.8861
B(  7-C , 17-H ) :   0.9336 B(  7-C , 18-H ) :   0.9413 B(  7-C , 19-H ) :   0.9354

MP2 TOTAL ENERGY:     -348.372946023 Eh
FINAL SINGLE POINT ENERGY      -348.372946023180

DIPOLE MOMENT
-------------
                                X             Y             Z
Electronic contribution:      2.04739      -0.55434      -4.00586
Nuclear contribution   :     -2.19532       0.35652       4.70156
                        -----------------------------------------
Total Dipole Moment    :     -0.14793      -0.19782       0.69570
                        -----------------------------------------
Magnitude (a.u.)       :      0.73825
Magnitude (Debye)      :      1.87648

                             ****ORCA TERMINATED NORMALLY****
TOTAL RUN TIME: 0 days 0 hours 14 minutes 11 seconds 255 msec
