                         Program Version 3.0.3 - RELEASE   -
|  1> ! RI-MP2 RIJK def2-TZVP def2-TZVP/C def2-TZVP/JK TIGHTSCF
|  2> % maxcore 2000
|  3> % mp2 density relaxed end
|  4> *xyz 0 1
|  5>  O        0.0273601021     0.0417398750     0.5053823044
|  6>  C       -0.0028165327     1.1840328367     0.1074696019
|  7>  C       -1.3109932557     1.9415264053    -0.1403592612
|  8>  C       -1.0112594427     3.3377180420    -0.6936251916
|  9>  C       -0.1438288442     3.2240313285    -1.9664650744
| 10>  C        1.2211280620     2.9678030115    -1.3495009805
| 11>  C        1.1182139477     3.5060096180     0.0339866172
| 12>  O       -0.1683446291     4.0175476464     0.2566393385
| 13>  C        1.2201326897     1.9896600743    -0.1546480522
| 14>  H       -1.9397398984     1.3593254563    -0.8225507359
| 15>  H       -1.8444431334     2.0128751864     0.8135397085
| 16>  H       -1.9127703917     3.9389482847    -0.8189303567
| 17>  H       -0.4940772021     2.4292436756    -2.6307557869
| 18>  H       -0.1302274812     4.1648444550    -2.5252947033
| 19>  H        2.1221595234     3.0397867987    -1.9450635374
| 20>  H        1.8904752798     4.0475762603     0.5645020159
| 21>  H        2.1595311864     1.5085565353     0.0907574139
| 22> *
| 23>
| 24>                          ****END OF INPUT****

CARTESIAN COORDINATES (ANGSTROEM)
---------------------------------
  O      0.027360    0.041740    0.505382
  C     -0.002817    1.184033    0.107470
  C     -1.310993    1.941526   -0.140359
  C     -1.011259    3.337718   -0.693625
  C     -0.143829    3.224031   -1.966465
  C      1.221128    2.967803   -1.349501
  C      1.118214    3.506010    0.033987
  O     -0.168345    4.017548    0.256639
  C      1.220133    1.989660   -0.154648
  H     -1.939740    1.359325   -0.822551
  H     -1.844443    2.012875    0.813540
  H     -1.912770    3.938948   -0.818930
  H     -0.494077    2.429244   -2.630756
  H     -0.130227    4.164844   -2.525295
  H      2.122160    3.039787   -1.945064
  H      1.890475    4.047576    0.564502
  H      2.159531    1.508557    0.090757

 Total Charge           Charge          ....    0
 Multiplicity           Mult            ....    1
 Number of Electrons    NEL             ....   66
 Basis Dimension        Dim             ....  327

ORBITAL ENERGIES
----------------

  NO   OCC          E(Eh)            E(eV)
   0   2.0000     -20.575498      -559.8878
   1   2.0000     -20.538543      -558.8822
   2   2.0000     -11.331887      -308.3563
   3   2.0000     -11.304602      -307.6139
   4   2.0000     -11.300264      -307.4958
   5   2.0000     -11.258505      -306.3595
   6   2.0000     -11.247849      -306.0695
   7   2.0000     -11.247529      -306.0608
   8   2.0000     -11.240143      -305.8598
   9   2.0000      -1.411566       -38.4107
  10   2.0000      -1.382185       -37.6112
  11   2.0000      -1.161121       -31.5957
  12   2.0000      -1.073806       -29.2198
  13   2.0000      -1.005695       -27.3664
  14   2.0000      -0.880566       -23.9614
  15   2.0000      -0.845599       -23.0099
  16   2.0000      -0.802556       -21.8387
  17   2.0000      -0.746807       -20.3216
  18   2.0000      -0.699943       -19.0464
  19   2.0000      -0.661438       -17.9986
  20   2.0000      -0.648076       -17.6350
  21   2.0000      -0.634713       -17.2714
  22   2.0000      -0.611744       -16.6464
  23   2.0000      -0.602200       -16.3867
  24   2.0000      -0.573974       -15.6186
  25   2.0000      -0.559276       -15.2187
  26   2.0000      -0.532643       -14.4940
  27   2.0000      -0.516151       -14.0452
  28   2.0000      -0.506999       -13.7961
  29   2.0000      -0.478911       -13.0318
  30   2.0000      -0.426511       -11.6060
  31   2.0000      -0.406196       -11.0532
  32   2.0000      -0.390470       -10.6252
  33   0.0000       0.129430         3.5220
  34   0.0000       0.136443         3.7128
  35   0.0000       0.153982         4.1901
  36   0.0000       0.169185         4.6038
  37   0.0000       0.173499         4.7212

MULLIKEN ATOMIC CHARGES
-----------------------
   0 O :   -0.277911
   1 C :    0.099643
   2 C :   -0.218981
   3 C :    0.150965
   4 C :   -0.280758
   5 C :   -0.113533
   6 C :   -0.000876
   7 O :   -0.313170
   8 C :   -0.142430
   9 H :    0.133771
  10 H :    0.141236
  11 H :    0.131045
  12 H :    0.132324
  13 H :    0.129193
  14 H :    0.145857
  15 H :    0.144878
  16 H :    0.138749
Sum of atomic charges:   -0.0000000

LOEWDIN ATOMIC CHARGES
----------------------
   0 O :    0.145173
   1 C :   -0.310134
   2 C :   -0.204058
   3 C :   -0.276611
   4 C :   -0.206135
   5 C :   -0.172888
   6 C :   -0.244291
   7 O :    0.209155
   8 C :   -0.140964
   9 H :    0.154575
  10 H :    0.158538
  11 H :    0.143868
  12 H :    0.145729
  13 H :    0.145900
  14 H :    0.149787
  15 H :    0.143815
  16 H :    0.158541

  Mayer bond orders larger than 0.1
B(  0-O ,  1-C ) :   2.0222 B(  1-C ,  2-C ) :   0.9205 B(  1-C ,  8-C ) :   0.9655
B(  2-C ,  3-C ) :   0.9015 B(  2-C ,  8-C ) :  -0.1062 B(  2-C ,  9-H ) :   0.9010
B(  2-C , 10-H ) :   0.8891 B(  3-C ,  4-C ) :   0.9318 B(  3-C ,  7-O ) :   0.8771
B(  3-C , 11-H ) :   0.9176 B(  4-C ,  5-C ) :   0.9694 B(  4-C , 12-H ) :   0.9263
B(  4-C , 13-H ) :   0.9165 B(  5-C ,  6-C ) :   0.8836 B(  5-C ,  8-C ) :   0.7766
B(  5-C , 14-H ) :   0.9182 B(  6-C ,  7-O ) :   1.0021 B(  6-C ,  8-C ) :   0.8205
B(  6-C , 15-H ) :   0.9299 B(  8-C , 16-H ) :   0.9131

MP2 TOTAL ENERGY:     -421.146763800 Eh
FINAL SINGLE POINT ENERGY      -421.146763799712

DIPOLE MOMENT
-------------
                                X             Y             Z
Electronic contribution:      0.91384      -1.74669       3.18110
Nuclear contribution   :     -0.79100       2.61867      -4.07269
                        -----------------------------------------
Total Dipole Moment    :      0.12284       0.87198      -0.89158
                        -----------------------------------------
Magnitude (a.u.)       :      1.25314
Magnitude (Debye)      :      3.18522

                             ****ORCA TERMINATED NORMALLY****
TOTAL RUN TIME: 0 days 0 hours 17 minutes 42 seconds 374 msec
