                         Program Version 3.0.3 - RELEASE   -
|  1> ! RI-MP2 RIJK def2-TZVP def2-TZVP/C def2-TZVP/JK TIGHTSCF
|  2> % maxcore 2000
|  3> % mp2 density relaxed end
|  4> *xyz 0 1
|  5>  C       -1.0328673772     0.9901950253     0.7650661485
|  6>  C       -0.4352232002    -0.3967954668     0.8920790402
|  7>  O        0.1925985550    -0.8528312745    -0.3353415566
|  8>  C        1.3803184237    -1.2609940882     0.3619513894
|  9>  C        2.4670561219    -0.1859092878     0.3639165677
| 10>  O        3.1946207695    -0.3863279513     1.5788329002
| 11>  C        1.9682306296     0.3716393798     1.6426500854
| 12>  C        2.0573183178     1.7284312176     2.2646234135
| 13>  C        0.8496369632    -0.6789648471     1.7170688374
| 14>  H       -0.2906793752     1.7136508946     0.4198123428
| 15>  H       -1.8508746950     0.9747241307     0.0379046819
| 16>  H       -1.4400360921     1.3254211422     1.7252352547
| 17>  H       -1.2220181869    -1.1089305048     1.1794519213
| 18>  H        1.6607615055    -2.3006080345     0.1798104449
| 19>  H        2.9752048930     0.2853470733    -0.4699469015
| 20>  H        2.9403400581     2.2555992687     1.8940521682
| 21>  H        1.1706737091     2.3300457186     2.0499074959
| 22>  H        2.1481235028     1.6413138552     3.3534411626
| 23>  H        0.7431481376    -1.2407905310     2.6447690734
| 24> *
| 25>
| 26>                          ****END OF INPUT****

CARTESIAN COORDINATES (ANGSTROEM)
---------------------------------
  C     -1.032867    0.990195    0.765066
  C     -0.435223   -0.396795    0.892079
  O      0.192599   -0.852831   -0.335342
  C      1.380318   -1.260994    0.361951
  C      2.467056   -0.185909    0.363917
  O      3.194621   -0.386328    1.578833
  C      1.968231    0.371639    1.642650
  C      2.057318    1.728431    2.264623
  C      0.849637   -0.678965    1.717069
  H     -0.290679    1.713651    0.419812
  H     -1.850875    0.974724    0.037905
  H     -1.440036    1.325421    1.725235
  H     -1.222018   -1.108931    1.179452
  H      1.660762   -2.300608    0.179810
  H      2.975205    0.285347   -0.469947
  H      2.940340    2.255599    1.894052
  H      1.170674    2.330046    2.049907
  H      2.148124    1.641314    3.353441
  H      0.743148   -1.240791    2.644769

 Total Charge           Charge          ....    0
 Multiplicity           Mult            ....    1
 Number of Electrons    NEL             ....   68
 Basis Dimension        Dim             ....  339

ORBITAL ENERGIES
----------------

  NO   OCC          E(Eh)            E(eV)
   0   2.0000     -20.569014      -559.7113
   1   2.0000     -20.553639      -559.2930
   2   2.0000     -11.297856      -307.4303
   3   2.0000     -11.293523      -307.3124
   4   2.0000     -11.291946      -307.2695
   5   2.0000     -11.286362      -307.1175
   6   2.0000     -11.243721      -305.9572
   7   2.0000     -11.232191      -305.6435
   8   2.0000     -11.224391      -305.4312
   9   2.0000      -1.426191       -38.8086
  10   2.0000      -1.381033       -37.5798
  11   2.0000      -1.072096       -29.1732
  12   2.0000      -1.026377       -27.9291
  13   2.0000      -1.002562       -27.2811
  14   2.0000      -0.917918       -24.9778
  15   2.0000      -0.838546       -22.8180
  16   2.0000      -0.818031       -22.2597
  17   2.0000      -0.715350       -19.4657
  18   2.0000      -0.701210       -19.0809
  19   2.0000      -0.683497       -18.5989
  20   2.0000      -0.648058       -17.6346
  21   2.0000      -0.612613       -16.6700
  22   2.0000      -0.603662       -16.4265
  23   2.0000      -0.591241       -16.0885
  24   2.0000      -0.571486       -15.5509
  25   2.0000      -0.545668       -14.8484
  26   2.0000      -0.538660       -14.6577
  27   2.0000      -0.521151       -14.1812
  28   2.0000      -0.513988       -13.9863
  29   2.0000      -0.491068       -13.3626
  30   2.0000      -0.456509       -12.4222
  31   2.0000      -0.431128       -11.7316
  32   2.0000      -0.412582       -11.2269
  33   2.0000      -0.399192       -10.8626
  34   0.0000       0.133691         3.6379
  35   0.0000       0.156111         4.2480
  36   0.0000       0.171636         4.6705
  37   0.0000       0.176205         4.7948
  38   0.0000       0.188209         5.1214

MULLIKEN ATOMIC CHARGES
-----------------------
   0 C :   -0.422285
   1 C :    0.059364
   2 O :   -0.337575
   3 C :    0.068568
   4 C :   -0.022940
   5 O :   -0.327270
   6 C :    0.088183
   7 C :   -0.411526
   8 C :   -0.007466
   9 H :    0.135126
  10 H :    0.144064
  11 H :    0.133694
  12 H :    0.087687
  13 H :    0.114862
  14 H :    0.140791
  15 H :    0.147363
  16 H :    0.136368
  17 H :    0.143167
  18 H :    0.129824
Sum of atomic charges:   -0.0000000

LOEWDIN ATOMIC CHARGES
----------------------
   0 C :   -0.295715
   1 C :   -0.276011
   2 O :    0.159939
   3 C :   -0.217258
   4 C :   -0.211302
   5 O :    0.194847
   6 C :   -0.280916
   7 C :   -0.269889
   8 C :   -0.132116
   9 H :    0.125239
  10 H :    0.130669
  11 H :    0.129139
  12 H :    0.139525
  13 H :    0.129293
  14 H :    0.132965
  15 H :    0.137636
  16 H :    0.129745
  17 H :    0.134785
  18 H :    0.139426

  Mayer bond orders larger than 0.1
B(  0-C ,  1-C ) :   0.9006 B(  0-C ,  9-H ) :   0.9407 B(  0-C , 10-H ) :   0.9303
B(  0-C , 11-H ) :   0.9294 B(  1-C ,  2-O ) :   0.9272 B(  1-C ,  8-C ) :   0.9033
B(  1-C , 12-H ) :   0.9219 B(  2-O ,  3-C ) :   0.9484 B(  3-C ,  4-C ) :   0.8460
B(  3-C ,  8-C ) :   0.9572 B(  3-C , 13-H ) :   0.9185 B(  4-C ,  5-O ) :   0.9082
B(  4-C ,  6-C ) :   0.9197 B(  4-C , 14-H ) :   0.9161 B(  5-O ,  6-C ) :   0.8792
B(  6-C ,  7-C ) :   0.8789 B(  6-C ,  8-C ) :   0.8541 B(  7-C , 15-H ) :   0.9334
B(  7-C , 16-H ) :   0.9323 B(  7-C , 17-H ) :   0.9395 B(  8-C , 18-H ) :   0.8979

MP2 TOTAL ENERGY:     -422.265695563 Eh
FINAL SINGLE POINT ENERGY      -422.265695562908

DIPOLE MOMENT
-------------
                                X             Y             Z
Electronic contribution:      4.13124      -5.55340      -2.21147
Nuclear contribution   :     -4.59485       6.02274       2.59051
                        -----------------------------------------
Total Dipole Moment    :     -0.46361       0.46934       0.37903
                        -----------------------------------------
Magnitude (a.u.)       :      0.76084
Magnitude (Debye)      :      1.93390

                             ****ORCA TERMINATED NORMALLY****
TOTAL RUN TIME: 0 days 0 hours 18 minutes 42 seconds 7 msec
