                         Program Version 3.0.3 - RELEASE   -
|  1> ! RI-MP2 RIJK def2-TZVP def2-TZVP/C def2-TZVP/JK TIGHTSCF
|  2> % maxcore 2000
|  3> % mp2 density relaxed end
|  4> *xyz 0 1
|  5>  C       -0.0392515652     1.5096865881    -0.1332514573
|  6>  C        1.3023964704     0.8205468707     0.0055536638
|  7>  C        0.0015334540     0.0029333816    -0.0652121082
|  8>  C        0.3444672587    -0.6970861904    -1.3563043073
|  9>  O       -0.1011072207    -1.6558319326    -2.3525400783
| 10>  C        1.2631336799    -1.2001552568    -2.7938440880
| 11>  C        1.8378184576    -1.1520108646    -1.3619186717
| 12>  C        2.0945790906     0.3824435398    -1.2675859690
| 13>  C        1.0227217502     0.2655498403    -2.3724933680
| 14>  H       -0.4089516683     2.0296971790     0.7452044802
| 15>  H       -0.3099393437     1.9882075736    -1.0676022133
| 16>  H        1.8355340163     0.9122749373     0.9450947290
| 17>  H       -0.3765620721    -0.5409227410     0.7911974053
| 18>  H        1.6292704277    -1.6385014306    -3.7200280125
| 19>  H        2.2514991515    -1.9718311928    -0.7755370248
| 20>  H        3.0729619159     0.8340801864    -1.4291146530
| 21>  H        0.5173848772     1.0351587519    -2.9528702268
| 22> *
| 23>
| 24>                          ****END OF INPUT****

CARTESIAN COORDINATES (ANGSTROEM)
---------------------------------
  C     -0.039252    1.509687   -0.133251
  C      1.302396    0.820547    0.005554
  C      0.001533    0.002933   -0.065212
  C      0.344467   -0.697086   -1.356304
  O     -0.101107   -1.655832   -2.352540
  C      1.263134   -1.200155   -2.793844
  C      1.837818   -1.152011   -1.361919
  C      2.094579    0.382444   -1.267586
  C      1.022722    0.265550   -2.372493
  H     -0.408952    2.029697    0.745204
  H     -0.309939    1.988208   -1.067602
  H      1.835534    0.912275    0.945095
  H     -0.376562   -0.540923    0.791197
  H      1.629270   -1.638501   -3.720028
  H      2.251499   -1.971831   -0.775537
  H      3.072962    0.834080   -1.429115
  H      0.517385    1.035159   -2.952870

 Total Charge           Charge          ....    0
 Multiplicity           Mult            ....    1
 Number of Electrons    NEL             ....   64
 Basis Dimension        Dim             ....  327

ORBITAL ENERGIES
----------------

  NO   OCC          E(Eh)            E(eV)
   0   2.0000     -20.548933      -559.1649
   1   2.0000     -11.306340      -307.6611
   2   2.0000     -11.302343      -307.5524
   3   2.0000     -11.252441      -306.1945
   4   2.0000     -11.244917      -305.9897
   5   2.0000     -11.242414      -305.9216
   6   2.0000     -11.241615      -305.8999
   7   2.0000     -11.240416      -305.8673
   8   2.0000     -11.239837      -305.8515
   9   2.0000      -1.396002       -37.9871
  10   2.0000      -1.213237       -33.0139
  11   2.0000      -1.117634       -30.4124
  12   2.0000      -0.920627       -25.0515
  13   2.0000      -0.912654       -24.8346
  14   2.0000      -0.887576       -24.1522
  15   2.0000      -0.810810       -22.0633
  16   2.0000      -0.769106       -20.9284
  17   2.0000      -0.702547       -19.1173
  18   2.0000      -0.695064       -18.9137
  19   2.0000      -0.668686       -18.1959
  20   2.0000      -0.623822       -16.9751
  21   2.0000      -0.596420       -16.2294
  22   2.0000      -0.587714       -15.9925
  23   2.0000      -0.557293       -15.1647
  24   2.0000      -0.515756       -14.0344
  25   2.0000      -0.492839       -13.4108
  26   2.0000      -0.469601       -12.7785
  27   2.0000      -0.456438       -12.4203
  28   2.0000      -0.421714       -11.4754
  29   2.0000      -0.410133       -11.1603
  30   2.0000      -0.394676       -10.7397
  31   2.0000      -0.374416       -10.1884
  32   0.0000       0.147328         4.0090
  33   0.0000       0.154490         4.2039
  34   0.0000       0.159464         4.3392
  35   0.0000       0.174611         4.7514
  36   0.0000       0.183634         4.9969

MULLIKEN ATOMIC CHARGES
-----------------------
   0 C :   -0.249453
   1 C :   -0.154350
   2 C :   -0.176613
   3 C :    0.208091
   4 O :   -0.328649
   5 C :    0.041227
   6 C :   -0.164466
   7 C :   -0.068924
   8 C :   -0.173106
   9 H :    0.132602
  10 H :    0.134865
  11 H :    0.129702
  12 H :    0.136173
  13 H :    0.140519
  14 H :    0.130774
  15 H :    0.131090
  16 H :    0.130519
Sum of atomic charges:   -0.0000000

LOEWDIN ATOMIC CHARGES
----------------------
   0 C :   -0.192606
   1 C :   -0.147568
   2 C :   -0.153827
   3 C :   -0.224609
   4 O :    0.128084
   5 C :   -0.163618
   6 C :   -0.087417
   7 C :   -0.149191
   8 C :   -0.099700
   9 H :    0.137258
  10 H :    0.137119
  11 H :    0.142441
  12 H :    0.147068
  13 H :    0.126668
  14 H :    0.132091
  15 H :    0.134875
  16 H :    0.132931

  Mayer bond orders larger than 0.1
B(  0-C ,  1-C ) :   0.9063 B(  0-C ,  2-C ) :   0.9021 B(  0-C ,  9-H ) :   0.9288
B(  0-C , 10-H ) :   0.9062 B(  1-C ,  2-C ) :   0.8843 B(  1-C ,  7-C ) :   0.8896
B(  1-C , 11-H ) :   0.9289 B(  2-C ,  3-C ) :   0.9319 B(  2-C , 12-H ) :   0.9274
B(  3-C ,  4-O ) :   1.0093 B(  3-C ,  6-C ) :   0.8821 B(  3-C ,  8-C ) :   0.8604
B(  4-O ,  5-C ) :   0.8422 B(  5-C ,  6-C ) :   0.8691 B(  5-C ,  8-C ) :   0.8655
B(  5-C , 13-H ) :   0.8995 B(  6-C ,  7-C ) :   0.8710 B(  6-C , 14-H ) :   0.8944
B(  7-C ,  8-C ) :   0.8586 B(  7-C , 15-H ) :   0.9007 B(  8-C , 16-H ) :   0.9066

MP2 TOTAL ENERGY:     -383.875487654 Eh
FINAL SINGLE POINT ENERGY      -383.875487654085

DIPOLE MOMENT
-------------
                                X             Y             Z
Electronic contribution:     -0.77562      -3.41735      -2.42275
Nuclear contribution   :      1.40090       4.00217       2.81490
                        -----------------------------------------
Total Dipole Moment    :      0.62528       0.58482       0.39215
                        -----------------------------------------
Magnitude (a.u.)       :      0.94169
Magnitude (Debye)      :      2.39358

                             ****ORCA TERMINATED NORMALLY****
TOTAL RUN TIME: 0 days 0 hours 18 minutes 56 seconds 136 msec
