                         Program Version 3.0.3 - RELEASE   -
|  1> ! RI-MP2 RIJK def2-TZVP def2-TZVP/C def2-TZVP/JK TIGHTSCF
|  2> % maxcore 2000
|  3> % mp2 density relaxed end
|  4> *xyz 0 1
|  5>  C        0.1243399235     1.5510494274    -0.0043976747
|  6>  C       -0.0347033498     0.0267418518     0.0064023305
|  7>  O       -1.4355478680    -0.3115919245    -0.0067556113
|  8>  C        0.5323536771    -0.5875704031    -1.2852337746
|  9>  C        0.7111198465    -2.0966681291    -1.2033642199
| 10>  O        2.0354500993    -2.5590761376    -0.8986986522
| 11>  C        1.0036284822    -2.7088963064     0.0969541814
| 12>  C        1.0803658272    -1.8213431251     1.2863197486
| 13>  C        0.6204365903    -0.5717095557     1.2415995502
| 14>  H        1.1799663032     1.8416803798    -0.0010423935
| 15>  H       -0.3544878833     1.9741713810    -0.8920345342
| 16>  H       -0.3495363585     1.9918541595     0.8802961504
| 17>  H       -1.7906212953    -0.1371506593     0.8715692056
| 18>  H       -0.1471313686    -0.3276096514    -2.1023057359
| 19>  H        1.5067759756    -0.1408051914    -1.5033157394
| 20>  H        0.2011443487    -2.6951936748    -1.9561886707
| 21>  H        0.7188569857    -3.7444679109     0.2806730694
| 22>  H        1.5176480880    -2.2241133441     2.1960832522
| 23>  H        0.6756264561     0.0650739740     2.1226949780
| 24> *
| 25>
| 26>                          ****END OF INPUT****

CARTESIAN COORDINATES (ANGSTROEM)
---------------------------------
  C      0.124340    1.551049   -0.004398
  C     -0.034703    0.026742    0.006402
  O     -1.435548   -0.311592   -0.006756
  C      0.532354   -0.587570   -1.285234
  C      0.711120   -2.096668   -1.203364
  O      2.035450   -2.559076   -0.898699
  C      1.003628   -2.708896    0.096954
  C      1.080366   -1.821343    1.286320
  C      0.620437   -0.571710    1.241600
  H      1.179966    1.841680   -0.001042
  H     -0.354488    1.974171   -0.892035
  H     -0.349536    1.991854    0.880296
  H     -1.790621   -0.137151    0.871569
  H     -0.147131   -0.327610   -2.102306
  H      1.506776   -0.140805   -1.503316
  H      0.201144   -2.695194   -1.956189
  H      0.718857   -3.744468    0.280673
  H      1.517648   -2.224113    2.196083
  H      0.675626    0.065074    2.122695

 Total Charge           Charge          ....    0
 Multiplicity           Mult            ....    1
 Number of Electrons    NEL             ....   68
 Basis Dimension        Dim             ....  339

ORBITAL ENERGIES
----------------

  NO   OCC          E(Eh)            E(eV)
   0   2.0000     -20.561143      -559.4971
   1   2.0000     -20.557788      -559.4058
   2   2.0000     -11.299207      -307.4671
   3   2.0000     -11.285980      -307.1071
   4   2.0000     -11.282308      -307.0072
   5   2.0000     -11.242049      -305.9117
   6   2.0000     -11.239660      -305.8467
   7   2.0000     -11.227785      -305.5235
   8   2.0000     -11.223420      -305.4048
   9   2.0000      -1.403549       -38.1925
  10   2.0000      -1.364128       -37.1198
  11   2.0000      -1.104657       -30.0592
  12   2.0000      -1.034626       -28.1536
  13   2.0000      -0.984539       -26.7907
  14   2.0000      -0.914348       -24.8807
  15   2.0000      -0.839315       -22.8389
  16   2.0000      -0.824558       -22.4374
  17   2.0000      -0.728352       -19.8195
  18   2.0000      -0.713034       -19.4026
  19   2.0000      -0.667801       -18.1718
  20   2.0000      -0.641789       -17.4640
  21   2.0000      -0.631520       -17.1845
  22   2.0000      -0.600932       -16.3522
  23   2.0000      -0.574783       -15.6406
  24   2.0000      -0.571545       -15.5525
  25   2.0000      -0.552253       -15.0276
  26   2.0000      -0.539406       -14.6780
  27   2.0000      -0.517965       -14.0945
  28   2.0000      -0.513428       -13.9711
  29   2.0000      -0.474034       -12.8991
  30   2.0000      -0.458459       -12.4753
  31   2.0000      -0.437440       -11.9033
  32   2.0000      -0.424987       -11.5645
  33   2.0000      -0.368323       -10.0226
  34   0.0000       0.119581         3.2540
  35   0.0000       0.133598         3.6354
  36   0.0000       0.162108         4.4112
  37   0.0000       0.169964         4.6249
  38   0.0000       0.179295         4.8789

MULLIKEN ATOMIC CHARGES
-----------------------
   0 C :   -0.420824
   1 C :    0.328740
   2 O :   -0.470315
   3 C :   -0.257367
   4 C :    0.062872
   5 O :   -0.330605
   6 C :    0.030307
   7 C :   -0.130437
   8 C :   -0.287974
   9 H :    0.136067
  10 H :    0.142957
  11 H :    0.120448
  12 H :    0.310969
  13 H :    0.127073
  14 H :    0.133928
  15 H :    0.122442
  16 H :    0.114100
  17 H :    0.135684
  18 H :    0.131935
Sum of atomic charges:    0.0000000

LOEWDIN ATOMIC CHARGES
----------------------
   0 C :   -0.274777
   1 C :   -0.377635
   2 O :    0.003934
   3 C :   -0.195523
   4 C :   -0.243572
   5 O :    0.157595
   6 C :   -0.247105
   7 C :   -0.134158
   8 C :   -0.122104
   9 H :    0.129725
  10 H :    0.129865
  11 H :    0.123062
  12 H :    0.173488
  13 H :    0.150243
  14 H :    0.155734
  15 H :    0.137180
  16 H :    0.140434
  17 H :    0.146548
  18 H :    0.147067

  Mayer bond orders larger than 0.1
B(  0-C ,  1-C ) :   0.8997 B(  0-C ,  9-H ) :   0.9346 B(  0-C , 10-H ) :   0.9430
B(  0-C , 11-H ) :   0.9228 B(  1-C ,  2-O ) :   0.9208 B(  1-C ,  3-C ) :   0.9175
B(  1-C ,  8-C ) :   0.9109 B(  2-O , 12-H ) :   0.8428 B(  3-C ,  4-C ) :   0.9220
B(  3-C , 13-H ) :   0.9238 B(  3-C , 14-H ) :   0.9205 B(  4-C ,  5-O ) :   0.8913
B(  4-C ,  6-C ) :   0.9930 B(  4-C , 15-H ) :   0.9138 B(  5-O ,  6-C ) :   0.9224
B(  6-C ,  7-C ) :   0.9267 B(  6-C , 16-H ) :   0.9283 B(  7-C ,  8-C ) :   1.7922
B(  7-C , 17-H ) :   0.9250 B(  8-C , 18-H ) :   0.9103

MP2 TOTAL ENERGY:     -422.310958324 Eh
FINAL SINGLE POINT ENERGY      -422.310958323526

DIPOLE MOMENT
-------------
                                X             Y             Z
Electronic contribution:      1.19448      -5.59222      -0.20096
Nuclear contribution   :     -1.59944       6.01563       0.85403
                        -----------------------------------------
Total Dipole Moment    :     -0.40495       0.42340       0.65307
                        -----------------------------------------
Magnitude (a.u.)       :      0.87735
Magnitude (Debye)      :      2.23006

                             ****ORCA TERMINATED NORMALLY****
TOTAL RUN TIME: 0 days 0 hours 24 minutes 5 seconds 676 msec
