                         Program Version 3.0.3 - RELEASE   -
|  1> ! RI-MP2 RIJK def2-TZVP def2-TZVP/C def2-TZVP/JK TIGHTSCF
|  2> % maxcore 2000
|  3> % mp2 density relaxed end
|  4> *xyz 0 1
|  5>  C        0.0411795859     1.5987234017     0.0177024761
|  6>  C        0.0191781740     0.0678256122     0.0260704098
|  7>  C       -1.3979206680    -0.5153244129     0.0011807299
|  8>  C       -1.4251767698    -2.0471243529     0.0054602491
|  9>  C       -2.8434467446    -2.6229992330    -0.0224200106
| 10>  C       -2.8634872299    -4.1633574827     0.0227428814
| 11>  O       -2.2024559119    -4.6762866948     1.1788144179
| 12>  C       -4.2314129894    -4.6804502181    -0.0844841702
| 13>  C       -5.3648596985    -5.0793173411    -0.1291412669
| 14>  H        1.0652081377     1.9847888502     0.0357837373
| 15>  H       -0.4487853175     1.9966397567    -0.8780248539
| 16>  H       -0.4837598964     2.0072069324     0.8885826095
| 17>  H        0.5810675790    -0.3117361324    -0.8376715048
| 18>  H        0.5462777834    -0.3027810290     0.9150839771
| 19>  H       -1.9597714977    -0.1381680754     0.8674850177
| 20>  H       -1.9281426889    -0.1415557073    -0.8861770431
| 21>  H       -0.8657299848    -2.4236547028    -0.8625761553
| 22>  H       -0.9047048766    -2.4289323387     0.8909064814
| 23>  H       -3.4256253572    -2.2445542633     0.8287529838
| 24>  H       -3.3723460063    -2.2973267376    -0.9265719447
| 25>  H       -2.2730840755    -4.5441572324    -0.8205977426
| 26>  H       -2.7853046345    -4.5278962423     1.9320025055
| 27>  H       -6.3597280128    -5.4472639563    -0.1833868446
| 28> *
| 29>
| 30>                          ****END OF INPUT****

CARTESIAN COORDINATES (ANGSTROEM)
---------------------------------
  C      0.041180    1.598723    0.017702
  C      0.019178    0.067826    0.026070
  C     -1.397921   -0.515324    0.001181
  C     -1.425177   -2.047124    0.005460
  C     -2.843447   -2.622999   -0.022420
  C     -2.863487   -4.163357    0.022743
  O     -2.202456   -4.676287    1.178814
  C     -4.231413   -4.680450   -0.084484
  C     -5.364860   -5.079317   -0.129141
  H      1.065208    1.984789    0.035784
  H     -0.448785    1.996640   -0.878025
  H     -0.483760    2.007207    0.888583
  H      0.581068   -0.311736   -0.837672
  H      0.546278   -0.302781    0.915084
  H     -1.959771   -0.138168    0.867485
  H     -1.928143   -0.141556   -0.886177
  H     -0.865730   -2.423655   -0.862576
  H     -0.904705   -2.428932    0.890906
  H     -3.425625   -2.244554    0.828753
  H     -3.372346   -2.297327   -0.926572
  H     -2.273084   -4.544157   -0.820598
  H     -2.785305   -4.527896    1.932003
  H     -6.359728   -5.447264   -0.183387

 Total Charge           Charge          ....    0
 Multiplicity           Mult            ....    1
 Number of Electrons    NEL             ....   70
 Basis Dimension        Dim             ....  363

ORBITAL ENERGIES
----------------

  NO   OCC          E(Eh)            E(eV)
   0   2.0000     -20.564027      -559.5756
   1   2.0000     -11.309626      -307.7506
   2   2.0000     -11.237542      -305.7891
   3   2.0000     -11.231305      -305.6193
   4   2.0000     -11.229779      -305.5778
   5   2.0000     -11.218689      -305.2761
   6   2.0000     -11.218230      -305.2636
   7   2.0000     -11.217719      -305.2496
   8   2.0000     -11.211715      -305.0863
   9   2.0000      -1.370911       -37.3044
  10   2.0000      -1.091820       -29.7099
  11   2.0000      -1.060069       -28.8459
  12   2.0000      -1.021152       -27.7870
  13   2.0000      -0.960793       -26.1445
  14   2.0000      -0.887799       -24.1582
  15   2.0000      -0.816344       -22.2139
  16   2.0000      -0.790867       -21.5206
  17   2.0000      -0.746011       -20.3000
  18   2.0000      -0.692192       -18.8355
  19   2.0000      -0.662669       -18.0322
  20   2.0000      -0.631359       -17.1801
  21   2.0000      -0.629533       -17.1305
  22   2.0000      -0.583036       -15.8652
  23   2.0000      -0.575623       -15.6635
  24   2.0000      -0.564607       -15.3637
  25   2.0000      -0.536042       -14.5865
  26   2.0000      -0.524138       -14.2625
  27   2.0000      -0.497977       -13.5506
  28   2.0000      -0.480603       -13.0779
  29   2.0000      -0.478083       -13.0093
  30   2.0000      -0.464456       -12.6385
  31   2.0000      -0.462497       -12.5852
  32   2.0000      -0.450889       -12.2693
  33   2.0000      -0.400868       -10.9082
  34   2.0000      -0.390646       -10.6300
  35   0.0000       0.129748         3.5306
  36   0.0000       0.141796         3.8585
  37   0.0000       0.157931         4.2975
  38   0.0000       0.163871         4.4592
  39   0.0000       0.165194         4.4952

MULLIKEN ATOMIC CHARGES
-----------------------
   0 C :   -0.383224
   1 C :   -0.178966
   2 C :   -0.225853
   3 C :   -0.228995
   4 C :   -0.198850
   5 C :   -0.029945
   6 O :   -0.463544
   7 C :   -0.053463
   8 C :   -0.118678
   9 H :    0.133034
  10 H :    0.121016
  11 H :    0.120931
  12 H :    0.104531
  13 H :    0.105967
  14 H :    0.105711
  15 H :    0.103666
  16 H :    0.103760
  17 H :    0.125855
  18 H :    0.108859
  19 H :    0.120424
  20 H :    0.115496
  21 H :    0.318539
  22 H :    0.193729
Sum of atomic charges:    0.0000000

LOEWDIN ATOMIC CHARGES
----------------------
   0 C :   -0.322472
   1 C :   -0.297565
   2 C :   -0.273928
   3 C :   -0.268028
   4 C :   -0.243100
   5 C :   -0.335381
   6 O :   -0.008207
   7 C :   -0.095236
   8 C :   -0.091153
   9 H :    0.120095
  10 H :    0.119673
  11 H :    0.119683
  12 H :    0.134182
  13 H :    0.134600
  14 H :    0.136101
  15 H :    0.135714
  16 H :    0.137923
  17 H :    0.141195
  18 H :    0.140737
  19 H :    0.146297
  20 H :    0.161896
  21 H :    0.179124
  22 H :    0.127851

  Mayer bond orders larger than 0.1
B(  0-C ,  1-C ) :   0.9226 B(  0-C ,  9-H ) :   0.9437 B(  0-C , 10-H ) :   0.9396
B(  0-C , 11-H ) :   0.9396 B(  1-C ,  2-C ) :   0.9365 B(  1-C , 12-H ) :   0.9340
B(  1-C , 13-H ) :   0.9341 B(  2-C ,  3-C ) :   0.9266 B(  2-C , 14-H ) :   0.9303
B(  2-C , 15-H ) :   0.9271 B(  3-C ,  4-C ) :   0.9304 B(  3-C , 16-H ) :   0.9257
B(  3-C , 17-H ) :   0.9310 B(  4-C ,  5-C ) :   0.9489 B(  4-C , 18-H ) :   0.9131
B(  4-C , 19-H ) :   0.9218 B(  5-C ,  6-O ) :   0.8766 B(  5-C ,  7-C ) :   1.1632
B(  5-C , 20-H ) :   0.9132 B(  6-O , 21-H ) :   0.8409 B(  7-C ,  8-C ) :   2.5729
B(  8-C , 22-H ) :   0.8918

MP2 TOTAL ENERGY:     -387.578774323 Eh
FINAL SINGLE POINT ENERGY      -387.578774322802

DIPOLE MOMENT
-------------
                                X             Y             Z
Electronic contribution:     -7.79948     -13.48431       0.96231
Nuclear contribution   :      7.40698      13.87529      -0.94100
                        -----------------------------------------
Total Dipole Moment    :     -0.39250       0.39099       0.02131
                        -----------------------------------------
Magnitude (a.u.)       :      0.55442
Magnitude (Debye)      :      1.40922

                             ****ORCA TERMINATED NORMALLY****
TOTAL RUN TIME: 0 days 0 hours 18 minutes 18 seconds 588 msec
