                         Program Version 3.0.3 - RELEASE   -
|  1> ! RI-MP2 RIJK def2-TZVP def2-TZVP/C def2-TZVP/JK TIGHTSCF
|  2> % maxcore 2000
|  3> % mp2 density relaxed end
|  4> *xyz 0 1
|  5>  O       -0.0710948934    -0.0697325847     0.0000590567
|  6>  C       -0.0254994315     1.1420053708     0.0076813540
|  7>  N        1.1275930136     1.8598784757     0.0028288642
|  8>  C        2.4136865723     1.2246628994    -0.0126633977
|  9>  C        3.5112954657     2.2640877751    -0.0194049484
| 10>  O        3.2988859012     3.4508073288    -0.0118403582
| 11>  C        4.9516227879     1.7072938516    -0.0353814790
| 12>  O        5.9120526954     2.4236981613    -0.0414423227
| 13>  H       -0.9221239195     1.7904759976     0.0182138993
| 14>  H        1.1246179478     2.8701541619     0.0073201122
| 15>  H        2.5540282341     0.5614839193     0.8559179653
| 16>  H        2.5363110855     0.5686461502    -0.8893070406
| 17>  H        5.0325566508     0.5978973331    -0.0404860853
| 18> *
| 19>
| 20>                          ****END OF INPUT****

CARTESIAN COORDINATES (ANGSTROEM)
---------------------------------
  O     -0.071095   -0.069733    0.000059
  C     -0.025499    1.142005    0.007681
  N      1.127593    1.859878    0.002829
  C      2.413687    1.224663   -0.012663
  C      3.511295    2.264088   -0.019405
  O      3.298886    3.450807   -0.011840
  C      4.951623    1.707294   -0.035381
  O      5.912053    2.423698   -0.041442
  H     -0.922124    1.790476    0.018214
  H      1.124618    2.870154    0.007320
  H      2.554028    0.561484    0.855918
  H      2.536311    0.568646   -0.889307
  H      5.032557    0.597897   -0.040486

 Total Charge           Charge          ....    0
 Multiplicity           Mult            ....    1
 Number of Electrons    NEL             ....   60
 Basis Dimension        Dim             ....  278

ORBITAL ENERGIES
----------------

  NO   OCC          E(Eh)            E(eV)
   0   2.0000     -20.607337      -560.7542
   1   2.0000     -20.601697      -560.6007
   2   2.0000     -20.540215      -558.9277
   3   2.0000     -15.609169      -424.7471
   4   2.0000     -11.377378      -309.5942
   5   2.0000     -11.371305      -309.4289
   6   2.0000     -11.365365      -309.2673
   7   2.0000     -11.312232      -307.8215
   8   2.0000      -1.455322       -39.6013
   9   2.0000      -1.427442       -38.8427
  10   2.0000      -1.401283       -38.1309
  11   2.0000      -1.260585       -34.3023
  12   2.0000      -1.055873       -28.7318
  13   2.0000      -0.937708       -25.5163
  14   2.0000      -0.833464       -22.6797
  15   2.0000      -0.797426       -21.6991
  16   2.0000      -0.768274       -20.9058
  17   2.0000      -0.709938       -19.3184
  18   2.0000      -0.696931       -18.9645
  19   2.0000      -0.680193       -18.5090
  20   2.0000      -0.661511       -18.0006
  21   2.0000      -0.646268       -17.5859
  22   2.0000      -0.605148       -16.4669
  23   2.0000      -0.595270       -16.1981
  24   2.0000      -0.556164       -15.1340
  25   2.0000      -0.529507       -14.4086
  26   2.0000      -0.525065       -14.2878
  27   2.0000      -0.450851       -12.2683
  28   2.0000      -0.441102       -12.0030
  29   2.0000      -0.419960       -11.4277
  30   0.0000       0.036469         0.9924
  31   0.0000       0.120930         3.2907
  32   0.0000       0.143101         3.8940
  33   0.0000       0.146336         3.9820
  34   0.0000       0.167938         4.5698

MULLIKEN ATOMIC CHARGES
-----------------------
   0 O :   -0.360459
   1 C :    0.193844
   2 N :   -0.328472
   3 C :   -0.176862
   4 C :    0.298619
   5 O :   -0.261243
   6 C :    0.028850
   7 O :   -0.198262
   8 H :    0.094641
   9 H :    0.264581
  10 H :    0.164960
  11 H :    0.165078
  12 H :    0.114726
Sum of atomic charges:   -0.0000000

LOEWDIN ATOMIC CHARGES
----------------------
   0 O :    0.062171
   1 C :   -0.427905
   2 N :    0.084977
   3 C :   -0.261907
   4 C :   -0.324283
   5 O :    0.191452
   6 C :   -0.258957
   7 O :    0.190935
   8 H :    0.113852
   9 H :    0.193205
  10 H :    0.158794
  11 H :    0.158817
  12 H :    0.118850

  Mayer bond orders larger than 0.1
B(  0-O ,  1-C ) :   1.8909 B(  1-C ,  2-N ) :   1.1346 B(  1-C ,  8-H ) :   0.9319
B(  2-N ,  3-C ) :   0.8784 B(  2-N ,  9-H ) :   0.8509 B(  3-C ,  4-C ) :   0.8795
B(  3-C , 10-H ) :   0.9074 B(  3-C , 11-H ) :   0.9075 B(  4-C ,  5-O ) :   1.9183
B(  4-C ,  6-C ) :   0.8097 B(  6-C ,  7-O ) :   2.0132 B(  6-C , 12-H ) :   0.9365

MP2 TOTAL ENERGY:     -435.079548683 Eh
FINAL SINGLE POINT ENERGY      -435.079548683422

DIPOLE MOMENT
-------------
                                X             Y             Z
Electronic contribution:      2.61274       2.18574      -0.01669
Nuclear contribution   :     -2.64314      -2.21000       0.01890
                        -----------------------------------------
Total Dipole Moment    :     -0.03039      -0.02427       0.00221
                        -----------------------------------------
Magnitude (a.u.)       :      0.03896
Magnitude (Debye)      :      0.09902

                             ****ORCA TERMINATED NORMALLY****
TOTAL RUN TIME: 0 days 0 hours 8 minutes 9 seconds 208 msec
