                         Program Version 3.0.3 - RELEASE   -
|  1> ! RI-MP2 RIJK def2-TZVP def2-TZVP/C def2-TZVP/JK TIGHTSCF
|  2> % maxcore 2000
|  3> % mp2 density relaxed end
|  4> *xyz 0 1
|  5>  C       -1.5436373977     0.0039267109    -0.1698698378
|  6>  O       -0.1425761337     0.1237182715    -0.0209683105
|  7>  C        0.6412669436    -0.6547508145    -0.8886728710
|  8>  C        0.4772383744    -0.2282140604    -2.3666125347
|  9>  C        0.7787229962     1.1847612893    -2.5841693331
| 10>  N        1.0224409957     2.3006838898    -2.7581376159
| 11>  C        2.1202741766    -0.7025342740    -0.4350497073
| 12>  C        2.1278105095    -2.2322548319    -0.7022548676
| 13>  C        0.5743154901    -2.2077836569    -0.7298304912
| 14>  H       -1.9084849160     0.4557282691    -1.1028487787
| 15>  H       -1.8716271679    -1.0448310216    -0.1336694837
| 16>  H       -1.9938817622     0.5409487823     0.6676172774
| 17>  H        1.1431285967    -0.8304162416    -2.9938534337
| 18>  H       -0.5424004781    -0.4310282086    -2.7115193832
| 19>  H        2.8300845435    -0.0748713753    -0.9781805096
| 20>  H        2.1786582966    -0.4671192831     0.6293611732
| 21>  H        2.5599636832    -2.4893794573    -1.6728582295
| 22>  H        2.5951090955    -2.8627180232     0.0555667221
| 23>  H        0.1463831056    -2.4644129596     0.2422879769
| 24>  H        0.0651068384    -2.7831538650    -1.5075420321
| 25> *
| 26>
| 27>                          ****END OF INPUT****

CARTESIAN COORDINATES (ANGSTROEM)
---------------------------------
  C     -1.543637    0.003927   -0.169870
  O     -0.142576    0.123718   -0.020968
  C      0.641267   -0.654751   -0.888673
  C      0.477238   -0.228214   -2.366613
  C      0.778723    1.184761   -2.584169
  N      1.022441    2.300684   -2.758138
  C      2.120274   -0.702534   -0.435050
  C      2.127811   -2.232255   -0.702255
  C      0.574315   -2.207784   -0.729830
  H     -1.908485    0.455728   -1.102849
  H     -1.871627   -1.044831   -0.133669
  H     -1.993882    0.540949    0.667617
  H      1.143129   -0.830416   -2.993853
  H     -0.542400   -0.431028   -2.711519
  H      2.830085   -0.074871   -0.978181
  H      2.178658   -0.467119    0.629361
  H      2.559964   -2.489379   -1.672858
  H      2.595109   -2.862718    0.055567
  H      0.146383   -2.464413    0.242288
  H      0.065107   -2.783154   -1.507542

 Total Charge           Charge          ....    0
 Multiplicity           Mult            ....    1
 Number of Electrons    NEL             ....   68
 Basis Dimension        Dim             ....  345

ORBITAL ENERGIES
----------------

  NO   OCC          E(Eh)            E(eV)
   0   2.0000     -20.568666      -559.7019
   1   2.0000     -15.564855      -423.5412
   2   2.0000     -11.310692      -307.7796
   3   2.0000     -11.282192      -307.0040
   4   2.0000     -11.281931      -306.9969
   5   2.0000     -11.269501      -306.6587
   6   2.0000     -11.239341      -305.8380
   7   2.0000     -11.237565      -305.7897
   8   2.0000     -11.231161      -305.6154
   9   2.0000      -1.393325       -37.9143
  10   2.0000      -1.214513       -33.0486
  11   2.0000      -1.148111       -31.2417
  12   2.0000      -1.041470       -28.3398
  13   2.0000      -0.957766       -26.0621
  14   2.0000      -0.918947       -25.0058
  15   2.0000      -0.862823       -23.4786
  16   2.0000      -0.761179       -20.7127
  17   2.0000      -0.712724       -19.3942
  18   2.0000      -0.685577       -18.6555
  19   2.0000      -0.676730       -18.4148
  20   2.0000      -0.643649       -17.5146
  21   2.0000      -0.634809       -17.2740
  22   2.0000      -0.604297       -16.4437
  23   2.0000      -0.594718       -16.1831
  24   2.0000      -0.557341       -15.1660
  25   2.0000      -0.549075       -14.9411
  26   2.0000      -0.528166       -14.3721
  27   2.0000      -0.492215       -13.3938
  28   2.0000      -0.489223       -13.3124
  29   2.0000      -0.482948       -13.1417
  30   2.0000      -0.468043       -12.7361
  31   2.0000      -0.454790       -12.3755
  32   2.0000      -0.443282       -12.0623
  33   2.0000      -0.418322       -11.3831
  34   0.0000       0.117125         3.1871
  35   0.0000       0.142369         3.8741
  36   0.0000       0.152614         4.1528
  37   0.0000       0.163320         4.4442
  38   0.0000       0.179438         4.8828

MULLIKEN ATOMIC CHARGES
-----------------------
   0 C :   -0.237574
   1 O :   -0.301325
   2 C :    0.255832
   3 C :   -0.222167
   4 C :   -0.191798
   5 N :   -0.048634
   6 C :   -0.248342
   7 C :   -0.255657
   8 C :   -0.258773
   9 H :    0.124959
  10 H :    0.119800
  11 H :    0.151174
  12 H :    0.168649
  13 H :    0.168101
  14 H :    0.138698
  15 H :    0.132971
  16 H :    0.125996
  17 H :    0.125220
  18 H :    0.129115
  19 H :    0.123756
Sum of atomic charges:    0.0000000

LOEWDIN ATOMIC CHARGES
----------------------
   0 C :   -0.345305
   1 O :    0.191121
   2 C :   -0.342492
   3 C :   -0.212992
   4 C :   -0.188262
   5 N :    0.060584
   6 C :   -0.189942
   7 C :   -0.238828
   8 C :   -0.207305
   9 H :    0.104348
  10 H :    0.105256
  11 H :    0.117933
  12 H :    0.172375
  13 H :    0.164937
  14 H :    0.133837
  15 H :    0.145793
  16 H :    0.131642
  17 H :    0.127112
  18 H :    0.143211
  19 H :    0.126977

  Mayer bond orders larger than 0.1
B(  0-C ,  1-O ) :   0.8953 B(  0-C ,  9-H ) :   0.9290 B(  0-C , 10-H ) :   0.9287
B(  0-C , 11-H ) :   0.9413 B(  1-O ,  2-C ) :   1.0185 B(  2-C ,  3-C ) :   0.8790
B(  2-C ,  6-C ) :   0.8676 B(  2-C ,  8-C ) :   0.8980 B(  3-C ,  4-C ) :   0.9540
B(  3-C , 12-H ) :   0.8963 B(  3-C , 13-H ) :   0.9100 B(  4-C ,  5-N ) :   2.8786
B(  6-C ,  7-C ) :   0.9272 B(  6-C , 14-H ) :   0.9296 B(  6-C , 15-H ) :   0.9219
B(  7-C ,  8-C ) :   0.9477 B(  7-C , 16-H ) :   0.9309 B(  7-C , 17-H ) :   0.9260
B(  8-C , 18-H ) :   0.9165 B(  8-C , 19-H ) :   0.9248

MP2 TOTAL ENERGY:     -402.453379892 Eh
FINAL SINGLE POINT ENERGY      -402.453379892066

DIPOLE MOMENT
-------------
                                X             Y             Z
Electronic contribution:      1.17532       6.87876      -2.74157
Nuclear contribution   :     -1.67955      -8.65661       2.89237
                        -----------------------------------------
Total Dipole Moment    :     -0.50422      -1.77785       0.15080
                        -----------------------------------------
Magnitude (a.u.)       :      1.85411
Magnitude (Debye)      :      4.71277

                             ****ORCA TERMINATED NORMALLY****
TOTAL RUN TIME: 0 days 0 hours 19 minutes 33 seconds 879 msec
