                         Program Version 3.0.3 - RELEASE   -
|  1> ! RI-MP2 RIJK def2-TZVP def2-TZVP/C def2-TZVP/JK TIGHTSCF
|  2> % maxcore 2000
|  3> % mp2 density relaxed end
|  4> *xyz 0 1
|  5>  C       -0.0778598789     1.5956191032     0.1805971289
|  6>  C        0.1185607187     0.1133238499     0.0647770250
|  7>  C       -0.8189786132    -0.9125773370     0.6393148716
|  8>  C        0.6163217644    -0.8183245889     1.1360778640
|  9>  C        1.6355501150    -1.7187883909     0.4698452076
| 10>  C        1.5365442154    -1.3575932333    -1.0054718141
| 11>  N        2.1132763526    -1.9656570995    -1.9482694914
| 12>  O        0.7235274146    -0.2655793269    -1.1685476063
| 13>  H        0.8765988067     2.1240434188     0.0912760776
| 14>  H       -0.7465314733     1.9629274714    -0.6045898586
| 15>  H       -0.5222514199     1.8431546053     1.1485000530
| 16>  H       -1.5982576405    -0.5633860681     1.3081869059
| 17>  H       -1.0998561721    -1.7545815707     0.0140877735
| 18>  H        0.7960306494    -0.4635531158     2.1438011559
| 19>  H        2.6496108897    -1.5085066558     0.8254322365
| 20>  H        1.4595414952    -2.7885805645     0.6084492943
| 21>  H        1.8863221060    -1.5337259170    -2.8454066034
| 22> *
| 23>
| 24>                          ****END OF INPUT****

CARTESIAN COORDINATES (ANGSTROEM)
---------------------------------
  C     -0.077860    1.595619    0.180597
  C      0.118561    0.113324    0.064777
  C     -0.818979   -0.912577    0.639315
  C      0.616322   -0.818325    1.136078
  C      1.635550   -1.718788    0.469845
  C      1.536544   -1.357593   -1.005472
  N      2.113276   -1.965657   -1.948269
  O      0.723527   -0.265579   -1.168548
  H      0.876599    2.124043    0.091276
  H     -0.746531    1.962927   -0.604590
  H     -0.522251    1.843155    1.148500
  H     -1.598258   -0.563386    1.308187
  H     -1.099856   -1.754582    0.014088
  H      0.796031   -0.463553    2.143801
  H      2.649611   -1.508507    0.825432
  H      1.459541   -2.788581    0.608449
  H      1.886322   -1.533726   -2.845407

 Total Charge           Charge          ....    0
 Multiplicity           Mult            ....    1
 Number of Electrons    NEL             ....   60
 Basis Dimension        Dim             ....  302

ORBITAL ENERGIES
----------------

  NO   OCC          E(Eh)            E(eV)
   0   2.0000     -20.592766      -560.3577
   1   2.0000     -15.527021      -422.5117
   2   2.0000     -11.334597      -308.4301
   3   2.0000     -11.304891      -307.6217
   4   2.0000     -11.247633      -306.0636
   5   2.0000     -11.245623      -306.0090
   6   2.0000     -11.239516      -305.8428
   7   2.0000     -11.233280      -305.6731
   8   2.0000      -1.433313       -39.0024
   9   2.0000      -1.196752       -32.5653
  10   2.0000      -1.154422       -31.4134
  11   2.0000      -1.027384       -27.9566
  12   2.0000      -0.969086       -26.3702
  13   2.0000      -0.832626       -22.6569
  14   2.0000      -0.807616       -21.9763
  15   2.0000      -0.768191       -20.9036
  16   2.0000      -0.696777       -18.9603
  17   2.0000      -0.661509       -18.0006
  18   2.0000      -0.653232       -17.7753
  19   2.0000      -0.596305       -16.2263
  20   2.0000      -0.588333       -16.0094
  21   2.0000      -0.574443       -15.6314
  22   2.0000      -0.571184       -15.5427
  23   2.0000      -0.553661       -15.0659
  24   2.0000      -0.527416       -14.3517
  25   2.0000      -0.518491       -14.1089
  26   2.0000      -0.432885       -11.7794
  27   2.0000      -0.428574       -11.6621
  28   2.0000      -0.423895       -11.5348
  29   2.0000      -0.378330       -10.2949
  30   0.0000       0.130468         3.5502
  31   0.0000       0.158691         4.3182
  32   0.0000       0.162825         4.4307
  33   0.0000       0.174907         4.7595
  34   0.0000       0.178553         4.8587

MULLIKEN ATOMIC CHARGES
-----------------------
   0 C :   -0.402934
   1 C :    0.236876
   2 C :   -0.298587
   3 C :   -0.156271
   4 C :   -0.142122
   5 C :    0.066481
   6 N :   -0.371231
   7 O :   -0.257795
   8 H :    0.137964
   9 H :    0.144497
  10 H :    0.128381
  11 H :    0.133762
  12 H :    0.144534
  13 H :    0.136418
  14 H :    0.139561
  15 H :    0.137354
  16 H :    0.223110
Sum of atomic charges:   -0.0000000

LOEWDIN ATOMIC CHARGES
----------------------
   0 C :   -0.263398
   1 C :   -0.311172
   2 C :   -0.180814
   3 C :   -0.184554
   4 C :   -0.195896
   5 C :   -0.389973
   6 N :   -0.062360
   7 O :    0.281295
   8 H :    0.131800
   9 H :    0.133293
  10 H :    0.133870
  11 H :    0.138831
  12 H :    0.142356
  13 H :    0.147449
  14 H :    0.156771
  15 H :    0.154329
  16 H :    0.168172

  Mayer bond orders larger than 0.1
B(  0-C ,  1-C ) :   0.9145 B(  0-C ,  8-H ) :   0.9333 B(  0-C ,  9-H ) :   0.9366
B(  0-C , 10-H ) :   0.9315 B(  1-C ,  2-C ) :   0.8856 B(  1-C ,  3-C ) :   0.8658
B(  1-C ,  7-O ) :   0.8933 B(  2-C ,  3-C ) :   0.8710 B(  2-C , 11-H ) :   0.9217
B(  2-C , 12-H ) :   0.9094 B(  3-C ,  4-C ) :   0.9574 B(  3-C , 13-H ) :   0.9222
B(  4-C ,  5-C ) :   0.9297 B(  4-C , 14-H ) :   0.9119 B(  4-C , 15-H ) :   0.9072
B(  5-C ,  6-N ) :   2.0879 B(  5-C ,  7-O ) :   1.0747 B(  6-N , 16-H ) :   0.8556

MP2 TOTAL ENERGY:     -363.251789653 Eh
FINAL SINGLE POINT ENERGY      -363.251789652938

DIPOLE MOMENT
-------------
                                X             Y             Z
Electronic contribution:      2.07033      -2.27807      -3.52888
Nuclear contribution   :     -2.67834       2.92898       4.43243
                        -----------------------------------------
Total Dipole Moment    :     -0.60801       0.65090       0.90355
                        -----------------------------------------
Magnitude (a.u.)       :      1.26876
Magnitude (Debye)      :      3.22493

                             ****ORCA TERMINATED NORMALLY****
TOTAL RUN TIME: 0 days 0 hours 12 minutes 25 seconds 852 msec
