                         Program Version 3.0.3 - RELEASE   -
|  1> ! RI-MP2 RIJK def2-TZVP def2-TZVP/C def2-TZVP/JK TIGHTSCF
|  2> % maxcore 2000
|  3> % mp2 density relaxed end
|  4> *xyz 0 1
|  5>  O       -0.0201650271     1.4162563422    -0.0808344333
|  6>  C       -0.0147891454    -0.0042389906    -0.0016147803
|  7>  C        0.7345379957    -0.5021649252     1.2429962131
|  8>  C        0.6720260736    -2.0316589617     1.3658417819
|  9>  C       -0.7808229942    -2.5278257493     1.3622220912
| 10>  C       -1.5323894489    -2.0175505176     0.1231634742
| 11>  C       -1.4531520601    -0.5028821126     0.0060994116
| 12>  C       -2.5049753849     0.3308171838     0.6981923819
| 13>  C       -2.4885779342     0.2210709793    -0.8103777771
| 14>  H        0.8915070382     1.7174710927    -0.0241582030
| 15>  H        0.4812184574    -0.4225895620    -0.8968968787
| 16>  H        1.7794906420    -0.1655440096     1.2023477468
| 17>  H        0.2794816957    -0.0329741376     2.1243314948
| 18>  H        1.2123387996    -2.4867061581     0.5238701928
| 19>  H        1.1878814355    -2.3572488486     2.2758119017
| 20>  H       -0.8090332641    -3.6226460494     1.3990020331
| 21>  H       -1.2892276228    -2.1671385632     2.2659910929
| 22>  H       -1.0978302079    -2.4768620511    -0.7770640171
| 23>  H       -2.5819906258    -2.3307449383     0.1540024136
| 24>  H       -3.2864877494    -0.1868845143     1.2453824642
| 25>  H       -2.1975007820     1.2773524573     1.1258618168
| 26>  H       -2.1721520546     1.0959431498    -1.3655375479
| 27>  H       -3.2586689960    -0.3732720459    -1.2921115732
| 28> *
| 29>
| 30>                          ****END OF INPUT****

CARTESIAN COORDINATES (ANGSTROEM)
---------------------------------
  O     -0.020165    1.416256   -0.080834
  C     -0.014789   -0.004239   -0.001615
  C      0.734538   -0.502165    1.242996
  C      0.672026   -2.031659    1.365842
  C     -0.780823   -2.527826    1.362222
  C     -1.532389   -2.017551    0.123163
  C     -1.453152   -0.502882    0.006099
  C     -2.504975    0.330817    0.698192
  C     -2.488578    0.221071   -0.810378
  H      0.891507    1.717471   -0.024158
  H      0.481218   -0.422590   -0.896897
  H      1.779491   -0.165544    1.202348
  H      0.279482   -0.032974    2.124331
  H      1.212339   -2.486706    0.523870
  H      1.187881   -2.357249    2.275812
  H     -0.809033   -3.622646    1.399002
  H     -1.289228   -2.167139    2.265991
  H     -1.097830   -2.476862   -0.777064
  H     -2.581991   -2.330745    0.154002
  H     -3.286488   -0.186885    1.245382
  H     -2.197501    1.277352    1.125862
  H     -2.172152    1.095943   -1.365538
  H     -3.258669   -0.373272   -1.292112

 Total Charge           Charge          ....    0
 Multiplicity           Mult            ....    1
 Number of Electrons    NEL             ....   70
 Basis Dimension        Dim             ....  363

ORBITAL ENERGIES
----------------

  NO   OCC          E(Eh)            E(eV)
   0   2.0000     -20.551994      -559.2482
   1   2.0000     -11.275960      -306.8345
   2   2.0000     -11.225244      -305.4544
   3   2.0000     -11.221008      -305.3392
   4   2.0000     -11.218775      -305.2784
   5   2.0000     -11.218661      -305.2753
   6   2.0000     -11.216823      -305.2253
   7   2.0000     -11.209863      -305.0359
   8   2.0000     -11.209015      -305.0128
   9   2.0000      -1.360135       -37.0112
  10   2.0000      -1.148736       -31.2587
  11   2.0000      -1.078525       -29.3482
  12   2.0000      -0.994851       -27.0713
  13   2.0000      -0.943524       -25.6746
  14   2.0000      -0.839037       -22.8314
  15   2.0000      -0.815663       -22.1953
  16   2.0000      -0.793214       -21.5844
  17   2.0000      -0.724438       -19.7130
  18   2.0000      -0.693452       -18.8698
  19   2.0000      -0.654985       -17.8231
  20   2.0000      -0.633500       -17.2384
  21   2.0000      -0.612440       -16.6653
  22   2.0000      -0.587352       -15.9827
  23   2.0000      -0.574984       -15.6461
  24   2.0000      -0.566365       -15.4116
  25   2.0000      -0.540324       -14.7030
  26   2.0000      -0.518736       -14.1155
  27   2.0000      -0.496192       -13.5021
  28   2.0000      -0.489730       -13.3262
  29   2.0000      -0.478392       -13.0177
  30   2.0000      -0.466341       -12.6898
  31   2.0000      -0.446145       -12.1402
  32   2.0000      -0.438276       -11.9261
  33   2.0000      -0.398244       -10.8368
  34   2.0000      -0.378161       -10.2903
  35   0.0000       0.131975         3.5912
  36   0.0000       0.147209         4.0058
  37   0.0000       0.154476         4.2035
  38   0.0000       0.164875         4.4865
  39   0.0000       0.190907         5.1948

MULLIKEN ATOMIC CHARGES
-----------------------
   0 O :   -0.467978
   1 C :    0.053991
   2 C :   -0.242150
   3 C :   -0.235103
   4 C :   -0.212355
   5 C :   -0.248056
   6 C :    0.135271
   7 C :   -0.306602
   8 C :   -0.295472
   9 H :    0.311148
  10 H :    0.071988
  11 H :    0.106737
  12 H :    0.117562
  13 H :    0.104370
  14 H :    0.124456
  15 H :    0.121240
  16 H :    0.107933
  17 H :    0.110087
  18 H :    0.119784
  19 H :    0.121612
  20 H :    0.138452
  21 H :    0.141573
  22 H :    0.121511
Sum of atomic charges:    0.0000000

LOEWDIN ATOMIC CHARGES
----------------------
   0 O :   -0.009940
   1 C :   -0.305091
   2 C :   -0.249552
   3 C :   -0.263678
   4 C :   -0.259134
   5 C :   -0.217246
   6 C :   -0.238483
   7 C :   -0.207764
   8 C :   -0.206147
   9 H :    0.173496
  10 H :    0.139179
  11 H :    0.132123
  12 H :    0.143189
  13 H :    0.137303
  14 H :    0.136123
  15 H :    0.134882
  16 H :    0.139124
  17 H :    0.142294
  18 H :    0.143459
  19 H :    0.129920
  20 H :    0.137357
  21 H :    0.138085
  22 H :    0.130502

  Mayer bond orders larger than 0.1
B(  0-O ,  1-C ) :   0.9945 B(  0-O ,  9-H ) :   0.8456 B(  1-C ,  2-C ) :   0.9194
B(  1-C ,  6-C ) :   0.9104 B(  1-C , 10-H ) :   0.9443 B(  2-C ,  3-C ) :   0.9281
B(  2-C , 11-H ) :   0.9253 B(  2-C , 12-H ) :   0.9272 B(  3-C ,  4-C ) :   0.9346
B(  3-C , 13-H ) :   0.9297 B(  3-C , 14-H ) :   0.9266 B(  4-C ,  5-C ) :   0.9347
B(  4-C , 15-H ) :   0.9313 B(  4-C , 16-H ) :   0.9293 B(  5-C ,  6-C ) :   0.9163
B(  5-C , 17-H ) :   0.9282 B(  5-C , 18-H ) :   0.9194 B(  6-C ,  7-C ) :   0.8683
B(  6-C ,  8-C ) :   0.8660 B(  7-C ,  8-C ) :   0.9380 B(  7-C , 19-H ) :   0.9248
B(  7-C , 20-H ) :   0.9154 B(  8-C , 21-H ) :   0.9161 B(  8-C , 22-H ) :   0.9246

MP2 TOTAL ENERGY:     -387.633048760 Eh
FINAL SINGLE POINT ENERGY      -387.633048760413

DIPOLE MOMENT
-------------
                                X             Y             Z
Electronic contribution:      0.34839       3.61945      -1.65150
Nuclear contribution   :      0.20561      -3.97739       1.77705
                        -----------------------------------------
Total Dipole Moment    :      0.55400      -0.35793       0.12555
                        -----------------------------------------
Magnitude (a.u.)       :      0.67142
Magnitude (Debye)      :      1.70660

                             ****ORCA TERMINATED NORMALLY****
TOTAL RUN TIME: 0 days 0 hours 21 minutes 21 seconds 79 msec
