                         Program Version 3.0.3 - RELEASE   -
|  1> ! RI-MP2 RIJK def2-TZVP def2-TZVP/C def2-TZVP/JK TIGHTSCF
|  2> % maxcore 2000
|  3> % mp2 density relaxed end
|  4> *xyz 0 1
|  5>  C        1.0142887307     0.1378893040     1.1611121845
|  6>  C       -0.0263262845     0.0287545874     0.0493007110
|  7>  N        0.5681569462    -0.2383136161    -1.2507996734
|  8>  C        1.3039113556     0.8287918462    -1.9809399188
|  9>  C        2.8186363105     0.8026231066    -1.8696475264
| 10>  C        0.6589263157     0.3223201044    -3.2964460063
| 11>  C       -0.3587033636    -0.4127451181    -2.3832734829
| 12>  C       -0.7186820851    -1.7960408461    -2.6959832805
| 13>  N       -1.0044678249    -2.8862429648    -2.9523544796
| 14>  H        1.6329970133    -0.7628481933     1.1988944638
| 15>  H        1.6725046452     0.9993338747     1.0128708992
| 16>  H        0.5202721748     0.2638185923     2.1291625060
| 17>  H       -0.7079486159    -0.8024878107     0.2669018272
| 18>  H       -0.6444029452     0.9483138295     0.0247473588
| 19>  H        0.9184763126     1.8304732837    -1.7227526737
| 20>  H        3.1987107995    -0.1973169258    -2.0981357298
| 21>  H        3.2621037817     1.5153309011    -2.5739446965
| 22>  H        3.1547763759     1.0734907313    -0.8644718177
| 23>  H        0.2464509229     1.0627400811    -3.9805629890
| 24>  H        1.3035254747    -0.3697193121    -3.8402542055
| 25>  H       -1.2886231303     0.1701481949    -2.2761345003
| 26> *
| 27>
| 28>                          ****END OF INPUT****

CARTESIAN COORDINATES (ANGSTROEM)
---------------------------------
  C      1.014289    0.137889    1.161112
  C     -0.026326    0.028755    0.049301
  N      0.568157   -0.238314   -1.250800
  C      1.303911    0.828792   -1.980940
  C      2.818636    0.802623   -1.869648
  C      0.658926    0.322320   -3.296446
  C     -0.358703   -0.412745   -2.383273
  C     -0.718682   -1.796041   -2.695983
  N     -1.004468   -2.886243   -2.952354
  H      1.632997   -0.762848    1.198894
  H      1.672505    0.999334    1.012871
  H      0.520272    0.263819    2.129163
  H     -0.707949   -0.802488    0.266902
  H     -0.644403    0.948314    0.024747
  H      0.918476    1.830473   -1.722753
  H      3.198711   -0.197317   -2.098136
  H      3.262104    1.515331   -2.573945
  H      3.154776    1.073491   -0.864472
  H      0.246451    1.062740   -3.980563
  H      1.303525   -0.369719   -3.840254
  H     -1.288623    0.170148   -2.276135

 Total Charge           Charge          ....    0
 Multiplicity           Mult            ....    1
 Number of Electrons    NEL             ....   68
 Basis Dimension        Dim             ....  351

ORBITAL ENERGIES
----------------

  NO   OCC          E(Eh)            E(eV)
   0   2.0000     -15.567979      -423.6262
   1   2.0000     -15.566706      -423.5916
   2   2.0000     -11.308973      -307.7328
   3   2.0000     -11.277540      -306.8775
   4   2.0000     -11.266679      -306.5819
   5   2.0000     -11.262799      -306.4763
   6   2.0000     -11.251278      -306.1628
   7   2.0000     -11.225434      -305.4596
   8   2.0000     -11.223727      -305.4132
   9   2.0000      -1.279985       -34.8302
  10   2.0000      -1.210489       -32.9391
  11   2.0000      -1.074628       -29.2421
  12   2.0000      -1.025287       -27.8995
  13   2.0000      -0.969356       -26.3775
  14   2.0000      -0.917820       -24.9752
  15   2.0000      -0.845826       -23.0161
  16   2.0000      -0.776943       -21.1417
  17   2.0000      -0.716901       -19.5079
  18   2.0000      -0.688629       -18.7385
  19   2.0000      -0.645128       -17.5548
  20   2.0000      -0.616413       -16.7734
  21   2.0000      -0.597979       -16.2718
  22   2.0000      -0.573468       -15.6048
  23   2.0000      -0.570789       -15.5319
  24   2.0000      -0.550476       -14.9792
  25   2.0000      -0.546175       -14.8622
  26   2.0000      -0.534350       -14.5404
  27   2.0000      -0.512689       -13.9510
  28   2.0000      -0.505533       -13.7562
  29   2.0000      -0.492936       -13.4135
  30   2.0000      -0.469909       -12.7869
  31   2.0000      -0.452403       -12.3105
  32   2.0000      -0.442331       -12.0364
  33   2.0000      -0.384476       -10.4621
  34   0.0000       0.124910         3.3990
  35   0.0000       0.138028         3.7559
  36   0.0000       0.142267         3.8713
  37   0.0000       0.157430         4.2839
  38   0.0000       0.169288         4.6066

MULLIKEN ATOMIC CHARGES
-----------------------
   0 C :   -0.386231
   1 C :   -0.169294
   2 N :   -0.150875
   3 C :   -0.027450
   4 C :   -0.387721
   5 C :   -0.197819
   6 C :    0.100888
   7 C :   -0.215189
   8 N :   -0.051939
   9 H :    0.137183
  10 H :    0.122916
  11 H :    0.135497
  12 H :    0.130840
  13 H :    0.095713
  14 H :    0.081776
  15 H :    0.132097
  16 H :    0.132156
  17 H :    0.129567
  18 H :    0.138284
  19 H :    0.132816
  20 H :    0.116784
Sum of atomic charges:    0.0000000

LOEWDIN ATOMIC CHARGES
----------------------
   0 C :   -0.312805
   1 C :   -0.318420
   2 N :    0.139511
   3 C :   -0.269305
   4 C :   -0.295411
   5 C :   -0.171928
   6 C :   -0.247570
   7 C :   -0.167529
   8 N :    0.064273
   9 H :    0.126348
  10 H :    0.118793
  11 H :    0.125357
  12 H :    0.138757
  13 H :    0.117967
  14 H :    0.137363
  15 H :    0.128143
  16 H :    0.127835
  17 H :    0.122860
  18 H :    0.131514
  19 H :    0.145347
  20 H :    0.158900

  Mayer bond orders larger than 0.1
B(  0-C ,  1-C ) :   0.9312 B(  0-C ,  9-H ) :   0.9340 B(  0-C , 10-H ) :   0.9380
B(  0-C , 11-H ) :   0.9337 B(  1-C ,  2-N ) :   0.9210 B(  1-C , 12-H ) :   0.9202
B(  1-C , 13-H ) :   0.9255 B(  2-N ,  3-C ) :   0.9039 B(  2-N ,  6-C ) :   0.9012
B(  3-C ,  4-C ) :   0.9036 B(  3-C ,  5-C ) :   0.9228 B(  3-C , 14-H ) :   0.9204
B(  4-C , 15-H ) :   0.9390 B(  4-C , 16-H ) :   0.9335 B(  4-C , 17-H ) :   0.9358
B(  5-C ,  6-C ) :   0.9100 B(  5-C , 18-H ) :   0.9258 B(  5-C , 19-H ) :   0.9162
B(  6-C ,  7-C ) :   0.9254 B(  6-C , 20-H ) :   0.9040 B(  7-C ,  8-N ) :   2.8842

MP2 TOTAL ENERGY:     -382.591602851 Eh
FINAL SINGLE POINT ENERGY      -382.591602850707

DIPOLE MOMENT
-------------
                                X             Y             Z
Electronic contribution:     -6.27240      -7.18274      -6.17533
Nuclear contribution   :      6.67305       8.90330       6.55239
                        -----------------------------------------
Total Dipole Moment    :      0.40065       1.72057       0.37706
                        -----------------------------------------
Magnitude (a.u.)       :      1.80639
Magnitude (Debye)      :      4.59148

                             ****ORCA TERMINATED NORMALLY****
TOTAL RUN TIME: 0 days 0 hours 20 minutes 16 seconds 721 msec
