                         Program Version 3.0.3 - RELEASE   -
|  1> ! RI-MP2 RIJK def2-TZVP def2-TZVP/C def2-TZVP/JK TIGHTSCF
|  2> % maxcore 2000
|  3> % mp2 density relaxed end
|  4> *xyz 0 1
|  5>  C       -0.1559416809     1.6270559153    -0.0555874596
|  6>  C        0.0166691138     0.1206175339     0.0101076753
|  7>  C        1.1832635416    -0.6525586209    -0.6661044844
|  8>  C        2.1830865372    -0.1309517781     0.3898302672
|  9>  C        0.8813668458    -0.5927050915     1.1080795230
| 10>  O        0.8905175051    -1.7978255991     0.2279983584
| 11>  C        0.6179374299    -0.7367704848     2.5073151242
| 12>  C        0.3906753335    -0.8189096059     3.6851139133
| 13>  H        0.7819518286     2.1769947032     0.0537610574
| 14>  H       -0.6008103946     1.9145108684    -1.0142393550
| 15>  H       -0.8346186444     1.9638448562     0.7350435765
| 16>  H       -0.9317251101    -0.4059898528    -0.1236125015
| 17>  H        1.3465967813    -0.8754322348    -1.7196089922
| 18>  H        3.0416347008    -0.7787987616     0.5661563504
| 19>  H        2.4407009922     0.9287315830     0.4097663391
| 20>  H        0.1910360102    -0.9004371006     4.7251627080
| 21> *
| 22>
| 23>                          ****END OF INPUT****

CARTESIAN COORDINATES (ANGSTROEM)
---------------------------------
  C     -0.155942    1.627056   -0.055587
  C      0.016669    0.120618    0.010108
  C      1.183264   -0.652559   -0.666104
  C      2.183087   -0.130952    0.389830
  C      0.881367   -0.592705    1.108080
  O      0.890518   -1.797826    0.227998
  C      0.617937   -0.736770    2.507315
  C      0.390675   -0.818910    3.685114
  H      0.781952    2.176995    0.053761
  H     -0.600810    1.914511   -1.014239
  H     -0.834619    1.963845    0.735044
  H     -0.931725   -0.405990   -0.123613
  H      1.346597   -0.875432   -1.719609
  H      3.041635   -0.778799    0.566156
  H      2.440701    0.928732    0.409766
  H      0.191036   -0.900437    4.725163

 Total Charge           Charge          ....    0
 Multiplicity           Mult            ....    1
 Number of Electrons    NEL             ....   58
 Basis Dimension        Dim             ....  296

ORBITAL ENERGIES
----------------

  NO   OCC          E(Eh)            E(eV)
   0   2.0000     -20.554287      -559.3106
   1   2.0000     -11.325183      -308.1739
   2   2.0000     -11.302792      -307.5646
   3   2.0000     -11.251806      -306.1772
   4   2.0000     -11.244417      -305.9761
   5   2.0000     -11.242307      -305.9187
   6   2.0000     -11.238134      -305.8052
   7   2.0000     -11.228215      -305.5353
   8   2.0000      -1.399471       -38.0815
   9   2.0000      -1.095558       -29.8117
  10   2.0000      -1.046967       -28.4894
  11   2.0000      -0.990535       -26.9538
  12   2.0000      -0.912754       -24.8373
  13   2.0000      -0.890357       -24.2278
  14   2.0000      -0.770415       -20.9641
  15   2.0000      -0.725872       -19.7520
  16   2.0000      -0.702866       -19.1260
  17   2.0000      -0.649675       -17.6786
  18   2.0000      -0.606409       -16.5012
  19   2.0000      -0.592694       -16.1280
  20   2.0000      -0.557820       -15.1791
  21   2.0000      -0.548766       -14.9327
  22   2.0000      -0.503271       -13.6947
  23   2.0000      -0.495692       -13.4885
  24   2.0000      -0.479656       -13.0521
  25   2.0000      -0.469272       -12.7696
  26   2.0000      -0.420187       -11.4339
  27   2.0000      -0.400639       -10.9019
  28   2.0000      -0.383846       -10.4450
  29   0.0000       0.135272         3.6809
  30   0.0000       0.152132         4.1397
  31   0.0000       0.154952         4.2165
  32   0.0000       0.157832         4.2948
  33   0.0000       0.171117         4.6563

MULLIKEN ATOMIC CHARGES
-----------------------
   0 C :   -0.398921
   1 C :    0.020562
   2 C :   -0.063587
   3 C :   -0.132492
   4 C :   -0.185050
   5 O :   -0.287993
   6 C :    0.038583
   7 C :   -0.088116
   8 H :    0.125841
   9 H :    0.138302
  10 H :    0.141366
  11 H :    0.112434
  12 H :    0.141208
  13 H :    0.123182
  14 H :    0.117661
  15 H :    0.197020
Sum of atomic charges:    0.0000000

LOEWDIN ATOMIC CHARGES
----------------------
   0 C :   -0.292452
   1 C :   -0.179721
   2 C :   -0.209231
   3 C :   -0.161103
   4 C :   -0.249525
   5 O :    0.156491
   6 C :   -0.062243
   7 C :   -0.059417
   8 H :    0.123134
   9 H :    0.129491
  10 H :    0.131480
  11 H :    0.154309
  12 H :    0.124448
  13 H :    0.137109
  14 H :    0.127404
  15 H :    0.129828

  Mayer bond orders larger than 0.1
B(  0-C ,  1-C ) :   0.9146 B(  0-C ,  8-H ) :   0.9297 B(  0-C ,  9-H ) :   0.9328
B(  0-C , 10-H ) :   0.9299 B(  1-C ,  2-C ) :   0.9331 B(  1-C ,  4-C ) :   0.8786
B(  1-C , 11-H ) :   0.9158 B(  2-C ,  3-C ) :   0.9199 B(  2-C ,  5-O ) :   0.8978
B(  2-C , 12-H ) :   0.8914 B(  3-C ,  4-C ) :   0.8678 B(  3-C , 13-H ) :   0.9149
B(  3-C , 14-H ) :   0.9170 B(  4-C ,  5-O ) :   0.9462 B(  4-C ,  6-C ) :   1.1939
B(  4-C ,  7-C ) :  -0.1707 B(  6-C ,  7-C ) :   2.6428 B(  7-C , 15-H ) :   0.8627

MP2 TOTAL ENERGY:     -345.886723670 Eh
FINAL SINGLE POINT ENERGY      -345.886723669956

DIPOLE MOMENT
-------------
                                X             Y             Z
Electronic contribution:      0.57266      -5.55772       2.86453
Nuclear contribution   :     -0.53389       6.45544      -2.92614
                        -----------------------------------------
Total Dipole Moment    :      0.03877       0.89772      -0.06161
                        -----------------------------------------
Magnitude (a.u.)       :      0.90067
Magnitude (Debye)      :      2.28932

                             ****ORCA TERMINATED NORMALLY****
TOTAL RUN TIME: 0 days 0 hours 12 minutes 36 seconds 593 msec
