                         Program Version 3.0.3 - RELEASE   -
|  1> ! RI-MP2 RIJK def2-TZVP def2-TZVP/C def2-TZVP/JK TIGHTSCF
|  2> % maxcore 2000
|  3> % mp2 density relaxed end
|  4> *xyz 0 1
|  5>  C       -0.4955425632     1.4339714271    -0.4596937944
|  6>  N       -0.3218101606     0.0207621750    -0.1456180732
|  7>  C       -1.1955315541    -0.5497870978     0.9117832701
|  8>  C       -0.1281845804    -1.6168380912     1.2830367380
|  9>  O       -0.1687024016    -1.3751583006     2.7119995244
| 10>  C       -0.3299010965    -0.0487416396     2.1607966136
| 11>  C       -0.4805720550     1.1034352953     3.0971159428
| 12>  O       -0.4752418806     0.9913284853     4.2944345651
| 13>  C        0.6499358183    -0.3199157076     0.9251263331
| 14>  H        0.3570008694     1.7752199461    -1.0550276648
| 15>  H       -1.3972519254     1.5567844866    -1.0675891940
| 16>  H       -0.5840331311     2.0941430979     0.4200621020
| 17>  H       -2.2794241349    -0.6420746083     0.8326447728
| 18>  H        0.0009339510    -2.6319539776     0.9147029630
| 19>  H       -0.6001588760     2.0893340671     2.5963271370
| 20>  H        1.7243705207    -0.1433456077     0.8617411446
| 21> *
| 22>
| 23>                          ****END OF INPUT****

CARTESIAN COORDINATES (ANGSTROEM)
---------------------------------
  C     -0.495543    1.433971   -0.459694
  N     -0.321810    0.020762   -0.145618
  C     -1.195532   -0.549787    0.911783
  C     -0.128185   -1.616838    1.283037
  O     -0.168702   -1.375158    2.712000
  C     -0.329901   -0.048742    2.160797
  C     -0.480572    1.103435    3.097116
  O     -0.475242    0.991328    4.294435
  C      0.649936   -0.319916    0.925126
  H      0.357001    1.775220   -1.055028
  H     -1.397252    1.556784   -1.067589
  H     -0.584033    2.094143    0.420062
  H     -2.279424   -0.642075    0.832645
  H      0.000934   -2.631954    0.914703
  H     -0.600159    2.089334    2.596327
  H      1.724371   -0.143346    0.861741

 Total Charge           Charge          ....    0
 Multiplicity           Mult            ....    1
 Number of Electrons    NEL             ....   66
 Basis Dimension        Dim             ....  321

ORBITAL ENERGIES
----------------

  NO   OCC          E(Eh)            E(eV)
   0   2.0000     -20.571837      -559.7881
   1   2.0000     -20.569974      -559.7374
   2   2.0000     -15.580302      -423.9616
   3   2.0000     -11.347237      -308.7740
   4   2.0000     -11.326934      -308.2215
   5   2.0000     -11.320235      -308.0393
   6   2.0000     -11.304538      -307.6121
   7   2.0000     -11.304508      -307.6113
   8   2.0000     -11.264239      -306.5155
   9   2.0000      -1.437883       -39.1268
  10   2.0000      -1.405566       -38.2474
  11   2.0000      -1.281496       -34.8713
  12   2.0000      -1.060644       -28.8616
  13   2.0000      -0.979227       -26.6461
  14   2.0000      -0.914662       -24.8892
  15   2.0000      -0.890816       -24.2403
  16   2.0000      -0.829623       -22.5752
  17   2.0000      -0.732921       -19.9438
  18   2.0000      -0.728863       -19.8334
  19   2.0000      -0.674806       -18.3624
  20   2.0000      -0.664676       -18.0868
  21   2.0000      -0.658886       -17.9292
  22   2.0000      -0.634716       -17.2715
  23   2.0000      -0.589813       -16.0496
  24   2.0000      -0.576411       -15.6849
  25   2.0000      -0.552693       -15.0395
  26   2.0000      -0.548999       -14.9390
  27   2.0000      -0.497180       -13.5289
  28   2.0000      -0.495906       -13.4943
  29   2.0000      -0.449184       -12.2229
  30   2.0000      -0.441595       -12.0164
  31   2.0000      -0.418856       -11.3976
  32   2.0000      -0.385487       -10.4896
  33   0.0000       0.103307         2.8111
  34   0.0000       0.133775         3.6402
  35   0.0000       0.155788         4.2392
  36   0.0000       0.163569         4.4509
  37   0.0000       0.178081         4.8458

MULLIKEN ATOMIC CHARGES
-----------------------
   0 C :   -0.320830
   1 N :   -0.217287
   2 C :    0.005728
   3 C :   -0.002752
   4 O :   -0.313157
   5 C :    0.140400
   6 C :    0.005517
   7 O :   -0.227305
   8 C :    0.005769
   9 H :    0.146655
  10 H :    0.146651
  11 H :    0.089667
  12 H :    0.151442
  13 H :    0.151931
  14 H :    0.086137
  15 H :    0.151434
Sum of atomic charges:   -0.0000000

LOEWDIN ATOMIC CHARGES
----------------------
   0 C :   -0.330346
   1 N :    0.093508
   2 C :   -0.136188
   3 C :   -0.183074
   4 O :    0.177900
   5 C :   -0.229011
   6 C :   -0.277962
   7 O :    0.165430
   8 C :   -0.136223
   9 H :    0.121644
  10 H :    0.121644
  11 H :    0.100158
  12 H :    0.132846
  13 H :    0.131905
  14 H :    0.114920
  15 H :    0.132848

  Mayer bond orders larger than 0.1
B(  0-C ,  1-N ) :   0.9044 B(  0-C ,  9-H ) :   0.9383 B(  0-C , 10-H ) :   0.9383
B(  0-C , 11-H ) :   0.9148 B(  1-N ,  2-C ) :   0.8724 B(  1-N ,  8-C ) :   0.8725
B(  2-C ,  3-C ) :   0.8943 B(  2-C ,  5-C ) :   0.7981 B(  2-C , 12-H ) :   0.8866
B(  3-C ,  4-O ) :   0.9332 B(  3-C ,  8-C ) :   0.8944 B(  3-C , 13-H ) :   0.8907
B(  4-O ,  5-C ) :   0.9704 B(  5-C ,  6-C ) :   0.7461 B(  5-C ,  8-C ) :   0.7982
B(  5-C , 14-H ) :  -0.1085 B(  6-C ,  7-O ) :   2.0712 B(  6-C , 14-H ) :   0.9812
B(  8-C , 15-H ) :   0.8866

MP2 TOTAL ENERGY:     -437.033200366 Eh
FINAL SINGLE POINT ENERGY      -437.033200366251

DIPOLE MOMENT
-------------
                                X             Y             Z
Electronic contribution:      0.38670      -3.46921       6.27199
Nuclear contribution   :     -0.43413       3.92855      -7.62252
                        -----------------------------------------
Total Dipole Moment    :     -0.04743       0.45934      -1.35053
                        -----------------------------------------
Magnitude (a.u.)       :      1.42729
Magnitude (Debye)      :      3.62790

                             ****ORCA TERMINATED NORMALLY****
TOTAL RUN TIME: 0 days 0 hours 21 minutes 10 seconds 740 msec
