                         Program Version 3.0.3 - RELEASE   -
|  1> ! RI-MP2 RIJK def2-TZVP def2-TZVP/C def2-TZVP/JK TIGHTSCF
|  2> % maxcore 2000
|  3> % mp2 density relaxed end
|  4> *xyz 0 1
|  5>  O       -0.0655234337    -0.0406246305    -0.0635070406
|  6>  C       -0.0162244667     1.1574707257     0.0363909945
|  7>  C        1.2726253616     1.9567190129     0.0411449563
|  8>  C        1.3666465862     2.8790162849     1.2676665117
|  9>  C        2.7406335947     3.5517879978     1.2633249351
| 10>  N        3.7712564020     2.5375245022     1.1701805095
| 11>  C        3.6399462634     1.3114388032     0.5565648188
| 12>  O        4.5404189466     0.4925369905     0.5326849681
| 13>  N        2.4120604116     1.0806575139    -0.0299489671
| 14>  H       -0.9365068793     1.7775321706     0.1093216195
| 15>  H        1.2025460932     2.6060525590    -0.8542307046
| 16>  H        0.5744121521     3.6327382525     1.2393570523
| 17>  H        1.2505804855     2.2865416582     2.1815735112
| 18>  H        2.7934690045     4.2694088574     0.4289278518
| 19>  H        2.8829112590     4.1221439154     2.1870310069
| 20>  H        4.6944424696     2.7181070594     1.5263934832
| 21>  H        2.2378071594     0.1222669669    -0.2942363565
| 22> *
| 23>
| 24>                          ****END OF INPUT****

CARTESIAN COORDINATES (ANGSTROEM)
---------------------------------
  O     -0.065523   -0.040625   -0.063507
  C     -0.016224    1.157471    0.036391
  C      1.272625    1.956719    0.041145
  C      1.366647    2.879016    1.267667
  C      2.740634    3.551788    1.263325
  N      3.771256    2.537525    1.170181
  C      3.639946    1.311439    0.556565
  O      4.540419    0.492537    0.532685
  N      2.412060    1.080658   -0.029949
  H     -0.936507    1.777532    0.109322
  H      1.202546    2.606053   -0.854231
  H      0.574412    3.632738    1.239357
  H      1.250580    2.286542    2.181574
  H      2.793469    4.269409    0.428928
  H      2.882911    4.122144    2.187031
  H      4.694442    2.718107    1.526393
  H      2.237807    0.122267   -0.294236

 Total Charge           Charge          ....    0
 Multiplicity           Mult            ....    1
 Number of Electrons    NEL             ....   68
 Basis Dimension        Dim             ....  327

ORBITAL ENERGIES
----------------

  NO   OCC          E(Eh)            E(eV)
   0   2.0000     -20.581162      -560.0419
   1   2.0000     -20.498887      -557.8031
   2   2.0000     -15.581466      -423.9932
   3   2.0000     -15.579196      -423.9315
   4   2.0000     -11.372803      -309.4697
   5   2.0000     -11.354368      -308.9681
   6   2.0000     -11.304556      -307.6126
   7   2.0000     -11.292347      -307.2804
   8   2.0000     -11.265004      -306.5363
   9   2.0000      -1.422174       -38.6993
  10   2.0000      -1.386303       -37.7232
  11   2.0000      -1.263279       -34.3756
  12   2.0000      -1.209341       -32.9079
  13   2.0000      -1.084171       -29.5018
  14   2.0000      -0.979136       -26.6437
  15   2.0000      -0.893097       -24.3024
  16   2.0000      -0.829771       -22.5792
  17   2.0000      -0.792805       -21.5733
  18   2.0000      -0.719085       -19.5673
  19   2.0000      -0.706604       -19.2277
  20   2.0000      -0.685885       -18.6639
  21   2.0000      -0.661620       -18.0036
  22   2.0000      -0.653227       -17.7752
  23   2.0000      -0.634348       -17.2615
  24   2.0000      -0.612620       -16.6702
  25   2.0000      -0.595838       -16.2136
  26   2.0000      -0.553110       -15.0509
  27   2.0000      -0.549407       -14.9501
  28   2.0000      -0.537244       -14.6191
  29   2.0000      -0.510836       -13.9006
  30   2.0000      -0.452923       -12.3247
  31   2.0000      -0.427995       -11.6463
  32   2.0000      -0.400224       -10.8907
  33   2.0000      -0.394250       -10.7281
  34   0.0000       0.108471         2.9516
  35   0.0000       0.119231         3.2444
  36   0.0000       0.141355         3.8465
  37   0.0000       0.155091         4.2203
  38   0.0000       0.168370         4.5816

MULLIKEN ATOMIC CHARGES
-----------------------
   0 O :   -0.264680
   1 C :    0.093573
   2 C :    0.072745
   3 C :   -0.269679
   4 C :   -0.097181
   5 N :   -0.345279
   6 C :    0.303322
   7 O :   -0.387725
   8 N :   -0.341891
   9 H :    0.091524
  10 H :    0.111544
  11 H :    0.132530
  12 H :    0.136574
  13 H :    0.115131
  14 H :    0.138052
  15 H :    0.248530
  16 H :    0.262908
Sum of atomic charges:    0.0000000

LOEWDIN ATOMIC CHARGES
----------------------
   0 O :    0.144262
   1 C :   -0.268545
   2 C :   -0.298224
   3 C :   -0.231711
   4 C :   -0.282966
   5 N :    0.091707
   6 C :   -0.555476
   7 O :    0.044805
   8 N :    0.124147
   9 H :    0.119609
  10 H :    0.161596
  11 H :    0.145754
  12 H :    0.148955
  13 H :    0.130110
  14 H :    0.137267
  15 H :    0.190916
  16 H :    0.197794

  Mayer bond orders larger than 0.1
B(  0-O ,  1-C ) :   1.9849 B(  1-C ,  2-C ) :   0.8562 B(  1-C ,  9-H ) :   0.9445
B(  2-C ,  3-C ) :   0.9065 B(  2-C ,  8-N ) :   0.9258 B(  2-C , 10-H ) :   0.8994
B(  3-C ,  4-C ) :   0.9345 B(  3-C , 11-H ) :   0.9220 B(  3-C , 12-H ) :   0.9242
B(  4-C ,  5-N ) :   0.9082 B(  4-C , 13-H ) :   0.9293 B(  4-C , 14-H ) :   0.9282
B(  5-N ,  6-C ) :   1.1212 B(  5-N , 15-H ) :   0.8685 B(  6-C ,  7-O ) :   1.9741
B(  6-C ,  8-N ) :   1.1115 B(  8-N , 16-H ) :   0.8499

MP2 TOTAL ENERGY:     -454.469627710 Eh
FINAL SINGLE POINT ENERGY      -454.469627709873

DIPOLE MOMENT
-------------
                                X             Y             Z
Electronic contribution:      1.57279      -5.77306      -1.78390
Nuclear contribution   :     -2.66742       7.86173       2.12518
                        -----------------------------------------
Total Dipole Moment    :     -1.09462       2.08867       0.34128
                        -----------------------------------------
Magnitude (a.u.)       :      2.38269
Magnitude (Debye)      :      6.05632

                             ****ORCA TERMINATED NORMALLY****
TOTAL RUN TIME: 0 days 0 hours 16 minutes 5 seconds 781 msec
