                         Program Version 3.0.3 - RELEASE   -
|  1> ! RI-MP2 RIJK def2-TZVP def2-TZVP/C def2-TZVP/JK TIGHTSCF
|  2> % maxcore 2000
|  3> % mp2 density relaxed end
|  4> *xyz 0 1
|  5>  O       -0.1647565700     0.1290311357    -0.4855557994
|  6>  C        0.0552227760     1.1359180380     0.1497247647
|  7>  C        1.2708569338     1.8961392705     0.0851183639
|  8>  C        2.2768865829     2.5705778636     0.0604372981
|  9>  C        3.4598405212     3.3379799656     0.0271538592
| 10>  C        4.0327087324     4.1145151821     1.1917241138
| 11>  C        3.7053237208     4.8516460191    -0.0744370091
| 12>  C        4.7012508080     4.4687768754    -1.1612462876
| 13>  O        4.4941566036     3.0493201368    -0.9214376589
| 14>  H       -0.6953593047     1.5557459638     0.8512330353
| 15>  H        3.3509100482     4.2870725775     2.0171172203
| 16>  H        5.0643442156     3.9107287493     1.4641764968
| 17>  H        2.9771976923     5.6488311670    -0.1249031372
| 18>  H        4.3731343716     4.7365086439    -2.1707601011
| 19>  H        5.7453892982     4.7652520317    -1.0134992387
| 20> *
| 21>
| 22>                          ****END OF INPUT****

CARTESIAN COORDINATES (ANGSTROEM)
---------------------------------
  O     -0.164757    0.129031   -0.485556
  C      0.055223    1.135918    0.149725
  C      1.270857    1.896139    0.085118
  C      2.276887    2.570578    0.060437
  C      3.459841    3.337980    0.027154
  C      4.032709    4.114515    1.191724
  C      3.705324    4.851646   -0.074437
  C      4.701251    4.468777   -1.161246
  O      4.494157    3.049320   -0.921438
  H     -0.695359    1.555746    0.851233
  H      3.350910    4.287073    2.017117
  H      5.064344    3.910729    1.464176
  H      2.977198    5.648831   -0.124903
  H      4.373134    4.736509   -2.170760
  H      5.745389    4.765252   -1.013499

 Total Charge           Charge          ....    0
 Multiplicity           Mult            ....    1
 Number of Electrons    NEL             ....   64
 Basis Dimension        Dim             ....  315

ORBITAL ENERGIES
----------------

  NO   OCC          E(Eh)            E(eV)
   0   2.0000     -20.577365      -559.9386
   1   2.0000     -20.567047      -559.6578
   2   2.0000     -11.359450      -309.1063
   3   2.0000     -11.333948      -308.4124
   4   2.0000     -11.305014      -307.6251
   5   2.0000     -11.274750      -306.8015
   6   2.0000     -11.272612      -306.7434
   7   2.0000     -11.265437      -306.5481
   8   2.0000     -11.254549      -306.2519
   9   2.0000      -1.416440       -38.5433
  10   2.0000      -1.402277       -38.1579
  11   2.0000      -1.150850       -31.3162
  12   2.0000      -1.076940       -29.3050
  13   2.0000      -0.984327       -26.7849
  14   2.0000      -0.922390       -25.0995
  15   2.0000      -0.859694       -23.3935
  16   2.0000      -0.808347       -21.9963
  17   2.0000      -0.745467       -20.2852
  18   2.0000      -0.718681       -19.5563
  19   2.0000      -0.673095       -18.3158
  20   2.0000      -0.663308       -18.0495
  21   2.0000      -0.657122       -17.8812
  22   2.0000      -0.602867       -16.4049
  23   2.0000      -0.573375       -15.6023
  24   2.0000      -0.559583       -15.2270
  25   2.0000      -0.542138       -14.7523
  26   2.0000      -0.508955       -13.8494
  27   2.0000      -0.465961       -12.6795
  28   2.0000      -0.454759       -12.3746
  29   2.0000      -0.441376       -12.0104
  30   2.0000      -0.414544       -11.2803
  31   2.0000      -0.365491        -9.9455
  32   0.0000       0.071949         1.9578
  33   0.0000       0.133160         3.6235
  34   0.0000       0.146064         3.9746
  35   0.0000       0.152860         4.1595
  36   0.0000       0.165549         4.5048

MULLIKEN ATOMIC CHARGES
-----------------------
   0 O :   -0.252008
   1 C :    0.029812
   2 C :    0.171852
   3 C :   -0.010784
   4 C :    0.015499
   5 C :   -0.245503
   6 C :   -0.176137
   7 C :   -0.008305
   8 O :   -0.310990
   9 H :    0.106113
  10 H :    0.146927
  11 H :    0.147288
  12 H :    0.154088
  13 H :    0.116847
  14 H :    0.115300
Sum of atomic charges:    0.0000000

LOEWDIN ATOMIC CHARGES
----------------------
   0 O :    0.147945
   1 C :   -0.297918
   2 C :   -0.033156
   3 C :    0.009048
   4 C :   -0.271412
   5 C :   -0.158860
   6 C :   -0.156688
   7 C :   -0.232661
   8 O :    0.182114
   9 H :    0.125070
  10 H :    0.148991
  11 H :    0.142895
  12 H :    0.142837
  13 H :    0.128906
  14 H :    0.122890

  Mayer bond orders larger than 0.1
B(  0-O ,  1-C ) :   2.0092 B(  1-C ,  2-C ) :   0.8158 B(  1-C ,  9-H ) :   1.0094
B(  2-C ,  3-C ) :   2.7069 B(  2-C ,  4-C ) :  -0.2156 B(  2-C ,  9-H ) :  -0.1063
B(  3-C ,  4-C ) :   1.1899 B(  4-C ,  5-C ) :   0.8259 B(  4-C ,  6-C ) :   0.8138
B(  4-C ,  8-O ) :   1.0123 B(  5-C ,  6-C ) :   0.8980 B(  5-C , 10-H ) :   0.9278
B(  5-C , 11-H ) :   0.9087 B(  6-C ,  7-C ) :   0.9630 B(  6-C , 12-H ) :   0.9049
B(  7-C ,  8-O ) :   0.9115 B(  7-C , 13-H ) :   0.9190 B(  7-C , 14-H ) :   0.9142

MP2 TOTAL ENERGY:     -419.826469121 Eh
FINAL SINGLE POINT ENERGY      -419.826469121215

DIPOLE MOMENT
-------------
                                X             Y             Z
Electronic contribution:     -4.16627      -5.62314      -1.08265
Nuclear contribution   :      4.55743       7.43931       1.77954
                        -----------------------------------------
Total Dipole Moment    :      0.39115       1.81617       0.69689
                        -----------------------------------------
Magnitude (a.u.)       :      1.98422
Magnitude (Debye)      :      5.04350

                             ****ORCA TERMINATED NORMALLY****
TOTAL RUN TIME: 0 days 0 hours 12 minutes 31 seconds 452 msec
