                         Program Version 3.0.3 - RELEASE   -
|  1> ! RI-MP2 RIJK def2-TZVP def2-TZVP/C def2-TZVP/JK TIGHTSCF
|  2> % maxcore 2000
|  3> % mp2 density relaxed end
|  4> *xyz 0 1
|  5>  C       -0.2437972251     1.4375280331     0.8981984502
|  6>  O       -0.1396796615     0.0491226160     1.1136017961
|  7>  C        0.7139559255    -0.5875489730     0.1867643657
|  8>  C        0.7424633826    -2.0590035776     0.4860543532
|  9>  C       -0.4823868602    -2.8247427392     0.9709149610
| 10>  C        0.7326635495    -2.8461534853     1.8283937376
| 11>  C        1.7221245155    -3.8850887224     1.2772327276
| 12>  C        1.7711987305    -3.0255324110    -0.0149171892
| 13>  O        2.5201280308    -3.0009247862    -0.9525406151
| 14>  H       -0.6525506746     1.6652925133    -0.0985030236
| 15>  H       -0.9201121653     1.8354020242     1.6583453768
| 16>  H        0.7322795826     1.9383544681     0.9916529195
| 17>  H        0.3617251994    -0.4191371427    -0.8453663711
| 18>  H        1.7334026086    -0.1706483671     0.2475028117
| 19>  H       -1.2795548730    -2.1618513082     1.2881154754
| 20>  H       -0.8087576689    -3.7264207079     0.4589674812
| 21>  H        0.7648376861    -2.4082506666     2.8165068323
| 22>  H        2.7043642791    -3.8846186912     1.7583307960
| 23>  H        1.3610222385    -4.9148349162     1.1982449547
| 24> *
| 25>
| 26>                          ****END OF INPUT****

CARTESIAN COORDINATES (ANGSTROEM)
---------------------------------
  C     -0.243797    1.437528    0.898198
  O     -0.139680    0.049123    1.113602
  C      0.713956   -0.587549    0.186764
  C      0.742463   -2.059004    0.486054
  C     -0.482387   -2.824743    0.970915
  C      0.732664   -2.846153    1.828394
  C      1.722125   -3.885089    1.277233
  C      1.771199   -3.025532   -0.014917
  O      2.520128   -3.000925   -0.952541
  H     -0.652551    1.665293   -0.098503
  H     -0.920112    1.835402    1.658345
  H      0.732280    1.938354    0.991653
  H      0.361725   -0.419137   -0.845366
  H      1.733403   -0.170648    0.247503
  H     -1.279555   -2.161851    1.288115
  H     -0.808758   -3.726421    0.458967
  H      0.764838   -2.408251    2.816507
  H      2.704364   -3.884619    1.758331
  H      1.361022   -4.914835    1.198245

 Total Charge           Charge          ....    0
 Multiplicity           Mult            ....    1
 Number of Electrons    NEL             ....   68
 Basis Dimension        Dim             ....  339

ORBITAL ENERGIES
----------------

  NO   OCC          E(Eh)            E(eV)
   0   2.0000     -20.567130      -559.6601
   1   2.0000     -20.543876      -559.0273
   2   2.0000     -11.332006      -308.3596
   3   2.0000     -11.289502      -307.2030
   4   2.0000     -11.279104      -306.9200
   5   2.0000     -11.255904      -306.2887
   6   2.0000     -11.252069      -306.1844
   7   2.0000     -11.246333      -306.0283
   8   2.0000     -11.244384      -305.9752
   9   2.0000      -1.390135       -37.8275
  10   2.0000      -1.386564       -37.7303
  11   2.0000      -1.207159       -32.8485
  12   2.0000      -1.011123       -27.5140
  13   2.0000      -0.971664       -26.4403
  14   2.0000      -0.911498       -24.8031
  15   2.0000      -0.845075       -22.9956
  16   2.0000      -0.808420       -21.9982
  17   2.0000      -0.711531       -19.3617
  18   2.0000      -0.686449       -18.6792
  19   2.0000      -0.673388       -18.3238
  20   2.0000      -0.670540       -18.2463
  21   2.0000      -0.629300       -17.1241
  22   2.0000      -0.627301       -17.0697
  23   2.0000      -0.610565       -16.6143
  24   2.0000      -0.571106       -15.5406
  25   2.0000      -0.565675       -15.3928
  26   2.0000      -0.553208       -15.0536
  27   2.0000      -0.524485       -14.2720
  28   2.0000      -0.503643       -13.7048
  29   2.0000      -0.496234       -13.5032
  30   2.0000      -0.441838       -12.0230
  31   2.0000      -0.435309       -11.8454
  32   2.0000      -0.399681       -10.8759
  33   2.0000      -0.388105       -10.5609
  34   0.0000       0.138690         3.7739
  35   0.0000       0.144787         3.9398
  36   0.0000       0.156579         4.2607
  37   0.0000       0.166654         4.5349
  38   0.0000       0.175915         4.7869

MULLIKEN ATOMIC CHARGES
-----------------------
   0 C :   -0.220732
   1 O :   -0.306882
   2 C :   -0.066624
   3 C :    0.076332
   4 C :   -0.254080
   5 C :   -0.136344
   6 C :   -0.218691
   7 C :    0.092460
   8 O :   -0.267106
   9 H :    0.115426
  10 H :    0.140802
  11 H :    0.115708
  12 H :    0.109366
  13 H :    0.106937
  14 H :    0.153665
  15 H :    0.139593
  16 H :    0.153309
  17 H :    0.135141
  18 H :    0.131720
Sum of atomic charges:   -0.0000000

LOEWDIN ATOMIC CHARGES
----------------------
   0 C :   -0.356599
   1 O :    0.139420
   2 C :   -0.281395
   3 C :   -0.164165
   4 C :   -0.166980
   5 C :   -0.143893
   6 C :   -0.184215
   7 C :   -0.288546
   8 O :    0.149600
   9 H :    0.103125
  10 H :    0.114138
  11 H :    0.103499
  12 H :    0.131642
  13 H :    0.131035
  14 H :    0.150514
  15 H :    0.135348
  16 H :    0.143483
  17 H :    0.147532
  18 H :    0.136457

  Mayer bond orders larger than 0.1
B(  0-C ,  1-O ) :   0.9151 B(  0-C ,  9-H ) :   0.9376 B(  0-C , 10-H ) :   0.9388
B(  0-C , 11-H ) :   0.9362 B(  1-O ,  2-C ) :   0.9560 B(  2-C ,  3-C ) :   0.9422
B(  2-C , 12-H ) :   0.9183 B(  2-C , 13-H ) :   0.9130 B(  3-C ,  4-C ) :   0.8364
B(  3-C ,  5-C ) :   0.8163 B(  3-C ,  6-C ) :  -0.1372 B(  3-C ,  7-C ) :   0.8474
B(  4-C ,  5-C ) :   0.9139 B(  4-C , 14-H ) :   0.9215 B(  4-C , 15-H ) :   0.9152
B(  5-C ,  6-C ) :   0.9236 B(  5-C , 16-H ) :   0.9049 B(  6-C ,  7-C ) :   0.9600
B(  6-C , 17-H ) :   0.9092 B(  6-C , 18-H ) :   0.8971 B(  7-C ,  8-O ) :   2.0515

MP2 TOTAL ENERGY:     -422.290721603 Eh
FINAL SINGLE POINT ENERGY      -422.290721603450

DIPOLE MOMENT
-------------
                                X             Y             Z
Electronic contribution:      3.19437      -4.76893      -2.25592
Nuclear contribution   :     -3.79791       5.26766       2.93877
                        -----------------------------------------
Total Dipole Moment    :     -0.60354       0.49873       0.68285
                        -----------------------------------------
Magnitude (a.u.)       :      1.03888
Magnitude (Debye)      :      2.64063

                             ****ORCA TERMINATED NORMALLY****
TOTAL RUN TIME: 0 days 0 hours 17 minutes 46 seconds 817 msec
