                         Program Version 3.0.3 - RELEASE   -
|  1> ! RI-MP2 RIJK def2-TZVP def2-TZVP/C def2-TZVP/JK TIGHTSCF
|  2> % maxcore 2000
|  3> % mp2 density relaxed end
|  4> *xyz 0 1
|  5>  O       -0.2021326992     1.5024054545     0.1707090604
|  6>  C        0.0112673294     0.0977588240     0.0334950656
|  7>  C        0.8901588912    -0.4539425857     1.1690521620
|  8>  C        1.6063820415    -1.7660801465     0.8086849843
|  9>  C        0.7289284868    -3.0238207315     0.7325198164
| 10>  C       -0.4911058344    -2.9511741953    -0.1970430748
| 11>  O       -1.1234410482    -4.2292089488    -0.2694537477
| 12>  C       -1.5676743187    -1.9867710864     0.3140412013
| 13>  C       -1.3990340838    -0.5058916349    -0.0608119480
| 14>  H        0.6545678705     1.9386527369     0.1237928539
| 15>  H        0.5456926236    -0.0968168051    -0.9121387206
| 16>  H        1.6575210164     0.3014423205     1.3841269612
| 17>  H        0.3041507890    -0.5608332910     2.0903858339
| 18>  H        2.1193018290    -1.6249575450    -0.1532883569
| 19>  H        2.3979612568    -1.9524882084     1.5434366065
| 20>  H        1.3648522765    -3.8598757371     0.4073555732
| 21>  H        0.3627350277    -3.2879457384     1.7330908829
| 22>  H       -0.1678401538    -2.6402338395    -1.2064154094
| 23>  H       -0.4505817155    -4.8807889627    -0.4917026417
| 24>  H       -2.5256354416    -2.3350133507    -0.0837858607
| 25>  H       -1.6347634642    -2.0985914185     1.4027561351
| 26>  H       -2.0373741822     0.0941431098     0.5970851298
| 27>  H       -1.7686886668    -0.3359378402    -1.0780193366
| 28> *
| 29>
| 30>                          ****END OF INPUT****

CARTESIAN COORDINATES (ANGSTROEM)
---------------------------------
  O     -0.202133    1.502405    0.170709
  C      0.011267    0.097759    0.033495
  C      0.890159   -0.453943    1.169052
  C      1.606382   -1.766080    0.808685
  C      0.728928   -3.023821    0.732520
  C     -0.491106   -2.951174   -0.197043
  O     -1.123441   -4.229209   -0.269454
  C     -1.567674   -1.986771    0.314041
  C     -1.399034   -0.505892   -0.060812
  H      0.654568    1.938653    0.123793
  H      0.545693   -0.096817   -0.912139
  H      1.657521    0.301442    1.384127
  H      0.304151   -0.560833    2.090386
  H      2.119302   -1.624958   -0.153288
  H      2.397961   -1.952488    1.543437
  H      1.364852   -3.859876    0.407356
  H      0.362735   -3.287946    1.733091
  H     -0.167840   -2.640234   -1.206415
  H     -0.450582   -4.880789   -0.491703
  H     -2.525635   -2.335013   -0.083786
  H     -1.634763   -2.098591    1.402756
  H     -2.037374    0.094143    0.597085
  H     -1.768689   -0.335938   -1.078019

 Total Charge           Charge          ....    0
 Multiplicity           Mult            ....    1
 Number of Electrons    NEL             ....   72
 Basis Dimension        Dim             ....  363

ORBITAL ENERGIES
----------------

  NO   OCC          E(Eh)            E(eV)
   0   2.0000     -20.551279      -559.2287
   1   2.0000     -20.550989      -559.2208
   2   2.0000     -11.277841      -306.8857
   3   2.0000     -11.277752      -306.8832
   4   2.0000     -11.229919      -305.5816
   5   2.0000     -11.224769      -305.4415
   6   2.0000     -11.223815      -305.4155
   7   2.0000     -11.214993      -305.1755
   8   2.0000     -11.214242      -305.1550
   9   2.0000      -1.357595       -36.9420
  10   2.0000      -1.356780       -36.9198
  11   2.0000      -1.100726       -29.9523
  12   2.0000      -1.032489       -28.0954
  13   2.0000      -1.009246       -27.4630
  14   2.0000      -0.895825       -24.3766
  15   2.0000      -0.871576       -23.7168
  16   2.0000      -0.785834       -21.3836
  17   2.0000      -0.755806       -20.5665
  18   2.0000      -0.708390       -19.2763
  19   2.0000      -0.676318       -18.4035
  20   2.0000      -0.647576       -17.6214
  21   2.0000      -0.624358       -16.9896
  22   2.0000      -0.619644       -16.8614
  23   2.0000      -0.583645       -15.8818
  24   2.0000      -0.571565       -15.5531
  25   2.0000      -0.559244       -15.2178
  26   2.0000      -0.545373       -14.8404
  27   2.0000      -0.539322       -14.6757
  28   2.0000      -0.497120       -13.5273
  29   2.0000      -0.492071       -13.3899
  30   2.0000      -0.480142       -13.0653
  31   2.0000      -0.468275       -12.7424
  32   2.0000      -0.464084       -12.6284
  33   2.0000      -0.446680       -12.1548
  34   2.0000      -0.429250       -11.6805
  35   2.0000      -0.426070       -11.5939
  36   0.0000       0.127318         3.4645
  37   0.0000       0.142498         3.8776
  38   0.0000       0.147692         4.0189
  39   0.0000       0.161108         4.3840
  40   0.0000       0.167187         4.5494

MULLIKEN ATOMIC CHARGES
-----------------------
   0 O :   -0.457253
   1 C :    0.074466
   2 C :   -0.202879
   3 C :   -0.276013
   4 C :   -0.280520
   5 C :    0.102023
   6 O :   -0.455251
   7 C :   -0.195224
   8 C :   -0.274310
   9 H :    0.308293
  10 H :    0.076684
  11 H :    0.108467
  12 H :    0.115866
  13 H :    0.112047
  14 H :    0.126359
  15 H :    0.102861
  16 H :    0.126019
  17 H :    0.079147
  18 H :    0.308438
  19 H :    0.137984
  20 H :    0.109305
  21 H :    0.130372
  22 H :    0.123121
Sum of atomic charges:    0.0000000

LOEWDIN ATOMIC CHARGES
----------------------
   0 O :   -0.024196
   1 C :   -0.349219
   2 C :   -0.252874
   3 C :   -0.267874
   4 C :   -0.263304
   5 C :   -0.344430
   6 O :   -0.024292
   7 C :   -0.242897
   8 C :   -0.246177
   9 H :    0.168927
  10 H :    0.131193
  11 H :    0.137176
  12 H :    0.141698
  13 H :    0.138017
  14 H :    0.140632
  15 H :    0.135056
  16 H :    0.142228
  17 H :    0.132633
  18 H :    0.169264
  19 H :    0.148398
  20 H :    0.140056
  21 H :    0.148821
  22 H :    0.141164

  Mayer bond orders larger than 0.1
B(  0-O ,  1-C ) :   0.9866 B(  0-O ,  9-H ) :   0.8486 B(  1-C ,  2-C ) :   0.9005
B(  1-C ,  8-C ) :   0.9140 B(  1-C , 10-H ) :   0.9487 B(  2-C ,  3-C ) :   0.9002
B(  2-C , 11-H ) :   0.9385 B(  2-C , 12-H ) :   0.9196 B(  3-C ,  4-C ) :   0.9290
B(  3-C , 13-H ) :   0.9324 B(  3-C , 14-H ) :   0.9254 B(  4-C ,  5-C ) :   0.9133
B(  4-C , 15-H ) :   0.9307 B(  4-C , 16-H ) :   0.9317 B(  5-C ,  6-O ) :   0.9775
B(  5-C ,  7-C ) :   0.8906 B(  5-C , 17-H ) :   0.9473 B(  6-O , 18-H ) :   0.8471
B(  7-C ,  8-C ) :   0.8966 B(  7-C , 19-H ) :   0.9270 B(  7-C , 20-H ) :   0.9267
B(  8-C , 21-H ) :   0.9289 B(  8-C , 22-H ) :   0.9338

MP2 TOTAL ENERGY:     -424.745045911 Eh
FINAL SINGLE POINT ENERGY      -424.745045910753

DIPOLE MOMENT
-------------
                                X             Y             Z
Electronic contribution:     -1.91735       0.45685      -1.33152
Nuclear contribution   :      3.08067      -0.61241       1.23726
                        -----------------------------------------
Total Dipole Moment    :      1.16333      -0.15556      -0.09426
                        -----------------------------------------
Magnitude (a.u.)       :      1.17746
Magnitude (Debye)      :      2.99287

                             ****ORCA TERMINATED NORMALLY****
TOTAL RUN TIME: 0 days 0 hours 20 minutes 17 seconds 547 msec
