                         Program Version 3.0.3 - RELEASE   -
|  1> ! RI-MP2 RIJK def2-TZVP def2-TZVP/C def2-TZVP/JK TIGHTSCF
|  2> % maxcore 2000
|  3> % mp2 density relaxed end
|  4> *xyz 0 1
|  5>  C       -0.0397468837     1.5865646041     0.0109570863
|  6>  C        0.0208220323     0.0571084957     0.0023211459
|  7>  C        0.7129378703    -0.4883732572    -1.2560505994
|  8>  C        0.8415552622    -2.0153622657    -1.2054602819
|  9>  C        1.6215540559    -2.5906256869    -2.3790101540
| 10>  O        1.5133637069    -2.4250030103    -0.0197160403
| 11>  C        0.8552655202    -2.0282791909     1.1780480030
| 12>  C        1.6486764415    -2.6161797344     2.3362439181
| 13>  C        0.7273341464    -0.5019362689     1.2466614530
| 14>  H        0.9677428337     2.0191272735     0.0075008756
| 15>  H       -0.5680614635     1.9685287335    -0.8693996469
| 16>  H       -0.5578672330     1.9589342513     0.9014249381
| 17>  H       -1.0117522974    -0.3246446254     0.0061919870
| 18>  H        0.1585906819    -0.1945536578    -2.1559335052
| 19>  H        1.7194239253    -0.0552686545    -1.3396839497
| 20>  H       -0.1763028057    -2.4485369278    -1.2012765676
| 21>  H        2.6368249718    -2.1820756530    -2.3985792490
| 22>  H        1.6931328962    -3.6782339524    -2.2931217610
| 23>  H        1.1303442073    -2.3462022666    -3.3257998586
| 24>  H       -0.1626002658    -2.4614465851     1.1808788361
| 25>  H        2.6641322049    -2.2078060878     2.3485567008
| 26>  H        1.1684078887    -2.3820587535     3.2912152220
| 27>  H        1.7191907980    -3.7027893187     2.2377579386
| 28>  H        1.7347429000    -0.0697013556     1.3234002860
| 29>  H        0.1833939958    -0.2179215055     2.1559934929
| 30> *
| 31>
| 32>                          ****END OF INPUT****

CARTESIAN COORDINATES (ANGSTROEM)
---------------------------------
  C     -0.039747    1.586565    0.010957
  C      0.020822    0.057108    0.002321
  C      0.712938   -0.488373   -1.256051
  C      0.841555   -2.015362   -1.205460
  C      1.621554   -2.590626   -2.379010
  O      1.513364   -2.425003   -0.019716
  C      0.855266   -2.028279    1.178048
  C      1.648676   -2.616180    2.336244
  C      0.727334   -0.501936    1.246661
  H      0.967743    2.019127    0.007501
  H     -0.568061    1.968529   -0.869400
  H     -0.557867    1.958934    0.901425
  H     -1.011752   -0.324645    0.006192
  H      0.158591   -0.194554   -2.155934
  H      1.719424   -0.055269   -1.339684
  H     -0.176303   -2.448537   -1.201277
  H      2.636825   -2.182076   -2.398579
  H      1.693133   -3.678234   -2.293122
  H      1.130344   -2.346202   -3.325800
  H     -0.162600   -2.461447    1.180879
  H      2.664132   -2.207806    2.348557
  H      1.168408   -2.382059    3.291215
  H      1.719191   -3.702789    2.237758
  H      1.734743   -0.069701    1.323400
  H      0.183394   -0.217922    2.155993

 Total Charge           Charge          ....    0
 Multiplicity           Mult            ....    1
 Number of Electrons    NEL             ....   72
 Basis Dimension        Dim             ....  375

ORBITAL ENERGIES
----------------

  NO   OCC          E(Eh)            E(eV)
   0   2.0000     -20.541896      -558.9734
   1   2.0000     -11.271916      -306.7244
   2   2.0000     -11.271896      -306.7239
   3   2.0000     -11.226326      -305.4839
   4   2.0000     -11.214650      -305.1661
   5   2.0000     -11.214625      -305.1655
   6   2.0000     -11.212951      -305.1199
   7   2.0000     -11.208086      -304.9875
   8   2.0000     -11.208086      -304.9875
   9   2.0000      -1.367228       -37.2042
  10   2.0000      -1.092321       -29.7236
  11   2.0000      -1.062913       -28.9233
  12   2.0000      -0.985966       -26.8295
  13   2.0000      -0.930841       -25.3295
  14   2.0000      -0.920860       -25.0579
  15   2.0000      -0.810328       -22.0501
  16   2.0000      -0.799443       -21.7539
  17   2.0000      -0.766113       -20.8470
  18   2.0000      -0.658468       -17.9178
  19   2.0000      -0.646315       -17.5871
  20   2.0000      -0.630738       -17.1633
  21   2.0000      -0.610544       -16.6137
  22   2.0000      -0.589638       -16.0449
  23   2.0000      -0.549350       -14.9486
  24   2.0000      -0.548371       -14.9219
  25   2.0000      -0.538018       -14.6402
  26   2.0000      -0.533158       -14.5080
  27   2.0000      -0.532558       -14.4916
  28   2.0000      -0.511293       -13.9130
  29   2.0000      -0.505722       -13.7614
  30   2.0000      -0.504312       -13.7230
  31   2.0000      -0.468147       -12.7389
  32   2.0000      -0.464388       -12.6366
  33   2.0000      -0.440595       -11.9892
  34   2.0000      -0.439362       -11.9556
  35   2.0000      -0.397094       -10.8055
  36   0.0000       0.136689         3.7195
  37   0.0000       0.150143         4.0856
  38   0.0000       0.157393         4.2829
  39   0.0000       0.158131         4.3030
  40   0.0000       0.193342         5.2611

MULLIKEN ATOMIC CHARGES
-----------------------
   0 C :   -0.385516
   1 C :   -0.012362
   2 C :   -0.252817
   3 C :    0.064518
   4 C :   -0.369052
   5 O :   -0.289316
   6 C :    0.064518
   7 C :   -0.369052
   8 C :   -0.252817
   9 H :    0.124084
  10 H :    0.130002
  11 H :    0.130002
  12 H :    0.081587
  13 H :    0.116340
  14 H :    0.101514
  15 H :    0.066519
  16 H :    0.126231
  17 H :    0.137320
  18 H :    0.120187
  19 H :    0.066519
  20 H :    0.126231
  21 H :    0.120187
  22 H :    0.137320
  23 H :    0.101514
  24 H :    0.116340
Sum of atomic charges:   -0.0000000

LOEWDIN ATOMIC CHARGES
----------------------
   0 C :   -0.294429
   1 C :   -0.285071
   2 C :   -0.226925
   3 C :   -0.347435
   4 C :   -0.291775
   5 O :    0.197757
   6 C :   -0.347434
   7 C :   -0.291775
   8 C :   -0.226925
   9 H :    0.123469
  10 H :    0.122723
  11 H :    0.122723
  12 H :    0.151550
  13 H :    0.141697
  14 H :    0.143585
  15 H :    0.134780
  16 H :    0.125847
  17 H :    0.125802
  18 H :    0.125061
  19 H :    0.134780
  20 H :    0.125847
  21 H :    0.125061
  22 H :    0.125802
  23 H :    0.143585
  24 H :    0.141697

  Mayer bond orders larger than 0.1
B(  0-C ,  1-C ) :   0.9127 B(  0-C ,  9-H ) :   0.9338 B(  0-C , 10-H ) :   0.9401
B(  0-C , 11-H ) :   0.9401 B(  1-C ,  2-C ) :   0.9274 B(  1-C ,  8-C ) :   0.9274
B(  1-C , 12-H ) :   0.9289 B(  2-C ,  3-C ) :   0.9361 B(  2-C , 13-H ) :   0.9225
B(  2-C , 14-H ) :   0.9094 B(  3-C ,  4-C ) :   0.9120 B(  3-C ,  5-O ) :   0.9500
B(  3-C , 15-H ) :   0.9345 B(  4-C , 16-H ) :   0.9373 B(  4-C , 17-H ) :   0.9400
B(  4-C , 18-H ) :   0.9351 B(  5-O ,  6-C ) :   0.9500 B(  6-C ,  7-C ) :   0.9120
B(  6-C ,  8-C ) :   0.9361 B(  6-C , 19-H ) :   0.9345 B(  7-C , 20-H ) :   0.9373
B(  7-C , 21-H ) :   0.9351 B(  7-C , 22-H ) :   0.9400 B(  8-C , 23-H ) :   0.9094
B(  8-C , 24-H ) :   0.9225

MP2 TOTAL ENERGY:     -388.851238999 Eh
FINAL SINGLE POINT ENERGY      -388.851238999025

DIPOLE MOMENT
-------------
                                X             Y             Z
Electronic contribution:      0.48744      -2.94319      -0.01875
Nuclear contribution   :     -0.90114       3.22493       0.02266
                        -----------------------------------------
Total Dipole Moment    :     -0.41371       0.28174       0.00391
                        -----------------------------------------
Magnitude (a.u.)       :      0.50054
Magnitude (Debye)      :      1.27228

                             ****ORCA TERMINATED NORMALLY****
TOTAL RUN TIME: 0 days 0 hours 22 minutes 5 seconds 362 msec
