                         Program Version 3.0.3 - RELEASE   -
|  1> ! RI-MP2 RIJK def2-TZVP def2-TZVP/C def2-TZVP/JK TIGHTSCF
|  2> % maxcore 2000
|  3> % mp2 density relaxed end
|  4> *xyz 0 1
|  5>  O        0.4414836209     0.8211091467     0.4987534762
|  6>  C        0.1828800522    -0.4050752035    -0.1182702824
|  7>  C       -1.3307426720    -0.7117133648    -0.2875744532
|  8>  O       -1.1435825485    -0.8189222940    -1.7355659132
|  9>  C        0.1823926249    -0.4416240017    -1.6403010283
| 10>  N        1.0435401709    -0.1869897543    -2.5093511097
| 11>  C       -1.8352760140    -2.0062550786     0.3086599547
| 12>  O       -2.4429225208    -2.0645369626     1.3435813909
| 13>  H        1.3271882914     1.0999941872     0.2381621825
| 14>  H        0.7525159826    -1.2328048180     0.3284300454
| 15>  H       -1.9658786544     0.1342941002    -0.0184903874
| 16>  H        0.6788226637    -0.2738633817    -3.4591442343
| 17>  H       -1.5743251568    -2.9090106748    -0.2874984412
| 18> *
| 19>
| 20>                          ****END OF INPUT****

CARTESIAN COORDINATES (ANGSTROEM)
---------------------------------
  O      0.441484    0.821109    0.498753
  C      0.182880   -0.405075   -0.118270
  C     -1.330743   -0.711713   -0.287574
  O     -1.143583   -0.818922   -1.735566
  C      0.182393   -0.441624   -1.640301
  N      1.043540   -0.186990   -2.509351
  C     -1.835276   -2.006255    0.308660
  O     -2.442923   -2.064537    1.343581
  H      1.327188    1.099994    0.238162
  H      0.752516   -1.232805    0.328430
  H     -1.965879    0.134294   -0.018490
  H      0.678823   -0.273863   -3.459144
  H     -1.574325   -2.909011   -0.287498

 Total Charge           Charge          ....    0
 Multiplicity           Mult            ....    1
 Number of Electrons    NEL             ....   60
 Basis Dimension        Dim             ....  278

ORBITAL ENERGIES
----------------

  NO   OCC          E(Eh)            E(eV)
   0   2.0000     -20.621701      -561.1450
   1   2.0000     -20.598248      -560.5068
   2   2.0000     -20.585156      -560.1506
   3   2.0000     -15.565444      -423.5573
   4   2.0000     -11.362848      -309.1988
   5   2.0000     -11.356694      -309.0314
   6   2.0000     -11.336390      -308.4789
   7   2.0000     -11.330352      -308.3146
   8   2.0000      -1.467713       -39.9385
   9   2.0000      -1.422345       -38.7040
  10   2.0000      -1.403635       -38.1948
  11   2.0000      -1.225013       -33.3343
  12   2.0000      -1.057641       -28.7799
  13   2.0000      -0.966653       -26.3040
  14   2.0000      -0.834671       -22.7126
  15   2.0000      -0.789385       -21.4803
  16   2.0000      -0.744502       -20.2589
  17   2.0000      -0.732006       -19.9189
  18   2.0000      -0.721199       -19.6248
  19   2.0000      -0.680045       -18.5050
  20   2.0000      -0.646292       -17.5865
  21   2.0000      -0.632314       -17.2062
  22   2.0000      -0.585345       -15.9281
  23   2.0000      -0.579093       -15.7579
  24   2.0000      -0.559162       -15.2156
  25   2.0000      -0.518403       -14.1065
  26   2.0000      -0.494977       -13.4690
  27   2.0000      -0.454465       -12.3666
  28   2.0000      -0.451725       -12.2921
  29   2.0000      -0.430019       -11.7014
  30   0.0000       0.099485         2.7071
  31   0.0000       0.123388         3.3576
  32   0.0000       0.150092         4.0842
  33   0.0000       0.158402         4.3103
  34   0.0000       0.170041         4.6270

MULLIKEN ATOMIC CHARGES
-----------------------
   0 O :   -0.457689
   1 C :    0.091982
   2 C :    0.153507
   3 O :   -0.268670
   4 C :    0.082174
   5 N :   -0.357492
   6 C :    0.052038
   7 O :   -0.239461
   8 H :    0.340504
   9 H :    0.119517
  10 H :    0.139812
  11 H :    0.239328
  12 H :    0.104449
Sum of atomic charges:    0.0000000

LOEWDIN ATOMIC CHARGES
----------------------
   0 O :    0.010296
   1 C :   -0.273519
   2 C :   -0.215483
   3 O :    0.235431
   4 C :   -0.391099
   5 N :   -0.038810
   6 C :   -0.276228
   7 O :    0.157589
   8 H :    0.193148
   9 H :    0.144743
  10 H :    0.156539
  11 H :    0.178451
  12 H :    0.118943

  Mayer bond orders larger than 0.1
B(  0-O ,  1-C ) :   1.0272 B(  0-O ,  8-H ) :   0.8266 B(  1-C ,  2-C ) :   0.8776
B(  1-C ,  4-C ) :   0.8914 B(  1-C ,  9-H ) :   0.9351 B(  2-C ,  3-O ) :   0.8840
B(  2-C ,  6-C ) :   0.8610 B(  2-C , 10-H ) :   0.8939 B(  3-O ,  4-C ) :   1.0469
B(  4-C ,  5-N ) :   2.0922 B(  5-N , 11-H ) :   0.8450 B(  6-C ,  7-O ) :   1.9915
B(  6-C , 12-H ) :   0.9259

MP2 TOTAL ENERGY:     -435.042859582 Eh
FINAL SINGLE POINT ENERGY      -435.042859581683

DIPOLE MOMENT
-------------
                                X             Y             Z
Electronic contribution:     -1.66508      -0.43857       0.19464
Nuclear contribution   :      2.11463       0.34658      -0.64309
                        -----------------------------------------
Total Dipole Moment    :      0.44955      -0.09199      -0.44846
                        -----------------------------------------
Magnitude (a.u.)       :      0.64162
Magnitude (Debye)      :      1.63087

                             ****ORCA TERMINATED NORMALLY****
TOTAL RUN TIME: 0 days 0 hours 9 minutes 5 seconds 925 msec
