                         Program Version 3.0.3 - RELEASE   -
|  1> ! RI-MP2 RIJK def2-TZVP def2-TZVP/C def2-TZVP/JK TIGHTSCF
|  2> % maxcore 2000
|  3> % mp2 density relaxed end
|  4> *xyz 0 1
|  5>  C       -0.0557932230     1.5247751290     0.0366863755
|  6>  C       -0.1398022623    -0.0043428996    -0.0494086408
|  7>  C        0.6797652620    -0.5564018977    -1.1909390241
|  8>  C        0.2364056397    -0.3229907255    -2.6615718675
|  9>  C        0.5179068117    -1.8267921539    -2.9742978286
| 10>  C        0.9555019258    -2.0618019439    -1.5043746235
| 11>  C        2.4197247267    -1.7056682887    -1.2125147062
| 12>  O        2.1029898249    -0.3071813339    -1.0256783620
| 13>  H        0.9844270703     1.8420439596     0.1507750346
| 14>  H       -0.4543324219     1.9965869898    -0.8678123077
| 15>  H       -0.6261356323     1.9030241025     0.8900186937
| 16>  H        0.2172922082    -0.4496190372     0.8872608674
| 17>  H       -1.1825506501    -0.3222831017    -0.1769717689
| 18>  H       -0.8152288179    -0.0423824173    -2.7701570614
| 19>  H        0.8541180785     0.4049261145    -3.1912682703
| 20>  H       -0.3796322651    -2.3844550292    -3.2511502326
| 21>  H        1.2873385515    -2.0264008223    -3.7253834616
| 22>  H        0.5135920973    -2.8959220683    -0.9592859763
| 23>  H        2.8281626987    -2.1470546353    -0.2938680093
| 24>  H        3.1343672074    -1.8660345510    -2.0305200405
| 25> *
| 26>
| 27>                          ****END OF INPUT****

CARTESIAN COORDINATES (ANGSTROEM)
---------------------------------
  C     -0.055793    1.524775    0.036686
  C     -0.139802   -0.004343   -0.049409
  C      0.679765   -0.556402   -1.190939
  C      0.236406   -0.322991   -2.661572
  C      0.517907   -1.826792   -2.974298
  C      0.955502   -2.061802   -1.504375
  C      2.419725   -1.705668   -1.212515
  O      2.102990   -0.307181   -1.025678
  H      0.984427    1.842044    0.150775
  H     -0.454332    1.996587   -0.867812
  H     -0.626136    1.903024    0.890019
  H      0.217292   -0.449619    0.887261
  H     -1.182551   -0.322283   -0.176972
  H     -0.815229   -0.042382   -2.770157
  H      0.854118    0.404926   -3.191268
  H     -0.379632   -2.384455   -3.251150
  H      1.287339   -2.026401   -3.725383
  H      0.513592   -2.895922   -0.959286
  H      2.828163   -2.147055   -0.293868
  H      3.134367   -1.866035   -2.030520

 Total Charge           Charge          ....    0
 Multiplicity           Mult            ....    1
 Number of Electrons    NEL             ....   62
 Basis Dimension        Dim             ....  320

ORBITAL ENERGIES
----------------

  NO   OCC          E(Eh)            E(eV)
   0   2.0000     -20.539307      -558.9029
   1   2.0000     -11.279476      -306.9301
   2   2.0000     -11.273408      -306.7650
   3   2.0000     -11.227212      -305.5080
   4   2.0000     -11.225040      -305.4489
   5   2.0000     -11.219752      -305.3050
   6   2.0000     -11.218523      -305.2715
   7   2.0000     -11.209241      -305.0189
   8   2.0000      -1.372266       -37.3413
   9   2.0000      -1.106719       -30.1153
  10   2.0000      -1.038684       -28.2640
  11   2.0000      -0.958399       -26.0794
  12   2.0000      -0.896317       -24.3900
  13   2.0000      -0.846022       -23.0214
  14   2.0000      -0.818935       -22.2844
  15   2.0000      -0.698439       -19.0055
  16   2.0000      -0.671272       -18.2663
  17   2.0000      -0.648737       -17.6530
  18   2.0000      -0.641639       -17.4599
  19   2.0000      -0.600804       -16.3487
  20   2.0000      -0.574817       -15.6416
  21   2.0000      -0.559490       -15.2245
  22   2.0000      -0.537611       -14.6291
  23   2.0000      -0.523093       -14.2341
  24   2.0000      -0.509893       -13.8749
  25   2.0000      -0.495928       -13.4949
  26   2.0000      -0.468486       -12.7482
  27   2.0000      -0.465748       -12.6736
  28   2.0000      -0.440158       -11.9773
  29   2.0000      -0.403629       -10.9833
  30   2.0000      -0.390832       -10.6351
  31   0.0000       0.136373         3.7109
  32   0.0000       0.151543         4.1237
  33   0.0000       0.165564         4.5052
  34   0.0000       0.172053         4.6818
  35   0.0000       0.190116         5.1733

MULLIKEN ATOMIC CHARGES
-----------------------
   0 C :   -0.411143
   1 C :   -0.207012
   2 C :    0.253996
   3 C :   -0.281527
   4 C :   -0.223086
   5 C :   -0.134582
   6 C :   -0.035969
   7 O :   -0.346032
   8 H :    0.148785
   9 H :    0.123304
  10 H :    0.132970
  11 H :    0.108493
  12 H :    0.105897
  13 H :    0.115282
  14 H :    0.119996
  15 H :    0.116690
  16 H :    0.112200
  17 H :    0.115147
  18 H :    0.095817
  19 H :    0.090773
Sum of atomic charges:    0.0000000

LOEWDIN ATOMIC CHARGES
----------------------
   0 C :   -0.309865
   1 C :   -0.258819
   2 C :   -0.281553
   3 C :   -0.197570
   4 C :   -0.219569
   5 C :   -0.178688
   6 C :   -0.253090
   7 O :    0.150487
   8 H :    0.128250
   9 H :    0.121379
  10 H :    0.120370
  11 H :    0.142571
  12 H :    0.141520
  13 H :    0.132443
  14 H :    0.134477
  15 H :    0.131085
  16 H :    0.128248
  17 H :    0.134122
  18 H :    0.117463
  19 H :    0.116738

  Mayer bond orders larger than 0.1
B(  0-C ,  1-C ) :   0.9260 B(  0-C ,  8-H ) :   0.9369 B(  0-C ,  9-H ) :   0.9353
B(  0-C , 10-H ) :   0.9385 B(  1-C ,  2-C ) :   0.9230 B(  1-C , 11-H ) :   0.9288
B(  1-C , 12-H ) :   0.9274 B(  2-C ,  3-C ) :   0.9011 B(  2-C ,  5-C ) :   0.8840
B(  2-C ,  7-O ) :   0.9179 B(  3-C ,  4-C ) :   0.9751 B(  3-C , 13-H ) :   0.9153
B(  3-C , 14-H ) :   0.9063 B(  4-C ,  5-C ) :   0.9386 B(  4-C , 15-H ) :   0.9221
B(  4-C , 16-H ) :   0.9190 B(  5-C ,  6-C ) :   0.9822 B(  5-C , 17-H ) :   0.9095
B(  6-C ,  7-O ) :   0.9475 B(  6-C , 18-H ) :   0.9205 B(  6-C , 19-H ) :   0.9012

MP2 TOTAL ENERGY:     -348.370085098 Eh
FINAL SINGLE POINT ENERGY      -348.370085097942

DIPOLE MOMENT
-------------
                                X             Y             Z
Electronic contribution:      3.15059      -1.96869      -0.41698
Nuclear contribution   :     -3.59551       1.45737       0.33288
                        -----------------------------------------
Total Dipole Moment    :     -0.44492      -0.51132      -0.08411
                        -----------------------------------------
Magnitude (a.u.)       :      0.68299
Magnitude (Debye)      :      1.73602

                             ****ORCA TERMINATED NORMALLY****
TOTAL RUN TIME: 0 days 0 hours 13 minutes 54 seconds 448 msec
