                         Program Version 3.0.3 - RELEASE   -
|  1> ! RI-MP2 RIJK def2-TZVP def2-TZVP/C def2-TZVP/JK TIGHTSCF
|  2> % maxcore 2000
|  3> % mp2 density relaxed end
|  4> *xyz 0 1
|  5>  O       -0.0511716580     1.4244904525     0.0075094984
|  6>  C        0.0234249201     0.0106581069     0.0018655640
|  7>  C       -1.3767023048    -0.5159895331     0.0118482980
|  8>  C       -2.5268626358     0.2037164808     0.0233020143
|  9>  O       -3.5921818435    -0.6204781540     0.0296866708
| 10>  N       -3.1674108288    -1.9237216934     0.0224994414
| 11>  C       -1.8484167588    -1.8671946655     0.0119266611
| 12>  C       -1.0286826754    -3.1026446661     0.0017208774
| 13>  O       -1.4623301612    -4.2254633849     0.0029869807
| 14>  H        0.8435642330     1.7765004717     0.0015243307
| 15>  H        0.5566749849    -0.3605821746    -0.8885472064
| 16>  H        0.5716864491    -0.3669094294     0.8804076454
| 17>  H       -2.7352675412     1.2601358447     0.0280733823
| 18>  H        0.0668313403    -2.9062439355    -0.0080456079
| 19> *
| 20>
| 21>                          ****END OF INPUT****

CARTESIAN COORDINATES (ANGSTROEM)
---------------------------------
  O     -0.051172    1.424490    0.007509
  C      0.023425    0.010658    0.001866
  C     -1.376702   -0.515990    0.011848
  C     -2.526863    0.203716    0.023302
  O     -3.592182   -0.620478    0.029687
  N     -3.167411   -1.923722    0.022499
  C     -1.848417   -1.867195    0.011927
  C     -1.028683   -3.102645    0.001721
  O     -1.462330   -4.225463    0.002987
  H      0.843564    1.776500    0.001524
  H      0.556675   -0.360582   -0.888547
  H      0.571686   -0.366909    0.880408
  H     -2.735268    1.260136    0.028073
  H      0.066831   -2.906244   -0.008046

 Total Charge           Charge          ....    0
 Multiplicity           Mult            ....    1
 Number of Electrons    NEL             ....   66
 Basis Dimension        Dim             ....  309

ORBITAL ENERGIES
----------------

  NO   OCC          E(Eh)            E(eV)
   0   2.0000     -20.666676      -562.3688
   1   2.0000     -20.590648      -560.3000
   2   2.0000     -20.577623      -559.9456
   3   2.0000     -15.649832      -425.8536
   4   2.0000     -11.357034      -309.0406
   5   2.0000     -11.322323      -308.0961
   6   2.0000     -11.321902      -308.0846
   7   2.0000     -11.298899      -307.4587
   8   2.0000     -11.263395      -306.4926
   9   2.0000      -1.519354       -41.3437
  10   2.0000      -1.414276       -38.4844
  11   2.0000      -1.396951       -38.0130
  12   2.0000      -1.185175       -32.2503
  13   2.0000      -1.109720       -30.1970
  14   2.0000      -0.969320       -26.3765
  15   2.0000      -0.935991       -25.4696
  16   2.0000      -0.828009       -22.5313
  17   2.0000      -0.789232       -21.4761
  18   2.0000      -0.740626       -20.1535
  19   2.0000      -0.716152       -19.4875
  20   2.0000      -0.686617       -18.6838
  21   2.0000      -0.674724       -18.3602
  22   2.0000      -0.658523       -17.9193
  23   2.0000      -0.644568       -17.5396
  24   2.0000      -0.608651       -16.5622
  25   2.0000      -0.593195       -16.1417
  26   2.0000      -0.558987       -15.2108
  27   2.0000      -0.543383       -14.7862
  28   2.0000      -0.497468       -13.5368
  29   2.0000      -0.493717       -13.4347
  30   2.0000      -0.451845       -12.2953
  31   2.0000      -0.427391       -11.6299
  32   2.0000      -0.373914       -10.1747
  33   0.0000       0.057279         1.5586
  34   0.0000       0.110107         2.9962
  35   0.0000       0.138507         3.7690
  36   0.0000       0.138803         3.7770
  37   0.0000       0.178203         4.8492

MULLIKEN ATOMIC CHARGES
-----------------------
   0 O :   -0.463475
   1 C :   -0.082457
   2 C :   -0.029295
   3 C :    0.008150
   4 O :   -0.082756
   5 N :   -0.071237
   6 C :    0.082369
   7 C :    0.022436
   8 O :   -0.230508
   9 H :    0.324015
  10 H :    0.125677
  11 H :    0.125685
  12 H :    0.183537
  13 H :    0.087858
Sum of atomic charges:    0.0000000

LOEWDIN ATOMIC CHARGES
----------------------
   0 O :   -0.029680
   1 C :   -0.306230
   2 C :   -0.170759
   3 C :   -0.210325
   4 O :    0.298263
   5 N :    0.085825
   6 C :   -0.264913
   7 C :   -0.266206
   8 O :    0.162157
   9 H :    0.179151
  10 H :    0.129358
  11 H :    0.129353
  12 H :    0.146750
  13 H :    0.117257

  Mayer bond orders larger than 0.1
B(  0-O ,  1-C ) :   1.0462 B(  0-O ,  2-C ) :  -0.1074 B(  0-O ,  9-H ) :   0.8432
B(  1-C ,  2-C ) :   0.8723 B(  1-C , 10-H ) :   0.9313 B(  1-C , 11-H ) :   0.9314
B(  2-C ,  3-C ) :   1.5310 B(  2-C ,  6-C ) :   1.1160 B(  3-C ,  4-O ) :   1.1075
B(  3-C ,  5-N ) :   0.1059 B(  3-C , 12-H ) :   0.8982 B(  4-O ,  5-N ) :   0.9140
B(  5-N ,  6-C ) :   1.5357 B(  6-C ,  7-C ) :   0.7952 B(  6-C , 13-H ) :  -0.1213
B(  7-C ,  8-O ) :   2.0571 B(  7-C , 13-H ) :   0.9964

MP2 TOTAL ENERGY:     -473.049748590 Eh
FINAL SINGLE POINT ENERGY      -473.049748590367

DIPOLE MOMENT
-------------
                                X             Y             Z
Electronic contribution:     -5.28197      -3.27947       0.03510
Nuclear contribution   :      7.00877       4.80956      -0.04563
                        -----------------------------------------
Total Dipole Moment    :      1.72681       1.53009      -0.01053
                        -----------------------------------------
Magnitude (a.u.)       :      2.30720
Magnitude (Debye)      :      5.86442

                             ****ORCA TERMINATED NORMALLY****
TOTAL RUN TIME: 0 days 0 hours 13 minutes 50 seconds 366 msec
