                         Program Version 3.0.3 - RELEASE   -
|  1> ! RI-MP2 RIJK def2-TZVP def2-TZVP/C def2-TZVP/JK TIGHTSCF
|  2> % maxcore 2000
|  3> % mp2 density relaxed end
|  4> *xyz 0 1
|  5>  C        0.2481767257     1.2656851781     0.1926840853
|  6>  O       -0.1429731213    -0.0345398419    -0.2111740022
|  7>  C        0.5645467022    -0.5255037001    -1.2977350579
|  8>  C        0.3198884734     0.0351829830    -2.6999980584
|  9>  C        0.5399300604    -1.2320006205    -3.5783817742
| 10>  N        1.2920315038    -2.1990741718    -2.7476681574
| 11>  C        2.5917700553    -1.5663020951    -2.2954116194
| 12>  C        1.9341989660    -1.1504934806    -0.9904156478
| 13>  C        0.7459019661    -2.0090319243    -1.3732072540
| 14>  H        1.3151685829     1.3052626873     0.4527750044
| 15>  H        0.0524648149     2.0116181534    -0.5902762460
| 16>  H       -0.3455909763     1.5161659773     1.0747070021
| 17>  H       -0.7006088811     0.4236470279    -2.7727998028
| 18>  H        1.0050974627     0.8470210550    -2.9646183955
| 19>  H       -0.4211832707    -1.6870206422    -3.8386508517
| 20>  H        1.0818993080    -1.0338575654    -4.5072335464
| 21>  H        3.3607799125    -2.3340935653    -2.1680648342
| 22>  H        2.9768295395    -0.7838053701    -2.9609572977
| 23>  H        2.3931106720    -1.0352457588    -0.0155260540
| 24>  H        0.1754182541    -2.7596587059    -0.8416021521
| 25> *
| 26>
| 27>                          ****END OF INPUT****

CARTESIAN COORDINATES (ANGSTROEM)
---------------------------------
  C      0.248177    1.265685    0.192684
  O     -0.142973   -0.034540   -0.211174
  C      0.564547   -0.525504   -1.297735
  C      0.319888    0.035183   -2.699998
  C      0.539930   -1.232001   -3.578382
  N      1.292032   -2.199074   -2.747668
  C      2.591770   -1.566302   -2.295412
  C      1.934199   -1.150493   -0.990416
  C      0.745902   -2.009032   -1.373207
  H      1.315169    1.305263    0.452775
  H      0.052465    2.011618   -0.590276
  H     -0.345591    1.516166    1.074707
  H     -0.700609    0.423647   -2.772800
  H      1.005097    0.847021   -2.964618
  H     -0.421183   -1.687021   -3.838651
  H      1.081899   -1.033858   -4.507234
  H      3.360780   -2.334094   -2.168065
  H      2.976830   -0.783805   -2.960957
  H      2.393111   -1.035246   -0.015526
  H      0.175418   -2.759659   -0.841602

 Total Charge           Charge          ....    0
 Multiplicity           Mult            ....    1
 Number of Electrons    NEL             ....   68
 Basis Dimension        Dim             ....  345

ORBITAL ENERGIES
----------------

  NO   OCC          E(Eh)            E(eV)
   0   2.0000     -20.565591      -559.6182
   1   2.0000     -15.550354      -423.1466
   2   2.0000     -11.287284      -307.1426
   3   2.0000     -11.274988      -306.8080
   4   2.0000     -11.254507      -306.2507
   5   2.0000     -11.249479      -306.1139
   6   2.0000     -11.247544      -306.0612
   7   2.0000     -11.234061      -305.6943
   8   2.0000     -11.223903      -305.4179
   9   2.0000      -1.390864       -37.8473
  10   2.0000      -1.278328       -34.7851
  11   2.0000      -1.065172       -28.9848
  12   2.0000      -1.028236       -27.9797
  13   2.0000      -0.937689       -25.5158
  14   2.0000      -0.917410       -24.9640
  15   2.0000      -0.838150       -22.8072
  16   2.0000      -0.764180       -20.7944
  17   2.0000      -0.736684       -20.0462
  18   2.0000      -0.702994       -19.1294
  19   2.0000      -0.657256       -17.8849
  20   2.0000      -0.635871       -17.3029
  21   2.0000      -0.627061       -17.0632
  22   2.0000      -0.622414       -16.9367
  23   2.0000      -0.580433       -15.7944
  24   2.0000      -0.560128       -15.2419
  25   2.0000      -0.546830       -14.8800
  26   2.0000      -0.538714       -14.6592
  27   2.0000      -0.504621       -13.7314
  28   2.0000      -0.481307       -13.0970
  29   2.0000      -0.479803       -13.0561
  30   2.0000      -0.452228       -12.3058
  31   2.0000      -0.401079       -10.9139
  32   2.0000      -0.385278       -10.4840
  33   2.0000      -0.355306        -9.6684
  34   0.0000       0.138855         3.7784
  35   0.0000       0.155095         4.2204
  36   0.0000       0.171519         4.6673
  37   0.0000       0.173300         4.7157
  38   0.0000       0.192105         5.2274

MULLIKEN ATOMIC CHARGES
-----------------------
   0 C :   -0.215727
   1 O :   -0.305450
   2 C :    0.197207
   3 C :   -0.256362
   4 C :   -0.153851
   5 N :   -0.159306
   6 C :   -0.147403
   7 C :   -0.236978
   8 C :   -0.092988
   9 H :    0.113528
  10 H :    0.120606
  11 H :    0.142810
  12 H :    0.124750
  13 H :    0.119935
  14 H :    0.119387
  15 H :    0.124264
  16 H :    0.120918
  17 H :    0.110005
  18 H :    0.134864
  19 H :    0.139792
Sum of atomic charges:   -0.0000000

LOEWDIN ATOMIC CHARGES
----------------------
   0 C :   -0.338519
   1 O :    0.199239
   2 C :   -0.316112
   3 C :   -0.225114
   4 C :   -0.269350
   5 N :    0.107064
   6 C :   -0.216010
   7 C :   -0.163735
   8 C :   -0.163984
   9 H :    0.103383
  10 H :    0.104182
  11 H :    0.113793
  12 H :    0.141584
  13 H :    0.134177
  14 H :    0.133294
  15 H :    0.127651
  16 H :    0.130580
  17 H :    0.122349
  18 H :    0.139131
  19 H :    0.136397

  Mayer bond orders larger than 0.1
B(  0-C ,  1-O ) :   0.8913 B(  0-C ,  9-H ) :   0.9305 B(  0-C , 10-H ) :   0.9363
B(  0-C , 11-H ) :   0.9408 B(  1-O ,  2-C ) :   0.9975 B(  2-C ,  3-C ) :   0.9199
B(  2-C ,  7-C ) :   0.8621 B(  2-C ,  8-C ) :   0.8808 B(  3-C ,  4-C ) :   0.9355
B(  3-C , 12-H ) :   0.9155 B(  3-C , 13-H ) :   0.9199 B(  4-C ,  5-N ) :   0.9115
B(  4-C , 14-H ) :   0.9308 B(  4-C , 15-H ) :   0.9397 B(  5-N ,  6-C ) :   0.9250
B(  5-N ,  8-C ) :   0.9767 B(  6-C ,  7-C ) :   0.9523 B(  6-C , 16-H ) :   0.9093
B(  6-C , 17-H ) :   0.9313 B(  7-C ,  8-C ) :   0.8599 B(  7-C , 18-H ) :   0.9127
B(  8-C , 19-H ) :   0.9068

MP2 TOTAL ENERGY:     -402.398630177 Eh
FINAL SINGLE POINT ENERGY      -402.398630176594

DIPOLE MOMENT
-------------
                                X             Y             Z
Electronic contribution:     -0.83827      -3.90390       1.04789
Nuclear contribution   :      1.12142       4.70191      -0.96739
                        -----------------------------------------
Total Dipole Moment    :      0.28315       0.79801       0.08050
                        -----------------------------------------
Magnitude (a.u.)       :      0.85057
Magnitude (Debye)      :      2.16198

                             ****ORCA TERMINATED NORMALLY****
TOTAL RUN TIME: 0 days 0 hours 18 minutes 13 seconds 604 msec
