                         Program Version 3.0.3 - RELEASE   -
|  1> ! RI-MP2 RIJK def2-TZVP def2-TZVP/C def2-TZVP/JK TIGHTSCF
|  2> % maxcore 2000
|  3> % mp2 density relaxed end
|  4> *xyz 0 1
|  5>  O        0.0819844185     1.4486235715     0.1079066567
|  6>  C        0.0955053836     0.0281515917     0.0419573345
|  7>  C       -1.3313133658    -0.5479078999     0.1034155861
|  8>  C       -1.4545221892    -2.0262478603    -0.2499029176
|  9>  O       -2.2985825615    -2.7659684851     0.2075050127
| 10>  N       -0.5618808800    -2.4501579290    -1.2153064523
| 11>  C        0.4841244444    -1.6678151929    -1.7117671779
| 12>  C        0.8178068068    -0.4930879509    -1.1735829906
| 13>  H       -0.3079624886     1.7717965882    -0.7125695824
| 14>  H        0.6439915627    -0.2707135740     0.9466528931
| 15>  H       -1.7912309267    -0.3862118771     1.0788383326
| 16>  H       -1.9447199550    -0.0135176365    -0.6376766519
| 17>  H       -0.6770391880    -3.4022253276    -1.5279045746
| 18>  H        1.0104632184    -2.1020722429    -2.5537743597
| 19>  H        1.6498851104     0.0790985346    -1.5648247287
| 20> *
| 21>
| 22>                          ****END OF INPUT****

CARTESIAN COORDINATES (ANGSTROEM)
---------------------------------
  O      0.081984    1.448624    0.107907
  C      0.095505    0.028152    0.041957
  C     -1.331313   -0.547908    0.103416
  C     -1.454522   -2.026248   -0.249903
  O     -2.298583   -2.765968    0.207505
  N     -0.561881   -2.450158   -1.215306
  C      0.484124   -1.667815   -1.711767
  C      0.817807   -0.493088   -1.173583
  H     -0.307962    1.771797   -0.712570
  H      0.643992   -0.270714    0.946653
  H     -1.791231   -0.386212    1.078838
  H     -1.944720   -0.013518   -0.637677
  H     -0.677039   -3.402225   -1.527905
  H      1.010463   -2.102072   -2.553774
  H      1.649885    0.079099   -1.564825

 Total Charge           Charge          ....    0
 Multiplicity           Mult            ....    1
 Number of Electrons    NEL             ....   60
 Basis Dimension        Dim             ....  290

ORBITAL ENERGIES
----------------

  NO   OCC          E(Eh)            E(eV)
   0   2.0000     -20.569098      -559.7136
   1   2.0000     -20.532899      -558.7286
   2   2.0000     -15.606128      -424.6643
   3   2.0000     -11.364235      -309.2365
   4   2.0000     -11.303700      -307.5893
   5   2.0000     -11.296605      -307.3962
   6   2.0000     -11.248181      -306.0786
   7   2.0000     -11.234420      -305.7041
   8   2.0000      -1.398346       -38.0509
   9   2.0000      -1.375718       -37.4352
  10   2.0000      -1.265200       -34.4278
  11   2.0000      -1.078656       -29.3517
  12   2.0000      -1.029852       -28.0237
  13   2.0000      -0.894899       -24.3514
  14   2.0000      -0.853962       -23.2375
  15   2.0000      -0.762518       -20.7492
  16   2.0000      -0.726344       -19.7648
  17   2.0000      -0.686728       -18.6868
  18   2.0000      -0.660970       -17.9859
  19   2.0000      -0.652686       -17.7605
  20   2.0000      -0.623145       -16.9566
  21   2.0000      -0.603103       -16.4113
  22   2.0000      -0.581253       -15.8167
  23   2.0000      -0.559267       -15.2184
  24   2.0000      -0.547788       -14.9061
  25   2.0000      -0.516328       -14.0500
  26   2.0000      -0.473979       -12.8976
  27   2.0000      -0.462451       -12.5839
  28   2.0000      -0.431056       -11.7296
  29   2.0000      -0.339303        -9.2329
  30   0.0000       0.117132         3.1873
  31   0.0000       0.126660         3.4466
  32   0.0000       0.143076         3.8933
  33   0.0000       0.163220         4.4414
  34   0.0000       0.172715         4.6998

MULLIKEN ATOMIC CHARGES
-----------------------
   0 O :   -0.463129
   1 C :    0.122168
   2 C :   -0.215016
   3 C :    0.200728
   4 O :   -0.319142
   5 N :   -0.271031
   6 C :   -0.023359
   7 C :   -0.275231
   8 H :    0.310936
   9 H :    0.115482
  10 H :    0.154741
  11 H :    0.122303
  12 H :    0.247264
  13 H :    0.146993
  14 H :    0.146291
Sum of atomic charges:   -0.0000000

LOEWDIN ATOMIC CHARGES
----------------------
   0 O :   -0.016162
   1 C :   -0.332873
   2 C :   -0.199701
   3 C :   -0.424980
   4 O :    0.104091
   5 N :    0.142614
   6 C :   -0.211325
   7 C :   -0.194643
   8 H :    0.173954
   9 H :    0.154083
  10 H :    0.155087
  11 H :    0.158740
  12 H :    0.196843
  13 H :    0.144638
  14 H :    0.149634

  Mayer bond orders larger than 0.1
B(  0-O ,  1-C ) :   0.8978 B(  0-O ,  8-H ) :   0.8406 B(  1-C ,  2-C ) :   0.8966
B(  1-C ,  7-C ) :   0.9403 B(  1-C ,  9-H ) :   0.9173 B(  2-C ,  3-C ) :   0.9181
B(  2-C , 10-H ) :   0.9266 B(  2-C , 11-H ) :   0.9004 B(  3-C ,  4-O ) :   2.0060
B(  3-C ,  5-N ) :   1.0914 B(  5-N ,  6-C ) :   1.0161 B(  5-N , 12-H ) :   0.8597
B(  6-C ,  7-C ) :   1.7332 B(  6-C , 13-H ) :   0.9109 B(  7-C , 14-H ) :   0.9255

MP2 TOTAL ENERGY:     -399.191837940 Eh
FINAL SINGLE POINT ENERGY      -399.191837939950

DIPOLE MOMENT
-------------
                                X             Y             Z
Electronic contribution:     -1.54629      -2.66666       0.45181
Nuclear contribution   :      2.22106       2.69800      -1.57835
                        -----------------------------------------
Total Dipole Moment    :      0.67477       0.03134      -1.12654
                        -----------------------------------------
Magnitude (a.u.)       :      1.31354
Magnitude (Debye)      :      3.33876

                             ****ORCA TERMINATED NORMALLY****
TOTAL RUN TIME: 0 days 0 hours 10 minutes 28 seconds 769 msec
