                         Program Version 3.0.3 - RELEASE   -
|  1> ! RI-MP2 RIJK def2-TZVP def2-TZVP/C def2-TZVP/JK TIGHTSCF
|  2> % maxcore 2000
|  3> % mp2 density relaxed end
|  4> *xyz 0 1
|  5>  O       -0.2975603341     0.4207617133     0.9498778094
|  6>  C       -0.0597162141     1.1655140287     0.0303904687
|  7>  C        1.2232004523     1.9317156130    -0.0787931582
|  8>  C        1.5661907876     2.5310351778    -1.4352798247
|  9>  C        1.6776465187     1.5164296054    -2.4851108564
| 10>  N        1.7433891459     0.7063218076    -3.3060309763
| 11>  C        1.6497325810     2.6285645014     1.1815145831
| 12>  N        2.3466810933     1.4359044712     0.7238397252
| 13>  H       -0.7888580756     1.3256044984    -0.7910311651
| 14>  H        0.8035803981     3.2602411979    -1.7346671168
| 15>  H        2.5165397780     3.0666291636    -1.3589439825
| 16>  H        2.2060721728     3.5584272644     1.0963210935
| 17>  H        0.9823803065     2.5531798782     2.0350455647
| 18>  H        2.0131661395     0.6281060591     1.2513438656
| 19> *
| 20>
| 21>                          ****END OF INPUT****

CARTESIAN COORDINATES (ANGSTROEM)
---------------------------------
  O     -0.297560    0.420762    0.949878
  C     -0.059716    1.165514    0.030390
  C      1.223200    1.931716   -0.078793
  C      1.566191    2.531035   -1.435280
  C      1.677647    1.516430   -2.485111
  N      1.743389    0.706322   -3.306031
  C      1.649733    2.628565    1.181515
  N      2.346681    1.435904    0.723840
  H     -0.788858    1.325604   -0.791031
  H      0.803580    3.260241   -1.734667
  H      2.516540    3.066629   -1.358944
  H      2.206072    3.558427    1.096321
  H      0.982380    2.553180    2.035046
  H      2.013166    0.628106    1.251344

 Total Charge           Charge          ....    0
 Multiplicity           Mult            ....    1
 Number of Electrons    NEL             ....   58
 Basis Dimension        Dim             ....  284

ORBITAL ENERGIES
----------------

  NO   OCC          E(Eh)            E(eV)
   0   2.0000     -20.582407      -560.0758
   1   2.0000     -15.593857      -424.3304
   2   2.0000     -15.582062      -424.0095
   3   2.0000     -11.360797      -309.1430
   4   2.0000     -11.311946      -307.8137
   5   2.0000     -11.306063      -307.6536
   6   2.0000     -11.297049      -307.4083
   7   2.0000     -11.285269      -307.0878
   8   2.0000      -1.424495       -38.7625
   9   2.0000      -1.306366       -35.5480
  10   2.0000      -1.230451       -33.4823
  11   2.0000      -1.083503       -29.4836
  12   2.0000      -0.948460       -25.8089
  13   2.0000      -0.911867       -24.8132
  14   2.0000      -0.800941       -21.7947
  15   2.0000      -0.753274       -20.4976
  16   2.0000      -0.709615       -19.3096
  17   2.0000      -0.690542       -18.7906
  18   2.0000      -0.659648       -17.9499
  19   2.0000      -0.634418       -17.2634
  20   2.0000      -0.600455       -16.3392
  21   2.0000      -0.570780       -15.5317
  22   2.0000      -0.561492       -15.2790
  23   2.0000      -0.531801       -14.4710
  24   2.0000      -0.505839       -13.7646
  25   2.0000      -0.478778       -13.0282
  26   2.0000      -0.471012       -12.8169
  27   2.0000      -0.449789       -12.2394
  28   2.0000      -0.423506       -11.5242
  29   0.0000       0.093468         2.5434
  30   0.0000       0.116068         3.1584
  31   0.0000       0.149582         4.0703
  32   0.0000       0.155097         4.2204
  33   0.0000       0.164545         4.4775

MULLIKEN ATOMIC CHARGES
-----------------------
   0 O :   -0.281603
   1 C :    0.098887
   2 C :    0.115606
   3 C :   -0.129178
   4 C :   -0.196794
   5 N :   -0.049607
   6 C :   -0.168955
   7 N :   -0.364555
   8 H :    0.104600
   9 H :    0.169663
  10 H :    0.169968
  11 H :    0.134634
  12 H :    0.154394
  13 H :    0.242940
Sum of atomic charges:   -0.0000000

LOEWDIN ATOMIC CHARGES
----------------------
   0 O :    0.140356
   1 C :   -0.254258
   2 C :   -0.307781
   3 C :   -0.202790
   4 C :   -0.184891
   5 N :    0.068022
   6 C :   -0.219500
   7 N :    0.040958
   8 H :    0.126365
   9 H :    0.170991
  10 H :    0.176996
  11 H :    0.131234
  12 H :    0.133482
  13 H :    0.180816

  Mayer bond orders larger than 0.1
B(  0-O ,  1-C ) :   1.9232 B(  1-C ,  2-C ) :   0.8969 B(  1-C ,  8-H ) :   0.9407
B(  2-C ,  3-C ) :   0.8623 B(  2-C ,  6-C ) :   0.8908 B(  2-C ,  7-N ) :   0.9250
B(  3-C ,  4-C ) :   0.9417 B(  3-C ,  9-H ) :   0.9150 B(  3-C , 10-H ) :   0.9015
B(  4-C ,  5-N ) :   2.8565 B(  6-C ,  7-N ) :   0.9309 B(  6-C , 11-H ) :   0.9156
B(  6-C , 12-H ) :   0.9066 B(  7-N , 13-H ) :   0.8562

MP2 TOTAL ENERGY:     -378.080402816 Eh
FINAL SINGLE POINT ENERGY      -378.080402815697

DIPOLE MOMENT
-------------
                                X             Y             Z
Electronic contribution:     -0.74273      -3.22509      -2.46272
Nuclear contribution   :      0.43904       4.86056       3.23751
                        -----------------------------------------
Total Dipole Moment    :     -0.30369       1.63547       0.77479
                        -----------------------------------------
Magnitude (a.u.)       :      1.83502
Magnitude (Debye)      :      4.66424

                             ****ORCA TERMINATED NORMALLY****
TOTAL RUN TIME: 0 days 0 hours 10 minutes 0 seconds 5 msec
