                         Program Version 3.0.3 - RELEASE   -
|  1> ! RI-MP2 RIJK def2-TZVP def2-TZVP/C def2-TZVP/JK TIGHTSCF
|  2> % maxcore 2000
|  3> % mp2 density relaxed end
|  4> *xyz 0 1
|  5>  O       -0.0735783328     0.0245225295    -0.3356305563
|  6>  C       -0.0448085668     1.2242440178    -0.1619331870
|  7>  C       -1.2736057841     2.1260865709     0.0048998362
|  8>  C       -0.7132080669     3.5465309178     0.1952444455
|  9>  C        0.7792670824     3.3568764653     0.1243897756
| 10>  C        1.1691409850     2.0850314038    -0.0719244943
| 11>  C        2.5535623036     1.5918062905    -0.1838075858
| 12>  C        2.9737610521     0.2369833381     0.3643933725
| 13>  C        2.9307767909     0.4523979351    -1.1176598930
| 14>  H       -1.9129957275     2.0291496712    -0.8775050693
| 15>  H       -1.8626063648     1.7767139916     0.8580552296
| 16>  H       -1.0606236536     4.2428177546    -0.5782379831
| 17>  H       -1.0104268691     3.9909853390     1.1533193836
| 18>  H        1.4626925772     4.1946578850     0.2264370170
| 19>  H        3.2981186716     2.3774209929    -0.0912163962
| 20>  H        3.9368084349     0.1872964727     0.8603580499
| 21>  H        2.2002192211    -0.3881179879     0.7911399671
| 22>  H        2.1291403816    -0.0318596095    -1.6599711118
| 23>  H        3.8636884052     0.5537976120    -1.6610793501
| 24> *
| 25>
| 26>                          ****END OF INPUT****

CARTESIAN COORDINATES (ANGSTROEM)
---------------------------------
  O     -0.073578    0.024523   -0.335631
  C     -0.044809    1.224244   -0.161933
  C     -1.273606    2.126087    0.004900
  C     -0.713208    3.546531    0.195244
  C      0.779267    3.356876    0.124390
  C      1.169141    2.085031   -0.071924
  C      2.553562    1.591806   -0.183808
  C      2.973761    0.236983    0.364393
  C      2.930777    0.452398   -1.117660
  H     -1.912996    2.029150   -0.877505
  H     -1.862606    1.776714    0.858055
  H     -1.060624    4.242818   -0.578238
  H     -1.010427    3.990985    1.153319
  H      1.462693    4.194658    0.226437
  H      3.298119    2.377421   -0.091216
  H      3.936808    0.187296    0.860358
  H      2.200219   -0.388118    0.791140
  H      2.129140   -0.031860   -1.659971
  H      3.863688    0.553798   -1.661079

 Total Charge           Charge          ....    0
 Multiplicity           Mult            ....    1
 Number of Electrons    NEL             ....   66
 Basis Dimension        Dim             ....  339

ORBITAL ENERGIES
----------------

  NO   OCC          E(Eh)            E(eV)
   0   2.0000     -20.535636      -558.8031
   1   2.0000     -11.326536      -308.2107
   2   2.0000     -11.254693      -306.2558
   3   2.0000     -11.244823      -305.9872
   4   2.0000     -11.243247      -305.9443
   5   2.0000     -11.237789      -305.7958
   6   2.0000     -11.237164      -305.7788
   7   2.0000     -11.221432      -305.3507
   8   2.0000     -11.220742      -305.3319
   9   2.0000      -1.379587       -37.5405
  10   2.0000      -1.160261       -31.5723
  11   2.0000      -1.124677       -30.6040
  12   2.0000      -0.999136       -27.1879
  13   2.0000      -0.933705       -25.4074
  14   2.0000      -0.832166       -22.6444
  15   2.0000      -0.815989       -22.2042
  16   2.0000      -0.793885       -21.6027
  17   2.0000      -0.708184       -19.2707
  18   2.0000      -0.678671       -18.4676
  19   2.0000      -0.646981       -17.6053
  20   2.0000      -0.644741       -17.5443
  21   2.0000      -0.602706       -16.4005
  22   2.0000      -0.588274       -16.0077
  23   2.0000      -0.565350       -15.3840
  24   2.0000      -0.546654       -14.8752
  25   2.0000      -0.521539       -14.1918
  26   2.0000      -0.515970       -14.0403
  27   2.0000      -0.514035       -13.9876
  28   2.0000      -0.496977       -13.5234
  29   2.0000      -0.451095       -12.2749
  30   2.0000      -0.423614       -11.5271
  31   2.0000      -0.399137       -10.8611
  32   2.0000      -0.341681        -9.2976
  33   0.0000       0.100905         2.7458
  34   0.0000       0.134845         3.6693
  35   0.0000       0.155091         4.2202
  36   0.0000       0.167380         4.5546
  37   0.0000       0.172091         4.6828

MULLIKEN ATOMIC CHARGES
-----------------------
   0 O :   -0.317286
   1 C :    0.202671
   2 C :   -0.236961
   3 C :   -0.141041
   4 C :   -0.229689
   5 C :   -0.054707
   6 C :   -0.035896
   7 C :   -0.269287
   8 C :   -0.269277
   9 H :    0.139612
  10 H :    0.139610
  11 H :    0.126160
  12 H :    0.126160
  13 H :    0.135651
  14 H :    0.115223
  15 H :    0.129555
  16 H :    0.154970
  17 H :    0.154981
  18 H :    0.129552
Sum of atomic charges:   -0.0000000

LOEWDIN ATOMIC CHARGES
----------------------
   0 O :    0.135265
   1 C :   -0.282914
   2 C :   -0.208125
   3 C :   -0.239267
   4 C :   -0.086696
   5 C :   -0.128348
   6 C :   -0.183908
   7 C :   -0.214270
   8 C :   -0.214271
   9 H :    0.150798
  10 H :    0.150800
  11 H :    0.143137
  12 H :    0.143136
  13 H :    0.140825
  14 H :    0.153971
  15 H :    0.130023
  16 H :    0.139909
  17 H :    0.139910
  18 H :    0.130024

  Mayer bond orders larger than 0.1
B(  0-O ,  1-C ) :   1.9337 B(  1-C ,  2-C ) :   0.9510 B(  1-C ,  5-C ) :   0.8816
B(  2-C ,  3-C ) :   0.9595 B(  2-C ,  9-H ) :   0.9140 B(  2-C , 10-H ) :   0.9140
B(  3-C ,  4-C ) :   0.9657 B(  3-C , 11-H ) :   0.9101 B(  3-C , 12-H ) :   0.9101
B(  4-C ,  5-C ) :   1.6028 B(  4-C , 13-H ) :   0.9124 B(  5-C ,  6-C ) :   0.9555
B(  6-C ,  7-C ) :   0.8298 B(  6-C ,  8-C ) :   0.8298 B(  6-C , 14-H ) :   0.9413
B(  7-C ,  8-C ) :   0.9067 B(  7-C , 15-H ) :   0.9280 B(  7-C , 16-H ) :   0.9314
B(  8-C , 17-H ) :   0.9314 B(  8-C , 18-H ) :   0.9280

MP2 TOTAL ENERGY:     -385.230490385 Eh
FINAL SINGLE POINT ENERGY      -385.230490385240

DIPOLE MOMENT
-------------
                                X             Y             Z
Electronic contribution:     -1.74585      -1.60880      -0.18368
Nuclear contribution   :      1.85743       2.75826       0.34767
                        -----------------------------------------
Total Dipole Moment    :      0.11158       1.14946       0.16399
                        -----------------------------------------
Magnitude (a.u.)       :      1.16645
Magnitude (Debye)      :      2.96488

                             ****ORCA TERMINATED NORMALLY****
TOTAL RUN TIME: 0 days 0 hours 17 minutes 19 seconds 420 msec
