                         Program Version 3.0.3 - RELEASE   -
|  1> ! RI-MP2 RIJK def2-TZVP def2-TZVP/C def2-TZVP/JK TIGHTSCF
|  2> % maxcore 2000
|  3> % mp2 density relaxed end
|  4> *xyz 0 1
|  5>  C        0.0784879983     1.6096576261    -0.1990288293
|  6>  C        0.0273889836     0.0992991174     0.0113856949
|  7>  N        0.6425868866    -0.6259315227    -1.1114556429
|  8>  C        1.4369336552    -1.4701645968    -0.6103456051
|  9>  O        1.5976490848    -1.5386660373     0.7371226617
| 10>  C        0.7848583675    -0.4630117411     1.2892704985
| 11>  C        1.7212720571     0.5038217860     2.0160069624
| 12>  C       -0.1648187128    -1.0609152259     2.2382814392
| 13>  N       -0.9340719990    -1.4910994779     2.9853653674
| 14>  H        1.1044765823     1.9709348797    -0.3043687871
| 15>  H       -0.4570426100     1.8523725834    -1.1197675150
| 16>  H       -0.4019117913     2.1423519527     0.6268275656
| 17>  H       -1.0235308193    -0.2046127932     0.0677914539
| 18>  H        2.0398087888    -2.1825926506    -1.1619943807
| 19>  H        2.4432814378     0.9204762496     1.3106740980
| 20>  H        1.1588459671     1.3199170931     2.4752455090
| 21>  H        2.2641380833    -0.0297178626     2.7990585495
| 22> *
| 23>
| 24>                          ****END OF INPUT****

CARTESIAN COORDINATES (ANGSTROEM)
---------------------------------
  C      0.078488    1.609658   -0.199029
  C      0.027389    0.099299    0.011386
  N      0.642587   -0.625932   -1.111456
  C      1.436934   -1.470165   -0.610346
  O      1.597649   -1.538666    0.737123
  C      0.784858   -0.463012    1.289270
  C      1.721272    0.503822    2.016007
  C     -0.164819   -1.060915    2.238281
  N     -0.934072   -1.491099    2.985365
  H      1.104477    1.970935   -0.304369
  H     -0.457043    1.852373   -1.119768
  H     -0.401912    2.142352    0.626828
  H     -1.023531   -0.204613    0.067791
  H      2.039809   -2.182593   -1.161994
  H      2.443281    0.920476    1.310674
  H      1.158846    1.319917    2.475246
  H      2.264138   -0.029718    2.799059

 Total Charge           Charge          ....    0
 Multiplicity           Mult            ....    1
 Number of Electrons    NEL             ....   66
 Basis Dimension        Dim             ....  327

ORBITAL ENERGIES
----------------

  NO   OCC          E(Eh)            E(eV)
   0   2.0000     -20.622635      -561.1704
   1   2.0000     -15.584950      -424.0880
   2   2.0000     -15.568897      -423.6512
   3   2.0000     -11.361120      -309.1518
   4   2.0000     -11.351793      -308.8980
   5   2.0000     -11.296155      -307.3840
   6   2.0000     -11.282118      -307.0020
   7   2.0000     -11.254788      -306.2583
   8   2.0000     -11.238003      -305.8016
   9   2.0000      -1.465566       -39.8801
  10   2.0000      -1.239937       -33.7404
  11   2.0000      -1.230995       -33.4971
  12   2.0000      -1.111751       -30.2523
  13   2.0000      -1.014920       -27.6174
  14   2.0000      -0.946058       -25.7436
  15   2.0000      -0.855919       -23.2907
  16   2.0000      -0.830188       -22.5906
  17   2.0000      -0.753144       -20.4941
  18   2.0000      -0.702839       -19.1252
  19   2.0000      -0.669110       -18.2074
  20   2.0000      -0.626872       -17.0581
  21   2.0000      -0.620349       -16.8806
  22   2.0000      -0.593732       -16.1563
  23   2.0000      -0.574507       -15.6331
  24   2.0000      -0.565701       -15.3935
  25   2.0000      -0.557921       -15.1818
  26   2.0000      -0.553191       -15.0531
  27   2.0000      -0.539926       -14.6921
  28   2.0000      -0.517209       -14.0740
  29   2.0000      -0.488388       -13.2897
  30   2.0000      -0.476829       -12.9752
  31   2.0000      -0.442875       -12.0512
  32   2.0000      -0.407236       -11.0815
  33   0.0000       0.117565         3.1991
  34   0.0000       0.142676         3.8824
  35   0.0000       0.149623         4.0715
  36   0.0000       0.165605         4.5064
  37   0.0000       0.171854         4.6764

MULLIKEN ATOMIC CHARGES
-----------------------
   0 C :   -0.391269
   1 C :   -0.008422
   2 N :   -0.260996
   3 C :    0.093529
   4 O :   -0.264897
   5 C :    0.316513
   6 C :   -0.405007
   7 C :   -0.210216
   8 N :   -0.045698
   9 H :    0.126094
  10 H :    0.156662
  11 H :    0.137609
  12 H :    0.136000
  13 H :    0.155654
  14 H :    0.152230
  15 H :    0.147533
  16 H :    0.164683
Sum of atomic charges:   -0.0000000

LOEWDIN ATOMIC CHARGES
----------------------
   0 C :   -0.283262
   1 C :   -0.244802
   2 N :    0.096319
   3 C :   -0.333640
   4 O :    0.262746
   5 C :   -0.290230
   6 C :   -0.243289
   7 C :   -0.146498
   8 N :    0.081607
   9 H :    0.126178
  10 H :    0.135491
  11 H :    0.128316
  12 H :    0.160128
  13 H :    0.138492
  14 H :    0.135156
  15 H :    0.137785
  16 H :    0.139502

  Mayer bond orders larger than 0.1
B(  0-C ,  1-C ) :   0.9241 B(  0-C ,  9-H ) :   0.9244 B(  0-C , 10-H ) :   0.9312
B(  0-C , 11-H ) :   0.9391 B(  1-C ,  2-N ) :   0.9027 B(  1-C ,  5-C ) :   0.8529
B(  1-C , 12-H ) :   0.9279 B(  2-N ,  3-C ) :   1.8260 B(  3-C ,  4-O ) :   1.0571
B(  3-C , 13-H ) :   0.9190 B(  4-O ,  5-C ) :   0.8283 B(  5-C ,  6-C ) :   0.9061
B(  5-C ,  7-C ) :   0.9132 B(  6-C , 14-H ) :   0.9350 B(  6-C , 15-H ) :   0.9222
B(  6-C , 16-H ) :   0.9240 B(  7-C ,  8-N ) :   2.8546

MP2 TOTAL ENERGY:     -417.331297830 Eh
FINAL SINGLE POINT ENERGY      -417.331297830285

DIPOLE MOMENT
-------------
                                X             Y             Z
Electronic contribution:     -1.29152      -8.03107       1.23702
Nuclear contribution   :      2.14036       8.90445      -1.62816
                        -----------------------------------------
Total Dipole Moment    :      0.84883       0.87339      -0.39114
                        -----------------------------------------
Magnitude (a.u.)       :      1.27919
Magnitude (Debye)      :      3.25143

                             ****ORCA TERMINATED NORMALLY****
TOTAL RUN TIME: 0 days 0 hours 17 minutes 40 seconds 675 msec
