                         Program Version 3.0.3 - RELEASE   -
|  1> ! RI-MP2 RIJK def2-TZVP def2-TZVP/C def2-TZVP/JK TIGHTSCF
|  2> % maxcore 2000
|  3> % mp2 density relaxed end
|  4> *xyz 0 1
|  5>  C       -0.1511186848    -1.2421201088    -0.2278333417
|  6>  C       -0.0782544522    -0.0475180938    -0.1038708729
|  7>  C        0.0074095682     1.3963414130     0.0475140634
|  8>  C       -0.6145880130     1.9556662972     1.3845725664
|  9>  C        0.5231489674     2.8230734516     1.9667530643
| 10>  C        1.6248436300     1.8860277246     2.5120449618
| 11>  C        2.2587653424     1.2916526038     1.2123345434
| 12>  C        1.4565760429     1.9767743339     0.0848074712
| 13>  C        1.1886679245     3.3714393859     0.6857767456
| 14>  H       -0.2188345370    -2.2955942761    -0.3405978429
| 15>  H       -0.5130445977     1.8539321888    -0.8022459017
| 16>  H       -1.5054965403     2.5518523586     1.1680275287
| 17>  H       -0.9113281839     1.1504007626     2.0605126797
| 18>  H        0.1774019515     3.5669807541     2.6873253608
| 19>  H        2.3631854004     2.4507995374     3.0894916668
| 20>  H        1.2165031270     1.1151373491     3.1721239191
| 21>  H        3.3190248083     1.5496743537     1.1349343689
| 22>  H        2.1815115999     0.2033975438     1.1615563773
| 23>  H        1.9453154597     1.9479083789    -0.8903898876
| 24>  H        0.5192134832     3.9871597049     0.0760573071
| 25>  H        2.1057691834     3.9357763769     0.8813443723
| 26> *
| 27>
| 28>                          ****END OF INPUT****

CARTESIAN COORDINATES (ANGSTROEM)
---------------------------------
  C     -0.151119   -1.242120   -0.227833
  C     -0.078254   -0.047518   -0.103871
  C      0.007410    1.396341    0.047514
  C     -0.614588    1.955666    1.384573
  C      0.523149    2.823073    1.966753
  C      1.624844    1.886028    2.512045
  C      2.258765    1.291653    1.212335
  C      1.456576    1.976774    0.084807
  C      1.188668    3.371439    0.685777
  H     -0.218835   -2.295594   -0.340598
  H     -0.513045    1.853932   -0.802246
  H     -1.505497    2.551852    1.168028
  H     -0.911328    1.150401    2.060513
  H      0.177402    3.566981    2.687325
  H      2.363185    2.450800    3.089492
  H      1.216503    1.115137    3.172124
  H      3.319025    1.549674    1.134934
  H      2.181512    0.203398    1.161556
  H      1.945315    1.947908   -0.890390
  H      0.519213    3.987160    0.076057
  H      2.105769    3.935776    0.881344

 Total Charge           Charge          ....    0
 Multiplicity           Mult            ....    1
 Number of Electrons    NEL             ....   66
 Basis Dimension        Dim             ....  351

ORBITAL ENERGIES
----------------

  NO   OCC          E(Eh)            E(eV)
   0   2.0000     -11.249259      -306.1079
   1   2.0000     -11.229905      -305.5812
   2   2.0000     -11.227262      -305.5093
   3   2.0000     -11.225154      -305.4520
   4   2.0000     -11.223844      -305.4163
   5   2.0000     -11.218492      -305.2707
   6   2.0000     -11.215613      -305.1924
   7   2.0000     -11.213932      -305.1466
   8   2.0000     -11.213639      -305.1386
   9   2.0000      -1.170096       -31.8399
  10   2.0000      -1.049322       -28.5535
  11   2.0000      -0.993562       -27.0362
  12   2.0000      -0.977379       -26.5958
  13   2.0000      -0.943491       -25.6737
  14   2.0000      -0.842317       -22.9206
  15   2.0000      -0.767218       -20.8771
  16   2.0000      -0.748342       -20.3634
  17   2.0000      -0.705649       -19.2017
  18   2.0000      -0.684465       -18.6252
  19   2.0000      -0.655198       -17.8288
  20   2.0000      -0.636807       -17.3284
  21   2.0000      -0.564538       -15.3619
  22   2.0000      -0.551885       -15.0175
  23   2.0000      -0.534520       -14.5450
  24   2.0000      -0.509042       -13.8517
  25   2.0000      -0.491139       -13.3646
  26   2.0000      -0.485188       -13.2026
  27   2.0000      -0.475567       -12.9408
  28   2.0000      -0.457591       -12.4517
  29   2.0000      -0.441177       -12.0050
  30   2.0000      -0.433462       -11.7951
  31   2.0000      -0.376331       -10.2405
  32   2.0000      -0.372105       -10.1255
  33   0.0000       0.128369         3.4931
  34   0.0000       0.160773         4.3749
  35   0.0000       0.164203         4.4682
  36   0.0000       0.168622         4.5884
  37   0.0000       0.181508         4.9391

MULLIKEN ATOMIC CHARGES
-----------------------
   0 C :   -0.168926
   1 C :   -0.040473
   2 C :   -0.227051
   3 C :   -0.256299
   4 C :   -0.009111
   5 C :   -0.272552
   6 C :   -0.294413
   7 C :    0.030026
   8 C :   -0.268326
   9 H :    0.186014
  10 H :    0.117295
  11 H :    0.124121
  12 H :    0.125184
  13 H :    0.116111
  14 H :    0.117155
  15 H :    0.114269
  16 H :    0.118425
  17 H :    0.132855
  18 H :    0.121552
  19 H :    0.114089
  20 H :    0.120053
Sum of atomic charges:    0.0000000

LOEWDIN ATOMIC CHARGES
----------------------
   0 C :   -0.109199
   1 C :   -0.092628
   2 C :   -0.201734
   3 C :   -0.183095
   4 C :   -0.235259
   5 C :   -0.225251
   6 C :   -0.220628
   7 C :   -0.200327
   8 C :   -0.207315
   9 H :    0.125288
  10 H :    0.169488
  11 H :    0.135744
  12 H :    0.140560
  13 H :    0.141373
  14 H :    0.133422
  15 H :    0.133805
  16 H :    0.134377
  17 H :    0.140259
  18 H :    0.145062
  19 H :    0.137341
  20 H :    0.138716

  Mayer bond orders larger than 0.1
B(  0-C ,  1-C ) :   2.5955 B(  0-C ,  2-C ) :  -0.1061 B(  0-C ,  9-H ) :   0.8925
B(  1-C ,  2-C ) :   1.1590 B(  2-C ,  3-C ) :   0.9105 B(  2-C ,  7-C ) :   0.8885
B(  2-C , 10-H ) :   0.9094 B(  3-C ,  4-C ) :   0.9165 B(  3-C , 11-H ) :   0.9234
B(  3-C , 12-H ) :   0.9287 B(  4-C ,  5-C ) :   0.9098 B(  4-C ,  8-C ) :   0.9359
B(  4-C , 13-H ) :   0.9212 B(  5-C ,  6-C ) :   0.9719 B(  5-C , 14-H ) :   0.9250
B(  5-C , 15-H ) :   0.9259 B(  6-C ,  7-C ) :   0.9088 B(  6-C , 16-H ) :   0.9264
B(  6-C , 17-H ) :   0.9237 B(  7-C ,  8-C ) :   0.9090 B(  7-C , 18-H ) :   0.9171
B(  8-C , 19-H ) :   0.9188 B(  8-C , 20-H ) :   0.9224

MP2 TOTAL ENERGY:     -349.302070286 Eh
FINAL SINGLE POINT ENERGY      -349.302070286388

DIPOLE MOMENT
-------------
                                X             Y             Z
Electronic contribution:     -1.94372      -3.19145      -2.70715
Nuclear contribution   :      2.01824       3.48950       2.79736
                        -----------------------------------------
Total Dipole Moment    :      0.07452       0.29805       0.09021
                        -----------------------------------------
Magnitude (a.u.)       :      0.32020
Magnitude (Debye)      :      0.81387

                             ****ORCA TERMINATED NORMALLY****
TOTAL RUN TIME: 0 days 0 hours 22 minutes 24 seconds 925 msec
