                         Program Version 3.0.3 - RELEASE   -
|  1> ! RI-MP2 RIJK def2-TZVP def2-TZVP/C def2-TZVP/JK TIGHTSCF
|  2> % maxcore 2000
|  3> % mp2 density relaxed end
|  4> *xyz 0 1
|  5>  C        0.1110078712     1.4956018638    -0.1194430545
|  6>  C       -0.0094796820    -0.0230727346     0.0444709684
|  7>  C        0.6599393397    -0.5030212835     1.3492737679
|  8>  C       -1.4787713670    -0.4585807101     0.0732891771
|  9>  O       -2.3255670278     0.2097063349     0.6218122385
| 10>  C       -1.8077302226    -1.7843205549    -0.6006187774
| 11>  C       -3.2364166750    -2.2648300307    -0.3596283564
| 12>  C       -3.5475736075    -3.5630882550    -1.0913469058
| 13>  O       -4.8895550046    -3.9171829371    -0.7972898896
| 14>  H        1.1588252777     1.8072709685    -0.0696369769
| 15>  H       -0.2972638848     1.8270105345    -1.0792353147
| 16>  H       -0.4457487511     2.0036798478     0.6717087610
| 17>  H        0.4830074915    -0.5273752022    -0.7966255237
| 18>  H        0.1852576758    -0.0303423742     2.2147327406
| 19>  H        0.5863142611    -1.5884476289     1.4730907223
| 20>  H        1.7213423398    -0.2369988124     1.3519754885
| 21>  H       -1.6124837537    -1.6502199297    -1.6760045336
| 22>  H       -1.0691365340    -2.5305349690    -0.2746152366
| 23>  H       -3.4058099708    -2.4100863457     0.7123437196
| 24>  H       -3.9442250781    -1.4932116280    -0.6766443241
| 25>  H       -3.3995804452    -3.4252317301    -2.1759474955
| 26>  H       -2.8475576330    -4.3527109988    -0.7691569170
| 27>  H       -5.0923629296    -4.7378719547    -1.2553250982
| 28> *
| 29>
| 30>                          ****END OF INPUT****

CARTESIAN COORDINATES (ANGSTROEM)
---------------------------------
  C      0.111008    1.495602   -0.119443
  C     -0.009480   -0.023073    0.044471
  C      0.659939   -0.503021    1.349274
  C     -1.478771   -0.458581    0.073289
  O     -2.325567    0.209706    0.621812
  C     -1.807730   -1.784321   -0.600619
  C     -3.236417   -2.264830   -0.359628
  C     -3.547574   -3.563088   -1.091347
  O     -4.889555   -3.917183   -0.797290
  H      1.158825    1.807271   -0.069637
  H     -0.297264    1.827011   -1.079235
  H     -0.445749    2.003680    0.671709
  H      0.483007   -0.527375   -0.796626
  H      0.185258   -0.030342    2.214733
  H      0.586314   -1.588448    1.473091
  H      1.721342   -0.236999    1.351975
  H     -1.612484   -1.650220   -1.676005
  H     -1.069137   -2.530535   -0.274615
  H     -3.405810   -2.410086    0.712344
  H     -3.944225   -1.493212   -0.676644
  H     -3.399580   -3.425232   -2.175947
  H     -2.847558   -4.352711   -0.769157
  H     -5.092363   -4.737872   -1.255325

 Total Charge           Charge          ....    0
 Multiplicity           Mult            ....    1
 Number of Electrons    NEL             ....   72
 Basis Dimension        Dim             ....  363

ORBITAL ENERGIES
----------------

  NO   OCC          E(Eh)            E(eV)
   0   2.0000     -20.555703      -559.3491
   1   2.0000     -20.539938      -558.9201
   2   2.0000     -11.324006      -308.1419
   3   2.0000     -11.277827      -306.8853
   4   2.0000     -11.242724      -305.9301
   5   2.0000     -11.240184      -305.8610
   6   2.0000     -11.228079      -305.5316
   7   2.0000     -11.219415      -305.2958
   8   2.0000     -11.216607      -305.2194
   9   2.0000      -1.385169       -37.6924
  10   2.0000      -1.359961       -37.0064
  11   2.0000      -1.089601       -29.6495
  12   2.0000      -1.063458       -28.9382
  13   2.0000      -0.956981       -26.0408
  14   2.0000      -0.936987       -25.4967
  15   2.0000      -0.856513       -23.3069
  16   2.0000      -0.804439       -21.8899
  17   2.0000      -0.725419       -19.7397
  18   2.0000      -0.694356       -18.8944
  19   2.0000      -0.670814       -18.2538
  20   2.0000      -0.661615       -18.0035
  21   2.0000      -0.623951       -16.9786
  22   2.0000      -0.612347       -16.6628
  23   2.0000      -0.601676       -16.3724
  24   2.0000      -0.566495       -15.4151
  25   2.0000      -0.557506       -15.1705
  26   2.0000      -0.549681       -14.9576
  27   2.0000      -0.539089       -14.6694
  28   2.0000      -0.513007       -13.9596
  29   2.0000      -0.505504       -13.7555
  30   2.0000      -0.491747       -13.3811
  31   2.0000      -0.485869       -13.2212
  32   2.0000      -0.480800       -13.0832
  33   2.0000      -0.473293       -12.8789
  34   2.0000      -0.444198       -12.0872
  35   2.0000      -0.399573       -10.8729
  36   0.0000       0.120201         3.2708
  37   0.0000       0.137909         3.7527
  38   0.0000       0.145768         3.9666
  39   0.0000       0.160400         4.3647
  40   0.0000       0.164748         4.4830

MULLIKEN ATOMIC CHARGES
-----------------------
   0 C :   -0.396399
   1 C :   -0.018278
   2 C :   -0.425213
   3 C :    0.210299
   4 O :   -0.294393
   5 C :   -0.333335
   6 C :   -0.145750
   7 C :   -0.058486
   8 O :   -0.461632
   9 H :    0.130697
  10 H :    0.128683
  11 H :    0.147859
  12 H :    0.096299
  13 H :    0.145372
  14 H :    0.129359
  15 H :    0.137283
  16 H :    0.135590
  17 H :    0.134707
  18 H :    0.118644
  19 H :    0.127809
  20 H :    0.088958
  21 H :    0.087580
  22 H :    0.314348
Sum of atomic charges:    0.0000000

LOEWDIN ATOMIC CHARGES
----------------------
   0 C :   -0.288491
   1 C :   -0.279645
   2 C :   -0.283019
   3 C :   -0.302292
   4 O :    0.160507
   5 C :   -0.243744
   6 C :   -0.263323
   7 C :   -0.355910
   8 O :   -0.049721
   9 H :    0.123284
  10 H :    0.124731
  11 H :    0.131302
  12 H :    0.152973
  13 H :    0.130658
  14 H :    0.122207
  15 H :    0.125599
  16 H :    0.154458
  17 H :    0.150664
  18 H :    0.145399
  19 H :    0.147210
  20 H :    0.112982
  21 H :    0.112620
  22 H :    0.171553

  Mayer bond orders larger than 0.1
B(  0-C ,  1-C ) :   0.9134 B(  0-C ,  9-H ) :   0.9393 B(  0-C , 10-H ) :   0.9375
B(  0-C , 11-H ) :   0.9286 B(  1-C ,  2-C ) :   0.8933 B(  1-C ,  3-C ) :   0.8909
B(  1-C , 12-H ) :   0.9295 B(  2-C , 13-H ) :   0.9345 B(  2-C , 14-H ) :   0.9319
B(  2-C , 15-H ) :   0.9372 B(  3-C ,  4-O ) :   1.9815 B(  3-C ,  5-C ) :   0.9272
B(  5-C ,  6-C ) :   0.9293 B(  5-C , 16-H ) :   0.8971 B(  5-C , 17-H ) :   0.9032
B(  6-C ,  7-C ) :   0.9273 B(  6-C , 18-H ) :   0.9257 B(  6-C , 19-H ) :   0.9265
B(  7-C ,  8-O ) :   1.0308 B(  7-C , 20-H ) :   0.9313 B(  7-C , 21-H ) :   0.9297
B(  8-O , 22-H ) :   0.8496

MP2 TOTAL ENERGY:     -424.743611213 Eh
FINAL SINGLE POINT ENERGY      -424.743611213252

DIPOLE MOMENT
-------------
                                X             Y             Z
Electronic contribution:     -6.76552      -0.92058       0.06712
Nuclear contribution   :      7.83624       0.06276      -0.82833
                        -----------------------------------------
Total Dipole Moment    :      1.07072      -0.85781      -0.76122
                        -----------------------------------------
Magnitude (a.u.)       :      1.56899
Magnitude (Debye)      :      3.98805

                             ****ORCA TERMINATED NORMALLY****
TOTAL RUN TIME: 0 days 0 hours 18 minutes 13 seconds 346 msec
