                         Program Version 3.0.3 - RELEASE   -
|  1> ! RI-MP2 RIJK def2-TZVP def2-TZVP/C def2-TZVP/JK TIGHTSCF
|  2> % maxcore 2000
|  3> % mp2 density relaxed end
|  4> *xyz 0 1
|  5>  C        0.0946052326     1.4393258012    -0.0812110128
|  6>  C       -0.0631392666    -0.0363332505     0.0018945814
|  7>  C       -1.1523683620    -0.8410580704     0.2150932148
|  8>  C       -0.6534901655    -2.1778794836     0.1222026094
|  9>  C        0.6679636920    -2.0831417040    -0.1429978904
| 10>  C        1.3706645789    -3.3943561292    -0.0587670220
| 11>  C        0.1099454284    -4.3242968646    -0.1089543878
| 12>  N       -1.0478886321    -3.5079432733     0.3781985786
| 13>  O        1.0704707467    -0.7837321294    -0.1946117571
| 14>  H        0.8441035289     1.8040702630     0.6304209540
| 15>  H        0.4116359158     1.7596499849    -1.0810486967
| 16>  H       -0.8568477875     1.9260218414     0.1450772709
| 17>  H       -2.1587003500    -0.4983224960     0.3991837923
| 18>  H        2.0665377277    -3.6200359199    -0.8731537001
| 19>  H        1.9210149926    -3.5163885425     0.8855087232
| 20>  H       -0.0523983833    -4.6393977324    -1.1486846936
| 21>  H        0.2276232455    -5.2203053854     0.5053152351
| 22>  H       -1.9138790925    -3.7834900293    -0.0704725892
| 23> *
| 24>
| 25>                          ****END OF INPUT****

CARTESIAN COORDINATES (ANGSTROEM)
---------------------------------
  C      0.094605    1.439326   -0.081211
  C     -0.063139   -0.036333    0.001895
  C     -1.152368   -0.841058    0.215093
  C     -0.653490   -2.177879    0.122203
  C      0.667964   -2.083142   -0.142998
  C      1.370665   -3.394356   -0.058767
  C      0.109945   -4.324297   -0.108954
  N     -1.047889   -3.507943    0.378199
  O      1.070471   -0.783732   -0.194612
  H      0.844104    1.804070    0.630421
  H      0.411636    1.759650   -1.081049
  H     -0.856848    1.926022    0.145077
  H     -2.158700   -0.498322    0.399184
  H      2.066538   -3.620036   -0.873154
  H      1.921015   -3.516389    0.885509
  H     -0.052398   -4.639398   -1.148685
  H      0.227623   -5.220305    0.505315
  H     -1.913879   -3.783490   -0.070473

 Total Charge           Charge          ....    0
 Multiplicity           Mult            ....    1
 Number of Electrons    NEL             ....   66
 Basis Dimension        Dim             ....  333

ORBITAL ENERGIES
----------------

  NO   OCC          E(Eh)            E(eV)
   0   2.0000     -20.607966      -560.7713
   1   2.0000     -15.557270      -423.3349
   2   2.0000     -11.290360      -307.2263
   3   2.0000     -11.261183      -306.4324
   4   2.0000     -11.251622      -306.1722
   5   2.0000     -11.240482      -305.8691
   6   2.0000     -11.237798      -305.7960
   7   2.0000     -11.231469      -305.6238
   8   2.0000     -11.220640      -305.3291
   9   2.0000      -1.442473       -39.2517
  10   2.0000      -1.233699       -33.5707
  11   2.0000      -1.067796       -29.0562
  12   2.0000      -1.038453       -28.2577
  13   2.0000      -1.007312       -27.4104
  14   2.0000      -0.915328       -24.9073
  15   2.0000      -0.819626       -22.3032
  16   2.0000      -0.792936       -21.5769
  17   2.0000      -0.735705       -20.0196
  18   2.0000      -0.696274       -18.9466
  19   2.0000      -0.662609       -18.0305
  20   2.0000      -0.624544       -16.9947
  21   2.0000      -0.608012       -16.5448
  22   2.0000      -0.591687       -16.1006
  23   2.0000      -0.559814       -15.2333
  24   2.0000      -0.558159       -15.1883
  25   2.0000      -0.551471       -15.0063
  26   2.0000      -0.529846       -14.4179
  27   2.0000      -0.525958       -14.3120
  28   2.0000      -0.499185       -13.5835
  29   2.0000      -0.496670       -13.5151
  30   2.0000      -0.450864       -12.2686
  31   2.0000      -0.354530        -9.6472
  32   2.0000      -0.272685        -7.4201
  33   0.0000       0.138811         3.7772
  34   0.0000       0.147855         4.0233
  35   0.0000       0.150218         4.0876
  36   0.0000       0.166359         4.5269
  37   0.0000       0.184565         5.0223

MULLIKEN ATOMIC CHARGES
-----------------------
   0 C :   -0.440103
   1 C :    0.256648
   2 C :   -0.379779
   3 C :    0.147429
   4 C :    0.054258
   5 C :   -0.233974
   6 C :   -0.120671
   7 N :   -0.312177
   8 O :   -0.243826
   9 H :    0.147737
  10 H :    0.143978
  11 H :    0.144391
  12 H :    0.133500
  13 H :    0.134532
  14 H :    0.114320
  15 H :    0.106874
  16 H :    0.124669
  17 H :    0.222194
Sum of atomic charges:    0.0000000

LOEWDIN ATOMIC CHARGES
----------------------
   0 C :   -0.277889
   1 C :   -0.265407
   2 C :   -0.148313
   3 C :   -0.237570
   4 C :   -0.254315
   5 C :   -0.217447
   6 C :   -0.236849
   7 N :    0.033349
   8 O :    0.359912
   9 H :    0.133832
  10 H :    0.132866
  11 H :    0.137127
  12 H :    0.142795
  13 H :    0.138778
  14 H :    0.139467
  15 H :    0.123701
  16 H :    0.124512
  17 H :    0.171452

  Mayer bond orders larger than 0.1
B(  0-C ,  1-C ) :   0.8735 B(  0-C ,  9-H ) :   0.9378 B(  0-C , 10-H ) :   0.9263
B(  0-C , 11-H ) :   0.9530 B(  1-C ,  2-C ) :   1.5208 B(  1-C ,  8-O ) :   1.0167
B(  2-C ,  3-C ) :   1.2028 B(  2-C , 12-H ) :   0.9152 B(  3-C ,  4-C ) :   1.4898
B(  3-C ,  7-N ) :   1.0282 B(  4-C ,  5-C ) :   0.9679 B(  4-C ,  8-O ) :   1.0318
B(  5-C ,  6-C ) :   0.9586 B(  5-C , 13-H ) :   0.9285 B(  5-C , 14-H ) :   0.9007
B(  6-C ,  7-N ) :   0.9245 B(  6-C , 15-H ) :   0.9240 B(  6-C , 16-H ) :   0.9310
B(  7-N , 17-H ) :   0.8762

MP2 TOTAL ENERGY:     -401.271638755 Eh
FINAL SINGLE POINT ENERGY      -401.271638755019

DIPOLE MOMENT
-------------
                                X             Y             Z
Electronic contribution:     -0.17684      -0.08051       0.30726
Nuclear contribution   :     -0.04213      -0.08577      -0.63551
                        -----------------------------------------
Total Dipole Moment    :     -0.21896      -0.16628      -0.32825
                        -----------------------------------------
Magnitude (a.u.)       :      0.42818
Magnitude (Debye)      :      1.08836

                             ****ORCA TERMINATED NORMALLY****
TOTAL RUN TIME: 0 days 0 hours 17 minutes 30 seconds 687 msec
