                         Program Version 3.0.3 - RELEASE   -
|  1> ! RI-MP2 RIJK def2-TZVP def2-TZVP/C def2-TZVP/JK TIGHTSCF
|  2> % maxcore 2000
|  3> % mp2 density relaxed end
|  4> *xyz 0 1
|  5>  C        0.1133626669     1.4809981142     0.3430545134
|  6>  C       -0.1172321626     0.0126156853    -0.0343200129
|  7>  C        0.5580432199    -0.4362323482    -1.2905340171
|  8>  C        0.9326581550    -1.7850015719    -1.7810204540
|  9>  C        0.3513913846    -1.5181674654    -3.1685355153
| 10>  C        0.5328870642    -0.0170878993    -2.8251852383
| 11>  C        2.0655907283     0.0933234338    -2.6941815872
| 12>  C        2.6420840042     1.4639103981    -2.3954443041
| 13>  N        2.0040789132    -0.7662403801    -1.4599710160
| 14>  H        1.1743659831     1.6768460187     0.5224821978
| 15>  H       -0.2277153999     2.1554734852    -0.4495048251
| 16>  H       -0.4351978798     1.7359273947     1.2549606884
| 17>  H        0.2367353589    -0.6355485980     0.7770563679
| 18>  H       -1.1950915691    -0.1759401067    -0.1307661639
| 19>  H        0.9878176245    -2.7174899340    -1.2334724388
| 20>  H        0.8706151407    -1.8995424221    -4.0551771791
| 21>  H       -0.7010359417    -1.8125923901    -3.2031061418
| 22>  H       -0.0719315434     0.7511841808    -3.3056401443
| 23>  H        2.6355752382    -0.3779908051    -3.5065348891
| 24>  H        2.0737737248     1.9815142663    -1.6179239999
| 25>  H        3.6784410408     1.3752855787    -2.0549290872
| 26>  H        2.6297635792     2.0857208050    -3.2970717734
| 27> *
| 28>
| 29>                          ****END OF INPUT****

CARTESIAN COORDINATES (ANGSTROEM)
---------------------------------
  C      0.113363    1.480998    0.343055
  C     -0.117232    0.012616   -0.034320
  C      0.558043   -0.436232   -1.290534
  C      0.932658   -1.785002   -1.781020
  C      0.351391   -1.518167   -3.168536
  C      0.532887   -0.017088   -2.825185
  C      2.065591    0.093323   -2.694182
  C      2.642084    1.463910   -2.395444
  N      2.004079   -0.766240   -1.459971
  H      1.174366    1.676846    0.522482
  H     -0.227715    2.155473   -0.449505
  H     -0.435198    1.735927    1.254961
  H      0.236735   -0.635549    0.777056
  H     -1.195092   -0.175940   -0.130766
  H      0.987818   -2.717490   -1.233472
  H      0.870615   -1.899542   -4.055177
  H     -0.701036   -1.812592   -3.203106
  H     -0.071932    0.751184   -3.305640
  H      2.635575   -0.377991   -3.506535
  H      2.073774    1.981514   -1.617924
  H      3.678441    1.375286   -2.054929
  H      2.629764    2.085721   -3.297072

 Total Charge           Charge          ....    0
 Multiplicity           Mult            ....    1
 Number of Electrons    NEL             ....   68
 Basis Dimension        Dim             ....  357

ORBITAL ENERGIES
----------------

  NO   OCC          E(Eh)            E(eV)
   0   2.0000     -15.551568      -423.1797
   1   2.0000     -11.259360      -306.3827
   2   2.0000     -11.252636      -306.1998
   3   2.0000     -11.250871      -306.1518
   4   2.0000     -11.236946      -305.7728
   5   2.0000     -11.229321      -305.5654
   6   2.0000     -11.229212      -305.5624
   7   2.0000     -11.215405      -305.1867
   8   2.0000     -11.210098      -305.0423
   9   2.0000      -1.307644       -35.5828
  10   2.0000      -1.047319       -28.4990
  11   2.0000      -1.029754       -28.0210
  12   2.0000      -1.015884       -27.6436
  13   2.0000      -0.900124       -24.4936
  14   2.0000      -0.890775       -24.2392
  15   2.0000      -0.817671       -22.2499
  16   2.0000      -0.754188       -20.5225
  17   2.0000      -0.698950       -19.0194
  18   2.0000      -0.667850       -18.1731
  19   2.0000      -0.633392       -17.2355
  20   2.0000      -0.618992       -16.8436
  21   2.0000      -0.605436       -16.4747
  22   2.0000      -0.585944       -15.9443
  23   2.0000      -0.548383       -14.9223
  24   2.0000      -0.538803       -14.6616
  25   2.0000      -0.521085       -14.1795
  26   2.0000      -0.502630       -13.6772
  27   2.0000      -0.501177       -13.6377
  28   2.0000      -0.495128       -13.4731
  29   2.0000      -0.473256       -12.8780
  30   2.0000      -0.432711       -11.7747
  31   2.0000      -0.416281       -11.3276
  32   2.0000      -0.401824       -10.9342
  33   2.0000      -0.356640        -9.7047
  34   0.0000       0.137775         3.7490
  35   0.0000       0.151675         4.1273
  36   0.0000       0.156435         4.2568
  37   0.0000       0.179627         4.8879
  38   0.0000       0.187295         5.0966

MULLIKEN ATOMIC CHARGES
-----------------------
   0 C :   -0.417867
   1 C :   -0.207471
   2 C :    0.085240
   3 C :   -0.125780
   4 C :   -0.207865
   5 C :   -0.117607
   6 C :    0.064118
   7 C :   -0.425697
   8 N :   -0.257232
   9 H :    0.141244
  10 H :    0.126724
  11 H :    0.138685
  12 H :    0.123038
  13 H :    0.113229
  14 H :    0.125190
  15 H :    0.109327
  16 H :    0.121546
  17 H :    0.127666
  18 H :    0.090557
  19 H :    0.126201
  20 H :    0.139562
  21 H :    0.127192
Sum of atomic charges:    0.0000000

LOEWDIN ATOMIC CHARGES
----------------------
   0 C :   -0.315071
   1 C :   -0.260201
   2 C :   -0.195239
   3 C :   -0.190671
   4 C :   -0.210592
   5 C :   -0.143889
   6 C :   -0.260462
   7 C :   -0.289684
   8 N :    0.154923
   9 H :    0.123581
  10 H :    0.120103
  11 H :    0.121673
  12 H :    0.151295
  13 H :    0.145229
  14 H :    0.133789
  15 H :    0.123783
  16 H :    0.141877
  17 H :    0.131886
  18 H :    0.137120
  19 H :    0.125870
  20 H :    0.129006
  21 H :    0.125672

  Mayer bond orders larger than 0.1
B(  0-C ,  1-C ) :   0.9267 B(  0-C ,  9-H ) :   0.9366 B(  0-C , 10-H ) :   0.9391
B(  0-C , 11-H ) :   0.9370 B(  1-C ,  2-C ) :   0.8432 B(  1-C , 12-H ) :   0.9358
B(  1-C , 13-H ) :   0.9336 B(  2-C ,  3-C ) :   0.8149 B(  2-C ,  5-C ) :   0.8573
B(  2-C ,  8-N ) :   0.8091 B(  3-C ,  4-C ) :   0.9340 B(  3-C ,  8-N ) :   0.9224
B(  3-C , 14-H ) :   0.9366 B(  4-C ,  5-C ) :   0.9392 B(  4-C , 15-H ) :   0.9162
B(  4-C , 16-H ) :   0.9189 B(  5-C ,  6-C ) :   0.9015 B(  5-C , 17-H ) :   0.9144
B(  6-C ,  7-C ) :   0.9098 B(  6-C ,  8-N ) :   0.8788 B(  6-C , 18-H ) :   0.9143
B(  7-C , 19-H ) :   0.9346 B(  7-C , 20-H ) :   0.9391 B(  7-C , 21-H ) :   0.9388

MP2 TOTAL ENERGY:     -366.498281113 Eh
FINAL SINGLE POINT ENERGY      -366.498281112754

DIPOLE MOMENT
-------------
                                X             Y             Z
Electronic contribution:      0.81102      -5.19665      -1.76164
Nuclear contribution   :     -1.41817       5.37131       1.47050
                        -----------------------------------------
Total Dipole Moment    :     -0.60715       0.17467      -0.29114
                        -----------------------------------------
Magnitude (a.u.)       :      0.69563
Magnitude (Debye)      :      1.76816

                             ****ORCA TERMINATED NORMALLY****
TOTAL RUN TIME: 0 days 0 hours 22 minutes 14 seconds 87 msec
