                         Program Version 3.0.3 - RELEASE   -
|  1> ! RI-MP2 RIJK def2-TZVP def2-TZVP/C def2-TZVP/JK TIGHTSCF
|  2> % maxcore 2000
|  3> % mp2 density relaxed end
|  4> *xyz 0 1
|  5>  C       -0.0101828543    -1.1921468967     0.0217733657
|  6>  C        0.0425184468     0.0085527281    -0.0121521506
|  7>  C        0.0699860035     1.4422395201    -0.0822880317
|  8>  C       -0.9621044167     2.1853394507    -0.9426340338
|  9>  C       -0.2763531395     3.4782785763    -1.3842030843
| 10>  N        0.0533858321     4.4173036513    -0.2992980186
| 11>  C        1.1042965889     3.5209419304    -0.8242540265
| 12>  C        1.3054502702     2.2685666110     0.0016004328
| 13>  O        0.4379872608     2.1403558325     1.1206118934
| 14>  H       -0.0483522992    -2.2526263839     0.0638725296
| 15>  H       -1.2093883626     1.5742548710    -1.8159077605
| 16>  H       -1.8821440343     2.3681130963    -0.3804081153
| 17>  H       -0.5054663739     3.8778817133    -2.3671782958
| 18>  H        0.1882085771     5.3453879400    -0.6949807728
| 19>  H        1.9473011786     3.9310464454    -1.3688039268
| 20>  H        2.2946050025     1.8327676141     0.1112570451
| 21> *
| 22>
| 23>                          ****END OF INPUT****

CARTESIAN COORDINATES (ANGSTROEM)
---------------------------------
  C     -0.010183   -1.192147    0.021773
  C      0.042518    0.008553   -0.012152
  C      0.069986    1.442240   -0.082288
  C     -0.962104    2.185339   -0.942634
  C     -0.276353    3.478279   -1.384203
  N      0.053386    4.417304   -0.299298
  C      1.104297    3.520942   -0.824254
  C      1.305450    2.268567    0.001600
  O      0.437987    2.140356    1.120612
  H     -0.048352   -2.252626    0.063873
  H     -1.209388    1.574255   -1.815908
  H     -1.882144    2.368113   -0.380408
  H     -0.505466    3.877882   -2.367178
  H      0.188209    5.345388   -0.694981
  H      1.947301    3.931046   -1.368804
  H      2.294605    1.832768    0.111257

 Total Charge           Charge          ....    0
 Multiplicity           Mult            ....    1
 Number of Electrons    NEL             ....   64
 Basis Dimension        Dim             ....  321

ORBITAL ENERGIES
----------------

  NO   OCC          E(Eh)            E(eV)
   0   2.0000     -20.573845      -559.8428
   1   2.0000     -15.567436      -423.6115
   2   2.0000     -11.314080      -307.8718
   3   2.0000     -11.297420      -307.4184
   4   2.0000     -11.271751      -306.7199
   5   2.0000     -11.270801      -306.6941
   6   2.0000     -11.241613      -305.8998
   7   2.0000     -11.241447      -305.8953
   8   2.0000     -11.234579      -305.7084
   9   2.0000      -1.424996       -38.7761
  10   2.0000      -1.273039       -34.6412
  11   2.0000      -1.069223       -29.0950
  12   2.0000      -1.021817       -27.8051
  13   2.0000      -0.964137       -26.2355
  14   2.0000      -0.901147       -24.5215
  15   2.0000      -0.815856       -22.2006
  16   2.0000      -0.795550       -21.6480
  17   2.0000      -0.757693       -20.6179
  18   2.0000      -0.717677       -19.5290
  19   2.0000      -0.679632       -18.4937
  20   2.0000      -0.626927       -17.0595
  21   2.0000      -0.614121       -16.7111
  22   2.0000      -0.580288       -15.7904
  23   2.0000      -0.569771       -15.5043
  24   2.0000      -0.533821       -14.5260
  25   2.0000      -0.502290       -13.6680
  26   2.0000      -0.484330       -13.1793
  27   2.0000      -0.462708       -12.5909
  28   2.0000      -0.444906       -12.1065
  29   2.0000      -0.401335       -10.9209
  30   2.0000      -0.391325       -10.6485
  31   2.0000      -0.368530       -10.0282
  32   0.0000       0.129944         3.5360
  33   0.0000       0.155380         4.2281
  34   0.0000       0.157845         4.2952
  35   0.0000       0.164986         4.4895
  36   0.0000       0.170138         4.6297

MULLIKEN ATOMIC CHARGES
-----------------------
   0 C :   -0.073140
   1 C :    0.051005
   2 C :   -0.054897
   3 C :   -0.205273
   4 C :   -0.055809
   5 N :   -0.365310
   6 C :   -0.070720
   7 C :   -0.018791
   8 O :   -0.285486
   9 H :    0.196627
  10 H :    0.124088
  11 H :    0.130249
  12 H :    0.133893
  13 H :    0.217859
  14 H :    0.141607
  15 H :    0.134097
Sum of atomic charges:    0.0000000

LOEWDIN ATOMIC CHARGES
----------------------
   0 C :   -0.072857
   1 C :   -0.064775
   2 C :   -0.273055
   3 C :   -0.172811
   4 C :   -0.239358
   5 N :    0.018199
   6 C :   -0.233221
   7 C :   -0.208108
   8 O :    0.227153
   9 H :    0.128814
  10 H :    0.152920
  11 H :    0.153311
  12 H :    0.134495
  13 H :    0.170079
  14 H :    0.137935
  15 H :    0.141277

  Mayer bond orders larger than 0.1
B(  0-C ,  1-C ) :   2.6057 B(  0-C ,  2-C ) :  -0.1807 B(  0-C ,  9-H ) :   0.8752
B(  1-C ,  2-C ) :   1.1411 B(  2-C ,  3-C ) :   1.0107 B(  2-C ,  7-C ) :   0.9767
B(  2-C ,  8-O ) :   0.8823 B(  3-C ,  4-C ) :   0.9732 B(  3-C , 10-H ) :   0.9230
B(  3-C , 11-H ) :   0.8908 B(  4-C ,  5-N ) :   0.9388 B(  4-C ,  6-C ) :   0.9329
B(  4-C , 12-H ) :   0.9241 B(  5-N ,  6-C ) :   0.9465 B(  5-N , 13-H ) :   0.8651
B(  6-C ,  7-C ) :   0.9084 B(  6-C , 14-H ) :   0.9122 B(  7-C ,  8-O ) :   0.9438
B(  7-C , 15-H ) :   0.9232

MP2 TOTAL ENERGY:     -399.969042221 Eh
FINAL SINGLE POINT ENERGY      -399.969042221214

DIPOLE MOMENT
-------------
                                X             Y             Z
Electronic contribution:      0.86189      -1.81406       3.01680
Nuclear contribution   :     -0.55359       1.91119      -4.32706
                        -----------------------------------------
Total Dipole Moment    :      0.30830       0.09713      -1.31027
                        -----------------------------------------
Magnitude (a.u.)       :      1.34955
Magnitude (Debye)      :      3.43028

                             ****ORCA TERMINATED NORMALLY****
TOTAL RUN TIME: 0 days 0 hours 16 minutes 46 seconds 48 msec
