                         Program Version 3.0.3 - RELEASE   -
|  1> ! RI-MP2 RIJK def2-TZVP def2-TZVP/C def2-TZVP/JK TIGHTSCF
|  2> % maxcore 2000
|  3> % mp2 density relaxed end
|  4> *xyz 0 1
|  5>  C        0.0509226306     1.6718901195    -0.1018842427
|  6>  C       -0.0806685080     0.1471938588    -0.0327040751
|  7>  C        0.6741930303    -0.5549709720    -1.1553700975
|  8>  O        2.0699323386    -0.3100046429    -1.0022794082
|  9>  C        2.7416789282    -1.1718899747    -1.9126505244
| 10>  C        1.8549999371    -2.4348643469    -2.0662903382
| 11>  C        0.5741537227    -2.0933780374    -1.2624357731
| 12>  C        0.5599681172    -2.7926713098     0.0959815672
| 13>  O        0.5847887236    -4.1956906764    -0.1377721857
| 14>  H        1.1011640835     1.9687033016    -0.0437573787
| 15>  H       -0.3553904871     2.0597266816    -1.0428343944
| 16>  H       -0.4897862813     2.1529995011     0.7187527842
| 17>  H        0.2960400499    -0.2105438742     0.9318447004
| 18>  H       -1.1374536324    -0.1417673592    -0.0919569605
| 19>  H        0.3360961662    -0.1299141599    -2.1195963053
| 20>  H        2.8760162925    -0.6677805985    -2.8820604868
| 21>  H        3.7334881636    -1.3803894744    -1.5015467515
| 22>  H        1.6255103834    -2.6253791066    -3.1176217632
| 23>  H        2.3274355346    -3.3351994739    -1.6702819813
| 24>  H       -0.3272870776    -2.3917727855    -1.8064117409
| 25>  H        1.4334330816    -2.4707967519     0.6838458772
| 26>  H       -0.3431006386    -2.5104606154     0.6570934637
| 27>  H        0.6353951417    -4.6395119530     0.7135904647
| 28> *
| 29>
| 30>                          ****END OF INPUT****

CARTESIAN COORDINATES (ANGSTROEM)
---------------------------------
  C      0.050923    1.671890   -0.101884
  C     -0.080669    0.147194   -0.032704
  C      0.674193   -0.554971   -1.155370
  O      2.069932   -0.310005   -1.002279
  C      2.741679   -1.171890   -1.912651
  C      1.855000   -2.434864   -2.066290
  C      0.574154   -2.093378   -1.262436
  C      0.559968   -2.792671    0.095982
  O      0.584789   -4.195691   -0.137772
  H      1.101164    1.968703   -0.043757
  H     -0.355390    2.059727   -1.042834
  H     -0.489786    2.153000    0.718753
  H      0.296040   -0.210544    0.931845
  H     -1.137454   -0.141767   -0.091957
  H      0.336096   -0.129914   -2.119596
  H      2.876016   -0.667781   -2.882060
  H      3.733488   -1.380389   -1.501547
  H      1.625510   -2.625379   -3.117622
  H      2.327436   -3.335199   -1.670282
  H     -0.327287   -2.391773   -1.806412
  H      1.433433   -2.470797    0.683846
  H     -0.343101   -2.510461    0.657093
  H      0.635395   -4.639512    0.713590

 Total Charge           Charge          ....    0
 Multiplicity           Mult            ....    1
 Number of Electrons    NEL             ....   72
 Basis Dimension        Dim             ....  363

ORBITAL ENERGIES
----------------

  NO   OCC          E(Eh)            E(eV)
   0   2.0000     -20.555402      -559.3409
   1   2.0000     -20.544826      -559.0531
   2   2.0000     -11.273335      -306.7630
   3   2.0000     -11.272956      -306.7527
   4   2.0000     -11.266092      -306.5660
   5   2.0000     -11.225305      -305.4561
   6   2.0000     -11.220238      -305.3182
   7   2.0000     -11.215390      -305.1863
   8   2.0000     -11.208219      -304.9911
   9   2.0000      -1.373566       -37.3766
  10   2.0000      -1.358958       -36.9791
  11   2.0000      -1.074879       -29.2489
  12   2.0000      -1.046140       -28.4669
  13   2.0000      -0.970061       -26.3967
  14   2.0000      -0.908267       -24.7152
  15   2.0000      -0.848750       -23.0957
  16   2.0000      -0.796303       -21.6685
  17   2.0000      -0.758099       -20.6289
  18   2.0000      -0.706344       -19.2206
  19   2.0000      -0.671073       -18.2608
  20   2.0000      -0.651685       -17.7333
  21   2.0000      -0.636738       -17.3265
  22   2.0000      -0.618616       -16.8334
  23   2.0000      -0.580132       -15.7862
  24   2.0000      -0.564577       -15.3629
  25   2.0000      -0.560760       -15.2591
  26   2.0000      -0.552183       -15.0257
  27   2.0000      -0.518291       -14.1034
  28   2.0000      -0.497557       -13.5392
  29   2.0000      -0.490913       -13.3584
  30   2.0000      -0.488570       -13.2947
  31   2.0000      -0.467120       -12.7110
  32   2.0000      -0.452407       -12.3106
  33   2.0000      -0.448557       -12.2059
  34   2.0000      -0.439302       -11.9540
  35   2.0000      -0.409162       -11.1339
  36   0.0000       0.133694         3.6380
  37   0.0000       0.143212         3.8970
  38   0.0000       0.156793         4.2665
  39   0.0000       0.169512         4.6127
  40   0.0000       0.178013         4.8440

MULLIKEN ATOMIC CHARGES
-----------------------
   0 C :   -0.392259
   1 C :   -0.189614
   2 C :    0.012225
   3 O :   -0.317849
   4 C :   -0.040351
   5 C :   -0.292285
   6 C :    0.050622
   7 C :   -0.158262
   8 O :   -0.467705
   9 H :    0.146862
  10 H :    0.117464
  11 H :    0.130662
  12 H :    0.111514
  13 H :    0.112431
  14 H :    0.074580
  15 H :    0.083443
  16 H :    0.112612
  17 H :    0.121805
  18 H :    0.141083
  19 H :    0.100652
  20 H :    0.118133
  21 H :    0.107793
  22 H :    0.316446
Sum of atomic charges:   -0.0000000

LOEWDIN ATOMIC CHARGES
----------------------
   0 C :   -0.316045
   1 C :   -0.274677
   2 C :   -0.298606
   3 O :    0.167950
   4 C :   -0.303933
   5 C :   -0.234174
   6 C :   -0.233558
   7 C :   -0.330260
   8 O :   -0.047122
   9 H :    0.126723
  10 H :    0.120222
  11 H :    0.119457
  12 H :    0.140673
  13 H :    0.140991
  14 H :    0.140899
  15 H :    0.116282
  16 H :    0.122995
  17 H :    0.135327
  18 H :    0.141757
  19 H :    0.153202
  20 H :    0.122162
  21 H :    0.117938
  22 H :    0.171794

  Mayer bond orders larger than 0.1
B(  0-C ,  1-C ) :   0.9202 B(  0-C ,  9-H ) :   0.9372 B(  0-C , 10-H ) :   0.9387
B(  0-C , 11-H ) :   0.9414 B(  1-C ,  2-C ) :   0.9106 B(  1-C , 12-H ) :   0.9267
B(  1-C , 13-H ) :   0.9363 B(  2-C ,  3-O ) :   0.9236 B(  2-C ,  6-C ) :   0.8999
B(  2-C , 14-H ) :   0.9278 B(  3-O ,  4-C ) :   0.9435 B(  4-C ,  5-C ) :   0.9483
B(  4-C , 15-H ) :   0.9301 B(  4-C , 16-H ) :   0.9247 B(  5-C ,  6-C ) :   0.9068
B(  5-C , 17-H ) :   0.9282 B(  5-C , 18-H ) :   0.9289 B(  6-C ,  7-C ) :   0.8871
B(  6-C , 19-H ) :   0.9123 B(  7-C ,  8-O ) :   1.0036 B(  7-C , 20-H ) :   0.9300
B(  7-C , 21-H ) :   0.9271 B(  8-O , 22-H ) :   0.8481

MP2 TOTAL ENERGY:     -424.733882082 Eh
FINAL SINGLE POINT ENERGY      -424.733882082433

DIPOLE MOMENT
-------------
                                X             Y             Z
Electronic contribution:      1.97500      -4.21897      -0.51935
Nuclear contribution   :     -2.20444       4.02496       0.80331
                        -----------------------------------------
Total Dipole Moment    :     -0.22944      -0.19401       0.28396
                        -----------------------------------------
Magnitude (a.u.)       :      0.41342
Magnitude (Debye)      :      1.05083

                             ****ORCA TERMINATED NORMALLY****
TOTAL RUN TIME: 0 days 0 hours 19 minutes 39 seconds 270 msec
