                         Program Version 3.0.3 - RELEASE   -
|  1> ! RI-MP2 RIJK def2-TZVP def2-TZVP/C def2-TZVP/JK TIGHTSCF
|  2> % maxcore 2000
|  3> % mp2 density relaxed end
|  4> *xyz 0 1
|  5>  C       -0.1664996722     1.5719934637    -0.0391672983
|  6>  C       -0.0054623706     0.0599808601    -0.0149299086
|  7>  C        0.7294732793    -0.6222553551    -1.1723025375
|  8>  N        2.1306366224    -0.1586649816    -1.1222064223
|  9>  C        1.6999867232    -1.2931229011    -0.2442760436
| 10>  C        2.3148053699    -2.5704605805    -0.3039285804
| 11>  C        2.8325090775    -3.6572360199    -0.3254820555
| 12>  C        1.0716939739    -0.5696462435     0.9705073654
| 13>  O        1.9147045965     0.2925305565     1.6713117683
| 14>  H        0.7745159323     2.0638969856    -0.2975962915
| 15>  H       -0.9183294205     1.8731814931    -0.7764000143
| 16>  H       -0.4846177819     1.9424070327     0.9399776527
| 17>  H       -0.9686046618    -0.4311546618     0.1559768046
| 18>  H        0.3133466386    -1.0164000140    -2.0917111300
| 19>  H        2.6315949045    -0.5636248744    -1.9114304449
| 20>  H        3.2874104036    -4.6164702695    -0.3447971030
| 21>  H        0.6257720410    -1.2551107444     1.6930052765
| 22>  H        2.4408394943     0.7479617841     0.9996688424
| 23> *
| 24>
| 25>                          ****END OF INPUT****

CARTESIAN COORDINATES (ANGSTROEM)
---------------------------------
  C     -0.166500    1.571993   -0.039167
  C     -0.005462    0.059981   -0.014930
  C      0.729473   -0.622255   -1.172303
  N      2.130637   -0.158665   -1.122206
  C      1.699987   -1.293123   -0.244276
  C      2.314805   -2.570461   -0.303929
  C      2.832509   -3.657236   -0.325482
  C      1.071694   -0.569646    0.970507
  O      1.914705    0.292531    1.671312
  H      0.774516    2.063897   -0.297596
  H     -0.918329    1.873181   -0.776400
  H     -0.484618    1.942407    0.939978
  H     -0.968605   -0.431155    0.155977
  H      0.313347   -1.016400   -2.091711
  H      2.631595   -0.563625   -1.911430
  H      3.287410   -4.616470   -0.344797
  H      0.625772   -1.255111    1.693005
  H      2.440839    0.747962    0.999669

 Total Charge           Charge          ....    0
 Multiplicity           Mult            ....    1
 Number of Electrons    NEL             ....   66
 Basis Dimension        Dim             ....  333

ORBITAL ENERGIES
----------------

  NO   OCC          E(Eh)            E(eV)
   0   2.0000     -20.553088      -559.2780
   1   2.0000     -15.582492      -424.0212
   2   2.0000     -11.292332      -307.2800
   3   2.0000     -11.290945      -307.2422
   4   2.0000     -11.280387      -306.9549
   5   2.0000     -11.247096      -306.0490
   6   2.0000     -11.241012      -305.8835
   7   2.0000     -11.237931      -305.7996
   8   2.0000     -11.214257      -305.1554
   9   2.0000      -1.371573       -37.3224
  10   2.0000      -1.293349       -35.1938
  11   2.0000      -1.066602       -29.0237
  12   2.0000      -1.049711       -28.5641
  13   2.0000      -0.968470       -26.3534
  14   2.0000      -0.890133       -24.2217
  15   2.0000      -0.858704       -23.3665
  16   2.0000      -0.774330       -21.0706
  17   2.0000      -0.765910       -20.8415
  18   2.0000      -0.710046       -19.3213
  19   2.0000      -0.656541       -17.8654
  20   2.0000      -0.634252       -17.2589
  21   2.0000      -0.617689       -16.8082
  22   2.0000      -0.599003       -16.2997
  23   2.0000      -0.562392       -15.3035
  24   2.0000      -0.537497       -14.6260
  25   2.0000      -0.522665       -14.2224
  26   2.0000      -0.516995       -14.0682
  27   2.0000      -0.497505       -13.5378
  28   2.0000      -0.465299       -12.6614
  29   2.0000      -0.442736       -12.0475
  30   2.0000      -0.424436       -11.5495
  31   2.0000      -0.388080       -10.5602
  32   2.0000      -0.353592        -9.6217
  33   0.0000       0.132725         3.6116
  34   0.0000       0.146986         3.9997
  35   0.0000       0.154761         4.2113
  36   0.0000       0.159561         4.3419
  37   0.0000       0.163584         4.4514

MULLIKEN ATOMIC CHARGES
-----------------------
   0 C :   -0.432852
   1 C :   -0.002512
   2 C :   -0.056149
   3 N :   -0.405039
   4 C :   -0.155755
   5 C :    0.004598
   6 C :   -0.091648
   7 C :    0.050121
   8 O :   -0.452952
   9 H :    0.133626
  10 H :    0.130094
  11 H :    0.141394
  12 H :    0.107153
  13 H :    0.149499
  14 H :    0.227599
  15 H :    0.196667
  16 H :    0.120357
  17 H :    0.335799
Sum of atomic charges:   -0.0000000

LOEWDIN ATOMIC CHARGES
----------------------
   0 C :   -0.297500
   1 C :   -0.219887
   2 C :   -0.177583
   3 N :    0.032310
   4 C :   -0.236417
   5 C :   -0.084273
   6 C :   -0.075455
   7 C :   -0.253411
   8 O :    0.006968
   9 H :    0.125993
  10 H :    0.124715
  11 H :    0.129512
  12 H :    0.153198
  13 H :    0.134672
  14 H :    0.178278
  15 H :    0.128874
  16 H :    0.145352
  17 H :    0.184654

  Mayer bond orders larger than 0.1
B(  0-C ,  1-C ) :   0.8903 B(  0-C ,  9-H ) :   0.9364 B(  0-C , 10-H ) :   0.9378
B(  0-C , 11-H ) :   0.9344 B(  1-C ,  2-C ) :   0.9389 B(  1-C ,  7-C ) :   0.9316
B(  1-C , 12-H ) :   0.9138 B(  2-C ,  3-N ) :   0.9396 B(  2-C ,  4-C ) :   0.8330
B(  2-C , 13-H ) :   0.8933 B(  3-N ,  4-C ) :   0.8887 B(  3-N , 14-H ) :   0.8713
B(  4-C ,  5-C ) :   1.1838 B(  4-C ,  6-C ) :  -0.1538 B(  4-C ,  7-C ) :   0.9170
B(  5-C ,  6-C ) :   2.6139 B(  6-C , 15-H ) :   0.8649 B(  7-C ,  8-O ) :   1.0196
B(  7-C , 16-H ) :   0.9451 B(  8-O , 17-H ) :   0.8192

MP2 TOTAL ENERGY:     -401.179681186 Eh
FINAL SINGLE POINT ENERGY      -401.179681186341

DIPOLE MOMENT
-------------
                                X             Y             Z
Electronic contribution:      4.08338      -5.02364       0.35946
Nuclear contribution   :     -4.42109       4.58868      -1.22561
                        -----------------------------------------
Total Dipole Moment    :     -0.33770      -0.43496      -0.86615
                        -----------------------------------------
Magnitude (a.u.)       :      1.02638
Magnitude (Debye)      :      2.60884

                             ****ORCA TERMINATED NORMALLY****
TOTAL RUN TIME: 0 days 0 hours 17 minutes 59 seconds 501 msec
