                         Program Version 3.0.3 - RELEASE   -
|  1> ! RI-MP2 RIJK def2-TZVP def2-TZVP/C def2-TZVP/JK TIGHTSCF
|  2> % maxcore 2000
|  3> % mp2 density relaxed end
|  4> *xyz 0 1
|  5>  C       -0.0138547267     1.5010136947    -0.0015044801
|  6>  C       -0.0114235746    -0.0126905590     0.0104903103
|  7>  C       -0.8517029715    -0.7327660569     1.0451503152
|  8>  C        0.6529766593    -0.7369848050     1.1604267094
|  9>  O        1.3210014740    -1.9514774895     0.9353142772
| 10>  C        1.6514239388    -2.1609837311    -0.4137434996
| 11>  O        0.5437894691    -2.0239655766    -1.2614233175
| 12>  C        0.1554983712    -0.6591509544    -1.3556733002
| 13>  H        0.9028873218     1.8995097400    -0.4515350158
| 14>  H       -0.8644348503     1.8897010148    -0.5746199182
| 15>  H       -0.0915387156     1.9041354566     1.0127758544
| 16>  H       -1.4304865038    -0.1366235090     1.7428583275
| 17>  H       -1.2965652923    -1.6799031838     0.7604901436
| 18>  H        1.1224998124    -0.1513596191     1.9471522955
| 19>  H        2.4480050479    -1.4612990477    -0.7284736440
| 20>  H        2.0000584099    -3.1926319659    -0.4906577341
| 21>  H       -0.7787786844    -0.6418168307    -1.9261517764
| 22>  H        0.9149104549    -0.1000031672    -1.9289344871
| 23> *
| 24>
| 25>                          ****END OF INPUT****

CARTESIAN COORDINATES (ANGSTROEM)
---------------------------------
  C     -0.013855    1.501014   -0.001504
  C     -0.011424   -0.012691    0.010490
  C     -0.851703   -0.732766    1.045150
  C      0.652977   -0.736985    1.160427
  O      1.321001   -1.951477    0.935314
  C      1.651424   -2.160984   -0.413743
  O      0.543789   -2.023966   -1.261423
  C      0.155498   -0.659151   -1.355673
  H      0.902887    1.899510   -0.451535
  H     -0.864435    1.889701   -0.574620
  H     -0.091539    1.904135    1.012776
  H     -1.430487   -0.136624    1.742858
  H     -1.296565   -1.679903    0.760490
  H      1.122500   -0.151360    1.947152
  H      2.448005   -1.461299   -0.728474
  H      2.000058   -3.192632   -0.490658
  H     -0.778779   -0.641817   -1.926152
  H      0.914910   -0.100003   -1.928934

 Total Charge           Charge          ....    0
 Multiplicity           Mult            ....    1
 Number of Electrons    NEL             ....   62
 Basis Dimension        Dim             ....  308

ORBITAL ENERGIES
----------------

  NO   OCC          E(Eh)            E(eV)
   0   2.0000     -20.564226      -559.5810
   1   2.0000     -20.562143      -559.5244
   2   2.0000     -11.327708      -308.2426
   3   2.0000     -11.284238      -307.0597
   4   2.0000     -11.283942      -307.0517
   5   2.0000     -11.245439      -306.0040
   6   2.0000     -11.229422      -305.5681
   7   2.0000     -11.222365      -305.3761
   8   2.0000      -1.426333       -38.8125
   9   2.0000      -1.349014       -36.7085
  10   2.0000      -1.154499       -31.4155
  11   2.0000      -0.983085       -26.7511
  12   2.0000      -0.959505       -26.1095
  13   2.0000      -0.894620       -24.3438
  14   2.0000      -0.818628       -22.2760
  15   2.0000      -0.754516       -20.5314
  16   2.0000      -0.702006       -19.1025
  17   2.0000      -0.687377       -18.7045
  18   2.0000      -0.648288       -17.6408
  19   2.0000      -0.630173       -17.1479
  20   2.0000      -0.621788       -16.9197
  21   2.0000      -0.591872       -16.1057
  22   2.0000      -0.571825       -15.5602
  23   2.0000      -0.557945       -15.1825
  24   2.0000      -0.532462       -14.4890
  25   2.0000      -0.520249       -14.1567
  26   2.0000      -0.509725       -13.8703
  27   2.0000      -0.466507       -12.6943
  28   2.0000      -0.440813       -11.9951
  29   2.0000      -0.397537       -10.8175
  30   2.0000      -0.388464       -10.5706
  31   0.0000       0.134994         3.6734
  32   0.0000       0.167038         4.5453
  33   0.0000       0.172676         4.6988
  34   0.0000       0.183334         4.9888
  35   0.0000       0.194468         5.2917

MULLIKEN ATOMIC CHARGES
-----------------------
   0 C :   -0.417570
   1 C :    0.071511
   2 C :   -0.306221
   3 C :    0.013540
   4 O :   -0.303119
   5 C :    0.075940
   6 O :   -0.313211
   7 C :   -0.044742
   8 H :    0.133567
   9 H :    0.135864
  10 H :    0.133155
  11 H :    0.130066
  12 H :    0.143105
  13 H :    0.114518
  14 H :    0.080927
  15 H :    0.128963
  16 H :    0.124027
  17 H :    0.099681
Sum of atomic charges:   -0.0000000

LOEWDIN ATOMIC CHARGES
----------------------
   0 C :   -0.264982
   1 C :   -0.272121
   2 C :   -0.186694
   3 C :   -0.258070
   4 O :    0.185627
   5 C :   -0.388894
   6 O :    0.161238
   7 C :   -0.272006
   8 H :    0.127339
   9 H :    0.129312
  10 H :    0.130420
  11 H :    0.134165
  12 H :    0.144335
  13 H :    0.137927
  14 H :    0.106905
  15 H :    0.123413
  16 H :    0.135198
  17 H :    0.126888

  Mayer bond orders larger than 0.1
B(  0-C ,  1-C ) :   0.9097 B(  0-C ,  8-H ) :   0.9358 B(  0-C ,  9-H ) :   0.9355
B(  0-C , 10-H ) :   0.9315 B(  1-C ,  2-C ) :   0.8758 B(  1-C ,  3-C ) :   0.8721
B(  1-C ,  7-C ) :   0.9328 B(  2-C ,  3-C ) :   0.8645 B(  2-C , 11-H ) :   0.9212
B(  2-C , 12-H ) :   0.9093 B(  3-C ,  4-O ) :   0.9533 B(  3-C , 13-H ) :   0.9518
B(  4-O ,  5-C ) :   0.9747 B(  5-C ,  6-O ) :   0.9652 B(  5-C , 14-H ) :   0.9267
B(  5-C , 15-H ) :   0.9309 B(  6-O ,  7-C ) :   0.9136 B(  7-C , 16-H ) :   0.9256
B(  7-C , 17-H ) :   0.9383

MP2 TOTAL ENERGY:     -384.290762718 Eh
FINAL SINGLE POINT ENERGY      -384.290762717812

DIPOLE MOMENT
-------------
                                X             Y             Z
Electronic contribution:      1.52623      -5.71668       0.41534
Nuclear contribution   :     -1.49755       6.53163      -0.56024
                        -----------------------------------------
Total Dipole Moment    :      0.02868       0.81494      -0.14490
                        -----------------------------------------
Magnitude (a.u.)       :      0.82822
Magnitude (Debye)      :      2.10518

                             ****ORCA TERMINATED NORMALLY****
TOTAL RUN TIME: 0 days 0 hours 12 minutes 17 seconds 591 msec
