                         Program Version 3.0.3 - RELEASE   -
|  1> ! RI-MP2 RIJK def2-TZVP def2-TZVP/C def2-TZVP/JK TIGHTSCF
|  2> % maxcore 2000
|  3> % mp2 density relaxed end
|  4> *xyz 0 1
|  5>  C       -0.0433295169     1.4741967437     0.0051056378
|  6>  C       -0.0487508111    -0.0288633408    -0.0053442111
|  7>  C        0.8404135081    -0.9861311411    -0.8949169037
|  8>  C        1.9881387819    -0.9992338807     0.1335363823
|  9>  C        0.7059849682    -0.9987234376     0.9886664227
| 10>  C       -0.0519222956    -1.9345532291    -0.0183148730
| 11>  C       -1.2395877084    -0.9857959620    -0.0967451499
| 12>  C       -2.5732502581    -0.9883710836     0.5732132300
| 13>  C       -2.4644779395    -0.9781773969    -0.9494576125
| 14>  H        0.9764706580     1.8670257556     0.0800346041
| 15>  H       -0.4893866180     1.8768001393    -0.9114034702
| 16>  H       -0.6146124742     1.8649861033     0.8547894110
| 17>  H        0.8856074570    -0.9806993599    -1.9855409927
| 18>  H        2.6021752159    -1.9047774990     0.1713012013
| 19>  H        2.6227701504    -0.1084987945     0.1847843875
| 20>  H        0.5958489819    -1.0078393311     2.0746315277
| 21>  H       -0.0303607147    -3.0253599020    -0.0240690541
| 22>  H       -2.9175082510    -1.9012972388     1.0496774850
| 23>  H       -2.9175979049    -0.0801041795     1.0589955864
| 24>  H       -2.7371416114    -0.0631868333    -1.4671018894
| 25>  H       -2.7366487574    -1.8843469521    -1.4821339594
| 26> *
| 27>
| 28>                          ****END OF INPUT****

CARTESIAN COORDINATES (ANGSTROEM)
---------------------------------
  C     -0.043330    1.474197    0.005106
  C     -0.048751   -0.028863   -0.005344
  C      0.840414   -0.986131   -0.894917
  C      1.988139   -0.999234    0.133536
  C      0.705985   -0.998723    0.988666
  C     -0.051922   -1.934553   -0.018315
  C     -1.239588   -0.985796   -0.096745
  C     -2.573250   -0.988371    0.573213
  C     -2.464478   -0.978177   -0.949458
  H      0.976471    1.867026    0.080035
  H     -0.489387    1.876800   -0.911403
  H     -0.614612    1.864986    0.854789
  H      0.885607   -0.980699   -1.985541
  H      2.602175   -1.904777    0.171301
  H      2.622770   -0.108499    0.184784
  H      0.595849   -1.007839    2.074632
  H     -0.030361   -3.025360   -0.024069
  H     -2.917508   -1.901297    1.049677
  H     -2.917598   -0.080104    1.058996
  H     -2.737142   -0.063187   -1.467102
  H     -2.736649   -1.884347   -1.482134

 Total Charge           Charge          ....    0
 Multiplicity           Mult            ....    1
 Number of Electrons    NEL             ....   66
 Basis Dimension        Dim             ....  351

ORBITAL ENERGIES
----------------

  NO   OCC          E(Eh)            E(eV)
   0   2.0000     -11.242346      -305.9198
   1   2.0000     -11.235387      -305.7304
   2   2.0000     -11.234843      -305.7156
   3   2.0000     -11.234624      -305.7096
   4   2.0000     -11.230753      -305.6043
   5   2.0000     -11.219215      -305.2904
   6   2.0000     -11.216219      -305.2088
   7   2.0000     -11.216013      -305.2032
   8   2.0000     -11.215628      -305.1927
   9   2.0000      -1.240922       -33.7672
  10   2.0000      -1.116550       -30.3829
  11   2.0000      -0.990536       -26.9539
  12   2.0000      -0.952063       -25.9070
  13   2.0000      -0.857831       -23.3428
  14   2.0000      -0.816210       -22.2102
  15   2.0000      -0.812828       -22.1182
  16   2.0000      -0.767118       -20.8743
  17   2.0000      -0.676357       -18.4046
  18   2.0000      -0.655269       -17.8308
  19   2.0000      -0.644959       -17.5502
  20   2.0000      -0.630238       -17.1497
  21   2.0000      -0.585398       -15.9295
  22   2.0000      -0.571082       -15.5399
  23   2.0000      -0.544583       -14.8189
  24   2.0000      -0.518166       -14.1000
  25   2.0000      -0.506911       -13.7937
  26   2.0000      -0.483582       -13.1589
  27   2.0000      -0.437961       -11.9175
  28   2.0000      -0.429932       -11.6991
  29   2.0000      -0.423789       -11.5319
  30   2.0000      -0.405180       -11.0255
  31   2.0000      -0.385372       -10.4865
  32   2.0000      -0.374907       -10.2017
  33   0.0000       0.138946         3.7809
  34   0.0000       0.162939         4.4338
  35   0.0000       0.164744         4.4829
  36   0.0000       0.165945         4.5156
  37   0.0000       0.189467         5.1557

MULLIKEN ATOMIC CHARGES
-----------------------
   0 C :   -0.413777
   1 C :    0.079842
   2 C :   -0.132682
   3 C :   -0.204190
   4 C :   -0.132668
   5 C :   -0.083080
   6 C :   -0.007189
   7 C :   -0.297814
   8 C :   -0.297825
   9 H :    0.138037
  10 H :    0.135698
  11 H :    0.135703
  12 H :    0.120181
  13 H :    0.109087
  14 H :    0.108947
  15 H :    0.120182
  16 H :    0.125129
  17 H :    0.124491
  18 H :    0.123720
  19 H :    0.123717
  20 H :    0.124491
Sum of atomic charges:    0.0000000

LOEWDIN ATOMIC CHARGES
----------------------
   0 C :   -0.273650
   1 C :   -0.150354
   2 C :   -0.114237
   3 C :   -0.207582
   4 C :   -0.114236
   5 C :   -0.097034
   6 C :   -0.180937
   7 C :   -0.208510
   8 C :   -0.208510
   9 H :    0.131626
  10 H :    0.130096
  11 H :    0.130095
  12 H :    0.126583
  13 H :    0.126756
  14 H :    0.124549
  15 H :    0.126582
  16 H :    0.129269
  17 H :    0.132574
  18 H :    0.132175
  19 H :    0.132173
  20 H :    0.132572

  Mayer bond orders larger than 0.1
B(  0-C ,  1-C ) :   0.8327 B(  0-C ,  9-H ) :   0.9415 B(  0-C , 10-H ) :   0.9417
B(  0-C , 11-H ) :   0.9417 B(  1-C ,  2-C ) :   0.8333 B(  1-C ,  4-C ) :   0.8333
B(  1-C ,  6-C ) :   0.8135 B(  2-C ,  3-C ) :   0.9360 B(  2-C ,  5-C ) :   0.8589
B(  2-C , 12-H ) :   0.9017 B(  3-C ,  4-C ) :   0.9360 B(  3-C , 13-H ) :   0.9200
B(  3-C , 14-H ) :   0.9257 B(  4-C ,  5-C ) :   0.8588 B(  4-C , 15-H ) :   0.9017
B(  5-C ,  6-C ) :   0.8197 B(  5-C , 16-H ) :   0.8891 B(  6-C ,  7-C ) :   0.8802
B(  6-C ,  8-C ) :   0.8802 B(  7-C ,  8-C ) :   0.9419 B(  7-C , 17-H ) :   0.9196
B(  7-C , 18-H ) :   0.9208 B(  8-C , 19-H ) :   0.9208 B(  8-C , 20-H ) :   0.9196

MP2 TOTAL ENERGY:     -349.214439683 Eh
FINAL SINGLE POINT ENERGY      -349.214439682713

DIPOLE MOMENT
-------------
                                X             Y             Z
Electronic contribution:      0.81323      -2.62527       0.04065
Nuclear contribution   :     -0.76896       2.71711      -0.03687
                        -----------------------------------------
Total Dipole Moment    :      0.04427       0.09184       0.00378
                        -----------------------------------------
Magnitude (a.u.)       :      0.10202
Magnitude (Debye)      :      0.25933

                             ****ORCA TERMINATED NORMALLY****
TOTAL RUN TIME: 0 days 0 hours 20 minutes 15 seconds 489 msec
