                         Program Version 3.0.3 - RELEASE   -
|  1> ! RI-MP2 RIJK def2-TZVP def2-TZVP/C def2-TZVP/JK TIGHTSCF
|  2> % maxcore 2000
|  3> % mp2 density relaxed end
|  4> *xyz 0 1
|  5>  C       -0.5851213377     1.9021486007    -0.3061419262
|  6>  C       -0.2011666949     0.4545544818     0.0516256003
|  7>  C        0.6175845098    -0.1899704152    -0.9704862007
|  8>  C        1.2902954472    -0.6951583045    -1.8343899017
|  9>  C        2.1074603762    -1.3275745939    -2.8491843259
| 10>  C        3.6137947059    -1.6173717012    -2.5417379307
| 11>  C        3.4632749557    -2.9436099327    -3.3309458097
| 12>  O        4.1655749402    -4.0890107141    -2.9278641500
| 13>  C        1.9283217147    -2.8567248769    -3.1269706655
| 14>  H        0.3079315410     2.5194417173    -0.4363108601
| 15>  H       -1.1543255577     1.9332852782    -1.2391759901
| 16>  H       -1.1971389715     2.3429551893     0.4866106287
| 17>  H        0.3351286898     0.4456799888     1.0095847536
| 18>  H       -1.1129748246    -0.1349426060     0.2144959544
| 19>  H        2.0284431218    -0.7748193786    -3.7918789177
| 20>  H        4.3573368551    -0.8887537173    -2.8708661806
| 21>  H        3.7516620235    -1.8140278026    -1.4734827983
| 22>  H        3.7223726360    -2.7990652230    -4.3845629792
| 23>  H        3.9651071821    -4.2494178610    -1.9995160369
| 24>  H        1.6277746771    -3.3762879391    -2.2112597515
| 25>  H        1.2695398104    -3.1590992100    -3.9434509721
| 26> *
| 27>
| 28>                          ****END OF INPUT****

CARTESIAN COORDINATES (ANGSTROEM)
---------------------------------
  C     -0.585121    1.902149   -0.306142
  C     -0.201167    0.454554    0.051626
  C      0.617585   -0.189970   -0.970486
  C      1.290295   -0.695158   -1.834390
  C      2.107460   -1.327575   -2.849184
  C      3.613795   -1.617372   -2.541738
  C      3.463275   -2.943610   -3.330946
  O      4.165575   -4.089011   -2.927864
  C      1.928322   -2.856725   -3.126971
  H      0.307932    2.519442   -0.436311
  H     -1.154326    1.933285   -1.239176
  H     -1.197139    2.342955    0.486611
  H      0.335129    0.445680    1.009585
  H     -1.112975   -0.134943    0.214496
  H      2.028443   -0.774819   -3.791879
  H      4.357337   -0.888754   -2.870866
  H      3.751662   -1.814028   -1.473483
  H      3.722373   -2.799065   -4.384563
  H      3.965107   -4.249418   -1.999516
  H      1.627775   -3.376288   -2.211260
  H      1.269540   -3.159099   -3.943451

 Total Charge           Charge          ....    0
 Multiplicity           Mult            ....    1
 Number of Electrons    NEL             ....   68
 Basis Dimension        Dim             ....  351

ORBITAL ENERGIES
----------------

  NO   OCC          E(Eh)            E(eV)
   0   2.0000     -20.558266      -559.4189
   1   2.0000     -11.283064      -307.0278
   2   2.0000     -11.254801      -306.2587
   3   2.0000     -11.248836      -306.0964
   4   2.0000     -11.229666      -305.5748
   5   2.0000     -11.229638      -305.5740
   6   2.0000     -11.222788      -305.3876
   7   2.0000     -11.218561      -305.2726
   8   2.0000     -11.214325      -305.1573
   9   2.0000      -1.366766       -37.1916
  10   2.0000      -1.138829       -30.9891
  11   2.0000      -1.072376       -29.1808
  12   2.0000      -0.998698       -27.1760
  13   2.0000      -0.910359       -24.7721
  14   2.0000      -0.907633       -24.6979
  15   2.0000      -0.859236       -23.3810
  16   2.0000      -0.794847       -21.6289
  17   2.0000      -0.697077       -18.9684
  18   2.0000      -0.676334       -18.4040
  19   2.0000      -0.645744       -17.5716
  20   2.0000      -0.622058       -16.9271
  21   2.0000      -0.605713       -16.4823
  22   2.0000      -0.590674       -16.0730
  23   2.0000      -0.580653       -15.8004
  24   2.0000      -0.550166       -14.9708
  25   2.0000      -0.547061       -14.8863
  26   2.0000      -0.520377       -14.1602
  27   2.0000      -0.511971       -13.9314
  28   2.0000      -0.492281       -13.3957
  29   2.0000      -0.489127       -13.3098
  30   2.0000      -0.462426       -12.5833
  31   2.0000      -0.422854       -11.5065
  32   2.0000      -0.361434        -9.8351
  33   2.0000      -0.357641        -9.7319
  34   0.0000       0.128813         3.5052
  35   0.0000       0.142813         3.8862
  36   0.0000       0.146152         3.9770
  37   0.0000       0.168774         4.5926
  38   0.0000       0.171548         4.6681

MULLIKEN ATOMIC CHARGES
-----------------------
   0 C :   -0.358727
   1 C :   -0.304147
   2 C :    0.058984
   3 C :   -0.021717
   4 C :   -0.236678
   5 C :   -0.202992
   6 C :    0.040780
   7 O :   -0.454289
   8 C :   -0.202263
   9 H :    0.129008
  10 H :    0.129286
  11 H :    0.130906
  12 H :    0.139133
  13 H :    0.139558
  14 H :    0.123734
  15 H :    0.124224
  16 H :    0.114002
  17 H :    0.100107
  18 H :    0.312916
  19 H :    0.113975
  20 H :    0.124202
Sum of atomic charges:   -0.0000000

LOEWDIN ATOMIC CHARGES
----------------------
   0 C :   -0.300396
   1 C :   -0.280116
   2 C :   -0.078820
   3 C :   -0.070669
   4 C :   -0.220247
   5 C :   -0.192527
   6 C :   -0.339095
   7 O :   -0.015317
   8 C :   -0.192271
   9 H :    0.123799
  10 H :    0.123854
  11 H :    0.120332
  12 H :    0.151890
  13 H :    0.152249
  14 H :    0.166628
  15 H :    0.126404
  16 H :    0.139854
  17 H :    0.143920
  18 H :    0.174252
  19 H :    0.139864
  20 H :    0.126412

  Mayer bond orders larger than 0.1
B(  0-C ,  1-C ) :   0.9444 B(  0-C ,  9-H ) :   0.9353 B(  0-C , 10-H ) :   0.9356
B(  0-C , 11-H ) :   0.9394 B(  1-C ,  2-C ) :   0.9287 B(  1-C , 12-H ) :   0.9406
B(  1-C , 13-H ) :   0.9413 B(  2-C ,  3-C ) :   2.6389 B(  2-C ,  4-C ) :  -0.1450
B(  3-C ,  4-C ) :   1.0848 B(  4-C ,  5-C ) :   0.9179 B(  4-C ,  8-C ) :   0.9212
B(  4-C , 14-H ) :   0.9105 B(  5-C ,  6-C ) :   0.9155 B(  5-C , 15-H ) :   0.9266
B(  5-C , 16-H ) :   0.9173 B(  6-C ,  7-O ) :   0.9779 B(  6-C ,  8-C ) :   0.9153
B(  6-C , 17-H ) :   0.9321 B(  7-O , 18-H ) :   0.8395 B(  8-C , 19-H ) :   0.9171
B(  8-C , 20-H ) :   0.9267

MP2 TOTAL ENERGY:     -386.371719298 Eh
FINAL SINGLE POINT ENERGY      -386.371719297913

DIPOLE MOMENT
-------------
                                X             Y             Z
Electronic contribution:      3.77655      -5.02102      -2.57169
Nuclear contribution   :     -4.17144       5.38011       2.98845
                        -----------------------------------------
Total Dipole Moment    :     -0.39490       0.35908       0.41676
                        -----------------------------------------
Magnitude (a.u.)       :      0.67718
Magnitude (Debye)      :      1.72125

                             ****ORCA TERMINATED NORMALLY****
TOTAL RUN TIME: 0 days 0 hours 18 minutes 24 seconds 648 msec
