                         Program Version 3.0.3 - RELEASE   -
|  1> ! RI-MP2 RIJK def2-TZVP def2-TZVP/C def2-TZVP/JK TIGHTSCF
|  2> % maxcore 2000
|  3> % mp2 density relaxed end
|  4> *xyz 0 1
|  5>  O       -0.1360625180     1.1653023918     0.6339818600
|  6>  C       -0.3849792068    -0.2299729432     0.6696368808
|  7>  C       -0.9783123870    -0.6125898694    -0.6909116683
|  8>  C       -1.2836162548    -2.0342211414    -0.7853200612
|  9>  C       -1.5174841549    -3.2143627990    -0.8339903663
| 10>  C       -1.8351526037    -4.6383352585    -0.8834866279
| 11>  C       -2.8711497203    -5.0463753944     0.1502908827
| 12>  C       -2.8975999538    -6.3983032743     0.7184807892
| 13>  O       -2.3959482692    -5.2911152406     1.4711787676
| 14>  H        0.2288306454     1.4280813297     1.4837046196
| 15>  H        0.5371010056    -0.8051660539     0.8401972865
| 16>  H       -1.0950870158    -0.4983874393     1.4656228667
| 17>  H       -1.8819494529    -0.0126927149    -0.8545782697
| 18>  H       -0.2676628130    -0.3191334466    -1.4733268694
| 19>  H       -2.2141163794    -4.9001365842    -1.8812175547
| 20>  H       -0.9307010306    -5.2377222567    -0.7227028904
| 21>  H       -3.8044357256    -4.4839244242     0.1088607156
| 22>  H       -3.8368119125    -6.8212420766     1.0718848882
| 23>  H       -2.1500678826    -7.1273306042     0.4066762409
| 24> *
| 25>
| 26>                          ****END OF INPUT****

CARTESIAN COORDINATES (ANGSTROEM)
---------------------------------
  O     -0.136063    1.165302    0.633982
  C     -0.384979   -0.229973    0.669637
  C     -0.978312   -0.612590   -0.690912
  C     -1.283616   -2.034221   -0.785320
  C     -1.517484   -3.214363   -0.833990
  C     -1.835153   -4.638335   -0.883487
  C     -2.871150   -5.046375    0.150291
  C     -2.897600   -6.398303    0.718481
  O     -2.395948   -5.291115    1.471179
  H      0.228831    1.428081    1.483705
  H      0.537101   -0.805166    0.840197
  H     -1.095087   -0.498387    1.465623
  H     -1.881949   -0.012693   -0.854578
  H     -0.267663   -0.319133   -1.473327
  H     -2.214116   -4.900137   -1.881218
  H     -0.930701   -5.237722   -0.722703
  H     -3.804436   -4.483924    0.108861
  H     -3.836812   -6.821242    1.071885
  H     -2.150068   -7.127331    0.406676

 Total Charge           Charge          ....    0
 Multiplicity           Mult            ....    1
 Number of Electrons    NEL             ....   68
 Basis Dimension        Dim             ....  339

ORBITAL ENERGIES
----------------

  NO   OCC          E(Eh)            E(eV)
   0   2.0000     -20.570699      -559.7572
   1   2.0000     -20.559043      -559.4400
   2   2.0000     -11.295422      -307.3641
   3   2.0000     -11.286674      -307.1260
   4   2.0000     -11.281100      -306.9743
   5   2.0000     -11.259448      -306.3852
   6   2.0000     -11.245044      -305.9932
   7   2.0000     -11.223480      -305.4064
   8   2.0000     -11.219635      -305.3018
   9   2.0000      -1.415757       -38.5247
  10   2.0000      -1.363957       -37.1151
  11   2.0000      -1.085310       -29.5328
  12   2.0000      -1.047679       -28.5088
  13   2.0000      -0.966382       -26.2966
  14   2.0000      -0.914508       -24.8850
  15   2.0000      -0.855371       -23.2758
  16   2.0000      -0.827928       -22.5291
  17   2.0000      -0.719721       -19.5846
  18   2.0000      -0.706553       -19.2263
  19   2.0000      -0.659370       -17.9424
  20   2.0000      -0.655587       -17.8394
  21   2.0000      -0.643602       -17.5133
  22   2.0000      -0.605960       -16.4890
  23   2.0000      -0.591664       -16.1000
  24   2.0000      -0.583254       -15.8711
  25   2.0000      -0.553050       -15.0493
  26   2.0000      -0.540443       -14.7062
  27   2.0000      -0.532193       -14.4817
  28   2.0000      -0.502946       -13.6859
  29   2.0000      -0.457178       -12.4405
  30   2.0000      -0.448725       -12.2104
  31   2.0000      -0.446082       -12.1385
  32   2.0000      -0.370075       -10.0703
  33   2.0000      -0.369060       -10.0426
  34   0.0000       0.135591         3.6896
  35   0.0000       0.144394         3.9292
  36   0.0000       0.161307         4.3894
  37   0.0000       0.173443         4.7196
  38   0.0000       0.173856         4.7309

MULLIKEN ATOMIC CHARGES
-----------------------
   0 O :   -0.464020
   1 C :   -0.046469
   2 C :   -0.244345
   3 C :    0.018443
   4 C :   -0.032212
   5 C :   -0.364159
   6 C :    0.063097
   7 C :   -0.069153
   8 O :   -0.328124
   9 H :    0.318538
  10 H :    0.101971
  11 H :    0.105349
  12 H :    0.139885
  13 H :    0.141744
  14 H :    0.147001
  15 H :    0.151869
  16 H :    0.126086
  17 H :    0.118684
  18 H :    0.115814
Sum of atomic charges:    0.0000000

LOEWDIN ATOMIC CHARGES
----------------------
   0 O :   -0.050527
   1 C :   -0.336450
   2 C :   -0.252310
   3 C :   -0.076723
   4 C :   -0.076766
   5 C :   -0.236985
   6 C :   -0.283082
   7 C :   -0.266709
   8 O :    0.148399
   9 H :    0.174147
  10 H :    0.118350
  11 H :    0.119060
  12 H :    0.157075
  13 H :    0.157488
  14 H :    0.162286
  15 H :    0.162722
  16 H :    0.140363
  17 H :    0.119581
  18 H :    0.120083

  Mayer bond orders larger than 0.1
B(  0-O ,  1-C ) :   1.0138 B(  0-O ,  2-C ) :  -0.1177 B(  0-O ,  9-H ) :   0.8473
B(  1-C ,  2-C ) :   0.9461 B(  1-C , 10-H ) :   0.9302 B(  1-C , 11-H ) :   0.9303
B(  2-C ,  3-C ) :   0.9312 B(  2-C , 12-H ) :   0.9277 B(  2-C , 13-H ) :   0.9309
B(  3-C ,  4-C ) :   2.6365 B(  4-C ,  5-C ) :   1.0268 B(  5-C ,  6-C ) :   0.9187
B(  5-C , 14-H ) :   0.9388 B(  5-C , 15-H ) :   0.9347 B(  6-C ,  7-C ) :   0.9786
B(  6-C ,  8-O ) :   0.8928 B(  6-C , 16-H ) :   0.9182 B(  7-C ,  8-O ) :   0.9096
B(  7-C , 17-H ) :   0.9179 B(  7-C , 18-H ) :   0.9124

MP2 TOTAL ENERGY:     -422.254626391 Eh
FINAL SINGLE POINT ENERGY      -422.254626391043

DIPOLE MOMENT
-------------
                                X             Y             Z
Electronic contribution:     -0.34971      -0.43519       0.53726
Nuclear contribution   :      0.22674      -0.10226      -0.61414
                        -----------------------------------------
Total Dipole Moment    :     -0.12297      -0.53746      -0.07687
                        -----------------------------------------
Magnitude (a.u.)       :      0.55668
Magnitude (Debye)      :      1.41496

                             ****ORCA TERMINATED NORMALLY****
TOTAL RUN TIME: 0 days 0 hours 13 minutes 22 seconds 521 msec
