                         Program Version 3.0.3 - RELEASE   -
|  1> ! RI-MP2 RIJK def2-TZVP def2-TZVP/C def2-TZVP/JK TIGHTSCF
|  2> % maxcore 2000
|  3> % mp2 density relaxed end
|  4> *xyz 0 1
|  5>  O       -0.2201337239     0.3688857373     0.7986625829
|  6>  C        0.1089522131     1.0696817532    -0.1265198890
|  7>  C        1.3562464748     1.9121793176    -0.0933386945
|  8>  C        1.5185053157     2.7238756325     1.1801787023
|  9>  N        2.3405147569     1.5555471996     0.9591516235
| 10>  C        1.8422717884     2.3951590487    -1.3501818058
| 11>  C        2.1951446045     2.7919714703    -2.4383171730
| 12>  C        2.6034075249     3.2437817584    -3.6537732918
| 13>  C        2.9632399452     3.6443490329    -4.7346212577
| 14>  H       -0.4827687761     1.1361979811    -1.0598227139
| 15>  H        2.0267961797     3.6794134749     1.0975812223
| 16>  H        0.6984828141     2.6713952510     1.8913207811
| 17>  H        1.9335718017     0.7659613963     1.4649051600
| 18>  H        3.2830607910     3.9968867261    -5.6838692463
| 19> *
| 20>
| 21>                          ****END OF INPUT****

CARTESIAN COORDINATES (ANGSTROEM)
---------------------------------
  O     -0.220134    0.368886    0.798663
  C      0.108952    1.069682   -0.126520
  C      1.356246    1.912179   -0.093339
  C      1.518505    2.723876    1.180179
  N      2.340515    1.555547    0.959152
  C      1.842272    2.395159   -1.350182
  C      2.195145    2.791971   -2.438317
  C      2.603408    3.243782   -3.653773
  C      2.963240    3.644349   -4.734621
  H     -0.482769    1.136198   -1.059823
  H      2.026796    3.679413    1.097581
  H      0.698483    2.671395    1.891321
  H      1.933572    0.765961    1.464905
  H      3.283061    3.996887   -5.683869

 Total Charge           Charge          ....    0
 Multiplicity           Mult            ....    1
 Number of Electrons    NEL             ....   62
 Basis Dimension        Dim             ....  309

ORBITAL ENERGIES
----------------

  NO   OCC          E(Eh)            E(eV)
   0   2.0000     -20.579936      -560.0085
   1   2.0000     -15.594933      -424.3597
   2   2.0000     -11.359356      -309.1038
   3   2.0000     -11.317373      -307.9614
   4   2.0000     -11.297238      -307.4135
   5   2.0000     -11.270335      -306.6814
   6   2.0000     -11.267832      -306.6133
   7   2.0000     -11.266365      -306.5734
   8   2.0000     -11.259520      -306.3871
   9   2.0000      -1.422951       -38.7205
  10   2.0000      -1.301660       -35.4200
  11   2.0000      -1.102729       -30.0068
  12   2.0000      -1.044720       -28.4283
  13   2.0000      -0.977332       -26.5946
  14   2.0000      -0.906141       -24.6574
  15   2.0000      -0.861050       -23.4304
  16   2.0000      -0.809340       -22.0233
  17   2.0000      -0.750573       -20.4241
  18   2.0000      -0.721813       -19.6415
  19   2.0000      -0.705214       -19.1899
  20   2.0000      -0.659933       -17.9577
  21   2.0000      -0.613861       -16.7040
  22   2.0000      -0.570619       -15.5273
  23   2.0000      -0.542754       -14.7691
  24   2.0000      -0.531634       -14.4665
  25   2.0000      -0.497603       -13.5405
  26   2.0000      -0.485394       -13.2083
  27   2.0000      -0.454689       -12.3727
  28   2.0000      -0.432511       -11.7692
  29   2.0000      -0.369755       -10.0615
  30   2.0000      -0.354926        -9.6580
  31   0.0000       0.087234         2.3737
  32   0.0000       0.098471         2.6795
  33   0.0000       0.116523         3.1708
  34   0.0000       0.145929         3.9709
  35   0.0000       0.161879         4.4050

MULLIKEN ATOMIC CHARGES
-----------------------
   0 O :   -0.285942
   1 C :    0.107675
   2 C :   -0.116416
   3 C :   -0.149593
   4 N :   -0.333487
   5 C :   -0.020455
   6 C :    0.100814
   7 C :   -0.012688
   8 C :   -0.137420
   9 H :    0.113259
  10 H :    0.144895
  11 H :    0.150653
  12 H :    0.240844
  13 H :    0.197861
Sum of atomic charges:   -0.0000000

LOEWDIN ATOMIC CHARGES
----------------------
   0 O :    0.137335
   1 C :   -0.244014
   2 C :   -0.292848
   3 C :   -0.203035
   4 N :    0.049937
   5 C :    0.015093
   6 C :   -0.038470
   7 C :   -0.095051
   8 C :   -0.036688
   9 H :    0.127661
  10 H :    0.135831
  11 H :    0.132140
  12 H :    0.180348
  13 H :    0.131760

  Mayer bond orders larger than 0.1
B(  0-O ,  1-C ) :   1.9058 B(  1-C ,  2-C ) :   0.9586 B(  1-C ,  9-H ) :   0.9364
B(  2-C ,  3-C ) :   0.8744 B(  2-C ,  4-N ) :   0.9701 B(  2-C ,  5-C ) :   0.9853
B(  2-C ,  6-C ) :  -0.2051 B(  3-C ,  4-N ) :   0.9413 B(  3-C , 10-H ) :   0.9247
B(  3-C , 11-H ) :   0.9033 B(  4-N , 12-H ) :   0.8516 B(  5-C ,  6-C ) :   2.5871
B(  5-C ,  8-C ) :   0.1292 B(  6-C ,  7-C ) :   1.2980 B(  7-C ,  8-C ) :   2.5372
B(  8-C , 13-H ) :   0.8848

MP2 TOTAL ENERGY:     -398.756851281 Eh
FINAL SINGLE POINT ENERGY      -398.756851280958

DIPOLE MOMENT
-------------
                                X             Y             Z
Electronic contribution:      0.16621      -0.87217      -2.52371
Nuclear contribution   :     -0.42646       1.47673       2.25150
                        -----------------------------------------
Total Dipole Moment    :     -0.26025       0.60455      -0.27222
                        -----------------------------------------
Magnitude (a.u.)       :      0.71226
Magnitude (Debye)      :      1.81043

                             ****ORCA TERMINATED NORMALLY****
TOTAL RUN TIME: 0 days 0 hours 13 minutes 18 seconds 733 msec
