                         Program Version 3.0.3 - RELEASE   -
|  1> ! RI-MP2 RIJK def2-TZVP def2-TZVP/C def2-TZVP/JK TIGHTSCF
|  2> % maxcore 2000
|  3> % mp2 density relaxed end
|  4> *xyz 0 1
|  5>  C        0.0250374867     1.5188258771    -0.0570013860
|  6>  C        1.5358240676     1.9210642681     0.0309285036
|  7>  C        2.1093752038     0.6868542127     0.6516865520
|  8>  C        1.2617748152    -0.3941386869     0.6536059395
|  9>  C       -0.0544387045    -0.0438654879     0.0176180151
| 10>  C        2.0133235988    -1.4391962964     1.2283879503
| 11>  N        3.2384520986    -1.0266341449     1.5624151597
| 12>  N        3.2780208614     0.2785004006     1.1912587029
| 13>  H       -0.4989742895     1.9416305585     0.8053398773
| 14>  H       -0.4546032296     1.9196817434    -0.9534508847
| 15>  H        1.9639706064     2.1084593987    -0.9628092421
| 16>  H        1.6833306037     2.8341879083     0.6171823328
| 17>  H       -0.9303588285    -0.3708525240     0.5871508633
| 18>  H       -0.1503881162    -0.4843416624    -0.9834833878
| 19>  H        1.7348104213    -2.4643347747     1.4256463617
| 20>  H        4.1189249348     0.8018267298     1.3642442624
| 21> *
| 22>
| 23>                          ****END OF INPUT****

CARTESIAN COORDINATES (ANGSTROEM)
---------------------------------
  C      0.025037    1.518826   -0.057001
  C      1.535824    1.921064    0.030929
  C      2.109375    0.686854    0.651687
  C      1.261775   -0.394139    0.653606
  C     -0.054439   -0.043865    0.017618
  C      2.013324   -1.439196    1.228388
  N      3.238452   -1.026634    1.562415
  N      3.278021    0.278500    1.191259
  H     -0.498974    1.941631    0.805340
  H     -0.454603    1.919682   -0.953451
  H      1.963971    2.108459   -0.962809
  H      1.683331    2.834188    0.617182
  H     -0.930359   -0.370853    0.587151
  H     -0.150388   -0.484342   -0.983483
  H      1.734810   -2.464335    1.425646
  H      4.118925    0.801827    1.364244

 Total Charge           Charge          ....    0
 Multiplicity           Mult            ....    1
 Number of Electrons    NEL             ....   58
 Basis Dimension        Dim             ....  296

ORBITAL ENERGIES
----------------

  NO   OCC          E(Eh)            E(eV)
   0   2.0000     -15.627335      -425.2414
   1   2.0000     -15.576434      -423.8563
   2   2.0000     -11.261094      -306.4300
   3   2.0000     -11.246281      -306.0269
   4   2.0000     -11.246229      -306.0255
   5   2.0000     -11.234923      -305.7178
   6   2.0000     -11.232724      -305.6580
   7   2.0000     -11.206169      -304.9354
   8   2.0000      -1.360208       -37.0132
   9   2.0000      -1.131306       -30.7844
  10   2.0000      -1.087328       -29.5877
  11   2.0000      -0.990816       -26.9615
  12   2.0000      -0.958770       -26.0895
  13   2.0000      -0.820472       -22.3262
  14   2.0000      -0.808211       -21.9925
  15   2.0000      -0.757927       -20.6242
  16   2.0000      -0.707720       -19.2580
  17   2.0000      -0.651590       -17.7307
  18   2.0000      -0.595220       -16.1968
  19   2.0000      -0.589488       -16.0408
  20   2.0000      -0.565821       -15.3968
  21   2.0000      -0.555971       -15.1287
  22   2.0000      -0.532990       -14.5034
  23   2.0000      -0.505401       -13.7527
  24   2.0000      -0.489948       -13.3322
  25   2.0000      -0.487601       -13.2683
  26   2.0000      -0.438867       -11.9422
  27   2.0000      -0.355935        -9.6855
  28   2.0000      -0.318462        -8.6658
  29   0.0000       0.130733         3.5574
  30   0.0000       0.143609         3.9078
  31   0.0000       0.151933         4.1343
  32   0.0000       0.168279         4.5791
  33   0.0000       0.187609         5.1051

MULLIKEN ATOMIC CHARGES
-----------------------
   0 C :   -0.220793
   1 C :   -0.217360
   2 C :    0.040518
   3 C :   -0.025806
   4 C :   -0.193155
   5 C :   -0.161861
   6 N :   -0.197652
   7 N :   -0.143333
   8 H :    0.116170
   9 H :    0.126781
  10 H :    0.121523
  11 H :    0.129712
  12 H :    0.127244
  13 H :    0.117859
  14 H :    0.127561
  15 H :    0.252591
Sum of atomic charges:   -0.0000000

LOEWDIN ATOMIC CHARGES
----------------------
   0 C :   -0.220060
   1 C :   -0.216940
   2 C :   -0.225222
   3 C :   -0.172795
   4 C :   -0.212476
   5 C :   -0.257166
   6 N :    0.017592
   7 N :    0.143194
   8 H :    0.137753
   9 H :    0.130051
  10 H :    0.141287
  11 H :    0.138043
  12 H :    0.137905
  13 H :    0.139509
  14 H :    0.132686
  15 H :    0.186641

  Mayer bond orders larger than 0.1
B(  0-C ,  1-C ) :   0.9455 B(  0-C ,  4-C ) :   0.9492 B(  0-C ,  8-H ) :   0.9280
B(  0-C ,  9-H ) :   0.9405 B(  1-C ,  2-C ) :   0.9305 B(  1-C , 10-H ) :   0.9030
B(  1-C , 11-H ) :   0.9276 B(  2-C ,  3-C ) :   1.3515 B(  2-C ,  6-N ) :   0.1017
B(  2-C ,  7-N ) :   1.1943 B(  3-C ,  4-C ) :   0.9140 B(  3-C ,  5-C ) :   1.2759
B(  4-C , 12-H ) :   0.9325 B(  4-C , 13-H ) :   0.9058 B(  5-C ,  6-N ) :   1.5460
B(  5-C , 14-H ) :   0.9443 B(  6-N ,  7-N ) :   1.0560 B(  7-N , 15-H ) :   0.8699

MP2 TOTAL ENERGY:     -342.207231650 Eh
FINAL SINGLE POINT ENERGY      -342.207231650208

DIPOLE MOMENT
-------------
                                X             Y             Z
Electronic contribution:      5.28816      -3.32247       2.72175
Nuclear contribution   :     -5.57878       4.30348      -3.12447
                        -----------------------------------------
Total Dipole Moment    :     -0.29063       0.98101      -0.40272
                        -----------------------------------------
Magnitude (a.u.)       :      1.09956
Magnitude (Debye)      :      2.79486

                             ****ORCA TERMINATED NORMALLY****
TOTAL RUN TIME: 0 days 0 hours 12 minutes 50 seconds 251 msec
