                         Program Version 3.0.3 - RELEASE   -
|  1> ! RI-MP2 RIJK def2-TZVP def2-TZVP/C def2-TZVP/JK TIGHTSCF
|  2> % maxcore 2000
|  3> % mp2 density relaxed end
|  4> *xyz 0 1
|  5>  C       -0.2312385715     1.3950785446     0.1210699559
|  6>  N        0.0123792146    -0.0275539593     0.0048603459
|  7>  C        0.0136125739    -0.7414940566    -1.1630153008
|  8>  C        0.2064123458    -2.0740800711    -0.8689623846
|  9>  C        0.3123535673    -2.1537206754     0.5451565400
| 10>  O        0.5751712512    -3.2660818947     1.3103871756
| 11>  C       -0.1590274308    -4.3778692113     1.0661079987
| 12>  N        0.1392063712    -5.4592050027     1.6420470135
| 13>  C        0.1865086887    -0.8860615075     1.0643874109
| 14>  H        0.4496575888     1.8344640511     0.8550807335
| 15>  H       -0.0501731188     1.8701417502    -0.8451061036
| 16>  H       -1.2618899295     1.6060411665     0.4281679109
| 17>  H       -0.1150687893    -0.2425674660    -2.1104053599
| 18>  H        0.2993540030    -2.8823214090    -1.5766777847
| 19>  H       -0.9822209865    -4.2003508561     0.3636595043
| 20>  H       -0.5197597115    -6.1859420240     1.3704085465
| 21>  H        0.2176202336    -0.5374703586     2.0828934580
| 22> *
| 23>
| 24>                          ****END OF INPUT****

CARTESIAN COORDINATES (ANGSTROEM)
---------------------------------
  C     -0.231239    1.395079    0.121070
  N      0.012379   -0.027554    0.004860
  C      0.013613   -0.741494   -1.163015
  C      0.206412   -2.074080   -0.868962
  C      0.312354   -2.153721    0.545157
  O      0.575171   -3.266082    1.310387
  C     -0.159027   -4.377869    1.066108
  N      0.139206   -5.459205    1.642047
  C      0.186509   -0.886062    1.064387
  H      0.449658    1.834464    0.855081
  H     -0.050173    1.870142   -0.845106
  H     -1.261890    1.606041    0.428168
  H     -0.115069   -0.242567   -2.110405
  H      0.299354   -2.882321   -1.576678
  H     -0.982221   -4.200351    0.363660
  H     -0.519760   -6.185942    1.370409
  H      0.217620   -0.537470    2.082893

 Total Charge           Charge          ....    0
 Multiplicity           Mult            ....    1
 Number of Electrons    NEL             ....   66
 Basis Dimension        Dim             ....  327

ORBITAL ENERGIES
----------------

  NO   OCC          E(Eh)            E(eV)
   0   2.0000     -20.598089      -560.5025
   1   2.0000     -15.617738      -424.9803
   2   2.0000     -15.538257      -422.8175
   3   2.0000     -11.336109      -308.4712
   4   2.0000     -11.282923      -307.0239
   5   2.0000     -11.282102      -307.0016
   6   2.0000     -11.265116      -306.5394
   7   2.0000     -11.252636      -306.1998
   8   2.0000     -11.221059      -305.3405
   9   2.0000      -1.436893       -39.0998
  10   2.0000      -1.312516       -35.7154
  11   2.0000      -1.198366       -32.6092
  12   2.0000      -1.084110       -29.5001
  13   2.0000      -0.992871       -27.0174
  14   2.0000      -0.946277       -25.7495
  15   2.0000      -0.857497       -23.3337
  16   2.0000      -0.783244       -21.3132
  17   2.0000      -0.773251       -21.0412
  18   2.0000      -0.741231       -20.1699
  19   2.0000      -0.681452       -18.5432
  20   2.0000      -0.649318       -17.6688
  21   2.0000      -0.641347       -17.4519
  22   2.0000      -0.627346       -17.0709
  23   2.0000      -0.610662       -16.6170
  24   2.0000      -0.581278       -15.8174
  25   2.0000      -0.578967       -15.7545
  26   2.0000      -0.555533       -15.1168
  27   2.0000      -0.528829       -14.3902
  28   2.0000      -0.523051       -14.2329
  29   2.0000      -0.436376       -11.8744
  30   2.0000      -0.414100       -11.2682
  31   2.0000      -0.340840        -9.2747
  32   2.0000      -0.304751        -8.2927
  33   0.0000       0.131392         3.5754
  34   0.0000       0.142295         3.8720
  35   0.0000       0.154275         4.1980
  36   0.0000       0.162845         4.4312
  37   0.0000       0.170866         4.6495

MULLIKEN ATOMIC CHARGES
-----------------------
   0 C :   -0.322107
   1 N :    0.010448
   2 C :   -0.140181
   3 C :   -0.254112
   4 C :    0.166441
   5 O :   -0.222448
   6 C :    0.056167
   7 N :   -0.338334
   8 C :   -0.188061
   9 H :    0.154024
  10 H :    0.149721
  11 H :    0.153178
  12 H :    0.149555
  13 H :    0.147032
  14 H :    0.098457
  15 H :    0.225796
  16 H :    0.154425
Sum of atomic charges:   -0.0000000

LOEWDIN ATOMIC CHARGES
----------------------
   0 C :   -0.268699
   1 N :    0.229734
   2 C :   -0.221679
   3 C :   -0.186749
   4 C :   -0.287028
   5 O :    0.307843
   6 C :   -0.379532
   7 N :   -0.078843
   8 C :   -0.194156
   9 H :    0.126731
  10 H :    0.128247
  11 H :    0.122715
  12 H :    0.135603
  13 H :    0.143250
  14 H :    0.113705
  15 H :    0.168529
  16 H :    0.140327

  Mayer bond orders larger than 0.1
B(  0-C ,  1-N ) :   0.8639 B(  0-C ,  9-H ) :   0.9314 B(  0-C , 10-H ) :   0.9338
B(  0-C , 11-H ) :   0.9263 B(  1-N ,  2-C ) :   1.1618 B(  1-N ,  8-C ) :   1.1243
B(  2-C ,  3-C ) :   1.4257 B(  2-C , 12-H ) :   0.9066 B(  3-C ,  4-C ) :   1.2829
B(  3-C , 13-H ) :   0.9218 B(  4-C ,  5-O ) :   0.9602 B(  4-C ,  8-C ) :   1.4716
B(  5-O ,  6-C ) :   1.0127 B(  6-C ,  7-N ) :   1.9649 B(  6-C , 14-H ) :   0.9290
B(  7-N , 15-H ) :   0.8507 B(  8-C , 16-H ) :   0.9035

MP2 TOTAL ENERGY:     -417.312110911 Eh
FINAL SINGLE POINT ENERGY      -417.312110910778

DIPOLE MOMENT
-------------
                                X             Y             Z
Electronic contribution:      1.68500      -5.04947       1.82707
Nuclear contribution   :     -2.63832       6.53035      -2.70191
                        -----------------------------------------
Total Dipole Moment    :     -0.95332       1.48088      -0.87484
                        -----------------------------------------
Magnitude (a.u.)       :      1.96651
Magnitude (Debye)      :      4.99848

                             ****ORCA TERMINATED NORMALLY****
TOTAL RUN TIME: 0 days 0 hours 14 minutes 27 seconds 853 msec
