                         Program Version 3.0.3 - RELEASE   -
|  1> ! RI-MP2 RIJK def2-TZVP def2-TZVP/C def2-TZVP/JK TIGHTSCF
|  2> % maxcore 2000
|  3> % mp2 density relaxed end
|  4> *xyz 0 1
|  5>  C        0.0968352960    -1.1900947212    -0.0122833064
|  6>  C       -0.0027148798     0.0115345651    -0.0110428180
|  7>  C       -0.0562417085     1.4197907010    -0.0345295102
|  8>  C       -1.1206581184     2.2308412376     0.0961699637
|  9>  C       -0.6530724921     3.6363194221     0.0682466261
| 10>  C        0.5219645383     4.0496505661     0.9235087786
| 11>  C        1.3766343851     2.8889809740     1.3991976273
| 12>  C        1.1806227843     2.3058154281    -0.0376394277
| 13>  N        0.7058298607     3.6810110267    -0.5248459646
| 14>  H        0.1670996876    -2.2494942285    -0.0099771150
| 15>  H       -2.1514272562     1.9300808660     0.2231884666
| 16>  H       -1.3213875108     4.4309076800    -0.2486046688
| 17>  H        0.6096137638     5.0761156834     1.2678636911
| 18>  H        2.4066096595     3.2198662750     1.5469555318
| 19>  H        1.0534162892     2.2882420595     2.2538430660
| 20>  H        2.0517999313     1.9160646852    -0.5600088804
| 21> *
| 22>
| 23>                          ****END OF INPUT****

CARTESIAN COORDINATES (ANGSTROEM)
---------------------------------
  C      0.096835   -1.190095   -0.012283
  C     -0.002715    0.011535   -0.011043
  C     -0.056242    1.419791   -0.034530
  C     -1.120658    2.230841    0.096170
  C     -0.653072    3.636319    0.068247
  C      0.521965    4.049651    0.923509
  C      1.376634    2.888981    1.399198
  C      1.180623    2.305815   -0.037639
  N      0.705830    3.681011   -0.524846
  H      0.167100   -2.249494   -0.009977
  H     -2.151427    1.930081    0.223188
  H     -1.321388    4.430908   -0.248605
  H      0.609614    5.076116    1.267864
  H      2.406610    3.219866    1.546956
  H      1.053416    2.288242    2.253843
  H      2.051800    1.916065   -0.560009

 Total Charge           Charge          ....    0
 Multiplicity           Mult            ....    1
 Number of Electrons    NEL             ....   62
 Basis Dimension        Dim             ....  321

ORBITAL ENERGIES
----------------

  NO   OCC          E(Eh)            E(eV)
   0   2.0000     -15.567584      -423.6155
   1   2.0000     -11.275772      -306.8293
   2   2.0000     -11.272631      -306.7439
   3   2.0000     -11.271755      -306.7200
   4   2.0000     -11.259407      -306.3840
   5   2.0000     -11.250414      -306.1393
   6   2.0000     -11.243835      -305.9603
   7   2.0000     -11.239541      -305.8435
   8   2.0000     -11.234395      -305.7034
   9   2.0000      -1.314331       -35.7648
  10   2.0000      -1.104255       -30.0483
  11   2.0000      -1.027161       -27.9505
  12   2.0000      -1.014370       -27.6024
  13   2.0000      -0.941468       -25.6186
  14   2.0000      -0.852584       -23.2000
  15   2.0000      -0.795062       -21.6347
  16   2.0000      -0.751034       -20.4367
  17   2.0000      -0.727312       -19.7912
  18   2.0000      -0.705491       -19.1974
  19   2.0000      -0.655197       -17.8288
  20   2.0000      -0.607466       -16.5300
  21   2.0000      -0.589546       -16.0424
  22   2.0000      -0.566461       -15.4142
  23   2.0000      -0.535354       -14.5677
  24   2.0000      -0.505210       -13.7475
  25   2.0000      -0.468107       -12.7378
  26   2.0000      -0.455705       -12.4004
  27   2.0000      -0.445370       -12.1191
  28   2.0000      -0.394468       -10.7340
  29   2.0000      -0.392344       -10.6762
  30   2.0000      -0.316400        -8.6097
  31   0.0000       0.094544         2.5727
  32   0.0000       0.150565         4.0971
  33   0.0000       0.159068         4.3285
  34   0.0000       0.170151         4.6301
  35   0.0000       0.172471         4.6932

MULLIKEN ATOMIC CHARGES
-----------------------
   0 C :   -0.125452
   1 C :    0.046666
   2 C :   -0.258180
   3 C :   -0.165895
   4 C :   -0.057029
   5 C :   -0.081844
   6 C :   -0.236654
   7 C :    0.098441
   8 N :   -0.228055
   9 H :    0.194741
  10 H :    0.143199
  11 H :    0.140469
  12 H :    0.130418
  13 H :    0.129950
  14 H :    0.123349
  15 H :    0.145875
Sum of atomic charges:   -0.0000000

LOEWDIN ATOMIC CHARGES
----------------------
   0 C :   -0.072234
   1 C :   -0.072895
   2 C :   -0.139489
   3 C :   -0.077929
   4 C :   -0.217297
   5 C :   -0.197548
   6 C :   -0.201756
   7 C :   -0.151495
   8 N :    0.153575
   9 H :    0.128470
  10 H :    0.146717
  11 H :    0.148567
  12 H :    0.133764
  13 H :    0.144930
  14 H :    0.132282
  15 H :    0.142337

  Mayer bond orders larger than 0.1
B(  0-C ,  1-C ) :   2.5750 B(  0-C ,  2-C ) :  -0.1632 B(  0-C ,  9-H ) :   0.8779
B(  1-C ,  2-C ) :   1.1747 B(  2-C ,  3-C ) :   1.6744 B(  2-C ,  7-C ) :   0.9496
B(  3-C ,  4-C ) :   0.9893 B(  3-C , 10-H ) :   0.9222 B(  4-C ,  5-C ) :   0.9157
B(  4-C ,  8-N ) :   0.9279 B(  4-C , 11-H ) :   0.9112 B(  5-C ,  6-C ) :   0.9740
B(  5-C ,  8-N ) :   0.8572 B(  5-C , 12-H ) :   0.9074 B(  6-C ,  7-C ) :   0.8976
B(  6-C , 13-H ) :   0.9184 B(  6-C , 14-H ) :   0.9033 B(  7-C ,  8-N ) :   0.9432
B(  7-C , 15-H ) :   0.9022

MP2 TOTAL ENERGY:     -362.866292942 Eh
FINAL SINGLE POINT ENERGY      -362.866292942103

DIPOLE MOMENT
-------------
                                X             Y             Z
Electronic contribution:     -1.14638      -1.54323      -2.09999
Nuclear contribution   :      1.02635       1.42693       2.74163
                        -----------------------------------------
Total Dipole Moment    :     -0.12004      -0.11630       0.64164
                        -----------------------------------------
Magnitude (a.u.)       :      0.66305
Magnitude (Debye)      :      1.68535

                             ****ORCA TERMINATED NORMALLY****
TOTAL RUN TIME: 0 days 0 hours 17 minutes 2 seconds 577 msec
