                         Program Version 3.0.3 - RELEASE   -
|  1> ! RI-MP2 RIJK def2-TZVP def2-TZVP/C def2-TZVP/JK TIGHTSCF
|  2> % maxcore 2000
|  3> % mp2 density relaxed end
|  4> *xyz 0 1
|  5>  C        0.1005038962     1.4250561625    -0.3759856207
|  6>  C        0.1507105945    -0.0329673701    -0.0399153679
|  7>  N       -0.8859681829    -0.6803503853     0.8072681820
|  8>  C        0.5470946726    -0.7618527208     1.1978879823
|  9>  C        1.1299399733    -1.9272031972     0.3970873743
| 10>  C        0.7265559777    -1.1654450787    -0.9212547155
| 11>  C       -0.2139321505    -1.8399183991    -1.8781954023
| 12>  C       -0.1958234474    -1.5591039820    -3.3206312735
| 13>  O        0.3751411408    -2.7614664153    -2.8070706150
| 14>  H        1.0619085185     1.7726560143    -0.7696243270
| 15>  H       -0.6645980427     1.6338322316    -1.1331983569
| 16>  H       -0.1350325439     2.0246622396     0.5104753813
| 17>  H       -1.3064760833     0.0598285352     1.3697948519
| 18>  H        0.8753381298    -0.3760509330     2.1559016687
| 19>  H        2.2115767026    -2.0358650285     0.4958618877
| 20>  H        0.6469950924    -2.8930883363     0.5643242267
| 21>  H        1.6191807304    -0.8319327472    -1.4586455630
| 22>  H       -1.1466960087    -2.1865925397    -1.4362747165
| 23>  H       -1.1041089889    -1.6839505946    -3.9092313288
| 24>  H        0.5163898295    -0.8371248753    -3.7205691478
| 25> *
| 26>
| 27>                          ****END OF INPUT****

CARTESIAN COORDINATES (ANGSTROEM)
---------------------------------
  C      0.100504    1.425056   -0.375986
  C      0.150711   -0.032967   -0.039915
  N     -0.885968   -0.680350    0.807268
  C      0.547095   -0.761853    1.197888
  C      1.129940   -1.927203    0.397087
  C      0.726556   -1.165445   -0.921255
  C     -0.213932   -1.839918   -1.878195
  C     -0.195823   -1.559104   -3.320631
  O      0.375141   -2.761466   -2.807071
  H      1.061909    1.772656   -0.769624
  H     -0.664598    1.633832   -1.133198
  H     -0.135033    2.024662    0.510475
  H     -1.306476    0.059829    1.369795
  H      0.875338   -0.376051    2.155902
  H      2.211577   -2.035865    0.495862
  H      0.646995   -2.893088    0.564324
  H      1.619181   -0.831933   -1.458646
  H     -1.146696   -2.186593   -1.436275
  H     -1.104109   -1.683951   -3.909231
  H      0.516390   -0.837125   -3.720569

 Total Charge           Charge          ....    0
 Multiplicity           Mult            ....    1
 Number of Electrons    NEL             ....   68
 Basis Dimension        Dim             ....  345

ORBITAL ENERGIES
----------------

  NO   OCC          E(Eh)            E(eV)
   0   2.0000     -20.558839      -559.4344
   1   2.0000     -15.558850      -423.3778
   2   2.0000     -11.275926      -306.8336
   3   2.0000     -11.275128      -306.8118
   4   2.0000     -11.268967      -306.6442
   5   2.0000     -11.259937      -306.3985
   6   2.0000     -11.236670      -305.7653
   7   2.0000     -11.234070      -305.6946
   8   2.0000     -11.226686      -305.4936
   9   2.0000      -1.401055       -38.1246
  10   2.0000      -1.282096       -34.8876
  11   2.0000      -1.060407       -28.8551
  12   2.0000      -1.000803       -27.2332
  13   2.0000      -0.945924       -25.7399
  14   2.0000      -0.889285       -24.1987
  15   2.0000      -0.837744       -22.7962
  16   2.0000      -0.806580       -21.9482
  17   2.0000      -0.747213       -20.3327
  18   2.0000      -0.681678       -18.5494
  19   2.0000      -0.671081       -18.2610
  20   2.0000      -0.647737       -17.6258
  21   2.0000      -0.611313       -16.6347
  22   2.0000      -0.581855       -15.8331
  23   2.0000      -0.574997       -15.6465
  24   2.0000      -0.563335       -15.3291
  25   2.0000      -0.542403       -14.7595
  26   2.0000      -0.521053       -14.1786
  27   2.0000      -0.511239       -13.9115
  28   2.0000      -0.480181       -13.0664
  29   2.0000      -0.473519       -12.8851
  30   2.0000      -0.440565       -11.9884
  31   2.0000      -0.437686       -11.9101
  32   2.0000      -0.411009       -11.1841
  33   2.0000      -0.358344        -9.7510
  34   0.0000       0.126084         3.4309
  35   0.0000       0.158606         4.3159
  36   0.0000       0.163768         4.4564
  37   0.0000       0.180042         4.8992
  38   0.0000       0.182978         4.9791

MULLIKEN ATOMIC CHARGES
-----------------------
   0 C :   -0.390571
   1 C :    0.121825
   2 N :   -0.401215
   3 C :   -0.161672
   4 C :   -0.158992
   5 C :   -0.054034
   6 C :   -0.024332
   7 C :   -0.067300
   8 O :   -0.336167
   9 H :    0.136736
  10 H :    0.145407
  11 H :    0.125648
  12 H :    0.209441
  13 H :    0.137555
  14 H :    0.118998
  15 H :    0.116736
  16 H :    0.113071
  17 H :    0.146049
  18 H :    0.115348
  19 H :    0.107469
Sum of atomic charges:    0.0000000

LOEWDIN ATOMIC CHARGES
----------------------
   0 C :   -0.279395
   1 C :   -0.265361
   2 N :    0.016149
   3 C :   -0.218527
   4 C :   -0.183720
   5 C :   -0.170579
   6 C :   -0.268165
   7 C :   -0.271203
   8 O :    0.140495
   9 H :    0.132041
  10 H :    0.131382
  11 H :    0.129900
  12 H :    0.169609
  13 H :    0.127950
  14 H :    0.135005
  15 H :    0.135696
  16 H :    0.158481
  17 H :    0.144833
  18 H :    0.117979
  19 H :    0.117429

  Mayer bond orders larger than 0.1
B(  0-C ,  1-C ) :   0.8857 B(  0-C ,  9-H ) :   0.9347 B(  0-C , 10-H ) :   0.9417
B(  0-C , 11-H ) :   0.9258 B(  1-C ,  2-N ) :   0.8956 B(  1-C ,  3-C ) :   0.8455
B(  1-C ,  5-C ) :   0.8967 B(  2-N ,  3-C ) :   0.9686 B(  2-N , 12-H ) :   0.8705
B(  3-C ,  4-C ) :   0.9527 B(  3-C , 13-H ) :   0.9137 B(  4-C ,  5-C ) :   0.9897
B(  4-C , 14-H ) :   0.9256 B(  4-C , 15-H ) :   0.8962 B(  5-C ,  6-C ) :   0.8971
B(  5-C , 16-H ) :   0.9196 B(  6-C ,  7-C ) :   0.9703 B(  6-C ,  8-O ) :   0.8655
B(  6-C , 17-H ) :   0.9198 B(  7-C ,  8-O ) :   0.9225 B(  7-C , 18-H ) :   0.9198
B(  7-C , 19-H ) :   0.9073

MP2 TOTAL ENERGY:     -402.390258187 Eh
FINAL SINGLE POINT ENERGY      -402.390258187455

DIPOLE MOMENT
-------------
                                X             Y             Z
Electronic contribution:     -0.39800      -4.38013      -0.98976
Nuclear contribution   :      0.50338       5.63132       1.37389
                        -----------------------------------------
Total Dipole Moment    :      0.10539       1.25119       0.38413
                        -----------------------------------------
Magnitude (a.u.)       :      1.31307
Magnitude (Debye)      :      3.33756

                             ****ORCA TERMINATED NORMALLY****
TOTAL RUN TIME: 0 days 0 hours 18 minutes 18 seconds 991 msec
