                         Program Version 3.0.3 - RELEASE   -
|  1> ! RI-MP2 RIJK def2-TZVP def2-TZVP/C def2-TZVP/JK TIGHTSCF
|  2> % maxcore 2000
|  3> % mp2 density relaxed end
|  4> *xyz 0 1
|  5>  N        0.1358241362    -1.1157952738     0.0190633117
|  6>  C        0.0622472430     0.0394405740     0.0145776840
|  7>  C       -0.0134266973     1.4618901984    -0.0045366526
|  8>  C        0.2685461099     2.2722572179    -1.2524421414
|  9>  C        1.0965154304     2.5123990567    -0.0310041943
| 10>  C        0.3273200324     3.2271746243     1.0920991629
| 11>  C       -1.0870347477     3.5314090513     0.7913222120
| 12>  N       -0.7219030138     2.1480069559     1.1580903500
| 13>  H        0.7711768376     1.6898909971    -2.0176531916
| 14>  H       -0.4352207913     2.9939437311    -1.6489615495
| 15>  H        2.1631900520     2.3398705218    -0.0006918711
| 16>  H        0.8196150346     3.5625502545     1.9980956828
| 17>  H       -1.6557908587     4.0066321814     1.5852156268
| 18>  H       -1.4358239073     3.7780179995    -0.2039736598
| 19> *
| 20>
| 21>                          ****END OF INPUT****

CARTESIAN COORDINATES (ANGSTROEM)
---------------------------------
  N      0.135824   -1.115795    0.019063
  C      0.062247    0.039441    0.014578
  C     -0.013427    1.461890   -0.004537
  C      0.268546    2.272257   -1.252442
  C      1.096515    2.512399   -0.031004
  C      0.327320    3.227175    1.092099
  C     -1.087035    3.531409    0.791322
  N     -0.721903    2.148007    1.158090
  H      0.771177    1.689891   -2.017653
  H     -0.435221    2.993944   -1.648962
  H      2.163190    2.339871   -0.000692
  H      0.819615    3.562550    1.998096
  H     -1.655791    4.006632    1.585216
  H     -1.435824    3.778018   -0.203974

 Total Charge           Charge          ....    0
 Multiplicity           Mult            ....    1
 Number of Electrons    NEL             ....   56
 Basis Dimension        Dim             ....  284

ORBITAL ENERGIES
----------------

  NO   OCC          E(Eh)            E(eV)
   0   2.0000     -15.593389      -424.3177
   1   2.0000     -15.569863      -423.6775
   2   2.0000     -11.321259      -308.0671
   3   2.0000     -11.293900      -307.3226
   4   2.0000     -11.285134      -307.0841
   5   2.0000     -11.281763      -306.9924
   6   2.0000     -11.276018      -306.8360
   7   2.0000     -11.273992      -306.7809
   8   2.0000      -1.334564       -36.3153
   9   2.0000      -1.215693       -33.0807
  10   2.0000      -1.148571       -31.2542
  11   2.0000      -0.973387       -26.4872
  12   2.0000      -0.922334       -25.0980
  13   2.0000      -0.853014       -23.2117
  14   2.0000      -0.793987       -21.6055
  15   2.0000      -0.745220       -20.2785
  16   2.0000      -0.703810       -19.1517
  17   2.0000      -0.649297       -17.6683
  18   2.0000      -0.590102       -16.0575
  19   2.0000      -0.581345       -15.8192
  20   2.0000      -0.559250       -15.2180
  21   2.0000      -0.532796       -14.4981
  22   2.0000      -0.529127       -14.3983
  23   2.0000      -0.506441       -13.7810
  24   2.0000      -0.474677       -12.9166
  25   2.0000      -0.457311       -12.4441
  26   2.0000      -0.405606       -11.0371
  27   2.0000      -0.368007       -10.0140
  28   0.0000       0.130656         3.5553
  29   0.0000       0.137802         3.7498
  30   0.0000       0.141876         3.8606
  31   0.0000       0.164389         4.4732
  32   0.0000       0.172025         4.6810

MULLIKEN ATOMIC CHARGES
-----------------------
   0 N :   -0.052740
   1 C :   -0.256706
   2 C :    0.242631
   3 C :   -0.240610
   4 C :   -0.144360
   5 C :   -0.053061
   6 C :   -0.152735
   7 N :   -0.230846
   8 H :    0.162102
   9 H :    0.141538
  10 H :    0.163717
  11 H :    0.148005
  12 H :    0.145520
  13 H :    0.127546
Sum of atomic charges:    0.0000000

LOEWDIN ATOMIC CHARGES
----------------------
   0 N :    0.075332
   1 C :   -0.154847
   2 C :   -0.219328
   3 C :   -0.159015
   4 C :   -0.131221
   5 C :   -0.188778
   6 C :   -0.231430
   7 N :    0.157999
   8 H :    0.158098
   9 H :    0.135052
  10 H :    0.149475
  11 H :    0.140455
  12 H :    0.141161
  13 H :    0.127048

  Mayer bond orders larger than 0.1
B(  0-N ,  1-C ) :   2.8561 B(  1-C ,  2-C ) :   0.9463 B(  2-C ,  3-C ) :   0.8502
B(  2-C ,  4-C ) :   0.8159 B(  2-C ,  7-N ) :   0.9355 B(  3-C ,  4-C ) :   0.8997
B(  3-C ,  8-H ) :   0.9175 B(  3-C ,  9-H ) :   0.8995 B(  4-C ,  5-C ) :   0.9330
B(  4-C , 10-H ) :   0.9070 B(  5-C ,  6-C ) :   0.9726 B(  5-C ,  7-N ) :   0.8591
B(  5-C , 11-H ) :   0.9001 B(  6-C ,  7-N ) :   0.8899 B(  6-C , 12-H ) :   0.9224
B(  6-C , 13-H ) :   0.8991

MP2 TOTAL ENERGY:     -340.894197659 Eh
FINAL SINGLE POINT ENERGY      -340.894197659340

DIPOLE MOMENT
-------------
                                X             Y             Z
Electronic contribution:      0.09539      -5.17339       1.05439
Nuclear contribution   :      0.21641       7.16183      -1.51390
                        -----------------------------------------
Total Dipole Moment    :      0.31180       1.98844      -0.45951
                        -----------------------------------------
Magnitude (a.u.)       :      2.06452
Magnitude (Debye)      :      5.24760

                             ****ORCA TERMINATED NORMALLY****
TOTAL RUN TIME: 0 days 0 hours 11 minutes 11 seconds 556 msec
