                         Program Version 3.0.3 - RELEASE   -
|  1> ! RI-MP2 RIJK def2-TZVP def2-TZVP/C def2-TZVP/JK TIGHTSCF
|  2> % maxcore 2000
|  3> % mp2 density relaxed end
|  4> *xyz 0 1
|  5>  O        0.0023199801     1.4360723150     0.0542277915
|  6>  C       -0.0057998701     0.0231604524     0.0236428758
|  7>  C       -1.4271094564    -0.4788717038     0.0050058574
|  8>  C       -2.5245263083     0.3787154203     0.0185038022
|  9>  C       -3.7740029304    -0.2273647335    -0.0013289933
| 10>  N       -3.9372860543    -1.5503544776    -0.0315820055
| 11>  C       -2.8063694764    -2.2639074705    -0.0417098306
| 12>  O       -2.9364479838    -3.5987708708    -0.0720915254
| 13>  N       -1.5600792711    -1.8079445271    -0.0252325310
| 14>  H        0.9163459839     1.7319953211     0.0630510747
| 15>  H        0.5058814204    -0.3765256910    -0.8655850129
| 16>  H        0.4960987695    -0.4145551039     0.9005042164
| 17>  H       -2.3976729842     1.4508278973     0.0429521397
| 18>  H       -4.6846013711     0.3675489421     0.0072841956
| 19>  H       -3.8875828380    -3.7727204300    -0.0808207847
| 20> *
| 21>
| 22>                          ****END OF INPUT****

CARTESIAN COORDINATES (ANGSTROEM)
---------------------------------
  O      0.002320    1.436072    0.054228
  C     -0.005800    0.023160    0.023643
  C     -1.427109   -0.478872    0.005006
  C     -2.524526    0.378715    0.018504
  C     -3.774003   -0.227365   -0.001329
  N     -3.937286   -1.550354   -0.031582
  C     -2.806369   -2.263907   -0.041710
  O     -2.936448   -3.598771   -0.072092
  N     -1.560079   -1.807945   -0.025233
  H      0.916346    1.731995    0.063051
  H      0.505881   -0.376526   -0.865585
  H      0.496099   -0.414555    0.900504
  H     -2.397673    1.450828    0.042952
  H     -4.684601    0.367549    0.007284
  H     -3.887583   -3.772720   -0.080821

 Total Charge           Charge          ....    0
 Multiplicity           Mult            ....    1
 Number of Electrons    NEL             ....   66
 Basis Dimension        Dim             ....  315

ORBITAL ENERGIES
----------------

  NO   OCC          E(Eh)            E(eV)
   0   2.0000     -20.597390      -560.4835
   1   2.0000     -20.576019      -559.9019
   2   2.0000     -15.566345      -423.5818
   3   2.0000     -15.561912      -423.4611
   4   2.0000     -11.373630      -309.4922
   5   2.0000     -11.306226      -307.6580
   6   2.0000     -11.300335      -307.4978
   7   2.0000     -11.298307      -307.4426
   8   2.0000     -11.229898      -305.5811
   9   2.0000      -1.439851       -39.1803
  10   2.0000      -1.384039       -37.6616
  11   2.0000      -1.296091       -35.2684
  12   2.0000      -1.204511       -32.7764
  13   2.0000      -1.068306       -29.0701
  14   2.0000      -0.979192       -26.6452
  15   2.0000      -0.884204       -24.0604
  16   2.0000      -0.860853       -23.4250
  17   2.0000      -0.748092       -20.3566
  18   2.0000      -0.731317       -19.9001
  19   2.0000      -0.706253       -19.2181
  20   2.0000      -0.658407       -17.9162
  21   2.0000      -0.658127       -17.9085
  22   2.0000      -0.626251       -17.0412
  23   2.0000      -0.621469       -16.9110
  24   2.0000      -0.594924       -16.1887
  25   2.0000      -0.576896       -15.6981
  26   2.0000      -0.529647       -14.4124
  27   2.0000      -0.523922       -14.2566
  28   2.0000      -0.488622       -13.2961
  29   2.0000      -0.476908       -12.9773
  30   2.0000      -0.418405       -11.3854
  31   2.0000      -0.415838       -11.3155
  32   2.0000      -0.352404        -9.5894
  33   0.0000       0.093355         2.5403
  34   0.0000       0.126859         3.4520
  35   0.0000       0.141130         3.8403
  36   0.0000       0.156697         4.2639
  37   0.0000       0.170133         4.6296

MULLIKEN ATOMIC CHARGES
-----------------------
   0 O :   -0.468776
   1 C :   -0.074548
   2 C :    0.144581
   3 C :   -0.168188
   4 C :   -0.030478
   5 N :   -0.300350
   6 C :    0.332466
   7 O :   -0.390458
   8 N :   -0.257407
   9 H :    0.323392
  10 H :    0.122734
  11 H :    0.122656
  12 H :    0.165991
  13 H :    0.137527
  14 H :    0.340856
Sum of atomic charges:   -0.0000000

LOEWDIN ATOMIC CHARGES
----------------------
   0 O :   -0.037431
   1 C :   -0.303232
   2 C :   -0.213577
   3 C :   -0.131260
   4 C :   -0.195579
   5 N :    0.114183
   6 C :   -0.453441
   7 O :    0.098366
   8 N :    0.177506
   9 H :    0.178183
  10 H :    0.132601
  11 H :    0.132606
  12 H :    0.159094
  13 H :    0.142077
  14 H :    0.199905

  Mayer bond orders larger than 0.1
B(  0-O ,  1-C ) :   1.0216 B(  0-O ,  2-C ) :  -0.1005 B(  0-O ,  9-H ) :   0.8441
B(  1-C ,  2-C ) :   0.9247 B(  1-C , 10-H ) :   0.9286 B(  1-C , 11-H ) :   0.9286
B(  2-C ,  3-C ) :   1.3453 B(  2-C ,  8-N ) :   1.3369 B(  3-C ,  4-C ) :   1.3140
B(  3-C , 12-H ) :   0.9074 B(  4-C ,  5-N ) :   1.4177 B(  4-C , 13-H ) :   0.9487
B(  5-N ,  6-C ) :   1.3386 B(  6-C ,  7-O ) :   1.1580 B(  6-C ,  8-N ) :   1.4351
B(  7-O , 14-H ) :   0.8129

MP2 TOTAL ENERGY:     -453.268649327 Eh
FINAL SINGLE POINT ENERGY      -453.268649326810

DIPOLE MOMENT
-------------
                                X             Y             Z
Electronic contribution:     -2.81648      -3.33315      -0.08869
Nuclear contribution   :      3.10675       4.10171       0.10599
                        -----------------------------------------
Total Dipole Moment    :      0.29027       0.76856       0.01731
                        -----------------------------------------
Magnitude (a.u.)       :      0.82173
Magnitude (Debye)      :      2.08867

                             ****ORCA TERMINATED NORMALLY****
TOTAL RUN TIME: 0 days 0 hours 13 minutes 57 seconds 466 msec
