                         Program Version 3.0.3 - RELEASE   -
|  1> ! RI-MP2 RIJK def2-TZVP def2-TZVP/C def2-TZVP/JK TIGHTSCF
|  2> % maxcore 2000
|  3> % mp2 density relaxed end
|  4> *xyz 0 1
|  5>  C       -0.1259927423     1.6166663664     0.0648219912
|  6>  C       -0.1141858161     0.0895341786     0.0163691818
|  7>  N        0.6740217318    -0.4603397129     1.1197030071
|  8>  C        2.1535207632    -0.5236179822     0.9130086432
|  9>  C        2.2909056045    -1.7321870939     1.8835575328
| 10>  C        3.1464026997    -2.5352455902     0.8861423270
| 11>  C        2.1473190310    -1.7892845130    -0.0192993834
| 12>  C        0.9820269800    -1.9284147157     1.0468761228
| 13>  C       -0.0607197789    -2.9998022363     1.1721897443
| 14>  H        0.8804759435     2.0255090142    -0.0751028569
| 15>  H       -0.7639478173     2.0271556919    -0.7240938596
| 16>  H       -0.4975526903     1.9643809240     1.0329178395
| 17>  H       -1.1393067140    -0.2859659413     0.1266033054
| 18>  H        0.2407853111    -0.2470339938    -0.9746379461
| 19>  H        2.7936586186     0.3577237877     0.8504963887
| 20>  H        2.3429993423    -1.6700752165     2.9707128273
| 21>  H        4.1975737684    -2.2443420120     0.7984452285
| 22>  H        3.0580981743    -3.6252891202     0.9256088392
| 23>  H        2.0676882902    -1.8226142894    -1.1061440195
| 24>  H        0.4038096062    -3.9913705451     1.1689973939
| 25>  H       -0.6189409833    -2.8842130270     2.1069091441
| 26>  H       -0.7739935725    -2.9614040235     0.3419079287
| 27> *
| 28>
| 29>                          ****END OF INPUT****

CARTESIAN COORDINATES (ANGSTROEM)
---------------------------------
  C     -0.125993    1.616666    0.064822
  C     -0.114186    0.089534    0.016369
  N      0.674022   -0.460340    1.119703
  C      2.153521   -0.523618    0.913009
  C      2.290906   -1.732187    1.883558
  C      3.146403   -2.535246    0.886142
  C      2.147319   -1.789285   -0.019299
  C      0.982027   -1.928415    1.046876
  C     -0.060720   -2.999802    1.172190
  H      0.880476    2.025509   -0.075103
  H     -0.763948    2.027156   -0.724094
  H     -0.497553    1.964381    1.032918
  H     -1.139307   -0.285966    0.126603
  H      0.240785   -0.247034   -0.974638
  H      2.793659    0.357724    0.850496
  H      2.342999   -1.670075    2.970713
  H      4.197574   -2.244342    0.798445
  H      3.058098   -3.625289    0.925609
  H      2.067688   -1.822614   -1.106144
  H      0.403810   -3.991371    1.168997
  H     -0.618941   -2.884213    2.106909
  H     -0.773994   -2.961404    0.341908

 Total Charge           Charge          ....    0
 Multiplicity           Mult            ....    1
 Number of Electrons    NEL             ....   68
 Basis Dimension        Dim             ....  357

ORBITAL ENERGIES
----------------

  NO   OCC          E(Eh)            E(eV)
   0   2.0000     -15.538944      -422.8362
   1   2.0000     -11.271469      -306.7123
   2   2.0000     -11.264279      -306.5166
   3   2.0000     -11.238450      -305.8138
   4   2.0000     -11.237071      -305.7763
   5   2.0000     -11.235463      -305.7325
   6   2.0000     -11.224585      -305.4365
   7   2.0000     -11.219625      -305.3015
   8   2.0000     -11.206813      -304.9529
   9   2.0000      -1.294579       -35.2273
  10   2.0000      -1.120023       -30.4774
  11   2.0000      -1.002780       -27.2870
  12   2.0000      -0.988358       -26.8946
  13   2.0000      -0.886995       -24.1363
  14   2.0000      -0.864060       -23.5123
  15   2.0000      -0.822389       -22.3783
  16   2.0000      -0.794595       -21.6220
  17   2.0000      -0.681426       -18.5425
  18   2.0000      -0.658096       -17.9077
  19   2.0000      -0.638884       -17.3849
  20   2.0000      -0.632156       -17.2018
  21   2.0000      -0.599770       -16.3206
  22   2.0000      -0.578607       -15.7447
  23   2.0000      -0.553301       -15.0561
  24   2.0000      -0.541631       -14.7385
  25   2.0000      -0.540123       -14.6975
  26   2.0000      -0.514801       -14.0084
  27   2.0000      -0.486482       -13.2378
  28   2.0000      -0.449904       -12.2425
  29   2.0000      -0.448132       -12.1943
  30   2.0000      -0.430981       -11.7276
  31   2.0000      -0.423832       -11.5331
  32   2.0000      -0.408186       -11.1073
  33   2.0000      -0.349979        -9.5234
  34   0.0000       0.139793         3.8040
  35   0.0000       0.150445         4.0938
  36   0.0000       0.161944         4.4067
  37   0.0000       0.173380         4.7179
  38   0.0000       0.190271         5.1775

MULLIKEN ATOMIC CHARGES
-----------------------
   0 C :   -0.377894
   1 C :   -0.135680
   2 N :   -0.183714
   3 C :   -0.121543
   4 C :   -0.056481
   5 C :   -0.241853
   6 C :   -0.136253
   7 C :    0.085969
   8 C :   -0.434874
   9 H :    0.118805
  10 H :    0.125119
  11 H :    0.129093
  12 H :    0.111795
  13 H :    0.083391
  14 H :    0.126941
  15 H :    0.124667
  16 H :    0.113310
  17 H :    0.112284
  18 H :    0.131482
  19 H :    0.138996
  20 H :    0.146231
  21 H :    0.140208
Sum of atomic charges:    0.0000000

LOEWDIN ATOMIC CHARGES
----------------------
   0 C :   -0.319248
   1 C :   -0.321632
   2 N :    0.131081
   3 C :   -0.164414
   4 C :   -0.124003
   5 C :   -0.210632
   6 C :   -0.138182
   7 C :   -0.222319
   8 C :   -0.273269
   9 H :    0.118535
  10 H :    0.120579
  11 H :    0.123320
  12 H :    0.129880
  13 H :    0.119746
  14 H :    0.125679
  15 H :    0.128819
  16 H :    0.127597
  17 H :    0.126056
  18 H :    0.124089
  19 H :    0.134135
  20 H :    0.134160
  21 H :    0.130021

  Mayer bond orders larger than 0.1
B(  0-C ,  1-C ) :   0.9363 B(  0-C ,  9-H ) :   0.9377 B(  0-C , 10-H ) :   0.9390
B(  0-C , 11-H ) :   0.9363 B(  1-C ,  2-N ) :   0.8944 B(  1-C , 12-H ) :   0.9315
B(  1-C , 13-H ) :   0.9095 B(  2-N ,  3-C ) :   0.9299 B(  2-N ,  7-C ) :   0.9034
B(  3-C ,  4-C ) :   0.8990 B(  3-C ,  6-C ) :   0.9006 B(  3-C , 14-H ) :   0.8918
B(  4-C ,  5-C ) :   0.9118 B(  4-C ,  7-C ) :   0.8631 B(  4-C , 15-H ) :   0.8875
B(  5-C ,  6-C ) :   0.9299 B(  5-C , 16-H ) :   0.9241 B(  5-C , 17-H ) :   0.9296
B(  6-C ,  7-C ) :   0.8457 B(  6-C , 18-H ) :   0.8993 B(  7-C ,  8-C ) :   0.8250
B(  8-C , 19-H ) :   0.9340 B(  8-C , 20-H ) :   0.9465 B(  8-C , 21-H ) :   0.9379

MP2 TOTAL ENERGY:     -366.462324739 Eh
FINAL SINGLE POINT ENERGY      -366.462324738709

DIPOLE MOMENT
-------------
                                X             Y             Z
Electronic contribution:      3.20130      -1.39273       2.04715
Nuclear contribution   :     -3.10544       1.09863      -2.40200
                        -----------------------------------------
Total Dipole Moment    :      0.09586      -0.29410      -0.35484
                        -----------------------------------------
Magnitude (a.u.)       :      0.47074
Magnitude (Debye)      :      1.19653

                             ****ORCA TERMINATED NORMALLY****
TOTAL RUN TIME: 0 days 0 hours 20 minutes 7 seconds 672 msec
