                         Program Version 3.0.3 - RELEASE   -
|  1> ! RI-MP2 RIJK def2-TZVP def2-TZVP/C def2-TZVP/JK TIGHTSCF
|  2> % maxcore 2000
|  3> % mp2 density relaxed end
|  4> *xyz 0 1
|  5>  C       -0.0074596185     1.4279668272    -0.1325226003
|  6>  N        0.0908884237    -0.0063876584    -0.0309499885
|  7>  N        0.0110952652    -0.8097504437    -1.1756191866
|  8>  C        0.1400897308    -1.9871476872    -0.6601539449
|  9>  C        0.2191184101    -3.4948715653    -0.7967915707
| 10>  C        0.3965327352    -3.4770806914     0.7784939584
| 11>  N        0.2924061406    -2.0066002079     0.6877613295
| 12>  C        0.2689544583    -0.6951243037     1.1739770980
| 13>  O        0.3692419765    -0.2495176730     2.2966134155
| 14>  H        0.7954426507     1.8312108416    -0.7574650257
| 15>  H       -0.9714887655     1.7242704235    -0.5575683977
| 16>  H        0.0832170458     1.8235077132     0.8806612491
| 17>  H       -0.6892554030    -3.9856436783    -1.1502757483
| 18>  H        1.0791558697    -3.8747494563    -1.3508360165
| 19>  H       -0.4122985596    -3.9396306545     1.3474042772
| 20>  H        1.3635825600    -3.8262235658     1.1455907214
| 21> *
| 22>
| 23>                          ****END OF INPUT****

CARTESIAN COORDINATES (ANGSTROEM)
---------------------------------
  C     -0.007460    1.427967   -0.132523
  N      0.090888   -0.006388   -0.030950
  N      0.011095   -0.809750   -1.175619
  C      0.140090   -1.987148   -0.660154
  C      0.219118   -3.494872   -0.796792
  C      0.396533   -3.477081    0.778494
  N      0.292406   -2.006600    0.687761
  C      0.268954   -0.695124    1.173977
  O      0.369242   -0.249518    2.296613
  H      0.795443    1.831211   -0.757465
  H     -0.971489    1.724270   -0.557568
  H      0.083217    1.823508    0.880661
  H     -0.689255   -3.985644   -1.150276
  H      1.079156   -3.874749   -1.350836
  H     -0.412299   -3.939631    1.347404
  H      1.363583   -3.826224    1.145591

 Total Charge           Charge          ....    0
 Multiplicity           Mult            ....    1
 Number of Electrons    NEL             ....   66
 Basis Dimension        Dim             ....  321

ORBITAL ENERGIES
----------------

  NO   OCC          E(Eh)            E(eV)
   0   2.0000     -20.512886      -558.1840
   1   2.0000     -15.617560      -424.9754
   2   2.0000     -15.610243      -424.7763
   3   2.0000     -15.595583      -424.3774
   4   2.0000     -11.383679      -309.7656
   5   2.0000     -11.319373      -308.0158
   6   2.0000     -11.316127      -307.9275
   7   2.0000     -11.285080      -307.0826
   8   2.0000     -11.257282      -306.3262
   9   2.0000      -1.427433       -38.8424
  10   2.0000      -1.353319       -36.8257
  11   2.0000      -1.272949       -34.6387
  12   2.0000      -1.120666       -30.4949
  13   2.0000      -1.067876       -29.0584
  14   2.0000      -0.933568       -25.4037
  15   2.0000      -0.922468       -25.1016
  16   2.0000      -0.821988       -22.3674
  17   2.0000      -0.784086       -21.3361
  18   2.0000      -0.711503       -19.3610
  19   2.0000      -0.687262       -18.7013
  20   2.0000      -0.645330       -17.5603
  21   2.0000      -0.631583       -17.1862
  22   2.0000      -0.614579       -16.7235
  23   2.0000      -0.580593       -15.7987
  24   2.0000      -0.577774       -15.7220
  25   2.0000      -0.563755       -15.3406
  26   2.0000      -0.553995       -15.0750
  27   2.0000      -0.530740       -14.4422
  28   2.0000      -0.504070       -13.7164
  29   2.0000      -0.503569       -13.7028
  30   2.0000      -0.427599       -11.6356
  31   2.0000      -0.423269       -11.5177
  32   2.0000      -0.330069        -8.9816
  33   0.0000       0.121845         3.3156
  34   0.0000       0.148626         4.0443
  35   0.0000       0.150162         4.0861
  36   0.0000       0.160289         4.3617
  37   0.0000       0.180690         4.9168

MULLIKEN ATOMIC CHARGES
-----------------------
   0 C :   -0.313779
   1 N :    0.015196
   2 N :   -0.236955
   3 C :    0.098440
   4 C :   -0.215608
   5 C :   -0.141729
   6 N :   -0.114606
   7 C :    0.246065
   8 O :   -0.383369
   9 H :    0.144002
  10 H :    0.143995
  11 H :    0.175945
  12 H :    0.149198
  13 H :    0.149159
  14 H :    0.142035
  15 H :    0.142012
Sum of atomic charges:   -0.0000000

LOEWDIN ATOMIC CHARGES
----------------------
   0 C :   -0.287915
   1 N :    0.154854
   2 N :    0.060835
   3 C :   -0.322060
   4 C :   -0.180868
   5 C :   -0.175432
   6 N :    0.265524
   7 C :   -0.496154
   8 O :    0.048830
   9 H :    0.121761
  10 H :    0.121755
  11 H :    0.138278
  12 H :    0.142901
  13 H :    0.142903
  14 H :    0.132366
  15 H :    0.132421

  Mayer bond orders larger than 0.1
B(  0-C ,  1-N ) :   0.8698 B(  0-C ,  9-H ) :   0.9321 B(  0-C , 10-H ) :   0.9321
B(  0-C , 11-H ) :   0.9216 B(  1-N ,  2-N ) :   0.8784 B(  1-N ,  7-C ) :   1.1179
B(  2-N ,  3-C ) :   1.7152 B(  3-C ,  4-C ) :   0.9529 B(  3-C ,  6-N ) :   1.1004
B(  4-C ,  5-C ) :   0.9537 B(  4-C , 12-H ) :   0.9152 B(  4-C , 13-H ) :   0.9151
B(  5-C ,  6-N ) :   0.8478 B(  5-C , 14-H ) :   0.9181 B(  5-C , 15-H ) :   0.9181
B(  6-N ,  7-C ) :   1.0047 B(  7-C ,  8-O ) :   1.9566

MP2 TOTAL ENERGY:     -433.342892515 Eh
FINAL SINGLE POINT ENERGY      -433.342892514719

DIPOLE MOMENT
-------------
                                X             Y             Z
Electronic contribution:      0.13330       0.35555       1.45293
Nuclear contribution   :     -0.13467      -1.58248      -2.14481
                        -----------------------------------------
Total Dipole Moment    :     -0.00137      -1.22693      -0.69188
                        -----------------------------------------
Magnitude (a.u.)       :      1.40856
Magnitude (Debye)      :      3.58029

                             ****ORCA TERMINATED NORMALLY****
TOTAL RUN TIME: 0 days 0 hours 18 minutes 7 seconds 792 msec
