                         Program Version 3.0.3 - RELEASE   -
|  1> ! RI-MP2 RIJK def2-TZVP def2-TZVP/C def2-TZVP/JK TIGHTSCF
|  2> % maxcore 2000
|  3> % mp2 density relaxed end
|  4> *xyz 0 1
|  5>  C        0.0480396088     1.6023193706    -0.0765834824
|  6>  C        0.0209760970     0.0643970774    -0.0084907850
|  7>  C        0.7162935869    -0.4856246891     1.2168938754
|  8>  C        2.0755831306    -0.7907229132     1.1734782056
|  9>  C        2.7224004463    -1.2690555509     2.3067599159
| 10>  C        1.9688106214    -1.4322456581     3.4618450486
| 11>  N        0.6652854495    -1.1554395508     3.5321766312
| 12>  C        0.0450675119    -0.6914876473     2.4392245869
| 13>  C       -1.4312222692    -0.4148273662     2.5950647532
| 14>  H        1.0777027961     1.9729225013    -0.0998922471
| 15>  H       -0.4630823979     1.9614890118    -0.9753017842
| 16>  H       -0.4429709441     2.0498984749     0.7929811545
| 17>  H       -1.0172603827    -0.2809759292    -0.0415913890
| 18>  H        0.5081051552    -0.3382845575    -0.9040189378
| 19>  H        2.6243437555    -0.6548380284     0.2451523781
| 20>  H        3.7787198256    -1.5136145752     2.2939158576
| 21>  H        2.4277109791    -1.8055451376     4.3746852042
| 22>  H       -1.6852928481     0.6204557326     2.3436107642
| 23>  H       -2.0330617937    -1.0587516710     1.9426520012
| 24>  H       -1.7193857782    -0.6052676442     3.6294433489
| 25> *
| 26>
| 27>                          ****END OF INPUT****

CARTESIAN COORDINATES (ANGSTROEM)
---------------------------------
  C      0.048040    1.602319   -0.076583
  C      0.020976    0.064397   -0.008491
  C      0.716294   -0.485625    1.216894
  C      2.075583   -0.790723    1.173478
  C      2.722400   -1.269056    2.306760
  C      1.968811   -1.432246    3.461845
  N      0.665285   -1.155440    3.532177
  C      0.045068   -0.691488    2.439225
  C     -1.431222   -0.414827    2.595065
  H      1.077703    1.972923   -0.099892
  H     -0.463082    1.961489   -0.975302
  H     -0.442971    2.049898    0.792981
  H     -1.017260   -0.280976   -0.041591
  H      0.508105   -0.338285   -0.904019
  H      2.624344   -0.654838    0.245152
  H      3.778720   -1.513615    2.293916
  H      2.427711   -1.805545    4.374685
  H     -1.685293    0.620456    2.343611
  H     -2.033062   -1.058752    1.942652
  H     -1.719386   -0.605268    3.629443

 Total Charge           Charge          ....    0
 Multiplicity           Mult            ....    1
 Number of Electrons    NEL             ....   66
 Basis Dimension        Dim             ....  345

ORBITAL ENERGIES
----------------

  NO   OCC          E(Eh)            E(eV)
   0   2.0000     -15.553118      -423.2219
   1   2.0000     -11.273363      -306.7638
   2   2.0000     -11.263035      -306.4828
   3   2.0000     -11.247442      -306.0585
   4   2.0000     -11.237397      -305.7851
   5   2.0000     -11.234006      -305.6928
   6   2.0000     -11.230745      -305.6041
   7   2.0000     -11.221670      -305.3572
   8   2.0000     -11.219170      -305.2891
   9   2.0000      -1.251819       -34.0637
  10   2.0000      -1.101350       -29.9693
  11   2.0000      -1.063642       -28.9432
  12   2.0000      -1.008693       -27.4479
  13   2.0000      -0.946955       -25.7680
  14   2.0000      -0.875801       -23.8318
  15   2.0000      -0.827938       -22.5293
  16   2.0000      -0.802318       -21.8322
  17   2.0000      -0.688338       -18.7306
  18   2.0000      -0.675352       -18.3773
  19   2.0000      -0.627602       -17.0779
  20   2.0000      -0.599160       -16.3040
  21   2.0000      -0.590016       -16.0552
  22   2.0000      -0.578295       -15.7362
  23   2.0000      -0.571308       -15.5461
  24   2.0000      -0.541156       -14.7256
  25   2.0000      -0.531010       -14.4495
  26   2.0000      -0.523363       -14.2414
  27   2.0000      -0.507534       -13.8107
  28   2.0000      -0.498144       -13.5552
  29   2.0000      -0.481367       -13.0987
  30   2.0000      -0.406021       -11.0484
  31   2.0000      -0.371943       -10.1211
  32   2.0000      -0.325283        -8.8514
  33   0.0000       0.111273         3.0279
  34   0.0000       0.122717         3.3393
  35   0.0000       0.138781         3.7764
  36   0.0000       0.156524         4.2592
  37   0.0000       0.173499         4.7212

MULLIKEN ATOMIC CHARGES
-----------------------
   0 C :   -0.388188
   1 C :   -0.239908
   2 C :    0.115459
   3 C :   -0.210662
   4 C :   -0.108010
   5 C :   -0.044361
   6 N :   -0.249059
   7 C :    0.120392
   8 C :   -0.450620
   9 H :    0.130637
  10 H :    0.133153
  11 H :    0.128036
  12 H :    0.124868
  13 H :    0.125379
  14 H :    0.125917
  15 H :    0.130423
  16 H :    0.124869
  17 H :    0.132595
  18 H :    0.142044
  19 H :    0.157038
Sum of atomic charges:   -0.0000000

LOEWDIN ATOMIC CHARGES
----------------------
   0 C :   -0.306064
   1 C :   -0.243576
   2 C :   -0.121106
   3 C :   -0.108984
   4 C :   -0.151592
   5 C :   -0.219336
   6 N :    0.153672
   7 C :   -0.213264
   8 C :   -0.269968
   9 H :    0.122830
  10 H :    0.121538
  11 H :    0.121178
  12 H :    0.143543
  13 H :    0.143809
  14 H :    0.150054
  15 H :    0.147581
  16 H :    0.137255
  17 H :    0.127461
  18 H :    0.130405
  19 H :    0.134565

  Mayer bond orders larger than 0.1
B(  0-C ,  1-C ) :   0.9204 B(  0-C ,  9-H ) :   0.9375 B(  0-C , 10-H ) :   0.9357
B(  0-C , 11-H ) :   0.9361 B(  1-C ,  2-C ) :   0.8530 B(  1-C , 12-H ) :   0.9348
B(  1-C , 13-H ) :   0.9410 B(  2-C ,  3-C ) :   1.3415 B(  2-C ,  7-C ) :   1.2721
B(  3-C ,  4-C ) :   1.3556 B(  3-C , 14-H ) :   0.9308 B(  4-C ,  5-C ) :   1.3137
B(  4-C , 15-H ) :   0.9220 B(  5-C ,  6-N ) :   1.3938 B(  5-C , 16-H ) :   0.9466
B(  6-N ,  7-C ) :   1.4183 B(  7-C ,  8-C ) :   0.8736 B(  8-C , 17-H ) :   0.9293
B(  8-C , 18-H ) :   0.9379 B(  8-C , 19-H ) :   0.9451

MP2 TOTAL ENERGY:     -365.411460660 Eh
FINAL SINGLE POINT ENERGY      -365.411460660293

DIPOLE MOMENT
-------------
                                X             Y             Z
Electronic contribution:      4.70256      -4.94401       5.18695
Nuclear contribution   :     -4.49639       5.16600      -6.01853
                        -----------------------------------------
Total Dipole Moment    :      0.20617       0.22199      -0.83157
                        -----------------------------------------
Magnitude (a.u.)       :      0.88504
Magnitude (Debye)      :      2.24960

                             ****ORCA TERMINATED NORMALLY****
TOTAL RUN TIME: 0 days 0 hours 19 minutes 49 seconds 958 msec
