                         Program Version 3.0.3 - RELEASE   -
|  1> ! RI-MP2 RIJK def2-TZVP def2-TZVP/C def2-TZVP/JK TIGHTSCF
|  2> % maxcore 2000
|  3> % mp2 density relaxed end
|  4> *xyz 0 1
|  5>  C        0.0658216656     1.4633278961    -0.1808916098
|  6>  C        0.0546510996    -0.0563389841     0.0331852334
|  7>  C        0.7992364703    -0.4385674006     1.3194787888
|  8>  C       -1.3736925581    -0.6014007244     0.0396284539
|  9>  C       -2.2148820904    -0.5095729242    -1.2658402238
| 10>  C       -2.7576744706    -1.9330975455    -0.9936122847
| 11>  C       -4.1379375668    -1.9561601318    -0.3444005891
| 12>  O       -2.7341880235    -2.7308871033    -2.1642269711
| 13>  C       -1.5888215787    -2.1421512368     0.0192607905
| 14>  H        1.0896623447     1.8491284442    -0.2269877905
| 15>  H       -0.4391390159     1.7417109205    -1.1114048087
| 16>  H       -0.4449230951     1.9773229165     0.6425597756
| 17>  H        0.5793811534    -0.5223789549    -0.8143027500
| 18>  H        0.3151078313     0.0061312024     2.1975440051
| 19>  H        0.8197931466    -1.5234712619     1.4644872511
| 20>  H        1.8350064312    -0.0836930146     1.2978627810
| 21>  H       -1.9215801489    -0.1525300501     0.8781150661
| 22>  H       -2.9461646923     0.2972924582    -1.3613877914
| 23>  H       -1.5775410286    -0.5228537093    -2.1549370690
| 24>  H       -4.8991848463    -1.6263185716    -1.0583894849
| 25>  H       -4.3930367917    -2.9704172029    -0.0107662307
| 26>  H       -4.1794020412    -1.3033345340     0.5332703830
| 27>  H       -3.0957616727    -3.5964609012    -1.9440297273
| 28>  H       -0.7573217009    -2.6549188651    -0.4739801150
| 29>  H       -1.8160103509    -2.6463325915     0.9630791776
| 30> *
| 31>
| 32>                          ****END OF INPUT****

CARTESIAN COORDINATES (ANGSTROEM)
---------------------------------
  C      0.065822    1.463328   -0.180892
  C      0.054651   -0.056339    0.033185
  C      0.799236   -0.438567    1.319479
  C     -1.373693   -0.601401    0.039628
  C     -2.214882   -0.509573   -1.265840
  C     -2.757674   -1.933098   -0.993612
  C     -4.137938   -1.956160   -0.344401
  O     -2.734188   -2.730887   -2.164227
  C     -1.588822   -2.142151    0.019261
  H      1.089662    1.849128   -0.226988
  H     -0.439139    1.741711   -1.111405
  H     -0.444923    1.977323    0.642560
  H      0.579381   -0.522379   -0.814303
  H      0.315108    0.006131    2.197544
  H      0.819793   -1.523471    1.464487
  H      1.835006   -0.083693    1.297863
  H     -1.921580   -0.152530    0.878115
  H     -2.946165    0.297292   -1.361388
  H     -1.577541   -0.522854   -2.154937
  H     -4.899185   -1.626319   -1.058389
  H     -4.393037   -2.970417   -0.010766
  H     -4.179402   -1.303335    0.533270
  H     -3.095762   -3.596461   -1.944030
  H     -0.757322   -2.654919   -0.473980
  H     -1.816010   -2.646333    0.963079

 Total Charge           Charge          ....    0
 Multiplicity           Mult            ....    1
 Number of Electrons    NEL             ....   72
 Basis Dimension        Dim             ....  375

ORBITAL ENERGIES
----------------

  NO   OCC          E(Eh)            E(eV)
   0   2.0000     -20.549509      -559.1806
   1   2.0000     -11.280205      -306.9500
   2   2.0000     -11.222444      -305.3782
   3   2.0000     -11.221776      -305.3600
   4   2.0000     -11.217744      -305.2503
   5   2.0000     -11.213076      -305.1233
   6   2.0000     -11.211326      -305.0757
   7   2.0000     -11.209047      -305.0137
   8   2.0000     -11.208608      -305.0017
   9   2.0000      -1.358589       -36.9691
  10   2.0000      -1.132495       -30.8168
  11   2.0000      -1.056011       -28.7355
  12   2.0000      -0.970585       -26.4110
  13   2.0000      -0.928174       -25.2569
  14   2.0000      -0.897236       -24.4150
  15   2.0000      -0.860157       -23.4061
  16   2.0000      -0.773888       -21.0586
  17   2.0000      -0.731764       -19.9123
  18   2.0000      -0.672255       -18.2930
  19   2.0000      -0.648101       -17.6357
  20   2.0000      -0.621409       -16.9094
  21   2.0000      -0.606493       -16.5035
  22   2.0000      -0.586734       -15.9658
  23   2.0000      -0.576807       -15.6957
  24   2.0000      -0.557206       -15.1623
  25   2.0000      -0.552565       -15.0361
  26   2.0000      -0.531176       -14.4540
  27   2.0000      -0.519466       -14.1354
  28   2.0000      -0.515612       -14.0305
  29   2.0000      -0.488352       -13.2887
  30   2.0000      -0.481277       -13.0962
  31   2.0000      -0.477080       -12.9820
  32   2.0000      -0.449305       -12.2262
  33   2.0000      -0.434902       -11.8343
  34   2.0000      -0.422314       -11.4917
  35   2.0000      -0.403088       -10.9686
  36   0.0000       0.129110         3.5133
  37   0.0000       0.142047         3.8653
  38   0.0000       0.158391         4.3100
  39   0.0000       0.167463         4.5569
  40   0.0000       0.177569         4.8319

MULLIKEN ATOMIC CHARGES
-----------------------
   0 C :   -0.398766
   1 C :   -0.067352
   2 C :   -0.400461
   3 C :   -0.096844
   4 C :   -0.232007
   5 C :    0.259341
   6 C :   -0.470555
   7 O :   -0.452188
   8 C :   -0.238911
   9 H :    0.131053
  10 H :    0.134372
  11 H :    0.118474
  12 H :    0.082626
  13 H :    0.118707
  14 H :    0.132457
  15 H :    0.131259
  16 H :    0.093959
  17 H :    0.120945
  18 H :    0.111193
  19 H :    0.142643
  20 H :    0.121135
  21 H :    0.133377
  22 H :    0.308511
  23 H :    0.100488
  24 H :    0.116544
Sum of atomic charges:    0.0000000

LOEWDIN ATOMIC CHARGES
----------------------
   0 C :   -0.291756
   1 C :   -0.298670
   2 C :   -0.292180
   3 C :   -0.213643
   4 C :   -0.178999
   5 C :   -0.386246
   6 C :   -0.281882
   7 O :    0.001405
   8 C :   -0.189968
   9 H :    0.122429
  10 H :    0.123837
  11 H :    0.122759
  12 H :    0.151571
  13 H :    0.122748
  14 H :    0.123233
  15 H :    0.122435
  16 H :    0.149184
  17 H :    0.127592
  18 H :    0.145721
  19 H :    0.128105
  20 H :    0.122135
  21 H :    0.130330
  22 H :    0.173797
  23 H :    0.141196
  24 H :    0.124870

  Mayer bond orders larger than 0.1
B(  0-C ,  1-C ) :   0.9200 B(  0-C ,  9-H ) :   0.9406 B(  0-C , 10-H ) :   0.9392
B(  0-C , 11-H ) :   0.9318 B(  1-C ,  2-C ) :   0.9206 B(  1-C ,  3-C ) :   0.8895
B(  1-C , 12-H ) :   0.9224 B(  2-C , 13-H ) :   0.9319 B(  2-C , 14-H ) :   0.9394
B(  2-C , 15-H ) :   0.9407 B(  3-C ,  4-C ) :   0.9452 B(  3-C ,  8-C ) :   0.9599
B(  3-C , 16-H ) :   0.9177 B(  4-C ,  5-C ) :   0.8688 B(  4-C ,  7-O ) :  -0.1094
B(  4-C , 17-H ) :   0.9283 B(  4-C , 18-H ) :   0.8937 B(  5-C ,  6-C ) :   0.9307
B(  5-C ,  7-O ) :   1.0996 B(  5-C ,  8-C ) :   0.9054 B(  6-C , 19-H ) :   0.9447
B(  6-C , 20-H ) :   0.9265 B(  6-C , 21-H ) :   0.9273 B(  7-O , 22-H ) :   0.8436
B(  8-C , 23-H ) :   0.8887 B(  8-C , 24-H ) :   0.9217

MP2 TOTAL ENERGY:     -388.824992212 Eh
FINAL SINGLE POINT ENERGY      -388.824992211813

DIPOLE MOMENT
-------------
                                X             Y             Z
Electronic contribution:     -3.07684      -4.32753      -4.48180
Nuclear contribution   :      2.88256       4.15009       4.99160
                        -----------------------------------------
Total Dipole Moment    :     -0.19428      -0.17743       0.50979
                        -----------------------------------------
Magnitude (a.u.)       :      0.57368
Magnitude (Debye)      :      1.45819

                             ****ORCA TERMINATED NORMALLY****
TOTAL RUN TIME: 0 days 0 hours 23 minutes 4 seconds 826 msec
