                         Program Version 3.0.3 - RELEASE   -
|  1> ! RI-MP2 RIJK def2-TZVP def2-TZVP/C def2-TZVP/JK TIGHTSCF
|  2> % maxcore 2000
|  3> % mp2 density relaxed end
|  4> *xyz 0 1
|  5>  C        0.0019046634     1.4359438206    -0.0211329247
|  6>  O        0.0110573971     0.0021490971    -0.0177584697
|  7>  C        0.5884521682    -0.6475482143    -1.0292593850
|  8>  C        0.6284909280    -1.9933976927    -1.0814358774
|  9>  C        1.2683570847    -2.6286572706    -2.2036969569
| 10>  N        1.3674794826    -3.8817304539    -2.3615241225
| 11>  O        1.7992764170    -1.7470722093    -3.1542949904
| 12>  N        1.7157999165    -0.3416389926    -3.0260630840
| 13>  N        1.1530953364     0.1432059020    -2.0381619244
| 14>  H        1.0179258652     1.8383046282    -0.0132443072
| 15>  H       -0.5322750608     1.8263687587    -0.8908797885
| 16>  H       -0.5188944440     1.7142610624     0.8950123622
| 17>  H        0.1969868976    -2.6159125036    -0.3101233480
| 18>  H        1.8587850581    -4.1063618620    -3.2268138535
| 19> *
| 20>
| 21>                          ****END OF INPUT****

CARTESIAN COORDINATES (ANGSTROEM)
---------------------------------
  C      0.001905    1.435944   -0.021133
  O      0.011057    0.002149   -0.017758
  C      0.588452   -0.647548   -1.029259
  C      0.628491   -1.993398   -1.081436
  C      1.268357   -2.628657   -2.203697
  N      1.367479   -3.881730   -2.361524
  O      1.799276   -1.747072   -3.154295
  N      1.715800   -0.341639   -3.026063
  N      1.153095    0.143206   -2.038162
  H      1.017926    1.838305   -0.013244
  H     -0.532275    1.826369   -0.890880
  H     -0.518894    1.714261    0.895012
  H      0.196987   -2.615913   -0.310123
  H      1.858785   -4.106362   -3.226814

 Total Charge           Charge          ....    0
 Multiplicity           Mult            ....    1
 Number of Electrons    NEL             ....   66
 Basis Dimension        Dim             ....  309

ORBITAL ENERGIES
----------------

  NO   OCC          E(Eh)            E(eV)
   0   2.0000     -20.656281      -562.0860
   1   2.0000     -20.622672      -561.1714
   2   2.0000     -15.747602      -428.5140
   3   2.0000     -15.664845      -426.2621
   4   2.0000     -15.542631      -422.9365
   5   2.0000     -11.378778      -309.6323
   6   2.0000     -11.362900      -309.2002
   7   2.0000     -11.306690      -307.6707
   8   2.0000     -11.264035      -306.5100
   9   2.0000      -1.519295       -41.3421
  10   2.0000      -1.458161       -39.6786
  11   2.0000      -1.354326       -36.8531
  12   2.0000      -1.215335       -33.0709
  13   2.0000      -1.114250       -30.3203
  14   2.0000      -0.987886       -26.8817
  15   2.0000      -0.980734       -26.6871
  16   2.0000      -0.884312       -24.0633
  17   2.0000      -0.791153       -21.5284
  18   2.0000      -0.753698       -20.5092
  19   2.0000      -0.712840       -19.3974
  20   2.0000      -0.704108       -19.1598
  21   2.0000      -0.668510       -18.1911
  22   2.0000      -0.666379       -18.1331
  23   2.0000      -0.633189       -17.2300
  24   2.0000      -0.610556       -16.6141
  25   2.0000      -0.563284       -15.3277
  26   2.0000      -0.558519       -15.1981
  27   2.0000      -0.547725       -14.9044
  28   2.0000      -0.531846       -14.4723
  29   2.0000      -0.486288       -13.2326
  30   2.0000      -0.459964       -12.5162
  31   2.0000      -0.437479       -11.9044
  32   2.0000      -0.348500        -9.4832
  33   0.0000       0.042389         1.1535
  34   0.0000       0.139675         3.8007
  35   0.0000       0.149547         4.0694
  36   0.0000       0.168712         4.5909
  37   0.0000       0.184468         5.0196

MULLIKEN ATOMIC CHARGES
-----------------------
   0 C :   -0.211276
   1 O :   -0.254981
   2 C :    0.274928
   3 C :   -0.184258
   4 C :    0.158606
   5 N :   -0.383749
   6 O :   -0.139529
   7 N :   -0.029436
   8 N :   -0.071001
   9 H :    0.143826
  10 H :    0.143841
  11 H :    0.155503
  12 H :    0.167364
  13 H :    0.230161
Sum of atomic charges:   -0.0000000

LOEWDIN ATOMIC CHARGES
----------------------
   0 C :   -0.305249
   1 O :    0.251536
   2 C :   -0.350434
   3 C :   -0.089718
   4 C :   -0.410979
   5 N :   -0.055445
   6 O :    0.188193
   7 N :    0.011758
   8 N :    0.072599
   9 H :    0.114415
  10 H :    0.114416
  11 H :    0.119263
  12 H :    0.169419
  13 H :    0.170228

  Mayer bond orders larger than 0.1
B(  0-C ,  1-O ) :   0.8299 B(  0-C ,  9-H ) :   0.9342 B(  0-C , 10-H ) :   0.9342
B(  0-C , 11-H ) :   0.9329 B(  1-O ,  2-C ) :   1.1311 B(  2-C ,  3-C ) :   1.4982
B(  2-C ,  8-N ) :   1.0234 B(  3-C ,  4-C ) :   1.0568 B(  3-C , 12-H ) :   0.9204
B(  4-C ,  5-N ) :   1.9762 B(  4-C ,  6-O ) :   1.0237 B(  5-N , 13-H ) :   0.8509
B(  6-O ,  7-N ) :   0.8408 B(  7-N ,  8-N ) :   1.5224

MP2 TOTAL ENERGY:     -469.181537649 Eh
FINAL SINGLE POINT ENERGY      -469.181537649077

DIPOLE MOMENT
-------------
                                X             Y             Z
Electronic contribution:      2.15250      -2.60488      -3.76922
Nuclear contribution   :     -2.53268       3.62837       4.42713
                        -----------------------------------------
Total Dipole Moment    :     -0.38018       1.02349       0.65791
                        -----------------------------------------
Magnitude (a.u.)       :      1.27472
Magnitude (Debye)      :      3.24008

                             ****ORCA TERMINATED NORMALLY****
TOTAL RUN TIME: 0 days 0 hours 14 minutes 35 seconds 874 msec
