                         Program Version 3.0.3 - RELEASE   -
|  1> ! RI-MP2 RIJK def2-TZVP def2-TZVP/C def2-TZVP/JK TIGHTSCF
|  2> % maxcore 2000
|  3> % mp2 density relaxed end
|  4> *xyz 0 1
|  5>  C        0.1832209127     1.5442174030    -0.0329937930
|  6>  C        0.1065099809     0.0129672492     0.0489264676
|  7>  C        0.9106413978    -0.5362099560     1.2355492530
|  8>  C       -1.3488929962    -0.5396282313     0.0546032003
|  9>  O       -1.3526824854    -1.9706314129     0.0324084656
| 10>  C       -2.1627485957    -0.2113845290     1.3315139594
| 11>  O       -1.9626616792     0.7079736091     2.0750077615
| 12>  C       -2.1405494233    -0.0256641893    -1.0690687204
| 13>  C       -2.8119122015     0.3526296330    -1.9928289613
| 14>  H        1.2285768111     1.8539131659    -0.1312640035
| 15>  H       -0.3633244946     1.9279890345    -0.8986316383
| 16>  H       -0.2285898158     2.0048740516     0.8667577367
| 17>  H        0.5424791111    -0.3957741773    -0.8739921907
| 18>  H        0.5674379248    -0.1017877962     2.1784879003
| 19>  H        0.8229446918    -1.6232454030     1.3006821704
| 20>  H        1.9684942323    -0.2830627019     1.1163672208
| 21>  H       -1.1961401487    -2.2514961161    -0.8755051612
| 22>  H       -2.9832349718    -0.9431275973     1.4862253831
| 23>  H       -3.3984875603     0.6961180941    -2.8096016202
| 24> *
| 25>
| 26>                          ****END OF INPUT****

CARTESIAN COORDINATES (ANGSTROEM)
---------------------------------
  C      0.183221    1.544217   -0.032994
  C      0.106510    0.012967    0.048926
  C      0.910641   -0.536210    1.235549
  C     -1.348893   -0.539628    0.054603
  O     -1.352682   -1.970631    0.032408
  C     -2.162749   -0.211385    1.331514
  O     -1.962662    0.707974    2.075008
  C     -2.140549   -0.025664   -1.069069
  C     -2.811912    0.352630   -1.992829
  H      1.228577    1.853913   -0.131264
  H     -0.363324    1.927989   -0.898632
  H     -0.228590    2.004874    0.866758
  H      0.542479   -0.395774   -0.873992
  H      0.567438   -0.101788    2.178488
  H      0.822945   -1.623245    1.300682
  H      1.968494   -0.283063    1.116367
  H     -1.196140   -2.251496   -0.875505
  H     -2.983235   -0.943128    1.486225
  H     -3.398488    0.696118   -2.809602

 Total Charge           Charge          ....    0
 Multiplicity           Mult            ....    1
 Number of Electrons    NEL             ....   68
 Basis Dimension        Dim             ....  339

ORBITAL ENERGIES
----------------

  NO   OCC          E(Eh)            E(eV)
   0   2.0000     -20.584034      -560.1200
   1   2.0000     -20.568771      -559.7047
   2   2.0000     -11.342642      -308.6490
   3   2.0000     -11.335088      -308.4434
   4   2.0000     -11.255019      -306.2646
   5   2.0000     -11.250546      -306.1429
   6   2.0000     -11.246815      -306.0414
   7   2.0000     -11.212756      -305.1146
   8   2.0000     -11.211266      -305.0740
   9   2.0000      -1.413934       -38.4751
  10   2.0000      -1.391014       -37.8514
  11   2.0000      -1.106682       -30.1143
  12   2.0000      -1.050399       -28.5828
  13   2.0000      -0.976537       -26.5729
  14   2.0000      -0.931888       -25.3580
  15   2.0000      -0.848876       -23.0991
  16   2.0000      -0.789219       -21.4758
  17   2.0000      -0.751017       -20.4362
  18   2.0000      -0.714380       -19.4393
  19   2.0000      -0.698539       -19.0082
  20   2.0000      -0.652137       -17.7455
  21   2.0000      -0.630036       -17.1442
  22   2.0000      -0.605068       -16.4647
  23   2.0000      -0.586769       -15.9668
  24   2.0000      -0.557410       -15.1679
  25   2.0000      -0.541408       -14.7325
  26   2.0000      -0.536837       -14.6081
  27   2.0000      -0.525040       -14.2871
  28   2.0000      -0.494041       -13.4436
  29   2.0000      -0.480341       -13.0707
  30   2.0000      -0.470848       -12.8124
  31   2.0000      -0.440788       -11.9945
  32   2.0000      -0.415733       -11.3127
  33   2.0000      -0.395920       -10.7735
  34   0.0000       0.107189         2.9168
  35   0.0000       0.127487         3.4691
  36   0.0000       0.153627         4.1804
  37   0.0000       0.154961         4.2167
  38   0.0000       0.164733         4.4826

MULLIKEN ATOMIC CHARGES
-----------------------
   0 C :   -0.437721
   1 C :    0.010035
   2 C :   -0.449937
   3 C :    0.221023
   4 O :   -0.466674
   5 C :    0.087248
   6 O :   -0.254488
   7 C :   -0.152096
   8 C :   -0.127345
   9 H :    0.128633
  10 H :    0.141586
  11 H :    0.158869
  12 H :    0.075325
  13 H :    0.147840
  14 H :    0.150311
  15 H :    0.132812
  16 H :    0.329499
  17 H :    0.105238
  18 H :    0.199843
Sum of atomic charges:   -0.0000000

LOEWDIN ATOMIC CHARGES
----------------------
   0 C :   -0.285149
   1 C :   -0.257685
   2 C :   -0.289058
   3 C :   -0.347983
   4 O :    0.029907
   5 C :   -0.228462
   6 O :    0.160325
   7 C :   -0.075261
   8 C :   -0.067070
   9 H :    0.125015
  10 H :    0.127479
  11 H :    0.130188
  12 H :    0.156192
  13 H :    0.128512
  14 H :    0.127105
  15 H :    0.125259
  16 H :    0.183517
  17 H :    0.125872
  18 H :    0.131296

  Mayer bond orders larger than 0.1
B(  0-C ,  1-C ) :   0.9044 B(  0-C ,  9-H ) :   0.9301 B(  0-C , 10-H ) :   0.9344
B(  0-C , 11-H ) :   0.9289 B(  1-C ,  2-C ) :   0.8994 B(  1-C ,  3-C ) :   0.9114
B(  1-C , 12-H ) :   0.9060 B(  2-C , 13-H ) :   0.9324 B(  2-C , 14-H ) :   0.9362
B(  2-C , 15-H ) :   0.9368 B(  3-C ,  4-O ) :   0.8910 B(  3-C ,  5-C ) :   0.7549
B(  3-C ,  7-C ) :   1.1250 B(  4-O , 16-H ) :   0.8336 B(  5-C ,  6-O ) :   1.9928
B(  5-C , 17-H ) :   0.9296 B(  7-C ,  8-C ) :   2.5794 B(  8-C , 18-H ) :   0.8819

MP2 TOTAL ENERGY:     -422.286282052 Eh
FINAL SINGLE POINT ENERGY      -422.286282051564

DIPOLE MOMENT
-------------
                                X             Y             Z
Electronic contribution:     -7.68621      -1.98581      -0.15445
Nuclear contribution   :      7.79325       1.71672      -0.93071
                        -----------------------------------------
Total Dipole Moment    :      0.10704      -0.26909      -1.08516
                        -----------------------------------------
Magnitude (a.u.)       :      1.12314
Magnitude (Debye)      :      2.85479

                             ****ORCA TERMINATED NORMALLY****
TOTAL RUN TIME: 0 days 0 hours 20 minutes 44 seconds 376 msec
