                         Program Version 3.0.3 - RELEASE   -
|  1> ! RI-MP2 RIJK def2-TZVP def2-TZVP/C def2-TZVP/JK TIGHTSCF
|  2> % maxcore 2000
|  3> % mp2 density relaxed end
|  4> *xyz 0 1
|  5>  C       -0.0303434620     1.5105049210     0.0871655158
|  6>  C        0.0126909030     0.0257757759    -0.0399621276
|  7>  C       -0.0033477226    -0.7976085242    -1.1238688362
|  8>  C        0.0419300384    -2.1609614221    -0.6609821769
|  9>  C       -0.0055424371    -3.3548729615    -1.4675702021
| 10>  O       -0.0592710724    -3.3908682268    -2.6821524522
| 11>  C        0.0992089879    -2.1058087957     0.7317167279
| 12>  N        0.2448303289    -3.0986249980     1.6964587050
| 13>  N        0.0754691965    -0.7933804642     1.0937500000
| 14>  H        0.8569046708     1.9106867778     0.5947554292
| 15>  H       -0.0741226502     1.9627574037    -0.9058234985
| 16>  H       -0.9090242806     1.8534403687     0.6483988666
| 17>  H       -0.0607102163    -0.4994865059    -2.1586837740
| 18>  H        0.0034300234    -4.3108116312    -0.8851880207
| 19>  H        0.2227548013    -4.0278140392     1.2989780064
| 20>  H       -0.4247875163    -3.0364051370     2.4548237659
| 21>  H        0.2017571773    -0.4642069812     2.0365098512
| 22> *
| 23>
| 24>                          ****END OF INPUT****

CARTESIAN COORDINATES (ANGSTROEM)
---------------------------------
  C     -0.030343    1.510505    0.087166
  C      0.012691    0.025776   -0.039962
  C     -0.003348   -0.797609   -1.123869
  C      0.041930   -2.160961   -0.660982
  C     -0.005542   -3.354873   -1.467570
  O     -0.059271   -3.390868   -2.682152
  C      0.099209   -2.105809    0.731717
  N      0.244830   -3.098625    1.696459
  N      0.075469   -0.793380    1.093750
  H      0.856905    1.910687    0.594755
  H     -0.074123    1.962757   -0.905823
  H     -0.909024    1.853440    0.648399
  H     -0.060710   -0.499487   -2.158684
  H      0.003430   -4.310812   -0.885188
  H      0.222755   -4.027814    1.298978
  H     -0.424788   -3.036405    2.454824
  H      0.201757   -0.464207    2.036510

 Total Charge           Charge          ....    0
 Multiplicity           Mult            ....    1
 Number of Electrons    NEL             ....   66
 Basis Dimension        Dim             ....  327

ORBITAL ENERGIES
----------------

  NO   OCC          E(Eh)            E(eV)
   0   2.0000     -20.521329      -558.4138
   1   2.0000     -15.614751      -424.8990
   2   2.0000     -15.594646      -424.3519
   3   2.0000     -11.328673      -308.2689
   4   2.0000     -11.314187      -307.8747
   5   2.0000     -11.264871      -306.5327
   6   2.0000     -11.238489      -305.8148
   7   2.0000     -11.215500      -305.1893
   8   2.0000     -11.212878      -305.1179
   9   2.0000      -1.359924       -37.0054
  10   2.0000      -1.323509       -36.0145
  11   2.0000      -1.218201       -33.1489
  12   2.0000      -1.067838       -29.0573
  13   2.0000      -1.034042       -28.1377
  14   2.0000      -0.930750       -25.3270
  15   2.0000      -0.869351       -23.6562
  16   2.0000      -0.796682       -21.6788
  17   2.0000      -0.750164       -20.4130
  18   2.0000      -0.729715       -19.8566
  19   2.0000      -0.688533       -18.7359
  20   2.0000      -0.646858       -17.6019
  21   2.0000      -0.619518       -16.8580
  22   2.0000      -0.615400       -16.7459
  23   2.0000      -0.601633       -16.3713
  24   2.0000      -0.577548       -15.7159
  25   2.0000      -0.565555       -15.3895
  26   2.0000      -0.543285       -14.7835
  27   2.0000      -0.528384       -14.3781
  28   2.0000      -0.512704       -13.9514
  29   2.0000      -0.473526       -12.8853
  30   2.0000      -0.405992       -11.0476
  31   2.0000      -0.361696        -9.8422
  32   2.0000      -0.286653        -7.8002
  33   0.0000       0.109741         2.9862
  34   0.0000       0.122000         3.3198
  35   0.0000       0.132713         3.6113
  36   0.0000       0.158896         4.3238
  37   0.0000       0.167641         4.5617

MULLIKEN ATOMIC CHARGES
-----------------------
   0 C :   -0.449362
   1 C :    0.194482
   2 C :   -0.304499
   3 C :    0.071268
   4 C :    0.069283
   5 O :   -0.310564
   6 C :    0.172601
   7 N :   -0.511111
   8 N :   -0.294420
   9 H :    0.143488
  10 H :    0.155968
  11 H :    0.143758
  12 H :    0.141454
  13 H :    0.024835
  14 H :    0.254625
  15 H :    0.255895
  16 H :    0.242299
Sum of atomic charges:   -0.0000000

LOEWDIN ATOMIC CHARGES
----------------------
   0 C :   -0.279772
   1 C :   -0.240095
   2 C :   -0.123388
   3 C :   -0.194197
   4 C :   -0.302239
   5 O :    0.096838
   6 C :   -0.279756
   7 N :   -0.078451
   8 N :    0.211835
   9 H :    0.129632
  10 H :    0.140945
  11 H :    0.129735
  12 H :    0.149711
  13 H :    0.103813
  14 H :    0.172157
  15 H :    0.170438
  16 H :    0.192796

  Mayer bond orders larger than 0.1
B(  0-C ,  1-C ) :   0.8584 B(  0-C ,  9-H ) :   0.9337 B(  0-C , 10-H ) :   0.9521
B(  0-C , 11-H ) :   0.9359 B(  1-C ,  2-C ) :   1.5447 B(  1-C ,  8-N ) :   1.0282
B(  2-C ,  3-C ) :   1.1639 B(  2-C , 12-H ) :   0.9460 B(  3-C ,  4-C ) :   0.8769
B(  3-C ,  5-O ) :  -0.1480 B(  3-C ,  6-C ) :   1.3519 B(  3-C , 13-H ) :  -0.1369
B(  4-C ,  5-O ) :   2.0029 B(  4-C , 13-H ) :   1.0031 B(  6-C ,  7-N ) :   1.0637
B(  6-C ,  8-N ) :   1.1991 B(  7-N , 14-H ) :   0.8802 B(  7-N , 15-H ) :   0.8657
B(  8-N , 16-H ) :   0.8707

MP2 TOTAL ENERGY:     -417.350591922 Eh
FINAL SINGLE POINT ENERGY      -417.350591922162

DIPOLE MOMENT
-------------
                                X             Y             Z
Electronic contribution:      0.17070      -5.03775      -2.50063
Nuclear contribution   :     -0.45845       5.74333       4.71488
                        -----------------------------------------
Total Dipole Moment    :     -0.28776       0.70557       2.21424
                        -----------------------------------------
Magnitude (a.u.)       :      2.34169
Magnitude (Debye)      :      5.95211

                             ****ORCA TERMINATED NORMALLY****
TOTAL RUN TIME: 0 days 0 hours 15 minutes 36 seconds 401 msec
