                         Program Version 3.0.3 - RELEASE   -
|  1> ! RI-MP2 RIJK def2-TZVP def2-TZVP/C def2-TZVP/JK TIGHTSCF
|  2> % maxcore 2000
|  3> % mp2 density relaxed end
|  4> *xyz 0 1
|  5>  C       -0.1227547955     1.5573686624    -0.1060562426
|  6>  C        0.0077003378     0.0498382236     0.0278519878
|  7>  O        0.6763338612    -0.4675467304    -1.1322006811
|  8>  C        1.1649962846    -1.7731012120    -0.8223849620
|  9>  C        1.5592422423    -1.7399235428     0.6594619713
| 10>  C        2.9056161535    -1.1120010027     1.0774630567
| 11>  C        3.1352276020     0.2228331498     0.4257534764
| 12>  C        2.1835913157     0.1366775149     1.5923553340
| 13>  C        0.8187546710    -0.4813867078     1.2179706249
| 14>  H        0.8581913293     2.0390083251    -0.0920826227
| 15>  H       -0.6230325458     1.8137173259    -1.0440010058
| 16>  H       -0.7176342181     1.9591864703     0.7203893232
| 17>  H       -1.0017804657    -0.3973465776     0.0790839063
| 18>  H        0.3773037926    -2.5248801442    -0.9937923386
| 19>  H        1.9972230519    -1.9821505717    -1.5011018649
| 20>  H        1.3433383106    -2.6750326184     1.1779795754
| 21>  H        3.7145595503    -1.6626020636     1.5424078059
| 22>  H        4.0905836923     0.6773742125     0.6711485044
| 23>  H        2.7832835911     0.4277045313    -0.5775034545
| 24>  H        2.3668359792     0.6907083381     2.5051701744
| 25>  H        0.1976093498    -0.6720919227     2.0948763616
| 26> *
| 27>
| 28>                          ****END OF INPUT****

CARTESIAN COORDINATES (ANGSTROEM)
---------------------------------
  C     -0.122755    1.557369   -0.106056
  C      0.007700    0.049838    0.027852
  O      0.676334   -0.467547   -1.132201
  C      1.164996   -1.773101   -0.822385
  C      1.559242   -1.739924    0.659462
  C      2.905616   -1.112001    1.077463
  C      3.135228    0.222833    0.425753
  C      2.183591    0.136678    1.592355
  C      0.818755   -0.481387    1.217971
  H      0.858191    2.039008   -0.092083
  H     -0.623033    1.813717   -1.044001
  H     -0.717634    1.959186    0.720389
  H     -1.001780   -0.397347    0.079084
  H      0.377304   -2.524880   -0.993792
  H      1.997223   -1.982151   -1.501102
  H      1.343338   -2.675033    1.177980
  H      3.714560   -1.662602    1.542408
  H      4.090584    0.677374    0.671149
  H      2.783284    0.427705   -0.577503
  H      2.366836    0.690708    2.505170
  H      0.197609   -0.672092    2.094876

 Total Charge           Charge          ....    0
 Multiplicity           Mult            ....    1
 Number of Electrons    NEL             ....   68
 Basis Dimension        Dim             ....  351

ORBITAL ENERGIES
----------------

  NO   OCC          E(Eh)            E(eV)
   0   2.0000     -20.542521      -558.9904
   1   2.0000     -11.271850      -306.7226
   2   2.0000     -11.266276      -306.5710
   3   2.0000     -11.230247      -305.5906
   4   2.0000     -11.229675      -305.5750
   5   2.0000     -11.229452      -305.5689
   6   2.0000     -11.228688      -305.5481
   7   2.0000     -11.221363      -305.3488
   8   2.0000     -11.209220      -305.0184
   9   2.0000      -1.367640       -37.2154
  10   2.0000      -1.182847       -32.1869
  11   2.0000      -1.033297       -28.1175
  12   2.0000      -1.009703       -27.4754
  13   2.0000      -0.920239       -25.0410
  14   2.0000      -0.850219       -23.1356
  15   2.0000      -0.827009       -22.5041
  16   2.0000      -0.761533       -20.7224
  17   2.0000      -0.722207       -19.6523
  18   2.0000      -0.697583       -18.9822
  19   2.0000      -0.651562       -17.7299
  20   2.0000      -0.645873       -17.5751
  21   2.0000      -0.611415       -16.6375
  22   2.0000      -0.580030       -15.7834
  23   2.0000      -0.573230       -15.5984
  24   2.0000      -0.538916       -14.6646
  25   2.0000      -0.525606       -14.3025
  26   2.0000      -0.516397       -14.0519
  27   2.0000      -0.495480       -13.4827
  28   2.0000      -0.478712       -13.0264
  29   2.0000      -0.464172       -12.6308
  30   2.0000      -0.445940       -12.1346
  31   2.0000      -0.415550       -11.3077
  32   2.0000      -0.407655       -11.0929
  33   2.0000      -0.356334        -9.6964
  34   0.0000       0.138499         3.7687
  35   0.0000       0.152858         4.1595
  36   0.0000       0.166730         4.5370
  37   0.0000       0.172804         4.7022
  38   0.0000       0.193688         5.2705

MULLIKEN ATOMIC CHARGES
-----------------------
   0 C :   -0.392698
   1 C :    0.049721
   2 O :   -0.335085
   3 C :   -0.054063
   4 C :   -0.105666
   5 C :   -0.148510
   6 C :   -0.274259
   7 C :   -0.203254
   8 C :    0.000580
   9 H :    0.140337
  10 H :    0.139891
  11 H :    0.122741
  12 H :    0.072523
  13 H :    0.090433
  14 H :    0.119526
  15 H :    0.115109
  16 H :    0.128413
  17 H :    0.125339
  18 H :    0.166199
  19 H :    0.126042
  20 H :    0.116681
Sum of atomic charges:   -0.0000000

LOEWDIN ATOMIC CHARGES
----------------------
   0 C :   -0.287869
   1 C :   -0.316415
   2 O :    0.157186
   3 C :   -0.286088
   4 C :   -0.181821
   5 C :   -0.163711
   6 C :   -0.206821
   7 C :   -0.162512
   8 C :   -0.163472
   9 H :    0.128280
  10 H :    0.127876
  11 H :    0.127191
  12 H :    0.137105
  13 H :    0.120502
  14 H :    0.130284
  15 H :    0.147405
  16 H :    0.133499
  17 H :    0.139352
  18 H :    0.136611
  19 H :    0.133442
  20 H :    0.149978

  Mayer bond orders larger than 0.1
B(  0-C ,  1-C ) :   0.9129 B(  0-C ,  9-H ) :   0.9361 B(  0-C , 10-H ) :   0.9364
B(  0-C , 11-H ) :   0.9330 B(  1-C ,  2-O ) :   0.9078 B(  1-C ,  8-C ) :   0.9358
B(  1-C , 12-H ) :   0.9235 B(  2-O ,  3-C ) :   0.9167 B(  3-C ,  4-C ) :   0.9629
B(  3-C , 13-H ) :   0.9205 B(  3-C , 14-H ) :   0.9205 B(  4-C ,  5-C ) :   0.9119
B(  4-C ,  8-C ) :   0.9704 B(  4-C , 15-H ) :   0.9175 B(  5-C ,  6-C ) :   0.8882
B(  5-C ,  7-C ) :   0.8387 B(  5-C , 16-H ) :   0.9246 B(  6-C ,  7-C ) :   0.8851
B(  6-C , 17-H ) :   0.9329 B(  6-C , 18-H ) :   0.9132 B(  7-C ,  8-C ) :   0.9056
B(  7-C , 19-H ) :   0.9273 B(  8-C , 20-H ) :   0.9085

MP2 TOTAL ENERGY:     -386.389949645 Eh
FINAL SINGLE POINT ENERGY      -386.389949645237

DIPOLE MOMENT
-------------
                                X             Y             Z
Electronic contribution:      0.65591      -2.38172      -0.46491
Nuclear contribution   :     -0.64972       2.14261       1.06731
                        -----------------------------------------
Total Dipole Moment    :      0.00619      -0.23910       0.60240
                        -----------------------------------------
Magnitude (a.u.)       :      0.64815
Magnitude (Debye)      :      1.64746

                             ****ORCA TERMINATED NORMALLY****
TOTAL RUN TIME: 0 days 0 hours 20 minutes 23 seconds 144 msec
