                         Program Version 3.0.3 - RELEASE   -
|  1> ! RI-MP2 RIJK def2-TZVP def2-TZVP/C def2-TZVP/JK TIGHTSCF
|  2> % maxcore 2000
|  3> % mp2 density relaxed end
|  4> *xyz 0 1
|  5>  C        0.5792490061     0.8810647172    -0.4241300984
|  6>  C       -0.3272790962     0.3814433023     0.7104669545
|  7>  C       -1.5896934689    -0.2797384570     0.2069767991
|  8>  N       -2.7178865055     0.2318240500     0.4488063469
|  9>  C       -4.0259848637    -0.3211073059     0.1892640196
| 10>  C       -4.2783930342    -1.4695945820    -0.7471755370
| 11>  C       -3.4159925457    -2.1173527221    -1.5213757994
| 12>  C       -1.9474362184    -1.8386201213    -1.6347143244
| 13>  O       -1.2688220303    -1.4448463754    -0.4417093540
| 14>  H        1.4918776001     1.3284783392    -0.0196020902
| 15>  H        0.8682836002     0.0573706201    -1.0825793221
| 16>  H        0.0712445072     1.6408581000    -1.0268215287
| 17>  H        0.2208815570    -0.3552447354     1.3109763099
| 18>  H       -0.6196590848     1.2020789953     1.3676007180
| 19>  H       -4.4435526235    -0.5888797490     1.1735618450
| 20>  H       -4.6680407409     0.5111313224    -0.1404443409
| 21>  H       -5.3265426980    -1.7654691825    -0.7830973534
| 22>  H       -3.7804176651    -2.9081974687    -2.1729937759
| 23>  H       -1.4221341337    -2.7431145737    -1.9559709490
| 24>  H       -1.7676681516    -1.0748139834    -2.4065300497
| 25> *
| 26>
| 27>                          ****END OF INPUT****

CARTESIAN COORDINATES (ANGSTROEM)
---------------------------------
  C      0.579249    0.881065   -0.424130
  C     -0.327279    0.381443    0.710467
  C     -1.589693   -0.279738    0.206977
  N     -2.717887    0.231824    0.448806
  C     -4.025985   -0.321107    0.189264
  C     -4.278393   -1.469595   -0.747176
  C     -3.415993   -2.117353   -1.521376
  C     -1.947436   -1.838620   -1.634714
  O     -1.268822   -1.444846   -0.441709
  H      1.491878    1.328478   -0.019602
  H      0.868284    0.057371   -1.082579
  H      0.071245    1.640858   -1.026822
  H      0.220882   -0.355245    1.310976
  H     -0.619659    1.202079    1.367601
  H     -4.443553   -0.588880    1.173562
  H     -4.668041    0.511131   -0.140444
  H     -5.326543   -1.765469   -0.783097
  H     -3.780418   -2.908197   -2.172994
  H     -1.422134   -2.743115   -1.955971
  H     -1.767668   -1.074814   -2.406530

 Total Charge           Charge          ....    0
 Multiplicity           Mult            ....    1
 Number of Electrons    NEL             ....   68
 Basis Dimension        Dim             ....  345

ORBITAL ENERGIES
----------------

  NO   OCC          E(Eh)            E(eV)
   0   2.0000     -20.580044      -560.0115
   1   2.0000     -15.537141      -422.7871
   2   2.0000     -11.328389      -308.2611
   3   2.0000     -11.294824      -307.3478
   4   2.0000     -11.260144      -306.4041
   5   2.0000     -11.236654      -305.7649
   6   2.0000     -11.231173      -305.6157
   7   2.0000     -11.224327      -305.4295
   8   2.0000     -11.216320      -305.2116
   9   2.0000      -1.410925       -38.3932
  10   2.0000      -1.212667       -32.9984
  11   2.0000      -1.094344       -29.7786
  12   2.0000      -1.034166       -28.1411
  13   2.0000      -0.974524       -26.5182
  14   2.0000      -0.937175       -25.5018
  15   2.0000      -0.853122       -23.2146
  16   2.0000      -0.768171       -20.9030
  17   2.0000      -0.743409       -20.2292
  18   2.0000      -0.686723       -18.6867
  19   2.0000      -0.668290       -18.1851
  20   2.0000      -0.632276       -17.2051
  21   2.0000      -0.618426       -16.8282
  22   2.0000      -0.594328       -16.1725
  23   2.0000      -0.588742       -16.0205
  24   2.0000      -0.566868       -15.4253
  25   2.0000      -0.554650       -15.0928
  26   2.0000      -0.529979       -14.4215
  27   2.0000      -0.514623       -14.0036
  28   2.0000      -0.507388       -13.8067
  29   2.0000      -0.492063       -13.3897
  30   2.0000      -0.464113       -12.6291
  31   2.0000      -0.395882       -10.7725
  32   2.0000      -0.386912       -10.5284
  33   2.0000      -0.355557        -9.6752
  34   0.0000       0.128207         3.4887
  35   0.0000       0.147315         4.0086
  36   0.0000       0.157181         4.2771
  37   0.0000       0.165139         4.4936
  38   0.0000       0.181144         4.9292

MULLIKEN ATOMIC CHARGES
-----------------------
   0 C :   -0.416100
   1 C :   -0.157196
   2 C :    0.172597
   3 N :   -0.263564
   4 C :   -0.085145
   5 C :   -0.175068
   6 C :   -0.202659
   7 C :    0.001645
   8 O :   -0.283568
   9 H :    0.133576
  10 H :    0.133599
  11 H :    0.129396
  12 H :    0.117247
  13 H :    0.126318
  14 H :    0.135089
  15 H :    0.137821
  16 H :    0.123002
  17 H :    0.123773
  18 H :    0.135017
  19 H :    0.114221
Sum of atomic charges:   -0.0000000

LOEWDIN ATOMIC CHARGES
----------------------
   0 C :   -0.312627
   1 C :   -0.251466
   2 C :   -0.371961
   3 N :    0.113799
   4 C :   -0.292891
   5 C :   -0.177035
   6 C :   -0.193041
   7 C :   -0.284584
   8 O :    0.236550
   9 H :    0.122006
  10 H :    0.122168
  11 H :    0.122173
  12 H :    0.146658
  13 H :    0.145504
  14 H :    0.152439
  15 H :    0.150114
  16 H :    0.149715
  17 H :    0.148099
  18 H :    0.138531
  19 H :    0.135848

  Mayer bond orders larger than 0.1
B(  0-C ,  1-C ) :   0.8998 B(  0-C ,  9-H ) :   0.9370 B(  0-C , 10-H ) :   0.9373
B(  0-C , 11-H ) :   0.9381 B(  1-C ,  2-C ) :   0.9205 B(  1-C , 12-H ) :   0.9237
B(  1-C , 13-H ) :   0.9376 B(  2-C ,  3-N ) :   1.8907 B(  2-C ,  8-O ) :   1.0214
B(  3-N ,  4-C ) :   0.9596 B(  4-C ,  5-C ) :   0.8992 B(  4-C , 14-H ) :   0.9193
B(  4-C , 15-H ) :   0.9224 B(  5-C ,  6-C ) :   1.8286 B(  5-C , 16-H ) :   0.9163
B(  6-C ,  7-C ) :   0.9312 B(  6-C , 17-H ) :   0.9212 B(  7-C ,  8-O ) :   0.8680
B(  7-C , 18-H ) :   0.9376 B(  7-C , 19-H ) :   0.9105

MP2 TOTAL ENERGY:     -402.448499414 Eh
FINAL SINGLE POINT ENERGY      -402.448499413569

DIPOLE MOMENT
-------------
                                X             Y             Z
Electronic contribution:     -3.26785      -2.65303       1.13881
Nuclear contribution   :      3.11237       2.33361      -1.64763
                        -----------------------------------------
Total Dipole Moment    :     -0.15547      -0.31942      -0.50882
                        -----------------------------------------
Magnitude (a.u.)       :      0.62056
Magnitude (Debye)      :      1.57734

                             ****ORCA TERMINATED NORMALLY****
TOTAL RUN TIME: 0 days 0 hours 17 minutes 40 seconds 667 msec
