                         Program Version 3.0.3 - RELEASE   -
|  1> ! RI-MP2 RIJK def2-TZVP def2-TZVP/C def2-TZVP/JK TIGHTSCF
|  2> % maxcore 2000
|  3> % mp2 density relaxed end
|  4> *xyz 0 1
|  5>  C        0.0076851225     1.5750197676     0.1174963317
|  6>  C        0.0113953582     0.0463551889     0.0307096126
|  7>  C        0.6974349918    -0.4817822067    -1.2333633250
|  8>  C        0.7037713963    -2.0103730602    -1.3299634748
|  9>  C        1.4455286835    -2.5444704406    -2.5614709789
| 10>  O        2.8006691542    -2.0871738405    -2.5964928647
| 11>  C        1.3699961830    -4.0707732017    -2.6672902991
| 12>  C        2.0396511027    -4.6189798888    -3.9208419159
| 13>  O        1.9248341423    -6.0352764670    -3.8899989687
| 14>  H        1.0284732699     1.9731614322     0.1177558909
| 15>  H       -0.5175469482     2.0184408543    -0.7358414707
| 16>  H       -0.4862828118     1.9237896167     1.0299099950
| 17>  H        0.5123296020    -0.3692210105     0.9155183132
| 18>  H       -1.0214628671    -0.3254591533     0.0678422199
| 19>  H        0.1958910020    -0.0668576760    -2.1190456578
| 20>  H        1.7311378671    -0.1195149256    -1.2760834496
| 21>  H        1.1684843440    -2.4380810181    -0.4280197317
| 22>  H       -0.3267176570    -2.3890605820    -1.3463304018
| 23>  H        0.9960150930    -2.1021301715    -3.4612099226
| 24>  H        3.2445342301    -2.4437951376    -1.8181089329
| 25>  H        1.8442688279    -4.5252405654    -1.7861432175
| 26>  H        0.3213195923    -4.3905241844    -2.6550431425
| 27>  H        1.5489202856    -4.1988575795    -4.8146489164
| 28>  H        3.0899004074    -4.2972036156    -3.9454210575
| 29>  H        2.3881001382    -6.3885301045    -4.6548620252
| 30> *
| 31>
| 32>                          ****END OF INPUT****

CARTESIAN COORDINATES (ANGSTROEM)
---------------------------------
  C      0.007685    1.575020    0.117496
  C      0.011395    0.046355    0.030710
  C      0.697435   -0.481782   -1.233363
  C      0.703771   -2.010373   -1.329963
  C      1.445529   -2.544470   -2.561471
  O      2.800669   -2.087174   -2.596493
  C      1.369996   -4.070773   -2.667290
  C      2.039651   -4.618980   -3.920842
  O      1.924834   -6.035276   -3.889999
  H      1.028473    1.973161    0.117756
  H     -0.517547    2.018441   -0.735841
  H     -0.486283    1.923790    1.029910
  H      0.512330   -0.369221    0.915518
  H     -1.021463   -0.325459    0.067842
  H      0.195891   -0.066858   -2.119046
  H      1.731138   -0.119515   -1.276083
  H      1.168484   -2.438081   -0.428020
  H     -0.326718   -2.389061   -1.346330
  H      0.996015   -2.102130   -3.461210
  H      3.244534   -2.443795   -1.818109
  H      1.844269   -4.525241   -1.786143
  H      0.321320   -4.390524   -2.655043
  H      1.548920   -4.198858   -4.814649
  H      3.089900   -4.297204   -3.945421
  H      2.388100   -6.388530   -4.654862

 Total Charge           Charge          ....    0
 Multiplicity           Mult            ....    1
 Number of Electrons    NEL             ....   74
 Basis Dimension        Dim             ....  375

ORBITAL ENERGIES
----------------

  NO   OCC          E(Eh)            E(eV)
   0   2.0000     -20.552838      -559.2711
   1   2.0000     -20.552678      -559.2668
   2   2.0000     -11.278615      -306.9067
   3   2.0000     -11.270645      -306.6898
   4   2.0000     -11.220788      -305.3332
   5   2.0000     -11.219140      -305.2883
   6   2.0000     -11.217511      -305.2440
   7   2.0000     -11.213843      -305.1442
   8   2.0000     -11.210480      -305.0527
   9   2.0000      -1.359690       -36.9991
  10   2.0000      -1.355029       -36.8722
  11   2.0000      -1.081318       -29.4242
  12   2.0000      -1.045049       -28.4372
  13   2.0000      -0.990359       -26.9490
  14   2.0000      -0.907743       -24.7009
  15   2.0000      -0.836986       -22.7756
  16   2.0000      -0.805744       -21.9254
  17   2.0000      -0.788456       -21.4550
  18   2.0000      -0.697733       -18.9863
  19   2.0000      -0.664988       -18.0952
  20   2.0000      -0.647751       -17.6262
  21   2.0000      -0.640165       -17.4198
  22   2.0000      -0.607710       -16.5366
  23   2.0000      -0.601430       -16.3657
  24   2.0000      -0.584655       -15.9093
  25   2.0000      -0.561357       -15.2753
  26   2.0000      -0.549284       -14.9468
  27   2.0000      -0.537471       -14.6253
  28   2.0000      -0.512563       -13.9475
  29   2.0000      -0.497494       -13.5375
  30   2.0000      -0.492093       -13.3905
  31   2.0000      -0.477302       -12.9880
  32   2.0000      -0.473903       -12.8956
  33   2.0000      -0.462612       -12.5883
  34   2.0000      -0.457243       -12.4422
  35   2.0000      -0.440851       -11.9962
  36   2.0000      -0.423994       -11.5375
  37   0.0000       0.130217         3.5434
  38   0.0000       0.141480         3.8499
  39   0.0000       0.146793         3.9944
  40   0.0000       0.158864         4.3229
  41   0.0000       0.170919         4.6509

MULLIKEN ATOMIC CHARGES
-----------------------
   0 C :   -0.382871
   1 C :   -0.178680
   2 C :   -0.200751
   3 C :   -0.263845
   4 C :    0.050694
   5 O :   -0.474732
   6 C :   -0.173334
   7 C :   -0.046949
   8 O :   -0.468227
   9 H :    0.122176
  10 H :    0.121404
  11 H :    0.131997
  12 H :    0.102967
  13 H :    0.101942
  14 H :    0.101795
  15 H :    0.115814
  16 H :    0.106837
  17 H :    0.113137
  18 H :    0.084690
  19 H :    0.310228
  20 H :    0.105963
  21 H :    0.113846
  22 H :    0.086480
  23 H :    0.103929
  24 H :    0.315492
Sum of atomic charges:    0.0000000

LOEWDIN ATOMIC CHARGES
----------------------
   0 C :   -0.322012
   1 C :   -0.298931
   2 C :   -0.271723
   3 C :   -0.260391
   4 C :   -0.345691
   5 O :   -0.023471
   6 C :   -0.261712
   7 C :   -0.350426
   8 O :   -0.055856
   9 H :    0.120245
  10 H :    0.119948
  11 H :    0.119606
  12 H :    0.133220
  13 H :    0.133151
  14 H :    0.137098
  15 H :    0.139333
  16 H :    0.137342
  17 H :    0.142688
  18 H :    0.146053
  19 H :    0.174124
  20 H :    0.139836
  21 H :    0.145009
  22 H :    0.114628
  23 H :    0.116578
  24 H :    0.171354

  Mayer bond orders larger than 0.1
B(  0-C ,  1-C ) :   0.9250 B(  0-C ,  9-H ) :   0.9395 B(  0-C , 10-H ) :   0.9398
B(  0-C , 11-H ) :   0.9435 B(  1-C ,  2-C ) :   0.9290 B(  1-C , 12-H ) :   0.9339
B(  1-C , 13-H ) :   0.9318 B(  2-C ,  3-C ) :   0.9316 B(  2-C , 14-H ) :   0.9277
B(  2-C , 15-H ) :   0.9277 B(  3-C ,  4-C ) :   0.9468 B(  3-C , 16-H ) :   0.9200
B(  3-C , 17-H ) :   0.9270 B(  4-C ,  5-O ) :   0.8833 B(  4-C ,  6-C ) :   0.9309
B(  4-C , 18-H ) :   0.9202 B(  5-O , 19-H ) :   0.8434 B(  6-C ,  7-C ) :   0.9423
B(  6-C , 20-H ) :   0.9063 B(  6-C , 21-H ) :   0.9243 B(  7-C ,  8-O ) :   1.0172
B(  7-C , 22-H ) :   0.9312 B(  7-C , 23-H ) :   0.9318 B(  8-O , 24-H ) :   0.8500

MP2 TOTAL ENERGY:     -425.930962174 Eh
FINAL SINGLE POINT ENERGY      -425.930962174376

DIPOLE MOMENT
-------------
                                X             Y             Z
Electronic contribution:      4.20887      -8.04926      -5.34241
Nuclear contribution   :     -4.16326       8.03260       5.35317
                        -----------------------------------------
Total Dipole Moment    :      0.04562      -0.01666       0.01076
                        -----------------------------------------
Magnitude (a.u.)       :      0.04974
Magnitude (Debye)      :      0.12644

                             ****ORCA TERMINATED NORMALLY****
TOTAL RUN TIME: 0 days 0 hours 16 minutes 31 seconds 135 msec
