                         Program Version 3.0.3 - RELEASE   -
|  1> ! RI-MP2 RIJK def2-TZVP def2-TZVP/C def2-TZVP/JK TIGHTSCF
|  2> % maxcore 2000
|  3> % mp2 density relaxed end
|  4> *xyz 0 1
|  5>  C       -0.0617594454     1.5660598511    -0.0036201684
|  6>  C        0.0826200713     0.0467419957     0.0571074383
|  7>  C        0.6956945471    -0.5297032277    -1.2288447465
|  8>  C        0.9976370689    -2.0015605326    -1.0835486150
|  9>  O        0.8778432328    -2.8449427119    -1.9188209715
| 10>  O        1.5001952834    -2.3561758364     0.1571323966
| 11>  C        1.4965768634    -1.4254956775     1.1771886524
| 12>  N        0.8798922820    -0.3311104281     1.2265316347
| 13>  H        0.9169451787     2.0397833007    -0.1310812215
| 14>  H       -0.7027804917     1.8629765875    -0.8393571726
| 15>  H       -0.4994534865     1.9387190708     0.9254771852
| 16>  H       -0.9174694923    -0.3897966293     0.1999643826
| 17>  H        0.0556181071    -0.3954266592    -2.1024050319
| 18>  H        1.6476754195    -0.0187032021    -1.4294902090
| 19>  H        2.1027421118    -1.7892549909     2.0022673165
| 20> *
| 21>
| 22>                          ****END OF INPUT****

CARTESIAN COORDINATES (ANGSTROEM)
---------------------------------
  C     -0.061759    1.566060   -0.003620
  C      0.082620    0.046742    0.057107
  C      0.695695   -0.529703   -1.228845
  C      0.997637   -2.001561   -1.083549
  O      0.877843   -2.844943   -1.918821
  O      1.500195   -2.356176    0.157132
  C      1.496577   -1.425496    1.177189
  N      0.879892   -0.331110    1.226532
  H      0.916945    2.039783   -0.131081
  H     -0.702780    1.862977   -0.839357
  H     -0.499453    1.938719    0.925477
  H     -0.917469   -0.389797    0.199964
  H      0.055618   -0.395427   -2.102405
  H      1.647675   -0.018703   -1.429490
  H      2.102742   -1.789255    2.002267

 Total Charge           Charge          ....    0
 Multiplicity           Mult            ....    1
 Number of Electrons    NEL             ....   60
 Basis Dimension        Dim             ....  290

ORBITAL ENERGIES
----------------

  NO   OCC          E(Eh)            E(eV)
   0   2.0000     -20.633395      -561.4632
   1   2.0000     -20.563059      -559.5493
   2   2.0000     -15.572690      -423.7544
   3   2.0000     -11.400367      -310.2198
   4   2.0000     -11.357627      -309.0568
   5   2.0000     -11.289778      -307.2105
   6   2.0000     -11.264325      -306.5179
   7   2.0000     -11.231884      -305.6351
   8   2.0000      -1.487989       -40.4902
   9   2.0000      -1.396203       -37.9926
  10   2.0000      -1.250308       -34.0226
  11   2.0000      -1.092225       -29.7210
  12   2.0000      -0.994505       -27.0619
  13   2.0000      -0.918866       -25.0036
  14   2.0000      -0.856007       -23.2931
  15   2.0000      -0.735703       -20.0195
  16   2.0000      -0.731316       -19.9001
  17   2.0000      -0.706349       -19.2207
  18   2.0000      -0.680189       -18.5089
  19   2.0000      -0.647644       -17.6233
  20   2.0000      -0.632269       -17.2049
  21   2.0000      -0.589480       -16.0406
  22   2.0000      -0.573766       -15.6130
  23   2.0000      -0.554658       -15.0930
  24   2.0000      -0.542033       -14.7495
  25   2.0000      -0.540402       -14.7051
  26   2.0000      -0.500247       -13.6124
  27   2.0000      -0.457787       -12.4570
  28   2.0000      -0.437888       -11.9155
  29   2.0000      -0.420398       -11.4396
  30   0.0000       0.119889         3.2623
  31   0.0000       0.126564         3.4440
  32   0.0000       0.161110         4.3840
  33   0.0000       0.167774         4.5654
  34   0.0000       0.175172         4.7667

MULLIKEN ATOMIC CHARGES
-----------------------
   0 C :   -0.354227
   1 C :   -0.003186
   2 C :   -0.261788
   3 C :    0.260864
   4 O :   -0.250062
   5 O :   -0.200693
   6 C :    0.081012
   7 N :   -0.242590
   8 H :    0.125241
   9 H :    0.127341
  10 H :    0.145889
  11 H :    0.117769
  12 H :    0.152206
  13 H :    0.148275
  14 H :    0.153948
Sum of atomic charges:   -0.0000000

LOEWDIN ATOMIC CHARGES
----------------------
   0 C :   -0.286195
   1 C :   -0.307162
   2 C :   -0.210559
   3 C :   -0.436287
   4 O :    0.168117
   5 O :    0.280636
   6 C :   -0.317751
   7 N :    0.110006
   8 H :    0.126160
   9 H :    0.125546
  10 H :    0.130063
  11 H :    0.156622
  12 H :    0.158523
  13 H :    0.164502
  14 H :    0.137778

  Mayer bond orders larger than 0.1
B(  0-C ,  1-C ) :   0.9242 B(  0-C ,  8-H ) :   0.9299 B(  0-C ,  9-H ) :   0.9357
B(  0-C , 10-H ) :   0.9356 B(  1-C ,  2-C ) :   0.8910 B(  1-C ,  7-N ) :   0.8885
B(  1-C , 11-H ) :   0.9232 B(  2-C ,  3-C ) :   0.9509 B(  2-C , 12-H ) :   0.9106
B(  2-C , 13-H ) :   0.8991 B(  3-C ,  4-O ) :   2.0647 B(  3-C ,  5-O ) :   1.0196
B(  5-O ,  6-C ) :   0.9812 B(  6-C ,  7-N ) :   1.8733 B(  6-C , 14-H ) :   0.9253

MP2 TOTAL ENERGY:     -399.196791333 Eh
FINAL SINGLE POINT ENERGY      -399.196791333099

DIPOLE MOMENT
-------------
                                X             Y             Z
Electronic contribution:      2.73194      -8.62013      -0.02743
Nuclear contribution   :     -2.86177       9.54850       0.17263
                        -----------------------------------------
Total Dipole Moment    :     -0.12983       0.92836       0.14520
                        -----------------------------------------
Magnitude (a.u.)       :      0.94857
Magnitude (Debye)      :      2.41108

                             ****ORCA TERMINATED NORMALLY****
TOTAL RUN TIME: 0 days 0 hours 10 minutes 27 seconds 536 msec
