                         Program Version 3.0.3 - RELEASE   -
|  1> ! RI-MP2 RIJK def2-TZVP def2-TZVP/C def2-TZVP/JK TIGHTSCF
|  2> % maxcore 2000
|  3> % mp2 density relaxed end
|  4> *xyz 0 1
|  5>  C        0.7888054524     1.2503949403    -0.6777422161
|  6>  C        0.1014893611     0.0727982537    -0.0398588346
|  7>  O        0.9046002812    -1.0670057577     0.3271864626
|  8>  C        0.2535873357    -0.3541649366     1.3627061243
|  9>  C        1.1466247222     0.3107079542     2.3832201949
| 10>  C        2.4399066347    -0.3090366148     2.7517081834
| 11>  O        2.3825411323     0.8709198149     1.9543033989
| 12>  C        0.4283454943     1.0848980055     3.3824794728
| 13>  N       -0.1765163448     1.6853831958     4.1627188122
| 14>  H        1.7406167985     1.4661638030    -0.1950166277
| 15>  H        0.9670380957     1.0426850446    -1.7378026481
| 16>  H        0.1456752746     2.1347581546    -0.6157500703
| 17>  H       -0.8401017465    -0.2164824925    -0.5106884602
| 18>  H       -0.5821481897    -0.8752440620     1.8353795692
| 19>  H        2.8312051104    -0.1764508763     3.7573894480
| 20>  H        2.7287646778    -1.2115325066     2.2188798809
| 21> *
| 22>
| 23>                          ****END OF INPUT****

CARTESIAN COORDINATES (ANGSTROEM)
---------------------------------
  C      0.788805    1.250395   -0.677742
  C      0.101489    0.072798   -0.039859
  O      0.904600   -1.067006    0.327186
  C      0.253587   -0.354165    1.362706
  C      1.146625    0.310708    2.383220
  C      2.439907   -0.309037    2.751708
  O      2.382541    0.870920    1.954303
  C      0.428345    1.084898    3.382479
  N     -0.176516    1.685383    4.162719
  H      1.740617    1.466164   -0.195017
  H      0.967038    1.042685   -1.737803
  H      0.145675    2.134758   -0.615750
  H     -0.840102   -0.216482   -0.510688
  H     -0.582148   -0.875244    1.835380
  H      2.831205   -0.176451    3.757389
  H      2.728765   -1.211533    2.218880

 Total Charge           Charge          ....    0
 Multiplicity           Mult            ....    1
 Number of Electrons    NEL             ....   66
 Basis Dimension        Dim             ....  321

ORBITAL ENERGIES
----------------

  NO   OCC          E(Eh)            E(eV)
   0   2.0000     -20.613935      -560.9337
   1   2.0000     -20.589973      -560.2817
   2   2.0000     -15.593207      -424.3127
   3   2.0000     -11.360140      -309.1251
   4   2.0000     -11.323428      -308.1261
   5   2.0000     -11.320263      -308.0400
   6   2.0000     -11.311134      -307.7916
   7   2.0000     -11.291366      -307.2537
   8   2.0000     -11.231544      -305.6258
   9   2.0000      -1.466597       -39.9081
  10   2.0000      -1.432541       -38.9814
  11   2.0000      -1.236462       -33.6458
  12   2.0000      -1.045395       -28.4466
  13   2.0000      -1.025275       -27.8992
  14   2.0000      -0.941324       -25.6147
  15   2.0000      -0.893312       -24.3083
  16   2.0000      -0.841902       -22.9093
  17   2.0000      -0.760576       -20.6963
  18   2.0000      -0.718396       -19.5485
  19   2.0000      -0.703907       -19.1543
  20   2.0000      -0.633391       -17.2354
  21   2.0000      -0.619708       -16.8631
  22   2.0000      -0.602072       -16.3832
  23   2.0000      -0.579080       -15.7576
  24   2.0000      -0.575322       -15.6553
  25   2.0000      -0.555931       -15.1277
  26   2.0000      -0.550694       -14.9851
  27   2.0000      -0.525243       -14.2926
  28   2.0000      -0.494482       -13.4555
  29   2.0000      -0.488480       -13.2922
  30   2.0000      -0.477522       -12.9940
  31   2.0000      -0.462711       -12.5910
  32   2.0000      -0.429006       -11.6739
  33   0.0000       0.131747         3.5850
  34   0.0000       0.140052         3.8110
  35   0.0000       0.149292         4.0624
  36   0.0000       0.159941         4.3522
  37   0.0000       0.168638         4.5889

MULLIKEN ATOMIC CHARGES
-----------------------
   0 C :   -0.400279
   1 C :    0.050879
   2 O :   -0.334345
   3 C :    0.016610
   4 C :    0.348785
   5 C :   -0.083035
   6 O :   -0.320193
   7 C :   -0.247378
   8 N :   -0.036361
   9 H :    0.170359
  10 H :    0.139676
  11 H :    0.137047
  12 H :    0.114978
  13 H :    0.149871
  14 H :    0.143358
  15 H :    0.150027
Sum of atomic charges:    0.0000000

LOEWDIN ATOMIC CHARGES
----------------------
   0 C :   -0.291096
   1 C :   -0.263133
   2 O :    0.179666
   3 C :   -0.239123
   4 C :   -0.310570
   5 C :   -0.198750
   6 O :    0.208805
   7 C :   -0.136410
   8 N :    0.088184
   9 H :    0.135718
  10 H :    0.131882
  11 H :    0.134846
  12 H :    0.140950
  13 H :    0.153285
  14 H :    0.131148
  15 H :    0.134598

  Mayer bond orders larger than 0.1
B(  0-C ,  1-C ) :   0.8799 B(  0-C ,  9-H ) :   0.9344 B(  0-C , 10-H ) :   0.9307
B(  0-C , 11-H ) :   0.9217 B(  1-C ,  2-O ) :   0.8919 B(  1-C ,  3-C ) :   0.9731
B(  1-C , 12-H ) :   0.9297 B(  2-O ,  3-C ) :   0.8972 B(  3-C ,  4-C ) :   0.9112
B(  3-C , 13-H ) :   0.8970 B(  4-C ,  5-C ) :   0.9407 B(  4-C ,  6-O ) :   0.8167
B(  4-C ,  7-C ) :   0.8991 B(  5-C ,  6-O ) :   0.9062 B(  5-C , 14-H ) :   0.9136
B(  5-C , 15-H ) :   0.8984 B(  7-C ,  8-N ) :   2.8554

MP2 TOTAL ENERGY:     -437.123662337 Eh
FINAL SINGLE POINT ENERGY      -437.123662337020

DIPOLE MOMENT
-------------
                                X             Y             Z
Electronic contribution:     -0.20071      -0.19590       5.96364
Nuclear contribution   :      0.32073      -0.46145      -6.54693
                        -----------------------------------------
Total Dipole Moment    :      0.12002      -0.65734      -0.58329
                        -----------------------------------------
Magnitude (a.u.)       :      0.88698
Magnitude (Debye)      :      2.25453

                             ****ORCA TERMINATED NORMALLY****
TOTAL RUN TIME: 0 days 0 hours 15 minutes 15 seconds 251 msec
