                         Program Version 3.0.3 - RELEASE   -
|  1> ! RI-MP2 RIJK def2-TZVP def2-TZVP/C def2-TZVP/JK TIGHTSCF
|  2> % maxcore 2000
|  3> % mp2 density relaxed end
|  4> *xyz 0 1
|  5>  C       -0.0161498010    -1.1941171621    -0.0543475779
|  6>  C       -0.0062585552     0.0090091883    -0.0057292347
|  7>  C        0.0248069012     1.4228902651     0.0498621855
|  8>  C       -1.0520670195     2.3268197054     0.6769797315
|  9>  C       -0.4055471483     3.4359243095     1.4788904214
| 10>  C        0.8239787095     3.6306623608     0.6207350454
| 11>  C        1.2565763165     2.3538580184     0.0035906332
| 12>  N        0.5361226464     3.3686174904    -0.8287691403
| 13>  C       -0.6896723457     2.4900015005    -0.7675697098
| 14>  H       -0.0274216689    -2.2546045422    -0.0993828684
| 15>  H       -1.9964807007     1.8724947955     0.9459492614
| 16>  H       -1.0309875197     4.3339914668     1.5197383635
| 17>  H       -0.1511130665     3.1353458379     2.5002735412
| 18>  H        1.5310137605     4.4324140628     0.8004051822
| 19>  H        2.2722669782     2.0461984445    -0.2123341678
| 20>  H       -1.3481484867     2.4057796384    -1.6209054664
| 21> *
| 22>
| 23>                          ****END OF INPUT****

CARTESIAN COORDINATES (ANGSTROEM)
---------------------------------
  C     -0.016150   -1.194117   -0.054348
  C     -0.006259    0.009009   -0.005729
  C      0.024807    1.422890    0.049862
  C     -1.052067    2.326820    0.676980
  C     -0.405547    3.435924    1.478890
  C      0.823979    3.630662    0.620735
  C      1.256576    2.353858    0.003591
  N      0.536123    3.368617   -0.828769
  C     -0.689672    2.490002   -0.767570
  H     -0.027422   -2.254605   -0.099383
  H     -1.996481    1.872495    0.945949
  H     -1.030988    4.333991    1.519738
  H     -0.151113    3.135346    2.500274
  H      1.531014    4.432414    0.800405
  H      2.272267    2.046198   -0.212334
  H     -1.348148    2.405780   -1.620905

 Total Charge           Charge          ....    0
 Multiplicity           Mult            ....    1
 Number of Electrons    NEL             ....   62
 Basis Dimension        Dim             ....  321

ORBITAL ENERGIES
----------------

  NO   OCC          E(Eh)            E(eV)
   0   2.0000     -15.566549      -423.5873
   1   2.0000     -11.275261      -306.8155
   2   2.0000     -11.272727      -306.7465
   3   2.0000     -11.268821      -306.6402
   4   2.0000     -11.267528      -306.6050
   5   2.0000     -11.254307      -306.2453
   6   2.0000     -11.240256      -305.8629
   7   2.0000     -11.240208      -305.8616
   8   2.0000     -11.226070      -305.4769
   9   2.0000      -1.331710       -36.2377
  10   2.0000      -1.118622       -30.4393
  11   2.0000      -1.042019       -28.3548
  12   2.0000      -1.016591       -27.6628
  13   2.0000      -0.931204       -25.3394
  14   2.0000      -0.814682       -22.1686
  15   2.0000      -0.801167       -21.8009
  16   2.0000      -0.774980       -21.0883
  17   2.0000      -0.743988       -20.2449
  18   2.0000      -0.699282       -19.0284
  19   2.0000      -0.632373       -17.2077
  20   2.0000      -0.622451       -16.9378
  21   2.0000      -0.596184       -16.2230
  22   2.0000      -0.569687       -15.5020
  23   2.0000      -0.519117       -14.1259
  24   2.0000      -0.500875       -13.6295
  25   2.0000      -0.481786       -13.1101
  26   2.0000      -0.465146       -12.6573
  27   2.0000      -0.422055       -11.4847
  28   2.0000      -0.400155       -10.8888
  29   2.0000      -0.373955       -10.1758
  30   2.0000      -0.334141        -9.0924
  31   0.0000       0.146602         3.9892
  32   0.0000       0.154066         4.1923
  33   0.0000       0.157833         4.2949
  34   0.0000       0.166746         4.5374
  35   0.0000       0.174181         4.7397

MULLIKEN ATOMIC CHARGES
-----------------------
   0 C :   -0.125635
   1 C :   -0.001760
   2 C :   -0.156122
   3 C :   -0.189533
   4 C :   -0.142860
   5 C :   -0.141384
   6 C :   -0.016015
   7 N :   -0.217692
   8 C :   -0.036811
   9 H :    0.192092
  10 H :    0.147181
  11 H :    0.123615
  12 H :    0.126555
  13 H :    0.135099
  14 H :    0.153063
  15 H :    0.150207
Sum of atomic charges:   -0.0000000

LOEWDIN ATOMIC CHARGES
----------------------
   0 C :   -0.087451
   1 C :   -0.078975
   2 C :   -0.153633
   3 C :   -0.140594
   4 C :   -0.208434
   5 C :   -0.211678
   6 C :   -0.136169
   7 N :    0.144731
   8 C :   -0.134995
   9 H :    0.127147
  10 H :    0.157314
  11 H :    0.147056
  12 H :    0.148806
  13 H :    0.146572
  14 H :    0.140231
  15 H :    0.140072

  Mayer bond orders larger than 0.1
B(  0-C ,  1-C ) :   2.6116 B(  0-C ,  2-C ) :  -0.1644 B(  0-C ,  9-H ) :   0.8665
B(  1-C ,  2-C ) :   1.2219 B(  2-C ,  3-C ) :   0.7883 B(  2-C ,  6-C ) :   0.9267
B(  2-C ,  8-C ) :   0.8225 B(  3-C ,  4-C ) :   0.9383 B(  3-C ,  8-C ) :   0.9117
B(  3-C , 10-H ) :   0.9179 B(  4-C ,  5-C ) :   0.9582 B(  4-C , 11-H ) :   0.9100
B(  4-C , 12-H ) :   0.9058 B(  5-C ,  6-C ) :   0.9260 B(  5-C ,  7-N ) :   0.9051
B(  5-C , 13-H ) :   0.9244 B(  6-C ,  7-N ) :   0.8715 B(  6-C , 14-H ) :   0.8915
B(  7-N ,  8-C ) :   0.9737 B(  8-C , 15-H ) :   0.9080

MP2 TOTAL ENERGY:     -362.851450014 Eh
FINAL SINGLE POINT ENERGY      -362.851450014205

DIPOLE MOMENT
-------------
                                X             Y             Z
Electronic contribution:      0.78105      -1.75761      -2.06625
Nuclear contribution   :     -1.03700       1.69785       2.67727
                        -----------------------------------------
Total Dipole Moment    :     -0.25595      -0.05976       0.61102
                        -----------------------------------------
Magnitude (a.u.)       :      0.66516
Magnitude (Debye)      :      1.69069

                             ****ORCA TERMINATED NORMALLY****
TOTAL RUN TIME: 0 days 0 hours 17 minutes 47 seconds 627 msec
