                         Program Version 3.0.3 - RELEASE   -
|  1> ! RI-MP2 RIJK def2-TZVP def2-TZVP/C def2-TZVP/JK TIGHTSCF
|  2> % maxcore 2000
|  3> % mp2 density relaxed end
|  4> *xyz 0 1
|  5>  O       -0.0717732825     0.0056858576     0.1525623234
|  6>  C       -0.0612028177     1.2022431013     0.0241558620
|  7>  C       -1.2772259655     2.0788757904    -0.1958600215
|  8>  O       -1.3034181642     3.1377199887     0.7780191154
|  9>  C       -0.8144172673     3.4470386273    -0.5215303529
| 10>  C        0.7144898270     3.4850689586    -0.5533305259
| 11>  O        1.2940598943     4.1597022123     0.5783222221
| 12>  C        1.6415233908     2.9033858801     1.2042436172
| 13>  C        1.1722611005     2.1026322202    -0.0429912808
| 14>  H       -2.2336436845     1.6546033113    -0.4851988833
| 15>  H       -1.4198764993     4.1395399975    -1.1000659468
| 16>  H        1.1001590544     3.8565644194    -1.5081300763
| 17>  H        2.7147232860     2.8391466893     1.4104161725
| 18>  H        1.0724024014     2.7280733883     2.1217054044
| 19>  H        1.9746829266     1.6022601778    -0.5837209395
| 20> *
| 21>
| 22>                          ****END OF INPUT****

CARTESIAN COORDINATES (ANGSTROEM)
---------------------------------
  O     -0.071773    0.005686    0.152562
  C     -0.061203    1.202243    0.024156
  C     -1.277226    2.078876   -0.195860
  O     -1.303418    3.137720    0.778019
  C     -0.814417    3.447039   -0.521530
  C      0.714490    3.485069   -0.553331
  O      1.294060    4.159702    0.578322
  C      1.641523    2.903386    1.204244
  C      1.172261    2.102632   -0.042991
  H     -2.233644    1.654603   -0.485199
  H     -1.419876    4.139540   -1.100066
  H      1.100159    3.856564   -1.508130
  H      2.714723    2.839147    1.410416
  H      1.072402    2.728073    2.121705
  H      1.974683    1.602260   -0.583721

 Total Charge           Charge          ....    0
 Multiplicity           Mult            ....    1
 Number of Electrons    NEL             ....   66
 Basis Dimension        Dim             ....  315

ORBITAL ENERGIES
----------------

  NO   OCC          E(Eh)            E(eV)
   0   2.0000     -20.601994      -560.6088
   1   2.0000     -20.570628      -559.7552
   2   2.0000     -20.567014      -559.6569
   3   2.0000     -11.351269      -308.8837
   4   2.0000     -11.315629      -307.9139
   5   2.0000     -11.313521      -307.8566
   6   2.0000     -11.313046      -307.8436
   7   2.0000     -11.300714      -307.5081
   8   2.0000     -11.260874      -306.4240
   9   2.0000      -1.453330       -39.5471
  10   2.0000      -1.409373       -38.3510
  11   2.0000      -1.395211       -37.9656
  12   2.0000      -1.089429       -29.6449
  13   2.0000      -0.996782       -27.1238
  14   2.0000      -0.957173       -26.0460
  15   2.0000      -0.890954       -24.2441
  16   2.0000      -0.804555       -21.8930
  17   2.0000      -0.782736       -21.2993
  18   2.0000      -0.735142       -20.0042
  19   2.0000      -0.691063       -18.8048
  20   2.0000      -0.667656       -18.1678
  21   2.0000      -0.654344       -17.8056
  22   2.0000      -0.624141       -16.9837
  23   2.0000      -0.613936       -16.7060
  24   2.0000      -0.585032       -15.9195
  25   2.0000      -0.582236       -15.8434
  26   2.0000      -0.541475       -14.7343
  27   2.0000      -0.523858       -14.2549
  28   2.0000      -0.496553       -13.5119
  29   2.0000      -0.474781       -12.9194
  30   2.0000      -0.461947       -12.5702
  31   2.0000      -0.437606       -11.9079
  32   2.0000      -0.412199       -11.2165
  33   0.0000       0.103123         2.8061
  34   0.0000       0.141559         3.8520
  35   0.0000       0.153826         4.1858
  36   0.0000       0.164747         4.4830
  37   0.0000       0.178513         4.8576

MULLIKEN ATOMIC CHARGES
-----------------------
   0 O :   -0.247753
   1 C :    0.100885
   2 C :    0.017009
   3 O :   -0.299101
   4 C :   -0.050332
   5 C :    0.165122
   6 O :   -0.334272
   7 C :   -0.031172
   8 C :   -0.094021
   9 H :    0.146322
  10 H :    0.148029
  11 H :    0.111167
  12 H :    0.111042
  13 H :    0.112913
  14 H :    0.144163
Sum of atomic charges:   -0.0000000

LOEWDIN ATOMIC CHARGES
----------------------
   0 O :    0.174042
   1 C :   -0.286887
   2 C :   -0.206884
   3 O :    0.206320
   4 C :   -0.228040
   5 C :   -0.238111
   6 O :    0.144711
   7 C :   -0.230119
   8 C :   -0.162723
   9 H :    0.142727
  10 H :    0.139565
  11 H :    0.139297
  12 H :    0.120991
  13 H :    0.125674
  14 H :    0.159436

  Mayer bond orders larger than 0.1
B(  0-O ,  1-C ) :   2.0306 B(  1-C ,  2-C ) :   0.9150 B(  1-C ,  8-C ) :   0.8956
B(  2-C ,  3-O ) :   0.9062 B(  2-C ,  4-C ) :   0.8910 B(  2-C ,  8-C ) :  -0.1258
B(  2-C ,  9-H ) :   0.9176 B(  3-O ,  4-C ) :   0.8770 B(  4-C ,  5-C ) :   0.8912
B(  4-C , 10-H ) :   0.9138 B(  5-C ,  6-O ) :   0.9371 B(  5-C ,  8-C ) :   0.9028
B(  5-C , 11-H ) :   0.9121 B(  6-O ,  7-C ) :   0.9441 B(  7-C ,  8-C ) :   0.9597
B(  7-C , 12-H ) :   0.9150 B(  7-C , 13-H ) :   0.8998 B(  8-C , 14-H ) :   0.9117

MP2 TOTAL ENERGY:     -456.995157759 Eh
FINAL SINGLE POINT ENERGY      -456.995157759213

DIPOLE MOMENT
-------------
                                X             Y             Z
Electronic contribution:     -2.04402      -1.40161       0.28965
Nuclear contribution   :      2.17858       1.64545      -1.14708
                        -----------------------------------------
Total Dipole Moment    :      0.13456       0.24384      -0.85744
                        -----------------------------------------
Magnitude (a.u.)       :      0.90153
Magnitude (Debye)      :      2.29151

                             ****ORCA TERMINATED NORMALLY****
TOTAL RUN TIME: 0 days 0 hours 16 minutes 17 seconds 833 msec
