                         Program Version 3.0.3 - RELEASE   -
|  1> ! RI-MP2 RIJK def2-TZVP def2-TZVP/C def2-TZVP/JK TIGHTSCF
|  2> % maxcore 2000
|  3> % mp2 density relaxed end
|  4> *xyz 0 1
|  5>  N       -0.0766620464    -1.1235282778    -0.1100626314
|  6>  C       -0.0154309325     0.0304296196    -0.0682168384
|  7>  C        0.0109150096     1.4840768972     0.0396649775
|  8>  C       -0.1555327105     2.0621320984     1.4960548567
|  9>  C        1.3795044435     1.9252189008     1.5549616019
| 10>  N        1.4201425871     2.0389030684     0.0468158032
| 11>  C        1.3166984393     3.4682957203    -0.3188704948
| 12>  C        0.4706653375     4.2887009180     0.7023846544
| 13>  N       -0.5075650535     3.4698915048     1.4475341472
| 14>  H       -0.6434983756     1.9168866132    -0.7230016826
| 15>  H       -0.7914468693     1.5228263346     2.2024723158
| 16>  H        1.9470214947     2.6784042020     2.1037393623
| 17>  H        1.7062547684     0.9280879939     1.8560959057
| 18>  H        2.3288120164     3.8834371721    -0.3728607488
| 19>  H        0.8951330489     3.5164446897    -1.3285880178
| 20>  H        1.1469211607     4.7595101007     1.4248657336
| 21>  H       -0.0544727505     5.1072299238     0.2033583346
| 22>  H       -1.4402620976     3.5805625905     1.0665220308
| 23> *
| 24>
| 25>                          ****END OF INPUT****

CARTESIAN COORDINATES (ANGSTROEM)
---------------------------------
  N     -0.076662   -1.123528   -0.110063
  C     -0.015431    0.030430   -0.068217
  C      0.010915    1.484077    0.039665
  C     -0.155533    2.062132    1.496055
  C      1.379504    1.925219    1.554962
  N      1.420143    2.038903    0.046816
  C      1.316698    3.468296   -0.318870
  C      0.470665    4.288701    0.702385
  N     -0.507565    3.469892    1.447534
  H     -0.643498    1.916887   -0.723002
  H     -0.791447    1.522826    2.202472
  H      1.947021    2.678404    2.103739
  H      1.706255    0.928088    1.856096
  H      2.328812    3.883437   -0.372861
  H      0.895133    3.516445   -1.328588
  H      1.146921    4.759510    1.424866
  H     -0.054473    5.107230    0.203358
  H     -1.440262    3.580563    1.066522

 Total Charge           Charge          ....    0
 Multiplicity           Mult            ....    1
 Number of Electrons    NEL             ....   66
 Basis Dimension        Dim             ....  333

ORBITAL ENERGIES
----------------

  NO   OCC          E(Eh)            E(eV)
   0   2.0000     -15.580463      -423.9660
   1   2.0000     -15.571348      -423.7179
   2   2.0000     -15.567413      -423.6108
   3   2.0000     -11.307491      -307.6925
   4   2.0000     -11.290847      -307.2396
   5   2.0000     -11.271891      -306.7237
   6   2.0000     -11.271583      -306.7154
   7   2.0000     -11.270098      -306.6750
   8   2.0000     -11.269525      -306.6594
   9   2.0000      -1.304794       -35.5052
  10   2.0000      -1.217532       -33.1307
  11   2.0000      -1.193265       -32.4704
  12   2.0000      -1.062090       -28.9009
  13   2.0000      -0.976954       -26.5843
  14   2.0000      -0.915020       -24.8989
  15   2.0000      -0.878753       -23.9121
  16   2.0000      -0.785954       -21.3869
  17   2.0000      -0.720142       -19.5961
  18   2.0000      -0.703720       -19.1492
  19   2.0000      -0.666367       -18.1328
  20   2.0000      -0.640834       -17.4380
  21   2.0000      -0.604270       -16.4430
  22   2.0000      -0.592310       -16.1176
  23   2.0000      -0.568075       -15.4581
  24   2.0000      -0.556574       -15.1452
  25   2.0000      -0.550149       -14.9703
  26   2.0000      -0.523742       -14.2518
  27   2.0000      -0.505581       -13.7575
  28   2.0000      -0.499054       -13.5799
  29   2.0000      -0.460672       -12.5355
  30   2.0000      -0.455641       -12.3986
  31   2.0000      -0.414010       -11.2658
  32   2.0000      -0.360126        -9.7995
  33   0.0000       0.115301         3.1375
  34   0.0000       0.140972         3.8360
  35   0.0000       0.148879         4.0512
  36   0.0000       0.160865         4.3774
  37   0.0000       0.171025         4.6538

MULLIKEN ATOMIC CHARGES
-----------------------
   0 N :   -0.048580
   1 C :   -0.245745
   2 C :    0.025056
   3 C :    0.041185
   4 C :   -0.242917
   5 N :   -0.163391
   6 C :   -0.144342
   7 C :   -0.220368
   8 N :   -0.317316
   9 H :    0.145686
  10 H :    0.140613
  11 H :    0.138092
  12 H :    0.153800
  13 H :    0.144629
  14 H :    0.119890
  15 H :    0.125495
  16 H :    0.140383
  17 H :    0.207829
Sum of atomic charges:    0.0000000

LOEWDIN ATOMIC CHARGES
----------------------
   0 N :    0.068273
   1 C :   -0.169197
   2 C :   -0.224986
   3 C :   -0.255644
   4 C :   -0.211310
   5 N :    0.105508
   6 C :   -0.288580
   7 C :   -0.302205
   8 N :    0.006701
   9 H :    0.158034
  10 H :    0.139457
  11 H :    0.131921
  12 H :    0.141497
  13 H :    0.136442
  14 H :    0.131736
  15 H :    0.129568
  16 H :    0.132517
  17 H :    0.170268

  Mayer bond orders larger than 0.1
B(  0-N ,  1-C ) :   2.8620 B(  1-C ,  2-C ) :   0.9306 B(  2-C ,  3-C ) :   0.8467
B(  2-C ,  5-N ) :   0.8679 B(  2-C ,  9-H ) :   0.9042 B(  3-C ,  4-C ) :   0.8921
B(  3-C ,  8-N ) :   0.9776 B(  3-C , 10-H ) :   0.9244 B(  4-C ,  5-N ) :   0.8981
B(  4-C , 11-H ) :   0.9257 B(  4-C , 12-H ) :   0.9235 B(  5-N ,  6-C ) :   0.9191
B(  6-C ,  7-C ) :   0.8824 B(  6-C , 13-H ) :   0.9348 B(  6-C , 14-H ) :   0.9297
B(  7-C ,  8-N ) :   0.9791 B(  7-C , 15-H ) :   0.9408 B(  7-C , 16-H ) :   0.9235
B(  8-N , 17-H ) :   0.8778

MP2 TOTAL ENERGY:     -397.409282365 Eh
FINAL SINGLE POINT ENERGY      -397.409282365362

DIPOLE MOMENT
-------------
                                X             Y             Z
Electronic contribution:     -1.42494      -7.29354      -1.32296
Nuclear contribution   :      1.14623       9.10283       1.45504
                        -----------------------------------------
Total Dipole Moment    :     -0.27871       1.80930       0.13209
                        -----------------------------------------
Magnitude (a.u.)       :      1.83540
Magnitude (Debye)      :      4.66521

                             ****ORCA TERMINATED NORMALLY****
TOTAL RUN TIME: 0 days 0 hours 17 minutes 38 seconds 290 msec
