                         Program Version 3.0.3 - RELEASE   -
|  1> ! RI-MP2 RIJK def2-TZVP def2-TZVP/C def2-TZVP/JK TIGHTSCF
|  2> % maxcore 2000
|  3> % mp2 density relaxed end
|  4> *xyz 0 1
|  5>  C        0.0074708810     1.5795974183    -0.0211364141
|  6>  C        0.0343553760     0.0536050186     0.0446230005
|  7>  C        0.7866718003    -0.6059863833    -1.1366296715
|  8>  O        1.3158514436    -1.8445833114    -0.6628040061
|  9>  C        1.5487725949    -1.7214595957     0.7050073133
| 10>  C        2.2887617074    -0.5292814675     1.2295397177
| 11>  C        0.7555239288    -0.5455472178     1.2587148824
| 12>  C        0.0715122138    -0.5980376586     2.5139518597
| 13>  N       -0.4871841879    -0.6330436177     3.5274087075
| 14>  H        1.0209348230     1.9942164598    -0.0095616229
| 15>  H       -0.4855405478     1.9210528393    -0.9371245361
| 16>  H       -0.5391505839     1.9984878034     0.8283935058
| 17>  H       -0.9936749457    -0.3250189709     0.0693650129
| 18>  H        0.1396497937    -0.8249420239    -1.9891702649
| 19>  H        1.5979031254     0.0487589474    -1.4864025077
| 20>  H        1.6074122794    -2.6786602964     1.2078663774
| 21>  H        2.7863900450    -0.6402465532     2.1858152712
| 22>  H        2.7782661428     0.1489178496     0.5399635452
| 23> *
| 24>
| 25>                          ****END OF INPUT****

CARTESIAN COORDINATES (ANGSTROEM)
---------------------------------
  C      0.007471    1.579597   -0.021136
  C      0.034355    0.053605    0.044623
  C      0.786672   -0.605986   -1.136630
  O      1.315851   -1.844583   -0.662804
  C      1.548773   -1.721460    0.705007
  C      2.288762   -0.529281    1.229540
  C      0.755524   -0.545547    1.258715
  C      0.071512   -0.598038    2.513952
  N     -0.487184   -0.633044    3.527409
  H      1.020935    1.994216   -0.009562
  H     -0.485541    1.921053   -0.937125
  H     -0.539151    1.998488    0.828394
  H     -0.993675   -0.325019    0.069365
  H      0.139650   -0.824942   -1.989170
  H      1.597903    0.048759   -1.486403
  H      1.607412   -2.678660    1.207866
  H      2.786390   -0.640247    2.185815
  H      2.778266    0.148918    0.539964

 Total Charge           Charge          ....    0
 Multiplicity           Mult            ....    1
 Number of Electrons    NEL             ....   66
 Basis Dimension        Dim             ....  333

ORBITAL ENERGIES
----------------

  NO   OCC          E(Eh)            E(eV)
   0   2.0000     -20.582921      -560.0897
   1   2.0000     -15.569008      -423.6542
   2   2.0000     -11.316948      -307.9498
   3   2.0000     -11.297075      -307.4090
   4   2.0000     -11.287354      -307.1445
   5   2.0000     -11.275023      -306.8090
   6   2.0000     -11.264743      -306.5292
   7   2.0000     -11.263033      -306.4827
   8   2.0000     -11.236769      -305.7680
   9   2.0000      -1.415573       -38.5197
  10   2.0000      -1.222737       -33.2724
  11   2.0000      -1.169670       -31.8283
  12   2.0000      -1.079806       -29.3830
  13   2.0000      -0.951299       -25.8862
  14   2.0000      -0.920970       -25.0609
  15   2.0000      -0.855414       -23.2770
  16   2.0000      -0.803972       -21.8772
  17   2.0000      -0.750692       -20.4274
  18   2.0000      -0.697459       -18.9788
  19   2.0000      -0.642912       -17.4945
  20   2.0000      -0.626453       -17.0467
  21   2.0000      -0.612171       -16.6580
  22   2.0000      -0.607504       -16.5310
  23   2.0000      -0.572039       -15.5660
  24   2.0000      -0.564008       -15.3474
  25   2.0000      -0.543816       -14.7980
  26   2.0000      -0.534149       -14.5349
  27   2.0000      -0.516790       -14.0626
  28   2.0000      -0.500108       -13.6086
  29   2.0000      -0.484967       -13.1966
  30   2.0000      -0.465932       -12.6787
  31   2.0000      -0.424888       -11.5618
  32   2.0000      -0.392133       -10.6705
  33   0.0000       0.123161         3.3514
  34   0.0000       0.139899         3.8069
  35   0.0000       0.153554         4.1784
  36   0.0000       0.163255         4.4424
  37   0.0000       0.178063         4.8453

MULLIKEN ATOMIC CHARGES
-----------------------
   0 C :   -0.428707
   1 C :   -0.059921
   2 C :   -0.067848
   3 O :   -0.300626
   4 C :    0.056050
   5 C :   -0.288781
   6 C :    0.190262
   7 C :   -0.289661
   8 N :   -0.048220
   9 H :    0.127638
  10 H :    0.143606
  11 H :    0.154783
  12 H :    0.117167
  13 H :    0.132433
  14 H :    0.106035
  15 H :    0.151076
  16 H :    0.155293
  17 H :    0.149421
Sum of atomic charges:   -0.0000000

LOEWDIN ATOMIC CHARGES
----------------------
   0 C :   -0.281039
   1 C :   -0.216641
   2 C :   -0.258164
   3 O :    0.196506
   4 C :   -0.239705
   5 C :   -0.154721
   6 C :   -0.201469
   7 C :   -0.158226
   8 N :    0.063453
   9 H :    0.126063
  10 H :    0.128704
  11 H :    0.132491
  12 H :    0.165149
  13 H :    0.132422
  14 H :    0.124828
  15 H :    0.148776
  16 H :    0.148759
  17 H :    0.142814

  Mayer bond orders larger than 0.1
B(  0-C ,  1-C ) :   0.9220 B(  0-C ,  9-H ) :   0.9283 B(  0-C , 10-H ) :   0.9385
B(  0-C , 11-H ) :   0.9315 B(  1-C ,  2-C ) :   0.9359 B(  1-C ,  6-C ) :   0.9074
B(  1-C , 12-H ) :   0.9149 B(  2-C ,  3-O ) :   0.9112 B(  2-C , 13-H ) :   0.9201
B(  2-C , 14-H ) :   0.9295 B(  3-O ,  4-C ) :   0.9952 B(  4-C ,  5-C ) :   0.8879
B(  4-C ,  6-C ) :   0.8263 B(  4-C , 15-H ) :   0.9266 B(  5-C ,  6-C ) :   0.8256
B(  5-C , 16-H ) :   0.9131 B(  5-C , 17-H ) :   0.9089 B(  6-C ,  7-C ) :   0.9086
B(  7-C ,  8-N ) :   2.8864

MP2 TOTAL ENERGY:     -401.263994400 Eh
FINAL SINGLE POINT ENERGY      -401.263994400374

DIPOLE MOMENT
-------------
                                X             Y             Z
Electronic contribution:     -0.76291      -5.45803       4.88819
Nuclear contribution   :      1.37952       5.98800      -6.09394
                        -----------------------------------------
Total Dipole Moment    :      0.61662       0.52997      -1.20575
                        -----------------------------------------
Magnitude (a.u.)       :      1.45427
Magnitude (Debye)      :      3.69647

                             ****ORCA TERMINATED NORMALLY****
TOTAL RUN TIME: 0 days 0 hours 19 minutes 52 seconds 160 msec
