                         Program Version 3.0.3 - RELEASE   -
|  1> ! RI-MP2 RIJK def2-TZVP def2-TZVP/C def2-TZVP/JK TIGHTSCF
|  2> % maxcore 2000
|  3> % mp2 density relaxed end
|  4> *xyz 0 1
|  5>  C       -0.0205109668     1.5165945115     0.0057741242
|  6>  C       -0.0066270878    -0.0022302068     0.0217870916
|  7>  C        0.7301164389    -0.6745771450    -1.1927182007
|  8>  C        0.9648271251    -2.1339092502    -0.7087115328
|  9>  C        0.3379575723    -2.1447998306     0.7323919917
| 10>  C        0.7563076955    -3.3135652663     1.6077481520
| 11>  C        0.7162137025    -0.7147710873     1.1917797423
| 12>  C       -1.1600620550    -1.9524109726     0.5147746341
| 13>  C       -1.3615040811    -0.6998827435     0.0993773090
| 14>  H        0.9974711110     1.9212999172    -0.0152841788
| 15>  H       -0.5457387872     1.8999125510    -0.8768020615
| 16>  H       -0.5236625645     1.9190902737     0.8915941176
| 17>  H        0.1348500225    -0.6158229400    -2.1078578511
| 18>  H        1.6787506657    -0.1614541284    -1.3850317771
| 19>  H        0.4992690624    -2.8816064629    -1.3563836413
| 20>  H        2.0336285497    -2.3679396501    -0.6532143290
| 21>  H        1.8445094326    -3.3454789204     1.7315055120
| 22>  H        0.3068484810    -3.2449566428     2.6043026105
| 23>  H        0.4464430704    -4.2693240734     1.1692886906
| 24>  H        1.7986020049    -0.5366566056     1.2039481431
| 25>  H        0.2918470428    -0.4594549965     2.1673742933
| 26>  H       -1.8898693824    -2.7510938098     0.5857415843
| 27>  H       -2.2909116226    -0.2574843814    -0.2412607541
| 28> *
| 29>
| 30>                          ****END OF INPUT****

CARTESIAN COORDINATES (ANGSTROEM)
---------------------------------
  C     -0.020511    1.516595    0.005774
  C     -0.006627   -0.002230    0.021787
  C      0.730116   -0.674577   -1.192718
  C      0.964827   -2.133909   -0.708712
  C      0.337958   -2.144800    0.732392
  C      0.756308   -3.313565    1.607748
  C      0.716214   -0.714771    1.191780
  C     -1.160062   -1.952411    0.514775
  C     -1.361504   -0.699883    0.099377
  H      0.997471    1.921300   -0.015284
  H     -0.545739    1.899913   -0.876802
  H     -0.523663    1.919090    0.891594
  H      0.134850   -0.615823   -2.107858
  H      1.678751   -0.161454   -1.385032
  H      0.499269   -2.881606   -1.356384
  H      2.033629   -2.367940   -0.653214
  H      1.844509   -3.345479    1.731506
  H      0.306848   -3.244957    2.604303
  H      0.446443   -4.269324    1.169289
  H      1.798602   -0.536657    1.203948
  H      0.291847   -0.459455    2.167374
  H     -1.889869   -2.751094    0.585742
  H     -2.290912   -0.257484   -0.241261

 Total Charge           Charge          ....    0
 Multiplicity           Mult            ....    1
 Number of Electrons    NEL             ....   68
 Basis Dimension        Dim             ....  363

ORBITAL ENERGIES
----------------

  NO   OCC          E(Eh)            E(eV)
   0   2.0000     -11.231338      -305.6202
   1   2.0000     -11.231330      -305.6200
   2   2.0000     -11.215587      -305.1916
   3   2.0000     -11.214859      -305.1718
   4   2.0000     -11.214304      -305.1567
   5   2.0000     -11.213870      -305.1449
   6   2.0000     -11.211814      -305.0890
   7   2.0000     -11.211073      -305.0688
   8   2.0000     -11.211072      -305.0688
   9   2.0000      -1.177182       -32.0328
  10   2.0000      -1.032087       -28.0845
  11   2.0000      -1.002979       -27.2924
  12   2.0000      -0.965906       -26.2836
  13   2.0000      -0.925017       -25.1710
  14   2.0000      -0.867898       -23.6167
  15   2.0000      -0.792898       -21.5759
  16   2.0000      -0.745600       -20.2888
  17   2.0000      -0.687904       -18.7188
  18   2.0000      -0.650447       -17.6996
  19   2.0000      -0.642827       -17.4922
  20   2.0000      -0.597765       -16.2660
  21   2.0000      -0.571057       -15.5392
  22   2.0000      -0.570182       -15.5154
  23   2.0000      -0.560138       -15.2421
  24   2.0000      -0.549849       -14.9622
  25   2.0000      -0.522509       -14.2182
  26   2.0000      -0.504328       -13.7235
  27   2.0000      -0.478380       -13.0174
  28   2.0000      -0.471601       -12.8329
  29   2.0000      -0.468792       -12.7565
  30   2.0000      -0.452176       -12.3043
  31   2.0000      -0.426398       -11.6029
  32   2.0000      -0.418636       -11.3917
  33   2.0000      -0.335687        -9.1345
  34   0.0000       0.136280         3.7084
  35   0.0000       0.144874         3.9422
  36   0.0000       0.154320         4.1993
  37   0.0000       0.174284         4.7425
  38   0.0000       0.183381         4.9900

MULLIKEN ATOMIC CHARGES
-----------------------
   0 C :   -0.411982
   1 C :    0.193182
   2 C :   -0.253038
   3 C :   -0.253041
   4 C :    0.193185
   5 C :   -0.411981
   6 C :   -0.292737
   7 C :   -0.236910
   8 C :   -0.236910
   9 H :    0.129803
  10 H :    0.131458
  11 H :    0.134691
  12 H :    0.111555
  13 H :    0.113932
  14 H :    0.111555
  15 H :    0.113933
  16 H :    0.129803
  17 H :    0.134691
  18 H :    0.131458
  19 H :    0.111491
  20 H :    0.111436
  21 H :    0.122213
  22 H :    0.122212
Sum of atomic charges:   -0.0000000

LOEWDIN ATOMIC CHARGES
----------------------
   0 C :   -0.273085
   1 C :   -0.266573
   2 C :   -0.197821
   3 C :   -0.197822
   4 C :   -0.266573
   5 C :   -0.273085
   6 C :   -0.154573
   7 C :   -0.110312
   8 C :   -0.110312
   9 H :    0.126149
  10 H :    0.126856
  11 H :    0.127176
  12 H :    0.134067
  13 H :    0.135148
  14 H :    0.134066
  15 H :    0.135148
  16 H :    0.126149
  17 H :    0.127176
  18 H :    0.126856
  19 H :    0.137720
  20 H :    0.140418
  21 H :    0.136614
  22 H :    0.136614

  Mayer bond orders larger than 0.1
B(  0-C ,  1-C ) :   0.8493 B(  0-C ,  9-H ) :   0.9458 B(  0-C , 10-H ) :   0.9445
B(  0-C , 11-H ) :   0.9454 B(  1-C ,  2-C ) :   0.8932 B(  1-C ,  6-C ) :   0.9297
B(  1-C ,  8-C ) :   0.9082 B(  2-C ,  3-C ) :   0.9895 B(  2-C , 12-H ) :   0.9183
B(  2-C , 13-H ) :   0.9218 B(  3-C ,  4-C ) :   0.8932 B(  3-C , 14-H ) :   0.9183
B(  3-C , 15-H ) :   0.9218 B(  4-C ,  5-C ) :   0.8493 B(  4-C ,  6-C ) :   0.9297
B(  4-C ,  7-C ) :   0.9082 B(  5-C , 16-H ) :   0.9458 B(  5-C , 17-H ) :   0.9454
B(  5-C , 18-H ) :   0.9445 B(  6-C , 19-H ) :   0.9182 B(  6-C , 20-H ) :   0.9058
B(  7-C ,  8-C ) :   1.7713 B(  7-C , 21-H ) :   0.9351 B(  8-C , 22-H ) :   0.9351

MP2 TOTAL ENERGY:     -350.537068141 Eh
FINAL SINGLE POINT ENERGY      -350.537068140763

DIPOLE MOMENT
-------------
                                X             Y             Z
Electronic contribution:     -2.64192      -0.49480      -0.21078
Nuclear contribution   :      2.73334       0.49007       0.15218
                        -----------------------------------------
Total Dipole Moment    :      0.09143      -0.00473      -0.05861
                        -----------------------------------------
Magnitude (a.u.)       :      0.10870
Magnitude (Debye)      :      0.27630

                             ****ORCA TERMINATED NORMALLY****
TOTAL RUN TIME: 0 days 0 hours 22 minutes 58 seconds 721 msec
