                         Program Version 3.0.3 - RELEASE   -
|  1> ! RI-MP2 RIJK def2-TZVP def2-TZVP/C def2-TZVP/JK TIGHTSCF
|  2> % maxcore 2000
|  3> % mp2 density relaxed end
|  4> *xyz 0 1
|  5>  C        0.1452852568     1.5596085406    -0.1650651334
|  6>  C        0.0695889505     0.0637898413     0.0437032386
|  7>  O        0.9407360430    -0.6715988058    -0.8455405755
|  8>  C        1.3573432198    -1.5513398391     0.2255693707
|  9>  C        2.8575611426    -1.7638071780     0.2825567006
| 10>  C        3.6202754178    -0.4642960269     0.5826095012
| 11>  C        3.0101415293     0.2823058664     1.7400498151
| 12>  C        1.7171200746     0.1987119299     2.0608394493
| 13>  C        0.7268728088    -0.6191819704     1.2918887740
| 14>  H        1.1566498979     1.9332249010     0.0123063108
| 15>  H       -0.1418382470     1.8025031985    -1.1932933827
| 16>  H       -0.5437493234     2.0774349582     0.5112354169
| 17>  H       -0.9692674880    -0.2795309458    -0.0810126062
| 18>  H        0.8365634030    -2.5169016288     0.1498485500
| 19>  H        3.0601893685    -2.4997830076     1.0711346655
| 20>  H        3.1962379787    -2.2018763519    -0.6630361911
| 21>  H        4.6737591474    -0.6855740026     0.7857482340
| 22>  H        3.6109421368     0.1725922805    -0.3120188733
| 23>  H        3.6672927339     0.9175789908     2.3290043077
| 24>  H        1.3336263861     0.7673541941     2.9050094872
| 25>  H        0.0033581228    -1.0903846945     1.9624345505
| 26> *
| 27>
| 28>                          ****END OF INPUT****

CARTESIAN COORDINATES (ANGSTROEM)
---------------------------------
  C      0.145285    1.559609   -0.165065
  C      0.069589    0.063790    0.043703
  O      0.940736   -0.671599   -0.845541
  C      1.357343   -1.551340    0.225569
  C      2.857561   -1.763807    0.282557
  C      3.620275   -0.464296    0.582610
  C      3.010142    0.282306    1.740050
  C      1.717120    0.198712    2.060839
  C      0.726873   -0.619182    1.291889
  H      1.156650    1.933225    0.012306
  H     -0.141838    1.802503   -1.193293
  H     -0.543749    2.077435    0.511235
  H     -0.969267   -0.279531   -0.081013
  H      0.836563   -2.516902    0.149849
  H      3.060189   -2.499783    1.071135
  H      3.196238   -2.201876   -0.663036
  H      4.673759   -0.685574    0.785748
  H      3.610942    0.172592   -0.312019
  H      3.667293    0.917579    2.329004
  H      1.333626    0.767354    2.905009
  H      0.003358   -1.090385    1.962435

 Total Charge           Charge          ....    0
 Multiplicity           Mult            ....    1
 Number of Electrons    NEL             ....   68
 Basis Dimension        Dim             ....  351

ORBITAL ENERGIES
----------------

  NO   OCC          E(Eh)            E(eV)
   0   2.0000     -20.539293      -558.9026
   1   2.0000     -11.280036      -306.9454
   2   2.0000     -11.276746      -306.8559
   3   2.0000     -11.232211      -305.6440
   4   2.0000     -11.226915      -305.4999
   5   2.0000     -11.223796      -305.4150
   6   2.0000     -11.223237      -305.3998
   7   2.0000     -11.220653      -305.3295
   8   2.0000     -11.210850      -305.0627
   9   2.0000      -1.373305       -37.3695
  10   2.0000      -1.108667       -30.1684
  11   2.0000      -1.039583       -28.2885
  12   2.0000      -0.989314       -26.9206
  13   2.0000      -0.985094       -26.8058
  14   2.0000      -0.878462       -23.9042
  15   2.0000      -0.810162       -22.0456
  16   2.0000      -0.783651       -21.3242
  17   2.0000      -0.700177       -19.0528
  18   2.0000      -0.670499       -18.2452
  19   2.0000      -0.647777       -17.6269
  20   2.0000      -0.628206       -17.0944
  21   2.0000      -0.612631       -16.6705
  22   2.0000      -0.588309       -16.0087
  23   2.0000      -0.576311       -15.6822
  24   2.0000      -0.545619       -14.8471
  25   2.0000      -0.534669       -14.5491
  26   2.0000      -0.528154       -14.3718
  27   2.0000      -0.499329       -13.5874
  28   2.0000      -0.495904       -13.4942
  29   2.0000      -0.475497       -12.9389
  30   2.0000      -0.451060       -12.2740
  31   2.0000      -0.428384       -11.6569
  32   2.0000      -0.402611       -10.9556
  33   2.0000      -0.346625        -9.4321
  34   0.0000       0.133154         3.6233
  35   0.0000       0.153154         4.1675
  36   0.0000       0.158352         4.3090
  37   0.0000       0.162024         4.4089
  38   0.0000       0.182005         4.9526

MULLIKEN ATOMIC CHARGES
-----------------------
   0 C :   -0.394835
   1 C :    0.061596
   2 O :   -0.337305
   3 C :    0.033476
   4 C :   -0.204594
   5 C :   -0.180317
   6 C :   -0.167686
   7 C :   -0.283977
   8 C :    0.062190
   9 H :    0.140528
  10 H :    0.140296
  11 H :    0.123829
  12 H :    0.076485
  13 H :    0.087784
  14 H :    0.111360
  15 H :    0.123332
  16 H :    0.127422
  17 H :    0.123301
  18 H :    0.120453
  19 H :    0.115971
  20 H :    0.120691
Sum of atomic charges:    0.0000000

LOEWDIN ATOMIC CHARGES
----------------------
   0 C :   -0.295992
   1 C :   -0.280767
   2 O :    0.156715
   3 C :   -0.256937
   4 C :   -0.239718
   5 C :   -0.251740
   6 C :   -0.164128
   7 C :   -0.157718
   8 C :   -0.181617
   9 H :    0.128390
  10 H :    0.130163
  11 H :    0.128059
  12 H :    0.134092
  13 H :    0.136418
  14 H :    0.147073
  15 H :    0.144513
  16 H :    0.141045
  17 H :    0.150251
  18 H :    0.141145
  19 H :    0.143429
  20 H :    0.147323

  Mayer bond orders larger than 0.1
B(  0-C ,  1-C ) :   0.9115 B(  0-C ,  9-H ) :   0.9355 B(  0-C , 10-H ) :   0.9324
B(  0-C , 11-H ) :   0.9307 B(  1-C ,  2-O ) :   0.9328 B(  1-C ,  8-C ) :   0.8878
B(  1-C , 12-H ) :   0.9255 B(  2-O ,  3-C ) :   0.9637 B(  3-C ,  4-C ) :   0.9341
B(  3-C ,  8-C ) :   0.9276 B(  3-C , 13-H ) :   0.9267 B(  4-C ,  5-C ) :   0.9455
B(  4-C , 14-H ) :   0.9169 B(  4-C , 15-H ) :   0.9232 B(  5-C ,  6-C ) :   0.9550
B(  5-C , 16-H ) :   0.9340 B(  5-C , 17-H ) :   0.8950 B(  6-C ,  7-C ) :   1.8021
B(  6-C , 18-H ) :   0.9296 B(  7-C ,  8-C ) :   0.9053 B(  7-C , 19-H ) :   0.9340
B(  8-C , 20-H ) :   0.9158

MP2 TOTAL ENERGY:     -386.417213884 Eh
FINAL SINGLE POINT ENERGY      -386.417213883863

DIPOLE MOMENT
-------------
                                X             Y             Z
Electronic contribution:     -0.80003      -2.12062      -0.38740
Nuclear contribution   :      0.75886       2.10934       0.93672
                        -----------------------------------------
Total Dipole Moment    :     -0.04117      -0.01127       0.54931
                        -----------------------------------------
Magnitude (a.u.)       :      0.55097
Magnitude (Debye)      :      1.40046

                             ****ORCA TERMINATED NORMALLY****
TOTAL RUN TIME: 0 days 0 hours 22 minutes 28 seconds 908 msec
