                         Program Version 3.0.3 - RELEASE   -
|  1> ! RI-MP2 RIJK def2-TZVP def2-TZVP/C def2-TZVP/JK TIGHTSCF
|  2> % maxcore 2000
|  3> % mp2 density relaxed end
|  4> *xyz 0 1
|  5>  N       -0.1024290989     1.2890584206     0.1016087303
|  6>  C       -0.0084611288     0.0208293724     0.0367022654
|  7>  N        1.0851097205    -0.8093718831    -0.0782931163
|  8>  C        0.8248528836    -2.2424109594     0.0200094153
|  9>  C       -0.6939705224    -2.3109968307    -0.0510039215
| 10>  C       -1.4735173812    -3.3412657766    -0.7586483786
| 11>  O       -1.3769586026    -3.3349748960     0.6606879871
| 12>  C       -1.2211905965    -0.8951118535     0.0629595023
| 13>  O       -2.3741260740    -0.5764540730     0.1517745924
| 14>  H        0.8157087953     1.7395395722     0.0828001531
| 15>  H        2.0226621898    -0.4479161206    -0.0133738387
| 16>  H        1.3126007610    -2.7908463000    -0.7933732428
| 17>  H        1.1685394541    -2.6658808293     0.9729758554
| 18>  H       -2.4488707924    -3.0709860832    -1.1588539065
| 19>  H       -0.9420811675    -4.1452485697    -1.2660896969
| 20> *
| 21>
| 22>                          ****END OF INPUT****

CARTESIAN COORDINATES (ANGSTROEM)
---------------------------------
  N     -0.102429    1.289058    0.101609
  C     -0.008461    0.020829    0.036702
  N      1.085110   -0.809372   -0.078293
  C      0.824853   -2.242411    0.020009
  C     -0.693971   -2.310997   -0.051004
  C     -1.473517   -3.341266   -0.758648
  O     -1.376959   -3.334975    0.660688
  C     -1.221191   -0.895112    0.062960
  O     -2.374126   -0.576454    0.151775
  H      0.815709    1.739540    0.082800
  H      2.022662   -0.447916   -0.013374
  H      1.312601   -2.790846   -0.793373
  H      1.168539   -2.665881    0.972976
  H     -2.448871   -3.070986   -1.158854
  H     -0.942081   -4.145249   -1.266090

 Total Charge           Charge          ....    0
 Multiplicity           Mult            ....    1
 Number of Electrons    NEL             ....   66
 Basis Dimension        Dim             ....  315

ORBITAL ENERGIES
----------------

  NO   OCC          E(Eh)            E(eV)
   0   2.0000     -20.600754      -560.5750
   1   2.0000     -20.573757      -559.8404
   2   2.0000     -15.605878      -424.6575
   3   2.0000     -15.545787      -423.0224
   4   2.0000     -11.350268      -308.8565
   5   2.0000     -11.333918      -308.4116
   6   2.0000     -11.322266      -308.0945
   7   2.0000     -11.312936      -307.8406
   8   2.0000     -11.302181      -307.5480
   9   2.0000      -1.450854       -39.4798
  10   2.0000      -1.409851       -38.3640
  11   2.0000      -1.303287       -35.4642
  12   2.0000      -1.183591       -32.2071
  13   2.0000      -1.031942       -28.0806
  14   2.0000      -0.966765       -26.3070
  15   2.0000      -0.933953       -25.4142
  16   2.0000      -0.833011       -22.6674
  17   2.0000      -0.765739       -20.8368
  18   2.0000      -0.737813       -20.0769
  19   2.0000      -0.691038       -18.8041
  20   2.0000      -0.678009       -18.4496
  21   2.0000      -0.664925       -18.0935
  22   2.0000      -0.657612       -17.8945
  23   2.0000      -0.622961       -16.9516
  24   2.0000      -0.592878       -16.1330
  25   2.0000      -0.574864       -15.6429
  26   2.0000      -0.560388       -15.2489
  27   2.0000      -0.515668       -14.0320
  28   2.0000      -0.493700       -13.4343
  29   2.0000      -0.459655       -12.5078
  30   2.0000      -0.456553       -12.4234
  31   2.0000      -0.414120       -11.2688
  32   2.0000      -0.374651       -10.1948
  33   0.0000       0.070801         1.9266
  34   0.0000       0.114263         3.1093
  35   0.0000       0.143971         3.9176
  36   0.0000       0.167890         4.5685
  37   0.0000       0.174610         4.7514

MULLIKEN ATOMIC CHARGES
-----------------------
   0 N :   -0.322191
   1 C :   -0.034510
   2 N :   -0.317194
   3 C :   -0.080537
   4 C :    0.125337
   5 C :   -0.069181
   6 O :   -0.313697
   7 C :    0.268765
   8 O :   -0.237698
   9 H :    0.201360
  10 H :    0.236819
  11 H :    0.129435
  12 H :    0.138815
  13 H :    0.146617
  14 H :    0.127860
Sum of atomic charges:   -0.0000000

LOEWDIN ATOMIC CHARGES
----------------------
   0 N :   -0.050065
   1 C :   -0.367523
   2 N :    0.106880
   3 C :   -0.219708
   4 C :   -0.288797
   5 C :   -0.217654
   6 O :    0.199809
   7 C :   -0.246555
   8 O :    0.212631
   9 H :    0.158738
  10 H :    0.179929
  11 H :    0.135341
  12 H :    0.139511
  13 H :    0.132642
  14 H :    0.124822

  Mayer bond orders larger than 0.1
B(  0-N ,  1-C ) :   2.1021 B(  0-N ,  9-H ) :   0.8562 B(  1-C ,  2-N ) :   1.1279
B(  1-C ,  7-C ) :   0.8688 B(  2-N ,  3-C ) :   0.8803 B(  2-N , 10-H ) :   0.8701
B(  3-C ,  4-C ) :   0.9220 B(  3-C , 11-H ) :   0.9233 B(  3-C , 12-H ) :   0.9240
B(  4-C ,  5-C ) :   0.9461 B(  4-C ,  6-O ) :   0.8845 B(  4-C ,  7-C ) :   0.9174
B(  5-C ,  6-O ) :   0.8933 B(  5-C , 13-H ) :   0.9049 B(  5-C , 14-H ) :   0.9200
B(  7-C ,  8-O ) :   2.0322

MP2 TOTAL ENERGY:     -453.195535019 Eh
FINAL SINGLE POINT ENERGY      -453.195535019310

DIPOLE MOMENT
-------------
                                X             Y             Z
Electronic contribution:     -3.14977       1.89920       1.46208
Nuclear contribution   :      5.14001      -2.97094      -2.15712
                        -----------------------------------------
Total Dipole Moment    :      1.99024      -1.07174      -0.69505
                        -----------------------------------------
Magnitude (a.u.)       :      2.36490
Magnitude (Debye)      :      6.01111

                             ****ORCA TERMINATED NORMALLY****
TOTAL RUN TIME: 0 days 0 hours 14 minutes 56 seconds 176 msec
