                         Program Version 3.0.3 - RELEASE   -
|  1> ! RI-MP2 RIJK def2-TZVP def2-TZVP/C def2-TZVP/JK TIGHTSCF
|  2> % maxcore 2000
|  3> % mp2 density relaxed end
|  4> *xyz 0 1
|  5>  O        0.1952276790     1.0323798273    -0.6586503759
|  6>  C        0.0177817684     0.0039755461     0.3013144447
|  7>  C       -1.3752916951    -0.6018808987     0.2578798548
|  8>  C       -1.8989885216    -1.1741588687    -1.0423463466
|  9>  O       -0.9078689970    -1.4199553194    -2.0275810338
| 10>  C       -0.3937574687    -2.7072359344    -1.7179219931
| 11>  O       -0.4633989749    -2.8507390832    -0.3112229529
| 12>  C       -1.5904942284    -2.1000010421     0.0886277516
| 13>  H        0.0935890168     0.6082030144    -1.5189572585
| 14>  H        0.7646780220    -0.7910653689     0.1845734242
| 15>  H        0.1834517970     0.4653536366     1.2792881087
| 16>  H       -2.1333014765    -0.1017231848     0.8554323876
| 17>  H       -2.8878889151    -0.9578456602    -1.4301511841
| 18>  H       -0.9977393756    -3.4848629780    -2.2143363416
| 19>  H        0.6505018262    -2.7637724110    -2.0357112721
| 20>  H       -2.3262221166    -2.6498312349     0.6648262569
| 21> *
| 22>
| 23>                          ****END OF INPUT****

CARTESIAN COORDINATES (ANGSTROEM)
---------------------------------
  O      0.195228    1.032380   -0.658650
  C      0.017782    0.003976    0.301314
  C     -1.375292   -0.601881    0.257880
  C     -1.898989   -1.174159   -1.042346
  O     -0.907869   -1.419955   -2.027581
  C     -0.393757   -2.707236   -1.717922
  O     -0.463399   -2.850739   -0.311223
  C     -1.590494   -2.100001    0.088628
  H      0.093589    0.608203   -1.518957
  H      0.764678   -0.791065    0.184573
  H      0.183452    0.465354    1.279288
  H     -2.133301   -0.101723    0.855432
  H     -2.887889   -0.957846   -1.430151
  H     -0.997739   -3.484863   -2.214336
  H      0.650502   -2.763772   -2.035711
  H     -2.326222   -2.649831    0.664826

 Total Charge           Charge          ....    0
 Multiplicity           Mult            ....    1
 Number of Electrons    NEL             ....   62
 Basis Dimension        Dim             ....  296

ORBITAL ENERGIES
----------------

  NO   OCC          E(Eh)            E(eV)
   0   2.0000     -20.585924      -560.1715
   1   2.0000     -20.581643      -560.0550
   2   2.0000     -20.543892      -559.0277
   3   2.0000     -11.345289      -308.7210
   4   2.0000     -11.300345      -307.4980
   5   2.0000     -11.297933      -307.4324
   6   2.0000     -11.274704      -306.8003
   7   2.0000     -11.245208      -305.9977
   8   2.0000      -1.460618       -39.7454
   9   2.0000      -1.353361       -36.8268
  10   2.0000      -1.347603       -36.6701
  11   2.0000      -1.145906       -31.1817
  12   2.0000      -0.957064       -26.0430
  13   2.0000      -0.909104       -24.7380
  14   2.0000      -0.839142       -22.8342
  15   2.0000      -0.794716       -21.6253
  16   2.0000      -0.747820       -20.3492
  17   2.0000      -0.696673       -18.9574
  18   2.0000      -0.681831       -18.5536
  19   2.0000      -0.640473       -17.4282
  20   2.0000      -0.635026       -17.2799
  21   2.0000      -0.611443       -16.6382
  22   2.0000      -0.598039       -16.2735
  23   2.0000      -0.563318       -15.3287
  24   2.0000      -0.551740       -15.0136
  25   2.0000      -0.534259       -14.5379
  26   2.0000      -0.508160       -13.8277
  27   2.0000      -0.475979       -12.9520
  28   2.0000      -0.443666       -12.0728
  29   2.0000      -0.409537       -11.1441
  30   2.0000      -0.401533       -10.9263
  31   0.0000       0.143157         3.8955
  32   0.0000       0.158553         4.3145
  33   0.0000       0.172487         4.6936
  34   0.0000       0.179594         4.8870
  35   0.0000       0.197120         5.3639

MULLIKEN ATOMIC CHARGES
-----------------------
   0 O :   -0.478788
   1 C :   -0.044448
   2 C :   -0.150449
   3 C :    0.028895
   4 O :   -0.355529
   5 C :    0.122969
   6 O :   -0.326440
   7 C :    0.012719
   8 H :    0.328057
   9 H :    0.126399
  10 H :    0.116728
  11 H :    0.125025
  12 H :    0.137889
  13 H :    0.094434
  14 H :    0.127772
  15 H :    0.134767
Sum of atomic charges:    0.0000000

LOEWDIN ATOMIC CHARGES
----------------------
   0 O :   -0.047806
   1 C :   -0.324731
   2 C :   -0.195021
   3 C :   -0.259146
   4 O :    0.163951
   5 C :   -0.350237
   6 O :    0.177745
   7 C :   -0.255369
   8 H :    0.173886
   9 H :    0.125489
  10 H :    0.132272
  11 H :    0.154658
  12 H :    0.136816
  13 H :    0.109684
  14 H :    0.120899
  15 H :    0.136909

  Mayer bond orders larger than 0.1
B(  0-O ,  1-C ) :   0.9322 B(  0-O ,  8-H ) :   0.8344 B(  1-C ,  2-C ) :   0.9191
B(  1-C ,  9-H ) :   0.9282 B(  1-C , 10-H ) :   0.9319 B(  2-C ,  3-C ) :   0.8613
B(  2-C ,  7-C ) :   0.8570 B(  2-C , 11-H ) :   0.9124 B(  3-C ,  4-O ) :   0.9008
B(  3-C ,  7-C ) :   0.8710 B(  3-C , 12-H ) :   0.9336 B(  4-O ,  5-C ) :   0.9385
B(  5-C ,  6-O ) :   0.9547 B(  5-C , 13-H ) :   0.9194 B(  5-C , 14-H ) :   0.9308
B(  6-O ,  7-C ) :   0.9306 B(  7-C , 15-H ) :   0.9276

MP2 TOTAL ENERGY:     -420.178247692 Eh
FINAL SINGLE POINT ENERGY      -420.178247692017

DIPOLE MOMENT
-------------
                                X             Y             Z
Electronic contribution:     -0.17023      -0.76528      -1.08065
Nuclear contribution   :     -0.50687       0.01559       1.04526
                        -----------------------------------------
Total Dipole Moment    :     -0.67710      -0.74969      -0.03539
                        -----------------------------------------
Magnitude (a.u.)       :      1.01082
Magnitude (Debye)      :      2.56929

                             ****ORCA TERMINATED NORMALLY****
TOTAL RUN TIME: 0 days 0 hours 10 minutes 46 seconds 654 msec
