                         Program Version 3.0.3 - RELEASE   -
|  1> ! RI-MP2 RIJK def2-TZVP def2-TZVP/C def2-TZVP/JK TIGHTSCF
|  2> % maxcore 2000
|  3> % mp2 density relaxed end
|  4> *xyz 0 1
|  5>  C        0.0822531068     1.5455622839    -0.2577427588
|  6>  C       -0.0325207261     0.0763541630     0.0533480949
|  7>  O        1.1687274713    -0.7120222029     0.0407448018
|  8>  C        0.4653456749    -0.5826313857     1.2704715656
|  9>  C        1.1677427508     0.1718073600     2.3917526436
| 10>  O        0.2482628904     0.6819627457     3.3397025638
| 11>  C        2.1766164986    -0.6949075071     3.0358738145
| 12>  N        2.9274587977    -1.3948286589     3.5661745348
| 13>  H        0.9460012130     2.0069208969     0.2246288596
| 14>  H        0.1874439376     1.6885923283    -1.3377141833
| 15>  H       -0.8214539984     2.0714243090     0.0666286330
| 16>  H       -0.8722996682    -0.4208801174    -0.4358673348
| 17>  H       -0.0360075022    -1.4929733464     1.6079862917
| 18>  H        1.6879192252     1.0373490862     1.9747692142
| 19>  H       -0.1337901212    -0.0575401047     3.8265820593
| 20> *
| 21>
| 22>                          ****END OF INPUT****

CARTESIAN COORDINATES (ANGSTROEM)
---------------------------------
  C      0.082253    1.545562   -0.257743
  C     -0.032521    0.076354    0.053348
  O      1.168727   -0.712022    0.040745
  C      0.465346   -0.582631    1.270472
  C      1.167743    0.171807    2.391753
  O      0.248263    0.681963    3.339703
  C      2.176616   -0.694908    3.035874
  N      2.927459   -1.394829    3.566175
  H      0.946001    2.006921    0.224629
  H      0.187444    1.688592   -1.337714
  H     -0.821454    2.071424    0.066629
  H     -0.872300   -0.420880   -0.435867
  H     -0.036008   -1.492973    1.607986
  H      1.687919    1.037349    1.974769
  H     -0.133790   -0.057540    3.826582

 Total Charge           Charge          ....    0
 Multiplicity           Mult            ....    1
 Number of Electrons    NEL             ....   60
 Basis Dimension        Dim             ....  290

ORBITAL ENERGIES
----------------

  NO   OCC          E(Eh)            E(eV)
   0   2.0000     -20.604349      -560.6728
   1   2.0000     -20.591218      -560.3155
   2   2.0000     -15.586484      -424.1298
   3   2.0000     -11.354997      -308.9852
   4   2.0000     -11.317039      -307.9523
   5   2.0000     -11.312993      -307.8422
   6   2.0000     -11.282953      -307.0248
   7   2.0000     -11.244367      -305.9748
   8   2.0000      -1.439247       -39.1639
   9   2.0000      -1.411242       -38.4019
  10   2.0000      -1.229908       -33.4675
  11   2.0000      -1.051644       -28.6167
  12   2.0000      -1.030870       -28.0514
  13   2.0000      -0.911325       -24.7984
  14   2.0000      -0.828823       -22.5534
  15   2.0000      -0.785358       -21.3707
  16   2.0000      -0.727927       -19.8079
  17   2.0000      -0.692042       -18.8314
  18   2.0000      -0.658597       -17.9213
  19   2.0000      -0.607353       -16.5269
  20   2.0000      -0.602295       -16.3893
  21   2.0000      -0.586961       -15.9720
  22   2.0000      -0.581810       -15.8319
  23   2.0000      -0.555267       -15.1096
  24   2.0000      -0.535973       -14.5846
  25   2.0000      -0.512650       -13.9499
  26   2.0000      -0.486907       -13.2494
  27   2.0000      -0.479101       -13.0370
  28   2.0000      -0.459627       -12.5071
  29   2.0000      -0.451195       -12.2776
  30   0.0000       0.110458         3.0057
  31   0.0000       0.137864         3.7515
  32   0.0000       0.148374         4.0375
  33   0.0000       0.158868         4.3230
  34   0.0000       0.176114         4.7923

MULLIKEN ATOMIC CHARGES
-----------------------
   0 C :   -0.381091
   1 C :    0.070926
   2 O :   -0.322182
   3 C :   -0.019872
   4 C :    0.210856
   5 O :   -0.451922
   6 C :   -0.189115
   7 N :   -0.049752
   8 H :    0.128108
   9 H :    0.148953
  10 H :    0.140721
  11 H :    0.120629
  12 H :    0.131057
  13 H :    0.131917
  14 H :    0.330769
Sum of atomic charges:    0.0000000

LOEWDIN ATOMIC CHARGES
----------------------
   0 C :   -0.288088
   1 C :   -0.276468
   2 O :    0.177189
   3 C :   -0.258167
   4 C :   -0.324084
   5 O :    0.017764
   6 C :   -0.165393
   7 N :    0.078166
   8 H :    0.127054
   9 H :    0.133746
  10 H :    0.135838
  11 H :    0.141528
  12 H :    0.143754
  13 H :    0.171079
  14 H :    0.186080

  Mayer bond orders larger than 0.1
B(  0-C ,  1-C ) :   0.9131 B(  0-C ,  8-H ) :   0.9403 B(  0-C ,  9-H ) :   0.9309
B(  0-C , 10-H ) :   0.9239 B(  1-C ,  2-O ) :   0.8639 B(  1-C ,  3-C ) :   0.9764
B(  1-C , 11-H ) :   0.9104 B(  2-O ,  3-C ) :   0.9381 B(  3-C ,  4-C ) :   0.8879
B(  3-C , 12-H ) :   0.8912 B(  4-C ,  5-O ) :   0.9049 B(  4-C ,  6-C ) :   0.9441
B(  4-C , 13-H ) :   0.9132 B(  5-O , 14-H ) :   0.8322 B(  6-C ,  7-N ) :   2.8379

MP2 TOTAL ENERGY:     -399.133570401 Eh
FINAL SINGLE POINT ENERGY      -399.133570400677

DIPOLE MOMENT
-------------
                                X             Y             Z
Electronic contribution:      4.08130      -4.43251       4.83881
Nuclear contribution   :     -5.54294       5.04819      -5.34323
                        -----------------------------------------
Total Dipole Moment    :     -1.46164       0.61568      -0.50442
                        -----------------------------------------
Magnitude (a.u.)       :      1.66430
Magnitude (Debye)      :      4.23031

                             ****ORCA TERMINATED NORMALLY****
TOTAL RUN TIME: 0 days 0 hours 10 minutes 17 seconds 612 msec
