                         Program Version 3.0.3 - RELEASE   -
|  1> ! RI-MP2 RIJK def2-TZVP def2-TZVP/C def2-TZVP/JK TIGHTSCF
|  2> % maxcore 2000
|  3> % mp2 density relaxed end
|  4> *xyz 0 1
|  5>  C        0.1050950266     1.3484941772     0.1738405984
|  6>  O       -0.0846209932    -0.0302774784    -0.0274262037
|  7>  C        0.7158236821    -0.5499511230    -1.0650939678
|  8>  C        0.4175449663    -2.0386330365    -1.2084826231
|  9>  C        1.2326668810    -2.7055656944    -2.2986722492
| 10>  O        0.9567340507    -2.2497342400    -3.6024905111
| 11>  C        2.6432274916    -3.1692199052    -2.0168719266
| 12>  C        1.5227953070    -4.1721039395    -2.2222188114
| 13>  H        1.1464090675     1.5837518149     0.4475911980
| 14>  H       -0.1511485960     1.9330690266    -0.7245501399
| 15>  H       -0.5516715930     1.6544874521     0.9918899336
| 16>  H        0.4989984678    -0.0228938744    -2.0112730804
| 17>  H        1.7861660634    -0.3920084784    -0.8429224010
| 18>  H        0.6155646500    -2.5274108257    -0.2485579125
| 19>  H       -0.6491947117    -2.1654541842    -1.4249615776
| 20>  H        1.3852788034    -1.3953253565    -3.7184006381
| 21>  H        3.3668224161    -3.0667367602    -2.8179739096
| 22>  H        3.0466666983    -3.0405480063    -1.0179674875
| 23>  H        1.1603232580    -4.7283049742    -1.3648284487
| 24>  H        1.5091042541    -4.7130310439    -3.1610152816
| 25> *
| 26>
| 27>                          ****END OF INPUT****

CARTESIAN COORDINATES (ANGSTROEM)
---------------------------------
  C      0.105095    1.348494    0.173841
  O     -0.084621   -0.030277   -0.027426
  C      0.715824   -0.549951   -1.065094
  C      0.417545   -2.038633   -1.208483
  C      1.232667   -2.705566   -2.298672
  O      0.956734   -2.249734   -3.602491
  C      2.643227   -3.169220   -2.016872
  C      1.522795   -4.172104   -2.222219
  H      1.146409    1.583752    0.447591
  H     -0.151149    1.933069   -0.724550
  H     -0.551672    1.654487    0.991890
  H      0.498998   -0.022894   -2.011273
  H      1.786166   -0.392008   -0.842922
  H      0.615565   -2.527411   -0.248558
  H     -0.649195   -2.165454   -1.424962
  H      1.385279   -1.395325   -3.718401
  H      3.366822   -3.066737   -2.817974
  H      3.046667   -3.040548   -1.017967
  H      1.160323   -4.728305   -1.364828
  H      1.509104   -4.713031   -3.161015

 Total Charge           Charge          ....    0
 Multiplicity           Mult            ....    1
 Number of Electrons    NEL             ....   64
 Basis Dimension        Dim             ....  320

ORBITAL ENERGIES
----------------

  NO   OCC          E(Eh)            E(eV)
   0   2.0000     -20.560789      -559.4875
   1   2.0000     -20.557007      -559.3846
   2   2.0000     -11.287448      -307.1471
   3   2.0000     -11.277133      -306.8664
   4   2.0000     -11.272203      -306.7322
   5   2.0000     -11.225998      -305.4749
   6   2.0000     -11.222804      -305.3880
   7   2.0000     -11.222729      -305.3860
   8   2.0000      -1.378913       -37.5221
   9   2.0000      -1.370898       -37.3040
  10   2.0000      -1.132181       -30.8082
  11   2.0000      -1.030866       -28.0513
  12   2.0000      -0.925408       -25.1816
  13   2.0000      -0.853506       -23.2251
  14   2.0000      -0.827673       -22.5221
  15   2.0000      -0.776659       -21.1340
  16   2.0000      -0.694246       -18.8914
  17   2.0000      -0.675479       -18.3807
  18   2.0000      -0.660478       -17.9725
  19   2.0000      -0.646555       -17.5937
  20   2.0000      -0.617936       -16.8149
  21   2.0000      -0.612523       -16.6676
  22   2.0000      -0.586142       -15.9497
  23   2.0000      -0.541778       -14.7425
  24   2.0000      -0.526285       -14.3209
  25   2.0000      -0.511728       -13.9248
  26   2.0000      -0.510437       -13.8897
  27   2.0000      -0.490055       -13.3351
  28   2.0000      -0.481747       -13.1090
  29   2.0000      -0.425409       -11.5760
  30   2.0000      -0.410211       -11.1624
  31   2.0000      -0.396613       -10.7924
  32   0.0000       0.131849         3.5878
  33   0.0000       0.155463         4.2304
  34   0.0000       0.158580         4.3152
  35   0.0000       0.176319         4.7979
  36   0.0000       0.186343         5.0707

MULLIKEN ATOMIC CHARGES
-----------------------
   0 C :   -0.214321
   1 O :   -0.299818
   2 C :   -0.103737
   3 C :   -0.157708
   4 C :    0.211041
   5 O :   -0.471153
   6 C :   -0.327346
   7 C :   -0.257510
   8 H :    0.109314
   9 H :    0.110601
  10 H :    0.139873
  11 H :    0.078414
  12 H :    0.097200
  13 H :    0.110471
  14 H :    0.123984
  15 H :    0.320726
  16 H :    0.135172
  17 H :    0.126999
  18 H :    0.133342
  19 H :    0.134453
Sum of atomic charges:    0.0000000

LOEWDIN ATOMIC CHARGES
----------------------
   0 C :   -0.363000
   1 O :    0.136052
   2 C :   -0.330870
   3 C :   -0.228933
   4 C :   -0.370297
   5 O :    0.020420
   6 C :   -0.220916
   7 C :   -0.204604
   8 H :    0.100543
   9 H :    0.100784
  10 H :    0.113645
  11 H :    0.114784
  12 H :    0.118596
  13 H :    0.149338
  14 H :    0.148787
  15 H :    0.176529
  16 H :    0.134058
  17 H :    0.132147
  18 H :    0.133685
  19 H :    0.139253

  Mayer bond orders larger than 0.1
B(  0-C ,  1-O ) :   0.9204 B(  0-C ,  8-H ) :   0.9363 B(  0-C ,  9-H ) :   0.9372
B(  0-C , 10-H ) :   0.9396 B(  1-O ,  2-C ) :   0.9622 B(  2-C ,  3-C ) :   0.9297
B(  2-C , 11-H ) :   0.9250 B(  2-C , 12-H ) :   0.9225 B(  3-C ,  4-C ) :   0.9105
B(  3-C , 13-H ) :   0.9155 B(  3-C , 14-H ) :   0.9166 B(  4-C ,  5-O ) :   0.9375
B(  4-C ,  6-C ) :   0.8864 B(  4-C ,  7-C ) :   0.8736 B(  5-O , 15-H ) :   0.8419
B(  6-C ,  7-C ) :   0.9188 B(  6-C , 16-H ) :   0.9235 B(  6-C , 17-H ) :   0.9181
B(  7-C , 18-H ) :   0.9300 B(  7-C , 19-H ) :   0.9267

MP2 TOTAL ENERGY:     -385.476072465 Eh
FINAL SINGLE POINT ENERGY      -385.476072464934

DIPOLE MOMENT
-------------
                                X             Y             Z
Electronic contribution:     -1.37953      -1.94036      -2.15773
Nuclear contribution   :      1.97062       2.50126       2.31729
                        -----------------------------------------
Total Dipole Moment    :      0.59109       0.56090       0.15956
                        -----------------------------------------
Magnitude (a.u.)       :      0.83034
Magnitude (Debye)      :      2.11055

                             ****ORCA TERMINATED NORMALLY****
TOTAL RUN TIME: 0 days 0 hours 11 minutes 27 seconds 135 msec
