                         Program Version 3.0.3 - RELEASE   -
|  1> ! RI-MP2 RIJK def2-TZVP def2-TZVP/C def2-TZVP/JK TIGHTSCF
|  2> % maxcore 2000
|  3> % mp2 density relaxed end
|  4> *xyz 0 1
|  5>  C        0.3056743944     1.5494151443    -0.0512355886
|  6>  O        1.3205571469     0.5491062980    -0.0077437855
|  7>  C       -0.0542369159     0.1198932524    -0.0101391964
|  8>  C       -0.5113504988    -0.5220043776     1.2948535014
|  9>  C       -1.9300694349    -1.0441656676     1.2248721262
| 10>  N       -2.9258671482    -0.1865295634     0.5724537199
| 11>  C       -2.4804244096    -1.4431533800    -0.1016926294
| 12>  C       -1.6192807324    -1.2836427765    -1.2980204017
| 13>  C       -0.5026696016    -0.5539930126    -1.2531249402
| 14>  H        0.1903350354     2.1484011553     0.8520157282
| 15>  H        0.2284355548     2.1009220375    -0.9873716022
| 16>  H        0.1566444835    -1.3672975999     1.5041940359
| 17>  H       -0.3975649833     0.1879152519     2.1205626303
| 18>  H       -2.2467580455    -1.6262272087     2.0880263058
| 19>  H       -3.8400751701    -0.3370816646     0.9928915244
| 20>  H       -3.1933462158    -2.2623512264    -0.1267066923
| 21>  H       -1.9276468601    -1.7682562381    -2.2193586165
| 22>  H        0.1272060713    -0.4133645341    -2.1261726093
| 23> *
| 24>
| 25>                          ****END OF INPUT****

CARTESIAN COORDINATES (ANGSTROEM)
---------------------------------
  C      0.305674    1.549415   -0.051236
  O      1.320557    0.549106   -0.007744
  C     -0.054237    0.119893   -0.010139
  C     -0.511350   -0.522004    1.294854
  C     -1.930069   -1.044166    1.224872
  N     -2.925867   -0.186530    0.572454
  C     -2.480424   -1.443153   -0.101693
  C     -1.619281   -1.283643   -1.298020
  C     -0.502670   -0.553993   -1.253125
  H      0.190335    2.148401    0.852016
  H      0.228436    2.100922   -0.987372
  H      0.156644   -1.367298    1.504194
  H     -0.397565    0.187915    2.120563
  H     -2.246758   -1.626227    2.088026
  H     -3.840075   -0.337082    0.992892
  H     -3.193346   -2.262351   -0.126707
  H     -1.927647   -1.768256   -2.219359
  H      0.127206   -0.413365   -2.126173

 Total Charge           Charge          ....    0
 Multiplicity           Mult            ....    1
 Number of Electrons    NEL             ....   66
 Basis Dimension        Dim             ....  333

ORBITAL ENERGIES
----------------

  NO   OCC          E(Eh)            E(eV)
   0   2.0000     -20.561906      -559.5179
   1   2.0000     -15.564156      -423.5222
   2   2.0000     -11.291823      -307.2661
   3   2.0000     -11.276768      -306.8564
   4   2.0000     -11.268590      -306.6339
   5   2.0000     -11.267514      -306.6046
   6   2.0000     -11.234661      -305.7107
   7   2.0000     -11.233168      -305.6700
   8   2.0000     -11.231785      -305.6324
   9   2.0000      -1.406497       -38.2727
  10   2.0000      -1.271035       -34.5866
  11   2.0000      -1.081768       -29.4364
  12   2.0000      -1.017805       -27.6959
  13   2.0000      -0.931202       -25.3393
  14   2.0000      -0.895543       -24.3690
  15   2.0000      -0.829160       -22.5626
  16   2.0000      -0.821310       -22.3490
  17   2.0000      -0.727438       -19.7946
  18   2.0000      -0.703648       -19.1472
  19   2.0000      -0.671509       -18.2727
  20   2.0000      -0.650868       -17.7110
  21   2.0000      -0.608498       -16.5581
  22   2.0000      -0.597295       -16.2532
  23   2.0000      -0.572629       -15.5820
  24   2.0000      -0.559843       -15.2341
  25   2.0000      -0.518015       -14.0959
  26   2.0000      -0.500922       -13.6308
  27   2.0000      -0.491584       -13.3767
  28   2.0000      -0.475174       -12.9301
  29   2.0000      -0.447328       -12.1724
  30   2.0000      -0.433918       -11.8075
  31   2.0000      -0.401827       -10.9343
  32   2.0000      -0.339121        -9.2279
  33   0.0000       0.127414         3.4671
  34   0.0000       0.134467         3.6590
  35   0.0000       0.162020         4.4088
  36   0.0000       0.171158         4.6574
  37   0.0000       0.179466         4.8835

MULLIKEN ATOMIC CHARGES
-----------------------
   0 C :   -0.090220
   1 O :   -0.336203
   2 C :    0.243843
   3 C :   -0.163045
   4 C :   -0.087593
   5 N :   -0.399951
   6 C :    0.067750
   7 C :   -0.252031
   8 C :   -0.184575
   9 H :    0.109335
  10 H :    0.116040
  11 H :    0.118067
  12 H :    0.122330
  13 H :    0.126332
  14 H :    0.216458
  15 H :    0.130927
  16 H :    0.126264
  17 H :    0.136272
Sum of atomic charges:   -0.0000000

LOEWDIN ATOMIC CHARGES
----------------------
   0 C :   -0.236358
   1 O :    0.164166
   2 C :   -0.297061
   3 C :   -0.190153
   4 C :   -0.251000
   5 N :    0.010820
   6 C :   -0.235761
   7 C :   -0.142629
   8 C :   -0.114168
   9 H :    0.120945
  10 H :    0.121646
  11 H :    0.155461
  12 H :    0.149229
  13 H :    0.138977
  14 H :    0.166539
  15 H :    0.140119
  16 H :    0.145759
  17 H :    0.153470

  Mayer bond orders larger than 0.1
B(  0-C ,  1-O ) :   0.8996 B(  0-C ,  2-C ) :   0.9618 B(  0-C ,  9-H ) :   0.9031
B(  0-C , 10-H ) :   0.9095 B(  1-O ,  2-C ) :   0.8431 B(  2-C ,  3-C ) :   0.9131
B(  2-C ,  8-C ) :   0.9404 B(  3-C ,  4-C ) :   0.9382 B(  3-C , 11-H ) :   0.9067
B(  3-C , 12-H ) :   0.9186 B(  4-C ,  5-N ) :   0.9522 B(  4-C ,  6-C ) :   0.8998
B(  4-C , 13-H ) :   0.9347 B(  5-N ,  6-C ) :   0.8721 B(  5-N , 14-H ) :   0.8676
B(  6-C ,  7-C ) :   0.9467 B(  6-C , 15-H ) :   0.9202 B(  7-C ,  8-C ) :   1.7796
B(  7-C , 16-H ) :   0.9318 B(  8-C , 17-H ) :   0.9230

MP2 TOTAL ENERGY:     -401.218826822 Eh
FINAL SINGLE POINT ENERGY      -401.218826821964

DIPOLE MOMENT
-------------
                                X             Y             Z
Electronic contribution:      1.59039       0.27708      -1.13226
Nuclear contribution   :     -2.49864      -0.69390       1.44405
                        -----------------------------------------
Total Dipole Moment    :     -0.90825      -0.41682       0.31179
                        -----------------------------------------
Magnitude (a.u.)       :      1.04684
Magnitude (Debye)      :      2.66085

                             ****ORCA TERMINATED NORMALLY****
TOTAL RUN TIME: 0 days 0 hours 17 minutes 30 seconds 200 msec
