                         Program Version 3.0.3 - RELEASE   -
|  1> ! RI-MP2 RIJK def2-TZVP def2-TZVP/C def2-TZVP/JK TIGHTSCF
|  2> % maxcore 2000
|  3> % mp2 density relaxed end
|  4> *xyz 0 1
|  5>  N       -0.0771063757     1.3687855926    -0.0993909127
|  6>  C       -0.0071171897    -0.0114554695    -0.0388892307
|  7>  N       -1.0935315146    -0.7653005482    -0.0121761773
|  8>  N       -0.6076356060    -2.0553542665    -0.0316838489
|  9>  C        0.7296396201    -2.0993636718    -0.0576968553
| 10>  O        1.3815315258    -3.2705464947    -0.0729086238
| 11>  C        1.1974221258    -0.7884534023    -0.0627688594
| 12>  C        2.5440283281    -0.3882499353    -0.0875050501
| 13>  C        3.7089202598    -0.0698339144    -0.0976070107
| 14>  H        0.7025612172     1.8376233191     0.3393810737
| 15>  H       -0.9676046842     1.7323055622     0.2111742461
| 16>  H       -1.2451761442    -2.8315358548    -0.0234725968
| 17>  H        2.3279455817    -3.0779978849    -0.1001872088
| 18>  H        4.7291961058     0.2215261684    -0.1253413752
| 19> *
| 20>
| 21>                          ****END OF INPUT****

CARTESIAN COORDINATES (ANGSTROEM)
---------------------------------
  N     -0.077106    1.368786   -0.099391
  C     -0.007117   -0.011455   -0.038889
  N     -1.093532   -0.765301   -0.012176
  N     -0.607636   -2.055354   -0.031684
  C      0.729640   -2.099364   -0.057697
  O      1.381532   -3.270546   -0.072909
  C      1.197422   -0.788453   -0.062769
  C      2.544028   -0.388250   -0.087505
  C      3.708920   -0.069834   -0.097607
  H      0.702561    1.837623    0.339381
  H     -0.967605    1.732306    0.211174
  H     -1.245176   -2.831536   -0.023473
  H      2.327946   -3.077998   -0.100187
  H      4.729196    0.221526   -0.125341

 Total Charge           Charge          ....    0
 Multiplicity           Mult            ....    1
 Number of Electrons    NEL             ....   64
 Basis Dimension        Dim             ....  309

ORBITAL ENERGIES
----------------

  NO   OCC          E(Eh)            E(eV)
   0   2.0000     -20.628276      -561.3239
   1   2.0000     -15.631860      -425.3645
   2   2.0000     -15.568239      -423.6333
   3   2.0000     -15.567770      -423.6206
   4   2.0000     -11.363906      -309.2276
   5   2.0000     -11.308500      -307.7199
   6   2.0000     -11.249239      -306.1074
   7   2.0000     -11.239271      -305.8361
   8   2.0000     -11.232005      -305.6384
   9   2.0000      -1.456904       -39.6444
  10   2.0000      -1.363464       -37.1018
  11   2.0000      -1.222974       -33.2788
  12   2.0000      -1.090023       -29.6610
  13   2.0000      -1.080689       -29.4070
  14   2.0000      -1.009991       -27.4832
  15   2.0000      -0.867885       -23.6163
  16   2.0000      -0.810542       -22.0560
  17   2.0000      -0.795376       -21.6433
  18   2.0000      -0.725378       -19.7385
  19   2.0000      -0.719268       -19.5723
  20   2.0000      -0.680871       -18.5274
  21   2.0000      -0.659893       -17.9566
  22   2.0000      -0.644044       -17.5253
  23   2.0000      -0.623019       -16.9532
  24   2.0000      -0.582108       -15.8400
  25   2.0000      -0.573418       -15.6035
  26   2.0000      -0.489714       -13.3258
  27   2.0000      -0.467231       -12.7140
  28   2.0000      -0.453878       -12.3507
  29   2.0000      -0.402617       -10.9558
  30   2.0000      -0.330414        -8.9910
  31   2.0000      -0.316631        -8.6160
  32   0.0000       0.130530         3.5519
  33   0.0000       0.143925         3.9164
  34   0.0000       0.149104         4.0573
  35   0.0000       0.151680         4.1274
  36   0.0000       0.160411         4.3650

MULLIKEN ATOMIC CHARGES
-----------------------
   0 N :   -0.514032
   1 C :    0.151424
   2 N :   -0.236376
   3 N :   -0.145848
   4 C :    0.205162
   5 O :   -0.413877
   6 C :   -0.127401
   7 C :   -0.049769
   8 C :   -0.188724
   9 H :    0.257208
  10 H :    0.254337
  11 H :    0.259592
  12 H :    0.355973
  13 H :    0.192332
Sum of atomic charges:   -0.0000000

LOEWDIN ATOMIC CHARGES
----------------------
   0 N :   -0.064005
   1 C :   -0.349552
   2 N :    0.018189
   3 N :    0.145551
   4 C :   -0.344179
   5 O :    0.095969
   6 C :   -0.184507
   7 C :   -0.101064
   8 C :   -0.096155
   9 H :    0.173963
  10 H :    0.173400
  11 H :    0.191630
  12 H :    0.213272
  13 H :    0.127488

  Mayer bond orders larger than 0.1
B(  0-N ,  1-C ) :   1.0780 B(  0-N ,  9-H ) :   0.8677 B(  0-N , 10-H ) :   0.8724
B(  1-C ,  2-N ) :   1.6401 B(  1-C ,  6-C ) :   1.1738 B(  2-N ,  3-N ) :   0.9642
B(  3-N ,  4-C ) :   1.2851 B(  3-N , 11-H ) :   0.8688 B(  4-C ,  5-O ) :   1.1570
B(  4-C ,  6-C ) :   1.3032 B(  5-O , 12-H ) :   0.8107 B(  6-C ,  7-C ) :   1.1613
B(  6-C ,  8-C ) :  -0.1082 B(  7-C ,  8-C ) :   2.6438 B(  8-C , 13-H ) :   0.8727

MP2 TOTAL ENERGY:     -432.130455953 Eh
FINAL SINGLE POINT ENERGY      -432.130455952960

DIPOLE MOMENT
-------------
                                X             Y             Z
Electronic contribution:     -0.79659      -2.62514      -0.15752
Nuclear contribution   :      1.34257       2.37212       0.54978
                        -----------------------------------------
Total Dipole Moment    :      0.54598      -0.25302       0.39226
                        -----------------------------------------
Magnitude (a.u.)       :      0.71832
Magnitude (Debye)      :      1.82582

                             ****ORCA TERMINATED NORMALLY****
TOTAL RUN TIME: 0 days 0 hours 15 minutes 44 seconds 918 msec
