                         Program Version 3.0.3 - RELEASE   -
|  1> ! RI-MP2 RIJK def2-TZVP def2-TZVP/C def2-TZVP/JK TIGHTSCF
|  2> % maxcore 2000
|  3> % mp2 density relaxed end
|  4> *xyz 0 1
|  5>  O       -0.1288931116     1.4254123594    -0.2218777509
|  6>  C       -0.0038645877     0.0302800595    -0.0030794348
|  7>  C       -1.4002315505    -0.5543174855    -0.0020990641
|  8>  O       -2.0107868198    -0.4213229518    -1.2938276604
|  9>  C       -1.3016145134    -0.5858616377    -2.4150136925
| 10>  O       -1.7898319218    -0.5541661007    -3.4976512651
| 11>  O        0.0517979445    -0.8336636981    -2.2831860614
| 12>  C        0.7703227843    -0.6112096815    -1.1269646414
| 13>  N        1.9967386063    -0.8834645455    -1.0441751880
| 14>  H        0.7587405168     1.7954329439    -0.2881508183
| 15>  H        0.5039387327    -0.2009431259     0.9405595079
| 16>  H       -1.3739959159    -1.6121040196     0.2834505966
| 17>  H       -2.0495358255    -0.0079902986     0.6832102659
| 18>  H        2.3474485817    -1.2731317276    -1.9221338434
| 19> *
| 20>
| 21>                          ****END OF INPUT****

CARTESIAN COORDINATES (ANGSTROEM)
---------------------------------
  O     -0.128893    1.425412   -0.221878
  C     -0.003865    0.030280   -0.003079
  C     -1.400232   -0.554317   -0.002099
  O     -2.010787   -0.421323   -1.293828
  C     -1.301615   -0.585862   -2.415014
  O     -1.789832   -0.554166   -3.497651
  O      0.051798   -0.833664   -2.283186
  C      0.770323   -0.611210   -1.126965
  N      1.996739   -0.883465   -1.044175
  H      0.758741    1.795433   -0.288151
  H      0.503939   -0.200943    0.940560
  H     -1.373996   -1.612104    0.283451
  H     -2.049536   -0.007990    0.683210
  H      2.347449   -1.273132   -1.922134

 Total Charge           Charge          ....    0
 Multiplicity           Mult            ....    1
 Number of Electrons    NEL             ....   68
 Basis Dimension        Dim             ....  309

ORBITAL ENERGIES
----------------

  NO   OCC          E(Eh)            E(eV)
   0   2.0000     -20.650756      -561.9356
   1   2.0000     -20.635498      -561.5204
   2   2.0000     -20.601585      -560.5976
   3   2.0000     -20.555825      -559.3524
   4   2.0000     -15.580035      -423.9543
   5   2.0000     -11.455893      -311.7307
   6   2.0000     -11.379025      -309.6390
   7   2.0000     -11.336696      -308.4872
   8   2.0000     -11.332584      -308.3753
   9   2.0000      -1.534374       -41.7524
  10   2.0000      -1.438742       -39.1502
  11   2.0000      -1.414431       -38.4886
  12   2.0000      -1.391044       -37.8522
  13   2.0000      -1.240948       -33.7679
  14   2.0000      -1.080902       -29.4128
  15   2.0000      -0.953592       -25.9486
  16   2.0000      -0.911239       -24.7961
  17   2.0000      -0.798753       -21.7352
  18   2.0000      -0.781213       -21.2579
  19   2.0000      -0.758507       -20.6400
  20   2.0000      -0.721164       -19.6239
  21   2.0000      -0.703232       -19.1359
  22   2.0000      -0.675534       -18.3822
  23   2.0000      -0.651106       -17.7175
  24   2.0000      -0.634585       -17.2679
  25   2.0000      -0.616486       -16.7754
  26   2.0000      -0.604552       -16.4507
  27   2.0000      -0.565344       -15.3838
  28   2.0000      -0.530275       -14.4295
  29   2.0000      -0.513691       -13.9782
  30   2.0000      -0.493625       -13.4322
  31   2.0000      -0.486307       -13.2331
  32   2.0000      -0.470349       -12.7989
  33   2.0000      -0.446963       -12.1625
  34   0.0000       0.112778         3.0688
  35   0.0000       0.127957         3.4819
  36   0.0000       0.148553         4.0423
  37   0.0000       0.162739         4.4284
  38   0.0000       0.173146         4.7115

MULLIKEN ATOMIC CHARGES
-----------------------
   0 O :   -0.454907
   1 C :    0.121455
   2 C :   -0.057159
   3 O :   -0.218253
   4 C :    0.356240
   5 O :   -0.262769
   6 O :   -0.211894
   7 C :    0.056952
   8 N :   -0.324706
   9 H :    0.333733
  10 H :    0.129753
  11 H :    0.136989
  12 H :    0.153951
  13 H :    0.240613
Sum of atomic charges:    0.0000000

LOEWDIN ATOMIC CHARGES
----------------------
   0 O :    0.008995
   1 C :   -0.331126
   2 C :   -0.240497
   3 O :    0.279790
   4 C :   -0.591842
   5 O :    0.155934
   6 O :    0.304552
   7 C :   -0.380574
   8 N :   -0.016890
   9 H :    0.188628
  10 H :    0.157990
  11 H :    0.140723
  12 H :    0.147111
  13 H :    0.177206

  Mayer bond orders larger than 0.1
B(  0-O ,  1-C ) :   0.9531 B(  0-O ,  9-H ) :   0.8337 B(  1-C ,  2-C ) :   0.9106
B(  1-C ,  7-C ) :   0.9213 B(  1-C , 10-H ) :   0.9115 B(  2-C ,  3-O ) :   0.8453
B(  2-C , 11-H ) :   0.9244 B(  2-C , 12-H ) :   0.9235 B(  3-O ,  4-C ) :   1.1384
B(  4-C ,  5-O ) :   2.0763 B(  4-C ,  6-O ) :   1.0020 B(  6-O ,  7-C ) :   1.0170
B(  7-C ,  8-N ) :   2.0684 B(  8-N , 13-H ) :   0.8505

MP2 TOTAL ENERGY:     -510.223805174 Eh
FINAL SINGLE POINT ENERGY      -510.223805174305

DIPOLE MOMENT
-------------
                                X             Y             Z
Electronic contribution:     -1.56136      -0.40943      -4.52774
Nuclear contribution   :      2.20122       0.24010       5.92427
                        -----------------------------------------
Total Dipole Moment    :      0.63987      -0.16932       1.39653
                        -----------------------------------------
Magnitude (a.u.)       :      1.54544
Magnitude (Debye)      :      3.92820

                             ****ORCA TERMINATED NORMALLY****
TOTAL RUN TIME: 0 days 0 hours 12 minutes 34 seconds 139 msec
