                         Program Version 3.0.3 - RELEASE   -
|  1> ! RI-MP2 RIJK def2-TZVP def2-TZVP/C def2-TZVP/JK TIGHTSCF
|  2> % maxcore 2000
|  3> % mp2 density relaxed end
|  4> *xyz 0 1
|  5>  N       -0.0947109859    -1.1583902671    -0.0036842686
|  6>  C       -0.0588295393    -0.0015868025     0.0028974599
|  7>  C        0.0119641856     1.4313804499     0.0094644574
|  8>  C        0.5089664403     2.1612537918     1.2788031980
|  9>  C        1.3484667608     2.1162201453     0.0677825520
| 10>  C        2.7789285429     1.7100995312    -0.2755245108
| 11>  C        2.3992411954     2.1969416658    -1.6942219968
| 12>  N        1.7522068361     3.2858303398    -0.8043145001
| 13>  C        3.0760997453     3.2061211715    -0.0065139724
| 14>  H       -0.7676970398     1.9333631991    -0.5548107407
| 15>  H       -0.0056405161     3.0853148885     1.5192340116
| 16>  H        0.7760993087     1.5423070041     2.1283061522
| 17>  H        3.3326961015     0.8197800601     0.0333081496
| 18>  H        3.1984463678     2.5853621788    -2.3295552070
| 19>  H        1.6744121354     1.6120240521    -2.2636408601
| 20>  H        2.9902776163     3.5758645620     1.0173920864
| 21>  H        3.9185807651     3.6589936695    -0.5342603905
| 22> *
| 23>
| 24>                          ****END OF INPUT****

CARTESIAN COORDINATES (ANGSTROEM)
---------------------------------
  N     -0.094711   -1.158390   -0.003684
  C     -0.058830   -0.001587    0.002897
  C      0.011964    1.431380    0.009464
  C      0.508966    2.161254    1.278803
  C      1.348467    2.116220    0.067783
  C      2.778929    1.710100   -0.275525
  C      2.399241    2.196942   -1.694222
  N      1.752207    3.285830   -0.804315
  C      3.076100    3.206121   -0.006514
  H     -0.767697    1.933363   -0.554811
  H     -0.005641    3.085315    1.519234
  H      0.776099    1.542307    2.128306
  H      3.332696    0.819780    0.033308
  H      3.198446    2.585362   -2.329555
  H      1.674412    1.612024   -2.263641
  H      2.990278    3.575865    1.017392
  H      3.918581    3.658994   -0.534260

 Total Charge           Charge          ....    0
 Multiplicity           Mult            ....    1
 Number of Electrons    NEL             ....   64
 Basis Dimension        Dim             ....  327

ORBITAL ENERGIES
----------------

  NO   OCC          E(Eh)            E(eV)
   0   2.0000     -15.590630      -424.2426
   1   2.0000     -15.567736      -423.6196
   2   2.0000     -11.304115      -307.6006
   3   2.0000     -11.284559      -307.0685
   4   2.0000     -11.279507      -306.9310
   5   2.0000     -11.277753      -306.8833
   6   2.0000     -11.274989      -306.8080
   7   2.0000     -11.271866      -306.7231
   8   2.0000     -11.263116      -306.4850
   9   2.0000      -1.324158       -36.0322
  10   2.0000      -1.220048       -33.1992
  11   2.0000      -1.159537       -31.5526
  12   2.0000      -0.953107       -25.9354
  13   2.0000      -0.944643       -25.7050
  14   2.0000      -0.911842       -24.8125
  15   2.0000      -0.872798       -23.7500
  16   2.0000      -0.764439       -20.8014
  17   2.0000      -0.713024       -19.4024
  18   2.0000      -0.683287       -18.5932
  19   2.0000      -0.668041       -18.1783
  20   2.0000      -0.621281       -16.9059
  21   2.0000      -0.592199       -16.1145
  22   2.0000      -0.555857       -15.1256
  23   2.0000      -0.550925       -14.9914
  24   2.0000      -0.515280       -14.0215
  25   2.0000      -0.511915       -13.9299
  26   2.0000      -0.504845       -13.7375
  27   2.0000      -0.493756       -13.4358
  28   2.0000      -0.477665       -12.9979
  29   2.0000      -0.430403       -11.7119
  30   2.0000      -0.409156       -11.1337
  31   2.0000      -0.399117       -10.8605
  32   0.0000       0.134014         3.6467
  33   0.0000       0.142520         3.8782
  34   0.0000       0.150589         4.0977
  35   0.0000       0.158091         4.3019
  36   0.0000       0.169727         4.6185

MULLIKEN ATOMIC CHARGES
-----------------------
   0 N :   -0.058142
   1 C :   -0.229093
   2 C :   -0.026490
   3 C :   -0.281590
   4 C :    0.006024
   5 C :   -0.042379
   6 C :   -0.160615
   7 N :   -0.178419
   8 C :   -0.152336
   9 H :    0.169207
  10 H :    0.154302
  11 H :    0.155954
  12 H :    0.133780
  13 H :    0.126094
  14 H :    0.131404
  15 H :    0.125160
  16 H :    0.127139
Sum of atomic charges:    0.0000000

LOEWDIN ATOMIC CHARGES
----------------------
   0 N :    0.059840
   1 C :   -0.178281
   2 C :   -0.169066
   3 C :   -0.145772
   4 C :   -0.241813
   5 C :   -0.162960
   6 C :   -0.202909
   7 N :    0.132506
   8 C :   -0.204884
   9 H :    0.176520
  10 H :    0.147699
  11 H :    0.148041
  12 H :    0.129406
  13 H :    0.126569
  14 H :    0.130028
  15 H :    0.128139
  16 H :    0.126937

  Mayer bond orders larger than 0.1
B(  0-N ,  1-C ) :   2.8557 B(  1-C ,  2-C ) :   0.9589 B(  2-C ,  3-C ) :   0.9052
B(  2-C ,  4-C ) :   0.8139 B(  2-C ,  9-H ) :   0.8953 B(  3-C ,  4-C ) :   0.8874
B(  3-C , 10-H ) :   0.9099 B(  3-C , 11-H ) :   0.9122 B(  4-C ,  5-C ) :   0.8562
B(  4-C ,  7-N ) :   0.9517 B(  5-C ,  6-C ) :   0.9436 B(  5-C ,  8-C ) :   0.9357
B(  5-C , 12-H ) :   0.8903 B(  6-C ,  7-N ) :   0.8994 B(  6-C , 13-H ) :   0.9256
B(  6-C , 14-H ) :   0.9241 B(  7-N ,  8-C ) :   0.8950 B(  8-C , 15-H ) :   0.9252
B(  8-C , 16-H ) :   0.9256

MP2 TOTAL ENERGY:     -380.107553164 Eh
FINAL SINGLE POINT ENERGY      -380.107553163644

DIPOLE MOMENT
-------------
                                X             Y             Z
Electronic contribution:     -3.47532      -3.89794      -0.06292
Nuclear contribution   :      4.22381       4.97847       0.30622
                        -----------------------------------------
Total Dipole Moment    :      0.74849       1.08053       0.24330
                        -----------------------------------------
Magnitude (a.u.)       :      1.33678
Magnitude (Debye)      :      3.39782

                             ****ORCA TERMINATED NORMALLY****
TOTAL RUN TIME: 0 days 0 hours 17 minutes 49 seconds 680 msec
