                         Program Version 3.0.3 - RELEASE   -
|  1> ! RI-MP2 RIJK def2-TZVP def2-TZVP/C def2-TZVP/JK TIGHTSCF
|  2> % maxcore 2000
|  3> % mp2 density relaxed end
|  4> *xyz 0 1
|  5>  C        0.6887316747     1.5672252602    -0.5427896195
|  6>  C        0.0301436511     0.2493924812    -0.1089424795
|  7>  C        0.3564514450    -0.9138313329    -1.0757402060
|  8>  C        1.6542446412    -1.5743162337    -0.5237213610
|  9>  C        1.9003797129    -0.9254633777     0.8626320158
| 10>  C        0.5571963585    -0.2742831805     1.2395010995
| 11>  C        0.5815225598     0.6427806899     2.4952748027
| 12>  C        0.0406724778    -0.5386080361     3.3441072060
| 13>  C       -0.3801237392    -1.2473563180     2.0300181311
| 14>  H        1.7704090175     1.4594514776    -0.6778922175
| 15>  H        0.2735232891     1.9085895280    -1.4968904335
| 16>  H        0.5245651459     2.3605415518     0.1939404815
| 17>  H       -1.0523057575     0.4161426027    -0.0500115109
| 18>  H       -0.4630702617    -1.6396018580    -1.0736045519
| 19>  H        0.4671808669    -0.5695612071    -2.1085703561
| 20>  H        1.5264888360    -2.6570003605    -0.4361214193
| 21>  H        2.5072957687    -1.4182875372    -1.1898168614
| 22>  H        2.2423751417    -1.6456175571     1.6125489319
| 23>  H        2.6763420054    -0.1544164125     0.7941119094
| 24>  H        1.5459959610     1.0727619253     2.7810271349
| 25>  H       -0.1480354394     1.4557573435     2.4200013750
| 26>  H        0.8413099808    -1.0723582876     3.8633393986
| 27>  H       -0.7472683955    -0.3172146520     4.0677601927
| 28>  H       -1.4350719301    -1.0757582878     1.7922779255
| 29>  H       -0.1776950206    -2.3191631116     1.9460771419
| 30> *
| 31>
| 32>                          ****END OF INPUT****

CARTESIAN COORDINATES (ANGSTROEM)
---------------------------------
  C      0.688732    1.567225   -0.542790
  C      0.030144    0.249392   -0.108942
  C      0.356451   -0.913831   -1.075740
  C      1.654245   -1.574316   -0.523721
  C      1.900380   -0.925463    0.862632
  C      0.557196   -0.274283    1.239501
  C      0.581523    0.642781    2.495275
  C      0.040672   -0.538608    3.344107
  C     -0.380124   -1.247356    2.030018
  H      1.770409    1.459451   -0.677892
  H      0.273523    1.908590   -1.496890
  H      0.524565    2.360542    0.193940
  H     -1.052306    0.416143   -0.050012
  H     -0.463070   -1.639602   -1.073605
  H      0.467181   -0.569561   -2.108570
  H      1.526489   -2.657000   -0.436121
  H      2.507296   -1.418288   -1.189817
  H      2.242375   -1.645618    1.612549
  H      2.676342   -0.154416    0.794112
  H      1.545996    1.072762    2.781027
  H     -0.148035    1.455757    2.420001
  H      0.841310   -1.072358    3.863339
  H     -0.747268   -0.317215    4.067760
  H     -1.435072   -1.075758    1.792278
  H     -0.177695   -2.319163    1.946077

 Total Charge           Charge          ....    0
 Multiplicity           Mult            ....    1
 Number of Electrons    NEL             ....   70
 Basis Dimension        Dim             ....  375

ORBITAL ENERGIES
----------------

  NO   OCC          E(Eh)            E(eV)
   0   2.0000     -11.221201      -305.3444
   1   2.0000     -11.215673      -305.1940
   2   2.0000     -11.214199      -305.1539
   3   2.0000     -11.212308      -305.1024
   4   2.0000     -11.211931      -305.0922
   5   2.0000     -11.211775      -305.0879
   6   2.0000     -11.210326      -305.0485
   7   2.0000     -11.210239      -305.0461
   8   2.0000     -11.207545      -304.9728
   9   2.0000      -1.148737       -31.2587
  10   2.0000      -1.072406       -29.1816
  11   2.0000      -0.994833       -27.0708
  12   2.0000      -0.931793       -25.3554
  13   2.0000      -0.895692       -24.3730
  14   2.0000      -0.883516       -24.0417
  15   2.0000      -0.800647       -21.7867
  16   2.0000      -0.761736       -20.7279
  17   2.0000      -0.704026       -19.1575
  18   2.0000      -0.654851       -17.8194
  19   2.0000      -0.635702       -17.2983
  20   2.0000      -0.623345       -16.9621
  21   2.0000      -0.590873       -16.0785
  22   2.0000      -0.555937       -15.1278
  23   2.0000      -0.548698       -14.9308
  24   2.0000      -0.542024       -14.7492
  25   2.0000      -0.527041       -14.3415
  26   2.0000      -0.515570       -14.0294
  27   2.0000      -0.487495       -13.2654
  28   2.0000      -0.467170       -12.7123
  29   2.0000      -0.458021       -12.4634
  30   2.0000      -0.453467       -12.3395
  31   2.0000      -0.443499       -12.0682
  32   2.0000      -0.424753       -11.5581
  33   2.0000      -0.416004       -11.3200
  34   2.0000      -0.405000       -11.0206
  35   0.0000       0.130030         3.5383
  36   0.0000       0.153193         4.1686
  37   0.0000       0.157720         4.2918
  38   0.0000       0.160074         4.3558
  39   0.0000       0.184843         5.0298

MULLIKEN ATOMIC CHARGES
-----------------------
   0 C :   -0.454002
   1 C :    0.002202
   2 C :   -0.244732
   3 C :   -0.239343
   4 C :   -0.336826
   5 C :    0.150464
   6 C :   -0.237924
   7 C :   -0.227744
   8 C :   -0.263159
   9 H :    0.128257
  10 H :    0.134558
  11 H :    0.130975
  12 H :    0.086334
  13 H :    0.113628
  14 H :    0.117441
  15 H :    0.113347
  16 H :    0.118922
  17 H :    0.121515
  18 H :    0.119745
  19 H :    0.112767
  20 H :    0.108752
  21 H :    0.114051
  22 H :    0.112321
  23 H :    0.105615
  24 H :    0.112834
Sum of atomic charges:    0.0000000

LOEWDIN ATOMIC CHARGES
----------------------
   0 C :   -0.287710
   1 C :   -0.240383
   2 C :   -0.229766
   3 C :   -0.247621
   4 C :   -0.215411
   5 C :   -0.232687
   6 C :   -0.203312
   7 C :   -0.242392
   8 C :   -0.197601
   9 H :    0.124304
  10 H :    0.122963
  11 H :    0.122767
  12 H :    0.147995
  13 H :    0.135333
  14 H :    0.132999
  15 H :    0.132324
  16 H :    0.131750
  17 H :    0.136531
  18 H :    0.136370
  19 H :    0.125746
  20 H :    0.135559
  21 H :    0.131561
  22 H :    0.121551
  23 H :    0.133537
  24 H :    0.125594

  Mayer bond orders larger than 0.1
B(  0-C ,  1-C ) :   0.8859 B(  0-C ,  9-H ) :   0.9360 B(  0-C , 10-H ) :   0.9403
B(  0-C , 11-H ) :   0.9410 B(  1-C ,  2-C ) :   0.9254 B(  1-C ,  5-C ) :   0.8917
B(  1-C , 12-H ) :   0.9169 B(  2-C ,  3-C ) :   0.9483 B(  2-C , 13-H ) :   0.9269
B(  2-C , 14-H ) :   0.9343 B(  3-C ,  4-C ) :   0.9517 B(  3-C , 15-H ) :   0.9356
B(  3-C , 16-H ) :   0.9355 B(  4-C ,  5-C ) :   0.9154 B(  4-C , 17-H ) :   0.9215
B(  4-C , 18-H ) :   0.9302 B(  5-C ,  6-C ) :   0.8794 B(  5-C ,  8-C ) :   0.8935
B(  6-C ,  7-C ) :   0.9552 B(  6-C , 19-H ) :   0.9275 B(  6-C , 20-H ) :   0.9214
B(  7-C ,  8-C ) :   0.9582 B(  7-C , 21-H ) :   0.9253 B(  7-C , 22-H ) :   0.9266
B(  8-C , 23-H ) :   0.9164 B(  8-C , 24-H ) :   0.9260

MP2 TOTAL ENERGY:     -351.722307566 Eh
FINAL SINGLE POINT ENERGY      -351.722307566113

DIPOLE MOMENT
-------------
                                X             Y             Z
Electronic contribution:     -0.58620      -0.95114       1.03442
Nuclear contribution   :      0.57154       0.94969      -1.05057
                        -----------------------------------------
Total Dipole Moment    :     -0.01466      -0.00145      -0.01616
                        -----------------------------------------
Magnitude (a.u.)       :      0.02186
Magnitude (Debye)      :      0.05557

                             ****ORCA TERMINATED NORMALLY****
TOTAL RUN TIME: 0 days 0 hours 21 minutes 45 seconds 268 msec
