                         Program Version 3.0.3 - RELEASE   -
|  1> ! RI-MP2 RIJK def2-TZVP def2-TZVP/C def2-TZVP/JK TIGHTSCF
|  2> % maxcore 2000
|  3> % mp2 density relaxed end
|  4> *xyz 0 1
|  5>  C       -0.2970009891     1.4610132408    -0.0079135969
|  6>  C       -0.0121390151    -0.0372657899    -0.0217079688
|  7>  O       -1.1742288010    -0.7781950079    -0.3304356174
|  8>  C        1.2871536711    -0.4262718698    -0.8042942858
|  9>  C        2.0229173417    -0.5024389473     0.5495836061
| 10>  C        0.6610343758    -0.5690536385     1.2711990817
| 11>  O        2.8647298001    -1.6379352030     0.7280588059
| 12>  C        4.1410744539    -1.4451244296     1.1081555886
| 13>  O        4.9113294168    -2.3421762607     1.2734465872
| 14>  H        0.5867167708     2.0387889662     0.2822024589
| 15>  H       -0.6004291847     1.8069638035    -1.0040503320
| 16>  H       -1.1035627152     1.6866916222     0.6962728889
| 17>  H       -1.5720912255    -0.4030495751    -1.1238630443
| 18>  H        1.1797371646    -1.4264535164    -1.2295884380
| 19>  H        1.6718077098     0.2633199087    -1.5599218582
| 20>  H        2.5851009935     0.4091078445     0.7811834720
| 21>  H        0.5338237113     0.0023638621     2.1931523041
| 22>  H        0.3721443856    -1.6091575546     1.4358813292
| 23>  H        4.3894121455    -0.3740008551     1.2479670285
| 24> *
| 25>
| 26>                          ****END OF INPUT****

CARTESIAN COORDINATES (ANGSTROEM)
---------------------------------
  C     -0.297001    1.461013   -0.007914
  C     -0.012139   -0.037266   -0.021708
  O     -1.174229   -0.778195   -0.330436
  C      1.287154   -0.426272   -0.804294
  C      2.022917   -0.502439    0.549584
  C      0.661034   -0.569054    1.271199
  O      2.864730   -1.637935    0.728059
  C      4.141074   -1.445124    1.108156
  O      4.911329   -2.342176    1.273447
  H      0.586717    2.038789    0.282202
  H     -0.600429    1.806964   -1.004050
  H     -1.103563    1.686692    0.696273
  H     -1.572091   -0.403050   -1.123863
  H      1.179737   -1.426454   -1.229588
  H      1.671808    0.263320   -1.559922
  H      2.585101    0.409108    0.781183
  H      0.533824    0.002364    2.193152
  H      0.372144   -1.609158    1.435881
  H      4.389412   -0.374001    1.247967

 Total Charge           Charge          ....    0
 Multiplicity           Mult            ....    1
 Number of Electrons    NEL             ....   70
 Basis Dimension        Dim             ....  339

ORBITAL ENERGIES
----------------

  NO   OCC          E(Eh)            E(eV)
   0   2.0000     -20.608792      -560.7937
   1   2.0000     -20.567130      -559.6600
   2   2.0000     -20.549276      -559.1742
   3   2.0000     -11.383220      -309.7532
   4   2.0000     -11.311404      -307.7990
   5   2.0000     -11.303743      -307.5905
   6   2.0000     -11.236728      -305.7669
   7   2.0000     -11.236119      -305.7503
   8   2.0000     -11.235132      -305.7235
   9   2.0000      -1.463003       -39.8103
  10   2.0000      -1.378654       -37.5151
  11   2.0000      -1.372799       -37.3558
  12   2.0000      -1.145919       -31.1820
  13   2.0000      -0.998763       -27.1777
  14   2.0000      -0.929102       -25.2822
  15   2.0000      -0.896220       -24.3874
  16   2.0000      -0.846869       -23.0445
  17   2.0000      -0.772804       -21.0291
  18   2.0000      -0.732089       -19.9212
  19   2.0000      -0.688483       -18.7346
  20   2.0000      -0.677059       -18.4237
  21   2.0000      -0.653239       -17.7755
  22   2.0000      -0.650320       -17.6961
  23   2.0000      -0.618648       -16.8343
  24   2.0000      -0.603151       -16.4126
  25   2.0000      -0.578473       -15.7411
  26   2.0000      -0.560073       -15.2404
  27   2.0000      -0.538651       -14.6574
  28   2.0000      -0.527411       -14.3516
  29   2.0000      -0.521177       -14.1819
  30   2.0000      -0.498527       -13.5656
  31   2.0000      -0.470663       -12.8074
  32   2.0000      -0.452816       -12.3217
  33   2.0000      -0.440475       -11.9859
  34   2.0000      -0.430197       -11.7062
  35   0.0000       0.115966         3.1556
  36   0.0000       0.138967         3.7815
  37   0.0000       0.151040         4.1100
  38   0.0000       0.168501         4.5852
  39   0.0000       0.178396         4.8544

MULLIKEN ATOMIC CHARGES
-----------------------
   0 C :   -0.467706
   1 C :    0.163084
   2 O :   -0.446255
   3 C :   -0.162911
   4 C :   -0.061096
   5 C :   -0.159676
   6 O :   -0.194559
   7 C :    0.193179
   8 O :   -0.268052
   9 H :    0.128686
  10 H :    0.127380
  11 H :    0.149579
  12 H :    0.313822
  13 H :    0.126719
  14 H :    0.126526
  15 H :    0.097591
  16 H :    0.130862
  17 H :    0.135723
  18 H :    0.067103
Sum of atomic charges:   -0.0000000

LOEWDIN ATOMIC CHARGES
----------------------
   0 C :   -0.279980
   1 C :   -0.386627
   2 O :    0.010579
   3 C :   -0.186699
   4 C :   -0.281571
   5 C :   -0.175422
   6 O :    0.269933
   7 C :   -0.451505
   8 O :    0.119247
   9 H :    0.129688
  10 H :    0.124833
  11 H :    0.130755
  12 H :    0.177258
  13 H :    0.150777
  14 H :    0.128658
  15 H :    0.133532
  16 H :    0.131491
  17 H :    0.155231
  18 H :    0.099821

  Mayer bond orders larger than 0.1
B(  0-C ,  1-C ) :   0.9408 B(  0-C ,  9-H ) :   0.9247 B(  0-C , 10-H ) :   0.9254
B(  0-C , 11-H ) :   0.9431 B(  1-C ,  2-O ) :   1.0786 B(  1-C ,  3-C ) :   0.8839
B(  1-C ,  5-C ) :   0.8491 B(  2-O , 12-H ) :   0.8406 B(  3-C ,  4-C ) :   0.9392
B(  3-C , 13-H ) :   0.8952 B(  3-C , 14-H ) :   0.9195 B(  4-C ,  5-C ) :   0.9314
B(  4-C ,  6-O ) :   0.9212 B(  4-C , 15-H ) :   0.9284 B(  5-C , 16-H ) :   0.9259
B(  5-C , 17-H ) :   0.8972 B(  6-O ,  7-C ) :   1.0649 B(  7-C ,  8-O ) :   2.0334
B(  7-C , 18-H ) :   0.9148

MP2 TOTAL ENERGY:     -459.442777115 Eh
FINAL SINGLE POINT ENERGY      -459.442777115175

DIPOLE MOMENT
-------------
                                X             Y             Z
Electronic contribution:      6.51468      -7.05966       1.70821
Nuclear contribution   :     -7.38248       8.83680      -2.24684
                        -----------------------------------------
Total Dipole Moment    :     -0.86780       1.77713      -0.53862
                        -----------------------------------------
Magnitude (a.u.)       :      2.04973
Magnitude (Debye)      :      5.20999

                             ****ORCA TERMINATED NORMALLY****
TOTAL RUN TIME: 0 days 0 hours 17 minutes 13 seconds 377 msec
