                         Program Version 3.0.3 - RELEASE   -
|  1> ! RI-MP2 RIJK def2-TZVP def2-TZVP/C def2-TZVP/JK TIGHTSCF
|  2> % maxcore 2000
|  3> % mp2 density relaxed end
|  4> *xyz 0 1
|  5>  O        0.0378543644     1.5381481121     0.5994468314
|  6>  C        0.0805500653     0.1416847430     0.3398980160
|  7>  C       -1.2369266181    -0.4545692768     0.1233968269
|  8>  C       -2.3377453105    -0.9015189360    -0.0827664075
|  9>  C       -3.6500751262    -1.4779926747    -0.3045218792
| 10>  N       -3.9653647430    -1.8917120409    -1.6998998396
| 11>  C       -4.6662569199    -3.1035371702    -1.2145859522
| 12>  C       -3.8975448168    -2.9743876965     0.1269372047
| 13>  O       -2.7532555162    -3.7668815640     0.2581509548
| 14>  H       -0.4748016051     1.9457457977    -0.1063448456
| 15>  H        0.7275118311    -0.0864142959    -0.5224806502
| 16>  H        0.5559855136    -0.3096935252     1.2178628598
| 17>  H       -4.4203608765    -0.8340289005     0.1470037010
| 18>  H       -4.5215669846    -1.2315960044    -2.2325231482
| 19>  H       -5.7519630360    -2.9915158229    -1.0824767967
| 20>  H       -4.4667716634    -4.0090002875    -1.7966475086
| 21>  H       -4.4765934365    -3.1102016299     1.0409536179
| 22>  H       -2.1607941117    -3.5584436475    -0.4741114146
| 23> *
| 24>
| 25>                          ****END OF INPUT****

CARTESIAN COORDINATES (ANGSTROEM)
---------------------------------
  O      0.037854    1.538148    0.599447
  C      0.080550    0.141685    0.339898
  C     -1.236927   -0.454569    0.123397
  C     -2.337745   -0.901519   -0.082766
  C     -3.650075   -1.477993   -0.304522
  N     -3.965365   -1.891712   -1.699900
  C     -4.666257   -3.103537   -1.214586
  C     -3.897545   -2.974388    0.126937
  O     -2.753256   -3.766882    0.258151
  H     -0.474802    1.945746   -0.106345
  H      0.727512   -0.086414   -0.522481
  H      0.555986   -0.309694    1.217863
  H     -4.420361   -0.834029    0.147004
  H     -4.521567   -1.231596   -2.232523
  H     -5.751963   -2.991516   -1.082477
  H     -4.466772   -4.009000   -1.796648
  H     -4.476593   -3.110202    1.040954
  H     -2.160794   -3.558444   -0.474111

 Total Charge           Charge          ....    0
 Multiplicity           Mult            ....    1
 Number of Electrons    NEL             ....   68
 Basis Dimension        Dim             ....  333

ORBITAL ENERGIES
----------------

  NO   OCC          E(Eh)            E(eV)
   0   2.0000     -20.565728      -559.6219
   1   2.0000     -20.562941      -559.5461
   2   2.0000     -15.559602      -423.3983
   3   2.0000     -11.305920      -307.6497
   4   2.0000     -11.296669      -307.3980
   5   2.0000     -11.289643      -307.2068
   6   2.0000     -11.260910      -306.4250
   7   2.0000     -11.233397      -305.6763
   8   2.0000     -11.229641      -305.5741
   9   2.0000      -1.377244       -37.4767
  10   2.0000      -1.370035       -37.2805
  11   2.0000      -1.241742       -33.7895
  12   2.0000      -1.059805       -28.8388
  13   2.0000      -0.981053       -26.6958
  14   2.0000      -0.964082       -26.2340
  15   2.0000      -0.913269       -24.8513
  16   2.0000      -0.808388       -21.9973
  17   2.0000      -0.740088       -20.1388
  18   2.0000      -0.720384       -19.6027
  19   2.0000      -0.693808       -18.8795
  20   2.0000      -0.658287       -17.9129
  21   2.0000      -0.626183       -17.0393
  22   2.0000      -0.617414       -16.8007
  23   2.0000      -0.602067       -16.3831
  24   2.0000      -0.593424       -16.1479
  25   2.0000      -0.574161       -15.6237
  26   2.0000      -0.545435       -14.8421
  27   2.0000      -0.530857       -14.4453
  28   2.0000      -0.485260       -13.2046
  29   2.0000      -0.475098       -12.9281
  30   2.0000      -0.439971       -11.9722
  31   2.0000      -0.399041       -10.8585
  32   2.0000      -0.383021       -10.4225
  33   2.0000      -0.377627       -10.2758
  34   0.0000       0.121798         3.3143
  35   0.0000       0.136216         3.7066
  36   0.0000       0.150106         4.0846
  37   0.0000       0.164914         4.4875
  38   0.0000       0.176949         4.8150

MULLIKEN ATOMIC CHARGES
-----------------------
   0 O :   -0.459069
   1 C :   -0.058326
   2 C :   -0.001687
   3 C :    0.050181
   4 C :   -0.297887
   5 N :   -0.325469
   6 C :   -0.155249
   7 C :    0.108173
   8 O :   -0.454146
   9 H :    0.319144
  10 H :    0.133219
  11 H :    0.141802
  12 H :    0.120901
  13 H :    0.207611
  14 H :    0.109570
  15 H :    0.117288
  16 H :    0.115356
  17 H :    0.328589
Sum of atomic charges:    0.0000000

LOEWDIN ATOMIC CHARGES
----------------------
   0 O :   -0.041459
   1 C :   -0.333380
   2 C :   -0.076475
   3 C :   -0.058727
   4 C :   -0.261274
   5 N :   -0.003374
   6 C :   -0.267163
   7 C :   -0.298454
   8 O :    0.006726
   9 H :    0.177075
  10 H :    0.134854
  11 H :    0.146970
  12 H :    0.154747
  13 H :    0.156149
  14 H :    0.120416
  15 H :    0.122177
  16 H :    0.134553
  17 H :    0.186639

  Mayer bond orders larger than 0.1
B(  0-O ,  1-C ) :   0.9468 B(  0-O ,  9-H ) :   0.8427 B(  1-C ,  2-C ) :   0.8689
B(  1-C , 10-H ) :   0.9734 B(  1-C , 11-H ) :   0.9207 B(  2-C ,  3-C ) :   2.7399
B(  2-C ,  4-C ) :  -0.1508 B(  3-C ,  4-C ) :   1.0443 B(  4-C ,  5-N ) :   1.0851
B(  4-C ,  7-C ) :   0.8851 B(  4-C , 12-H ) :   0.9336 B(  5-N ,  6-C ) :   0.9592
B(  5-N , 13-H ) :   0.8827 B(  6-C ,  7-C ) :   0.9392 B(  6-C , 14-H ) :   0.9253
B(  6-C , 15-H ) :   0.9153 B(  7-C ,  8-O ) :   0.9914 B(  7-C , 16-H ) :   0.9240
B(  8-O , 17-H ) :   0.8301

MP2 TOTAL ENERGY:     -438.291677996 Eh
FINAL SINGLE POINT ENERGY      -438.291677995907

DIPOLE MOMENT
-------------
                                X             Y             Z
Electronic contribution:      1.84134       1.38743       1.11105
Nuclear contribution   :     -2.64403      -1.22844      -1.83081
                        -----------------------------------------
Total Dipole Moment    :     -0.80268       0.15900      -0.71976
                        -----------------------------------------
Magnitude (a.u.)       :      1.08978
Magnitude (Debye)      :      2.77001

                             ****ORCA TERMINATED NORMALLY****
TOTAL RUN TIME: 0 days 0 hours 14 minutes 52 seconds 17 msec
