                         Program Version 3.0.3 - RELEASE   -
|  1> ! RI-MP2 RIJK def2-TZVP def2-TZVP/C def2-TZVP/JK TIGHTSCF
|  2> % maxcore 2000
|  3> % mp2 density relaxed end
|  4> *xyz 0 1
|  5>  C       -0.0032222260     1.4868057582    -0.1438067885
|  6>  C       -0.2404020292    -0.0175382533    -0.2473340468
|  7>  C       -1.3952991715    -0.4999914926     0.6114737871
|  8>  O       -2.0630922598     0.2262010824     1.3146528648
|  9>  C       -1.6659971399    -1.9288112549     0.5442484270
| 10>  C       -1.8855055930    -3.1178979975     0.4971806904
| 11>  C       -2.1494338746    -4.5487515912     0.4582555652
| 12>  C       -3.2832259371    -4.9758843164    -0.4468368974
| 13>  O       -1.4888225325    -5.3188025084     1.1193683147
| 14>  H        0.8344347957     1.7841609965    -0.7800695365
| 15>  H       -0.8900975583     2.0451862256    -0.4534671435
| 16>  H        0.2224329664     1.7768027713     0.8852681656
| 17>  H       -0.4462280028    -0.3257215672    -1.2816600296
| 18>  H        0.6497285164    -0.5902193626     0.0468109513
| 19>  H       -3.0894036826    -4.6502138773    -1.4745732849
| 20>  H       -3.3869744254    -6.0611586536    -0.4105159746
| 21>  H       -4.2161067159    -4.4975418391    -0.1294023343
| 22> *
| 23>
| 24>                          ****END OF INPUT****

CARTESIAN COORDINATES (ANGSTROEM)
---------------------------------
  C     -0.003222    1.486806   -0.143807
  C     -0.240402   -0.017538   -0.247334
  C     -1.395299   -0.499991    0.611474
  O     -2.063092    0.226201    1.314653
  C     -1.665997   -1.928811    0.544248
  C     -1.885506   -3.117898    0.497181
  C     -2.149434   -4.548752    0.458256
  C     -3.283226   -4.975884   -0.446837
  O     -1.488823   -5.318803    1.119368
  H      0.834435    1.784161   -0.780070
  H     -0.890098    2.045186   -0.453467
  H      0.222433    1.776803    0.885268
  H     -0.446228   -0.325722   -1.281660
  H      0.649729   -0.590219    0.046811
  H     -3.089404   -4.650214   -1.474573
  H     -3.386974   -6.061159   -0.410516
  H     -4.216107   -4.497542   -0.129402

 Total Charge           Charge          ....    0
 Multiplicity           Mult            ....    1
 Number of Electrons    NEL             ....   66
 Basis Dimension        Dim             ....  327

ORBITAL ENERGIES
----------------

  NO   OCC          E(Eh)            E(eV)
   0   2.0000     -20.572882      -559.8166
   1   2.0000     -20.571815      -559.7875
   2   2.0000     -11.374073      -309.5043
   3   2.0000     -11.370661      -309.4114
   4   2.0000     -11.278007      -306.8902
   5   2.0000     -11.274337      -306.7903
   6   2.0000     -11.258502      -306.3594
   7   2.0000     -11.254948      -306.2627
   8   2.0000     -11.230131      -305.5874
   9   2.0000      -1.414920       -38.5019
  10   2.0000      -1.413965       -38.4760
  11   2.0000      -1.100978       -29.9591
  12   2.0000      -1.068936       -29.0872
  13   2.0000      -1.029875       -28.0243
  14   2.0000      -0.941510       -25.6198
  15   2.0000      -0.871972       -23.7276
  16   2.0000      -0.814069       -22.1519
  17   2.0000      -0.711191       -19.3525
  18   2.0000      -0.699054       -19.0222
  19   2.0000      -0.653654       -17.7868
  20   2.0000      -0.651651       -17.7323
  21   2.0000      -0.645954       -17.5773
  22   2.0000      -0.624395       -16.9906
  23   2.0000      -0.581294       -15.8178
  24   2.0000      -0.555649       -15.1200
  25   2.0000      -0.554639       -15.0925
  26   2.0000      -0.532459       -14.4890
  27   2.0000      -0.531124       -14.4526
  28   2.0000      -0.505754       -13.7623
  29   2.0000      -0.462759       -12.5923
  30   2.0000      -0.451211       -12.2781
  31   2.0000      -0.428291       -11.6544
  32   2.0000      -0.427621       -11.6362
  33   0.0000       0.072419         1.9706
  34   0.0000       0.085421         2.3244
  35   0.0000       0.122719         3.3394
  36   0.0000       0.137012         3.7283
  37   0.0000       0.170425         4.6375

MULLIKEN ATOMIC CHARGES
-----------------------
   0 C :   -0.381926
   1 C :   -0.221422
   2 C :    0.018952
   3 O :   -0.266907
   4 C :    0.104498
   5 C :    0.104232
   6 C :    0.132025
   7 C :   -0.393666
   8 O :   -0.258082
   9 H :    0.137343
  10 H :    0.136893
  11 H :    0.139139
  12 H :    0.139484
  13 H :    0.146403
  14 H :    0.149593
  15 H :    0.157527
  16 H :    0.155913
Sum of atomic charges:    0.0000000

LOEWDIN ATOMIC CHARGES
----------------------
   0 C :   -0.306630
   1 C :   -0.255917
   2 C :   -0.325637
   3 O :    0.184728
   4 C :    0.010985
   5 C :    0.008239
   6 C :   -0.350674
   7 C :   -0.261013
   8 O :    0.179756
   9 H :    0.124109
  10 H :    0.128089
  11 H :    0.128741
  12 H :    0.155594
  13 H :    0.157528
  14 H :    0.141665
  15 H :    0.136715
  16 H :    0.143722

  Mayer bond orders larger than 0.1
B(  0-C ,  1-C ) :   0.9366 B(  0-C ,  9-H ) :   0.9375 B(  0-C , 10-H ) :   0.9351
B(  0-C , 11-H ) :   0.9352 B(  1-C ,  2-C ) :   0.9993 B(  1-C ,  4-C ) :  -0.1275
B(  1-C , 12-H ) :   0.9045 B(  1-C , 13-H ) :   0.9039 B(  2-C ,  3-O ) :   1.9862
B(  2-C ,  4-C ) :   0.9397 B(  2-C ,  5-C ) :  -0.1143 B(  4-C ,  5-C ) :   2.6792
B(  5-C ,  6-C ) :   0.8761 B(  5-C ,  7-C ) :  -0.1225 B(  6-C ,  7-C ) :   1.0005
B(  6-C ,  8-O ) :   2.0139 B(  7-C , 14-H ) :   0.9086 B(  7-C , 15-H ) :   0.9347
B(  7-C , 16-H ) :   0.9071

MP2 TOTAL ENERGY:     -421.105889916 Eh
FINAL SINGLE POINT ENERGY      -421.105889916377

DIPOLE MOMENT
-------------
                                X             Y             Z
Electronic contribution:     -2.06951      -5.42984       5.16234
Nuclear contribution   :      2.08895       5.56182      -6.41098
                        -----------------------------------------
Total Dipole Moment    :      0.01943       0.13199      -1.24864
                        -----------------------------------------
Magnitude (a.u.)       :      1.25575
Magnitude (Debye)      :      3.19186

                             ****ORCA TERMINATED NORMALLY****
TOTAL RUN TIME: 0 days 0 hours 12 minutes 12 seconds 67 msec
