                         Program Version 3.0.3 - RELEASE   -
|  1> ! RI-MP2 RIJK def2-TZVP def2-TZVP/C def2-TZVP/JK TIGHTSCF
|  2> % maxcore 2000
|  3> % mp2 density relaxed end
|  4> *xyz 0 1
|  5>  C        0.0279137508     1.5550092697    -0.0147872117
|  6>  C       -0.0000727529     0.0169498547     0.0399098908
|  7>  C        0.7998033651    -0.5107054972     1.2444758101
|  8>  C       -1.4216469073    -0.5160784695     0.0359184372
|  9>  C       -2.3259992371    -0.2314930549     1.0635712698
| 10>  C       -3.6154163257    -0.7481869795     1.0042874672
| 11>  N       -4.0677025436    -1.5185411105     0.0098012876
| 12>  C       -3.2035656074    -1.7895279694    -0.9707846285
| 13>  C       -1.8932098561    -1.3200232008    -1.0023347214
| 14>  H        1.0598570105     1.9170246392    -0.0669797955
| 15>  H       -0.5109440658     1.9314478797    -0.8892765813
| 16>  H       -0.4335267673     1.9928491675     0.8766167193
| 17>  H        0.4846854952    -0.3568894720    -0.8704497751
| 18>  H        0.3717324841    -0.1612164736     2.1899003909
| 19>  H        0.8102575477    -1.6044239871     1.2663328328
| 20>  H        1.8358247672    -0.1596325652     1.1987491240
| 21>  H       -2.0364521520     0.3867850256     1.9069237148
| 22>  H       -4.3247056860    -0.5311828234     1.8001402976
| 23>  H       -3.5761919552    -2.4168111458    -1.7778920776
| 24>  H       -1.2449137941    -1.5810943775    -1.8333447812
| 25> *
| 26>
| 27>                          ****END OF INPUT****

CARTESIAN COORDINATES (ANGSTROEM)
---------------------------------
  C      0.027914    1.555009   -0.014787
  C     -0.000073    0.016950    0.039910
  C      0.799803   -0.510705    1.244476
  C     -1.421647   -0.516078    0.035918
  C     -2.325999   -0.231493    1.063571
  C     -3.615416   -0.748187    1.004287
  N     -4.067703   -1.518541    0.009801
  C     -3.203566   -1.789528   -0.970785
  C     -1.893210   -1.320023   -1.002335
  H      1.059857    1.917025   -0.066980
  H     -0.510944    1.931448   -0.889277
  H     -0.433527    1.992849    0.876617
  H      0.484685   -0.356889   -0.870450
  H      0.371732   -0.161216    2.189900
  H      0.810258   -1.604424    1.266333
  H      1.835825   -0.159633    1.198749
  H     -2.036452    0.386785    1.906924
  H     -4.324706   -0.531183    1.800140
  H     -3.576192   -2.416811   -1.777892
  H     -1.244914   -1.581094   -1.833345

 Total Charge           Charge          ....    0
 Multiplicity           Mult            ....    1
 Number of Electrons    NEL             ....   66
 Basis Dimension        Dim             ....  345

ORBITAL ENERGIES
----------------

  NO   OCC          E(Eh)            E(eV)
   0   2.0000     -15.556492      -423.3137
   1   2.0000     -11.268950      -306.6437
   2   2.0000     -11.268602      -306.6342
   3   2.0000     -11.258455      -306.3581
   4   2.0000     -11.246302      -306.0274
   5   2.0000     -11.232412      -305.6495
   6   2.0000     -11.232285      -305.6460
   7   2.0000     -11.224195      -305.4259
   8   2.0000     -11.224176      -305.4254
   9   2.0000      -1.252545       -34.0835
  10   2.0000      -1.123130       -30.5619
  11   2.0000      -1.039092       -28.2751
  12   2.0000      -1.026861       -27.9423
  13   2.0000      -0.939166       -25.5560
  14   2.0000      -0.872282       -23.7360
  15   2.0000      -0.851660       -23.1749
  16   2.0000      -0.787000       -21.4154
  17   2.0000      -0.695345       -18.9213
  18   2.0000      -0.667785       -18.1714
  19   2.0000      -0.645333       -17.5604
  20   2.0000      -0.609874       -16.5955
  21   2.0000      -0.601009       -16.3543
  22   2.0000      -0.587576       -15.9888
  23   2.0000      -0.578329       -15.7371
  24   2.0000      -0.548110       -14.9148
  25   2.0000      -0.529884       -14.4189
  26   2.0000      -0.519548       -14.1376
  27   2.0000      -0.495912       -13.4944
  28   2.0000      -0.491641       -13.3782
  29   2.0000      -0.477332       -12.9889
  30   2.0000      -0.412000       -11.2111
  31   2.0000      -0.367002        -9.9866
  32   2.0000      -0.343505        -9.3472
  33   0.0000       0.111500         3.0341
  34   0.0000       0.122619         3.3366
  35   0.0000       0.132307         3.6002
  36   0.0000       0.158247         4.3061
  37   0.0000       0.170351         4.6355

MULLIKEN ATOMIC CHARGES
-----------------------
   0 C :   -0.393373
   1 C :   -0.073217
   2 C :   -0.393371
   3 C :    0.121235
   4 C :   -0.165768
   5 C :   -0.050030
   6 N :   -0.238826
   7 C :   -0.043574
   8 C :   -0.151495
   9 H :    0.132907
  10 H :    0.139457
  11 H :    0.122595
  12 H :    0.090341
  13 H :    0.122525
  14 H :    0.139483
  15 H :    0.132949
  16 H :    0.130376
  17 H :    0.125623
  18 H :    0.126351
  19 H :    0.125812
Sum of atomic charges:    0.0000000

LOEWDIN ATOMIC CHARGES
----------------------
   0 C :   -0.282257
   1 C :   -0.262176
   2 C :   -0.282304
   3 C :   -0.117528
   4 C :   -0.113336
   5 C :   -0.216511
   6 N :    0.127153
   7 C :   -0.216147
   8 C :   -0.118956
   9 H :    0.124248
  10 H :    0.126646
  11 H :    0.123327
  12 H :    0.155884
  13 H :    0.123289
  14 H :    0.126656
  15 H :    0.124268
  16 H :    0.150911
  17 H :    0.138193
  18 H :    0.138045
  19 H :    0.150596

  Mayer bond orders larger than 0.1
B(  0-C ,  1-C ) :   0.9275 B(  0-C ,  9-H ) :   0.9352 B(  0-C , 10-H ) :   0.9371
B(  0-C , 11-H ) :   0.9290 B(  1-C ,  2-C ) :   0.9277 B(  1-C ,  3-C ) :   0.8672
B(  1-C , 12-H ) :   0.9357 B(  2-C , 13-H ) :   0.9290 B(  2-C , 14-H ) :   0.9371
B(  2-C , 15-H ) :   0.9353 B(  3-C ,  4-C ) :   1.2999 B(  3-C ,  8-C ) :   1.3343
B(  4-C ,  5-C ) :   1.3417 B(  4-C , 16-H ) :   0.9203 B(  5-C ,  6-N ) :   1.3900
B(  5-C , 17-H ) :   0.9471 B(  6-N ,  7-C ) :   1.3987 B(  7-C ,  8-C ) :   1.3238
B(  7-C , 18-H ) :   0.9453 B(  8-C , 19-H ) :   0.9159

MP2 TOTAL ENERGY:     -365.407524855 Eh
FINAL SINGLE POINT ENERGY      -365.407524854940

DIPOLE MOMENT
-------------
                                X             Y             Z
Electronic contribution:     -9.25131      -4.54152      -1.78642
Nuclear contribution   :     10.28966       4.93396       1.79464
                        -----------------------------------------
Total Dipole Moment    :      1.03835       0.39244       0.00823
                        -----------------------------------------
Magnitude (a.u.)       :      1.11007
Magnitude (Debye)      :      2.82157

                             ****ORCA TERMINATED NORMALLY****
TOTAL RUN TIME: 0 days 0 hours 19 minutes 45 seconds 541 msec
