                         Program Version 3.0.3 - RELEASE   -
|  1> ! RI-MP2 RIJK def2-TZVP def2-TZVP/C def2-TZVP/JK TIGHTSCF
|  2> % maxcore 2000
|  3> % mp2 density relaxed end
|  4> *xyz 0 1
|  5>  C       -0.2718300241     1.3234769497     0.2116988624
|  6>  C        1.1920697216     1.1065124869    -0.1320638432
|  7>  C        0.2518952107    -0.0544255093    -0.0858278142
|  8>  O        0.4503129098    -0.9374904518     1.0000723453
|  9>  C       -0.4542980633    -2.0440116664     1.0187979597
| 10>  C       -0.7865729493    -2.4768167060    -0.4057750320
| 11>  C        0.4116938595    -2.2100859398    -1.3409984526
| 12>  C       -0.1961282686    -0.7909176695    -1.3229137919
| 13>  O       -1.5063079750    -1.3711131455    -1.0268223345
| 14>  H       -0.5087265456     1.5363032532     1.2476049836
| 15>  H       -0.9155839064     1.8068819875    -0.5154541030
| 16>  H        1.5581791840     1.4417879835    -1.0968026963
| 17>  H        1.9099834946     1.1758359395     0.6773191652
| 18>  H        0.0502449243    -2.8390688914     1.5786531030
| 19>  H       -1.3889997147    -1.7805979976     1.5350048727
| 20>  H       -1.3349193081    -3.4212475750    -0.4532089534
| 21>  H        1.4217079582    -2.3471538381    -0.9528261381
| 22>  H        0.2864157315    -2.6939421528    -2.3097675983
| 23>  H       -0.2023130889    -0.1707399868    -2.2223575744
| 24> *
| 25>
| 26>                          ****END OF INPUT****

CARTESIAN COORDINATES (ANGSTROEM)
---------------------------------
  C     -0.271830    1.323477    0.211699
  C      1.192070    1.106512   -0.132064
  C      0.251895   -0.054426   -0.085828
  O      0.450313   -0.937490    1.000072
  C     -0.454298   -2.044012    1.018798
  C     -0.786573   -2.476817   -0.405775
  C      0.411694   -2.210086   -1.340998
  C     -0.196128   -0.790918   -1.322914
  O     -1.506308   -1.371113   -1.026822
  H     -0.508727    1.536303    1.247605
  H     -0.915584    1.806882   -0.515454
  H      1.558179    1.441788   -1.096803
  H      1.909983    1.175836    0.677319
  H      0.050245   -2.839069    1.578653
  H     -1.389000   -1.780598    1.535005
  H     -1.334919   -3.421248   -0.453209
  H      1.421708   -2.347154   -0.952826
  H      0.286416   -2.693942   -2.309768
  H     -0.202313   -0.170740   -2.222358

 Total Charge           Charge          ....    0
 Multiplicity           Mult            ....    1
 Number of Electrons    NEL             ....   68
 Basis Dimension        Dim             ....  339

ORBITAL ENERGIES
----------------

  NO   OCC          E(Eh)            E(eV)
   0   2.0000     -20.559297      -559.4469
   1   2.0000     -20.548132      -559.1431
   2   2.0000     -11.290981      -307.2432
   3   2.0000     -11.289040      -307.1904
   4   2.0000     -11.286022      -307.1083
   5   2.0000     -11.278128      -306.8935
   6   2.0000     -11.233214      -305.6713
   7   2.0000     -11.227070      -305.5041
   8   2.0000     -11.223366      -305.4033
   9   2.0000      -1.405547       -38.2469
  10   2.0000      -1.357126       -36.9293
  11   2.0000      -1.139025       -30.9944
  12   2.0000      -1.028123       -27.9767
  13   2.0000      -0.987371       -26.8677
  14   2.0000      -0.888068       -24.1656
  15   2.0000      -0.829640       -22.5757
  16   2.0000      -0.825724       -22.4691
  17   2.0000      -0.717196       -19.5159
  18   2.0000      -0.712287       -19.3823
  19   2.0000      -0.674319       -18.3492
  20   2.0000      -0.655281       -17.8311
  21   2.0000      -0.643918       -17.5219
  22   2.0000      -0.597028       -16.2460
  23   2.0000      -0.588247       -16.0070
  24   2.0000      -0.566615       -15.4184
  25   2.0000      -0.554859       -15.0985
  26   2.0000      -0.533852       -14.5269
  27   2.0000      -0.517259       -14.0753
  28   2.0000      -0.491567       -13.3762
  29   2.0000      -0.471142       -12.8204
  30   2.0000      -0.463853       -12.6221
  31   2.0000      -0.430357       -11.7106
  32   2.0000      -0.397026       -10.8036
  33   2.0000      -0.381274       -10.3750
  34   0.0000       0.146606         3.9894
  35   0.0000       0.154308         4.1989
  36   0.0000       0.166045         4.5183
  37   0.0000       0.176351         4.7988
  38   0.0000       0.188914         5.1406

MULLIKEN ATOMIC CHARGES
-----------------------
   0 C :   -0.298245
   1 C :   -0.292990
   2 C :    0.156742
   3 O :   -0.309957
   4 C :   -0.041549
   5 C :    0.022560
   6 C :   -0.254764
   7 C :    0.094404
   8 O :   -0.330463
   9 H :    0.133746
  10 H :    0.127855
  11 H :    0.130582
  12 H :    0.133288
  13 H :    0.116684
  14 H :    0.094958
  15 H :    0.119110
  16 H :    0.139769
  17 H :    0.128403
  18 H :    0.129867
Sum of atomic charges:    0.0000000

LOEWDIN ATOMIC CHARGES
----------------------
   0 C :   -0.201077
   1 C :   -0.200292
   2 C :   -0.325805
   3 O :    0.204239
   4 C :   -0.281477
   5 C :   -0.281206
   6 C :   -0.194418
   7 C :   -0.233971
   8 O :    0.153263
   9 H :    0.139002
  10 H :    0.134662
  11 H :    0.134001
  12 H :    0.140467
  13 H :    0.132083
  14 H :    0.129088
  15 H :    0.134946
  16 H :    0.136538
  17 H :    0.138680
  18 H :    0.141279

  Mayer bond orders larger than 0.1
B(  0-C ,  1-C ) :   0.9486 B(  0-C ,  2-C ) :   0.8598 B(  0-C ,  9-H ) :   0.9214
B(  0-C , 10-H ) :   0.9140 B(  1-C ,  2-C ) :   0.8484 B(  1-C , 11-H ) :   0.9199
B(  1-C , 12-H ) :   0.9140 B(  2-C ,  3-O ) :   0.9905 B(  2-C ,  7-C ) :   0.9354
B(  3-O ,  4-C ) :   0.9225 B(  4-C ,  5-C ) :   0.9446 B(  4-C , 13-H ) :   0.9191
B(  4-C , 14-H ) :   0.9128 B(  5-C ,  6-C ) :   0.9596 B(  5-C ,  8-O ) :   0.9282
B(  5-C , 15-H ) :   0.9105 B(  6-C ,  7-C ) :   0.9223 B(  6-C , 16-H ) :   0.9212
B(  6-C , 17-H ) :   0.9257 B(  7-C ,  8-O ) :   0.9233 B(  7-C , 18-H ) :   0.8946

MP2 TOTAL ENERGY:     -422.282874823 Eh
FINAL SINGLE POINT ENERGY      -422.282874822592

DIPOLE MOMENT
-------------
                                X             Y             Z
Electronic contribution:     -1.52726      -1.32903       0.07628
Nuclear contribution   :      1.86916       1.03975      -0.29290
                        -----------------------------------------
Total Dipole Moment    :      0.34189      -0.28928      -0.21662
                        -----------------------------------------
Magnitude (a.u.)       :      0.49749
Magnitude (Debye)      :      1.26452

                             ****ORCA TERMINATED NORMALLY****
TOTAL RUN TIME: 0 days 0 hours 17 minutes 37 seconds 319 msec
