                         Program Version 3.0.3 - RELEASE   -
|  1> ! RI-MP2 RIJK def2-TZVP def2-TZVP/C def2-TZVP/JK TIGHTSCF
|  2> % maxcore 2000
|  3> % mp2 density relaxed end
|  4> *xyz 0 1
|  5>  O        0.1105463039     1.4290925205     0.1382537580
|  6>  C        0.0459324712     0.0161766972     0.2125138755
|  7>  C       -1.3608959210    -0.5246146600    -0.1011270516
|  8>  C       -1.4296385118    -2.0144505748    -0.0102174610
|  9>  C       -1.9357826493    -2.8272397642     0.9785233937
| 10>  N       -1.6874605468    -4.0817266059     0.5334924691
| 11>  N       -1.0651334411    -4.0682543374    -0.6583745297
| 12>  N       -0.9073496947    -2.8194213570    -0.9864808533
| 13>  H       -0.0003278725     1.6811255147    -0.7840363705
| 14>  H        0.7768858445    -0.4650860431    -0.4528695487
| 15>  H        0.3197203190    -0.2442311219     1.2404369357
| 16>  H       -2.0779759276    -0.0641010591     0.5854473419
| 17>  H       -1.6382399596    -0.2177245756    -1.1170473576
| 18>  H       -2.4323912674    -2.6263454176     1.9127291240
| 19>  H       -1.9127027668    -4.9650244958     0.9624162946
| 20> *
| 21>
| 22>                          ****END OF INPUT****

CARTESIAN COORDINATES (ANGSTROEM)
---------------------------------
  O      0.110546    1.429093    0.138254
  C      0.045932    0.016177    0.212514
  C     -1.360896   -0.524615   -0.101127
  C     -1.429639   -2.014451   -0.010217
  C     -1.935783   -2.827240    0.978523
  N     -1.687461   -4.081727    0.533492
  N     -1.065133   -4.068254   -0.658375
  N     -0.907350   -2.819421   -0.986481
  H     -0.000328    1.681126   -0.784036
  H      0.776886   -0.465086   -0.452870
  H      0.319720   -0.244231    1.240437
  H     -2.077976   -0.064101    0.585447
  H     -1.638240   -0.217725   -1.117047
  H     -2.432391   -2.626345    1.912729
  H     -1.912703   -4.965024    0.962416

 Total Charge           Charge          ....    0
 Multiplicity           Mult            ....    1
 Number of Electrons    NEL             ....   60
 Basis Dimension        Dim             ....  290

ORBITAL ENERGIES
----------------

  NO   OCC          E(Eh)            E(eV)
   0   2.0000     -20.556727      -559.3770
   1   2.0000     -15.661457      -426.1699
   2   2.0000     -15.644607      -425.7114
   3   2.0000     -15.596691      -424.4075
   4   2.0000     -11.286569      -307.1232
   5   2.0000     -11.277232      -306.8691
   6   2.0000     -11.263888      -306.5060
   7   2.0000     -11.237706      -305.7935
   8   2.0000      -1.440059       -39.1860
   9   2.0000      -1.361439       -37.0466
  10   2.0000      -1.204989       -32.7894
  11   2.0000      -1.107998       -30.1502
  12   2.0000      -1.010300       -27.4917
  13   2.0000      -0.877469       -23.8771
  14   2.0000      -0.868374       -23.6297
  15   2.0000      -0.809021       -22.0146
  16   2.0000      -0.750435       -20.4204
  17   2.0000      -0.695444       -18.9240
  18   2.0000      -0.650632       -17.7046
  19   2.0000      -0.641299       -17.4506
  20   2.0000      -0.621099       -16.9010
  21   2.0000      -0.607810       -16.5394
  22   2.0000      -0.563810       -15.3420
  23   2.0000      -0.541562       -14.7367
  24   2.0000      -0.513943       -13.9851
  25   2.0000      -0.488917       -13.3041
  26   2.0000      -0.453839       -12.3496
  27   2.0000      -0.439637       -11.9631
  28   2.0000      -0.419104       -11.4044
  29   2.0000      -0.353082        -9.6078
  30   0.0000       0.123447         3.3592
  31   0.0000       0.132571         3.6074
  32   0.0000       0.137260         3.7350
  33   0.0000       0.156914         4.2698
  34   0.0000       0.182440         4.9644

MULLIKEN ATOMIC CHARGES
-----------------------
   0 O :   -0.470468
   1 C :   -0.047104
   2 C :   -0.248010
   3 C :    0.034125
   4 C :   -0.140425
   5 N :   -0.060551
   6 N :   -0.146567
   7 N :   -0.156392
   8 H :    0.316794
   9 H :    0.127547
  10 H :    0.109528
  11 H :    0.125945
  12 H :    0.125425
  13 H :    0.165643
  14 H :    0.264510
Sum of atomic charges:    0.0000000

LOEWDIN ATOMIC CHARGES
----------------------
   0 O :   -0.049162
   1 C :   -0.341109
   2 C :   -0.244775
   3 C :   -0.284607
   4 C :   -0.229056
   5 N :    0.122052
   6 N :   -0.052550
   7 N :    0.025860
   8 H :    0.174427
   9 H :    0.122061
  10 H :    0.128081
  11 H :    0.146740
  12 H :    0.148111
  13 H :    0.142595
  14 H :    0.191332

  Mayer bond orders larger than 0.1
B(  0-O ,  1-C ) :   0.9351 B(  0-O ,  8-H ) :   0.8470 B(  1-C ,  2-C ) :   0.9093
B(  1-C ,  9-H ) :   0.9405 B(  1-C , 10-H ) :   0.9242 B(  2-C ,  3-C ) :   0.8650
B(  2-C , 11-H ) :   0.9397 B(  2-C , 12-H ) :   0.9282 B(  3-C ,  4-C ) :   1.4434
B(  3-C ,  7-N ) :   1.3478 B(  4-C ,  5-N ) :   1.1969 B(  4-C ,  6-N ) :   0.1322
B(  4-C , 13-H ) :   0.9027 B(  5-N ,  6-N ) :   1.0619 B(  5-N , 14-H ) :   0.8629
B(  6-N ,  7-N ) :   1.2918

MP2 TOTAL ENERGY:     -395.332716432 Eh
FINAL SINGLE POINT ENERGY      -395.332716432067

DIPOLE MOMENT
-------------
                                X             Y             Z
Electronic contribution:     -0.91370      -5.64757      -1.07841
Nuclear contribution   :      0.02303       5.26921       2.08245
                        -----------------------------------------
Total Dipole Moment    :     -0.89067      -0.37837       1.00404
                        -----------------------------------------
Magnitude (a.u.)       :      1.39448
Magnitude (Debye)      :      3.54448

                             ****ORCA TERMINATED NORMALLY****
TOTAL RUN TIME: 0 days 0 hours 10 minutes 6 seconds 577 msec
