                         Program Version 3.0.3 - RELEASE   -
|  1> ! RI-MP2 RIJK def2-TZVP def2-TZVP/C def2-TZVP/JK TIGHTSCF
|  2> % maxcore 2000
|  3> % mp2 density relaxed end
|  4> *xyz 0 1
|  5>  O       -0.0269312430     0.0579151487     0.0278793632
|  6>  C       -0.0423504029     1.2466422944     0.0825347746
|  7>  C       -1.0831031309     2.3134445486     0.0388390030
|  8>  C       -0.4142503471     3.5586664139     0.6188666033
|  9>  N        0.8778396802     3.1194867994     1.2036825277
| 10>  C        1.0594634751     2.3530684925    -0.0893006336
| 11>  C        2.3782494587     2.0888447654    -0.5789860701
| 12>  N        3.4391671034     1.8811265743    -0.9889272269
| 13>  C       -0.0937384984     3.1954925309    -0.7858242274
| 14>  H       -2.1524260211     2.2210884243    -0.0838824059
| 15>  H       -1.0043940599     4.3688004934     1.0256539179
| 16>  H        1.5107363689     3.9194960862     1.1687479320
| 17>  H       -0.2240659129     3.6134943079    -1.7735007377
| 18> *
| 19>
| 20>                          ****END OF INPUT****

CARTESIAN COORDINATES (ANGSTROEM)
---------------------------------
  O     -0.026931    0.057915    0.027879
  C     -0.042350    1.246642    0.082535
  C     -1.083103    2.313445    0.038839
  C     -0.414250    3.558666    0.618867
  N      0.877840    3.119487    1.203683
  C      1.059463    2.353068   -0.089301
  C      2.378249    2.088845   -0.578986
  N      3.439167    1.881127   -0.988927
  C     -0.093738    3.195493   -0.785824
  H     -2.152426    2.221088   -0.083882
  H     -1.004394    4.368800    1.025654
  H      1.510736    3.919496    1.168748
  H     -0.224066    3.613494   -1.773501

 Total Charge           Charge          ....    0
 Multiplicity           Mult            ....    1
 Number of Electrons    NEL             ....   62
 Basis Dimension        Dim             ....  303

ORBITAL ENERGIES
----------------

  NO   OCC          E(Eh)            E(eV)
   0   2.0000     -20.573368      -559.8298
   1   2.0000     -15.606434      -424.6727
   2   2.0000     -15.596298      -424.3968
   3   2.0000     -11.371102      -309.4234
   4   2.0000     -11.349054      -308.8235
   5   2.0000     -11.325393      -308.1796
   6   2.0000     -11.304617      -307.6143
   7   2.0000     -11.293681      -307.3167
   8   2.0000     -11.289787      -307.2107
   9   2.0000      -1.425029       -38.7770
  10   2.0000      -1.343973       -36.5714
  11   2.0000      -1.237169       -33.6651
  12   2.0000      -1.137826       -30.9618
  13   2.0000      -1.026729       -27.9387
  14   2.0000      -0.922755       -25.1094
  15   2.0000      -0.840782       -22.8788
  16   2.0000      -0.816901       -22.2290
  17   2.0000      -0.743933       -20.2434
  18   2.0000      -0.675923       -18.3928
  19   2.0000      -0.669943       -18.2301
  20   2.0000      -0.660885       -17.9836
  21   2.0000      -0.625994       -17.0342
  22   2.0000      -0.605982       -16.4896
  23   2.0000      -0.573032       -15.5930
  24   2.0000      -0.556895       -15.1539
  25   2.0000      -0.523663       -14.2496
  26   2.0000      -0.501774       -13.6540
  27   2.0000      -0.469821       -12.7845
  28   2.0000      -0.455598       -12.3974
  29   2.0000      -0.427850       -11.6424
  30   2.0000      -0.404535       -11.0080
  31   0.0000       0.108628         2.9559
  32   0.0000       0.124512         3.3882
  33   0.0000       0.134694         3.6652
  34   0.0000       0.142589         3.8800
  35   0.0000       0.158224         4.3055

MULLIKEN ATOMIC CHARGES
-----------------------
   0 O :   -0.227914
   1 C :    0.164879
   2 C :   -0.133286
   3 C :   -0.048039
   4 N :   -0.306853
   5 C :    0.248523
   6 C :   -0.229404
   7 N :   -0.023298
   8 C :   -0.186166
   9 H :    0.170952
  10 H :    0.164090
  11 H :    0.223512
  12 H :    0.183004
Sum of atomic charges:   -0.0000000

LOEWDIN ATOMIC CHARGES
----------------------
   0 O :    0.190677
   1 C :   -0.263484
   2 C :   -0.099357
   3 C :   -0.194371
   4 N :    0.053798
   5 C :   -0.197275
   6 C :   -0.143961
   7 N :    0.099083
   8 C :   -0.067832
   9 H :    0.151739
  10 H :    0.145703
  11 H :    0.179184
  12 H :    0.146096

  Mayer bond orders larger than 0.1
B(  0-O ,  1-C ) :   2.0776 B(  1-C ,  2-C ) :   0.9707 B(  1-C ,  5-C ) :   0.7842
B(  2-C ,  3-C ) :   0.8294 B(  2-C ,  5-C ) :  -0.1015 B(  2-C ,  8-C ) :   0.7903
B(  2-C ,  9-H ) :   0.9036 B(  3-C ,  4-N ) :   0.9183 B(  3-C ,  8-C ) :   0.9231
B(  3-C , 10-H ) :   0.9217 B(  4-N ,  5-C ) :   0.9398 B(  4-N , 11-H ) :   0.8633
B(  5-C ,  6-C ) :   0.8614 B(  5-C ,  8-C ) :   0.8740 B(  6-C ,  7-N ) :   2.8491
B(  8-C , 12-H ) :   0.8798

MP2 TOTAL ENERGY:     -414.842610573 Eh
FINAL SINGLE POINT ENERGY      -414.842610572615

DIPOLE MOMENT
-------------
                                X             Y             Z
Electronic contribution:      2.70850      -3.18913      -0.56477
Nuclear contribution   :     -4.24228       5.02211       0.46816
                        -----------------------------------------
Total Dipole Moment    :     -1.53378       1.83299      -0.09660
                        -----------------------------------------
Magnitude (a.u.)       :      2.39200
Magnitude (Debye)      :      6.07997

                             ****ORCA TERMINATED NORMALLY****
TOTAL RUN TIME: 0 days 0 hours 14 minutes 3 seconds 89 msec
