                         Program Version 3.0.3 - RELEASE   -
|  1> ! RI-MP2 RIJK def2-TZVP def2-TZVP/C def2-TZVP/JK TIGHTSCF
|  2> % maxcore 2000
|  3> % mp2 density relaxed end
|  4> *xyz 0 1
|  5>  C        0.0106275567     1.5123476449    -0.0197487196
|  6>  C        0.0170071332    -0.0171432720     0.1026093941
|  7>  C        0.7993739691    -0.4985749603     1.3300000175
|  8>  C       -1.4088635318    -0.5537460321     0.0913612808
|  9>  O       -1.4207358244    -1.9666188782     0.0818744276
| 10>  C       -2.5609661122    -2.3783423712     0.8070116647
| 11>  C       -2.8858501818    -1.1932715161     1.7089035555
| 12>  O       -3.6443816218    -1.1281830699     2.6282400045
| 13>  O       -2.1297742545    -0.1541533239     1.2688398948
| 14>  H        1.0335811608     1.8944067115    -0.0799969251
| 15>  H       -0.5237158092     1.8436990710    -0.9165598117
| 16>  H       -0.4717268539     1.9702014501     0.8492177171
| 17>  H        0.4796440668    -0.4403489672    -0.7991434922
| 18>  H        0.3692371537    -0.0925320655     2.2504513991
| 19>  H        0.7913577482    -1.5890415241     1.3977885332
| 20>  H        1.8397279246    -0.1668226430     1.2689455688
| 21>  H       -1.9673964802    -0.1618410815    -0.7748277101
| 22>  H       -3.4212604741    -2.5915041210     0.1540560263
| 23>  H       -2.3326158994    -3.2719678014     1.3919340548
| 24> *
| 25>
| 26>                          ****END OF INPUT****

CARTESIAN COORDINATES (ANGSTROEM)
---------------------------------
  C      0.010628    1.512348   -0.019749
  C      0.017007   -0.017143    0.102609
  C      0.799374   -0.498575    1.330000
  C     -1.408864   -0.553746    0.091361
  O     -1.420736   -1.966619    0.081874
  C     -2.560966   -2.378342    0.807012
  C     -2.885850   -1.193272    1.708904
  O     -3.644382   -1.128183    2.628240
  O     -2.129774   -0.154153    1.268840
  H      1.033581    1.894407   -0.079997
  H     -0.523716    1.843699   -0.916560
  H     -0.471727    1.970201    0.849218
  H      0.479644   -0.440349   -0.799143
  H      0.369237   -0.092532    2.250451
  H      0.791358   -1.589042    1.397789
  H      1.839728   -0.166823    1.268946
  H     -1.967396   -0.161841   -0.774828
  H     -3.421260   -2.591504    0.154056
  H     -2.332616   -3.271968    1.391934

 Total Charge           Charge          ....    0
 Multiplicity           Mult            ....    1
 Number of Electrons    NEL             ....   70
 Basis Dimension        Dim             ....  339

ORBITAL ENERGIES
----------------

  NO   OCC          E(Eh)            E(eV)
   0   2.0000     -20.614993      -560.9625
   1   2.0000     -20.594507      -560.4050
   2   2.0000     -20.555074      -559.3320
   3   2.0000     -11.391967      -309.9912
   4   2.0000     -11.361086      -309.1509
   5   2.0000     -11.315716      -307.9163
   6   2.0000     -11.246337      -306.0284
   7   2.0000     -11.225298      -305.4559
   8   2.0000     -11.219652      -305.3023
   9   2.0000      -1.497556       -40.7506
  10   2.0000      -1.412644       -38.4400
  11   2.0000      -1.364038       -37.1174
  12   2.0000      -1.104962       -30.0675
  13   2.0000      -1.013300       -27.5733
  14   2.0000      -0.942746       -25.6534
  15   2.0000      -0.913894       -24.8683
  16   2.0000      -0.830470       -22.5982
  17   2.0000      -0.801386       -21.8068
  18   2.0000      -0.746034       -20.3006
  19   2.0000      -0.699783       -19.0421
  20   2.0000      -0.663628       -18.0582
  21   2.0000      -0.654617       -17.8130
  22   2.0000      -0.637985       -17.3605
  23   2.0000      -0.610785       -16.6203
  24   2.0000      -0.601529       -16.3684
  25   2.0000      -0.593014       -16.1367
  26   2.0000      -0.557857       -15.1801
  27   2.0000      -0.552977       -15.0473
  28   2.0000      -0.542314       -14.7571
  29   2.0000      -0.518082       -14.0977
  30   2.0000      -0.491345       -13.3702
  31   2.0000      -0.487964       -13.2782
  32   2.0000      -0.480613       -13.0782
  33   2.0000      -0.450626       -12.2622
  34   2.0000      -0.445486       -12.1223
  35   0.0000       0.126100         3.4314
  36   0.0000       0.147838         4.0229
  37   0.0000       0.157612         4.2889
  38   0.0000       0.163802         4.4573
  39   0.0000       0.176044         4.7904

MULLIKEN ATOMIC CHARGES
-----------------------
   0 C :   -0.424112
   1 C :    0.021274
   2 C :   -0.454221
   3 C :    0.201823
   4 O :   -0.313414
   5 C :   -0.071927
   6 C :    0.235459
   7 O :   -0.276533
   8 O :   -0.237902
   9 H :    0.138549
  10 H :    0.129831
  11 H :    0.148280
  12 H :    0.100357
  13 H :    0.143702
  14 H :    0.145449
  15 H :    0.136828
  16 H :    0.099199
  17 H :    0.128304
  18 H :    0.149055
Sum of atomic charges:   -0.0000000

LOEWDIN ATOMIC CHARGES
----------------------
   0 C :   -0.288054
   1 C :   -0.292034
   2 C :   -0.290773
   3 C :   -0.336495
   4 O :    0.187764
   5 C :   -0.276737
   6 C :   -0.473024
   7 O :    0.147969
   8 O :    0.279164
   9 H :    0.126691
  10 H :    0.124223
  11 H :    0.129904
  12 H :    0.161875
  13 H :    0.128478
  14 H :    0.127199
  15 H :    0.126211
  16 H :    0.134670
  17 H :    0.139094
  18 H :    0.143876

  Mayer bond orders larger than 0.1
B(  0-C ,  1-C ) :   0.9118 B(  0-C ,  9-H ) :   0.9372 B(  0-C , 10-H ) :   0.9355
B(  0-C , 11-H ) :   0.9294 B(  1-C ,  2-C ) :   0.9101 B(  1-C ,  3-C ) :   0.9133
B(  1-C , 12-H ) :   0.9188 B(  2-C , 13-H ) :   0.9319 B(  2-C , 14-H ) :   0.9350
B(  2-C , 15-H ) :   0.9349 B(  3-C ,  4-O ) :   0.9757 B(  3-C ,  8-O ) :   0.9088
B(  3-C , 16-H ) :   0.9283 B(  4-O ,  5-C ) :   0.9295 B(  5-C ,  6-C ) :   0.9326
B(  5-C , 17-H ) :   0.9079 B(  5-C , 18-H ) :   0.9145 B(  6-C ,  7-O ) :   2.0459
B(  6-C ,  8-O ) :   1.0888

MP2 TOTAL ENERGY:     -459.476909665 Eh
FINAL SINGLE POINT ENERGY      -459.476909665374

DIPOLE MOMENT
-------------
                                X             Y             Z
Electronic contribution:     -9.22141      -4.34404       2.97526
Nuclear contribution   :      9.83914       4.18423      -3.94672
                        -----------------------------------------
Total Dipole Moment    :      0.61773      -0.15982      -0.97146
                        -----------------------------------------
Magnitude (a.u.)       :      1.16227
Magnitude (Debye)      :      2.95426

                             ****ORCA TERMINATED NORMALLY****
TOTAL RUN TIME: 0 days 0 hours 18 minutes 4 seconds 996 msec
