                         Program Version 3.0.3 - RELEASE   -
|  1> ! RI-MP2 RIJK def2-TZVP def2-TZVP/C def2-TZVP/JK TIGHTSCF
|  2> % maxcore 2000
|  3> % mp2 density relaxed end
|  4> *xyz 0 1
|  5>  C        0.0973004185     1.4816136753     0.0576865367
|  6>  C       -0.0626277248    -0.0024491050    -0.0271055468
|  7>  C       -0.1232997650    -0.7681300458    -1.1324114836
|  8>  C       -0.0323351377    -2.2038714283    -0.7102922684
|  9>  O        1.3605761724    -2.3879461459    -0.1860119372
| 10>  C        0.8685482355    -2.1547800788     1.1082165799
| 11>  C       -0.0770310903    -0.8877474440     1.1670304818
| 12>  C       -0.5707474853    -2.2606563550     0.7604168585
| 13>  C       -1.7452915909    -3.0097152841     1.3085231609
| 14>  H        1.0593620849     1.7471097927     0.5136180755
| 15>  H        0.0523175333     1.9458637340    -0.9309307855
| 16>  H       -0.6816045154     1.9333376676     0.6845765241
| 17>  H       -0.0320955015    -0.4255820375    -2.1553646209
| 18>  H       -0.2745166891    -2.9931272616    -1.4208914498
| 19>  H        1.4765500703    -2.4645751253     1.9505206083
| 20>  H       -0.3020224172    -0.5132015823     2.1602953663
| 21>  H       -2.6878727711    -2.6120007505     0.9147869001
| 22>  H       -1.6958732904    -4.0751624121     1.0578646498
| 23>  H       -1.7804409863    -2.9248965934     2.3995882904
| 24> *
| 25>
| 26>                          ****END OF INPUT****

CARTESIAN COORDINATES (ANGSTROEM)
---------------------------------
  C      0.097300    1.481614    0.057687
  C     -0.062628   -0.002449   -0.027106
  C     -0.123300   -0.768130   -1.132411
  C     -0.032335   -2.203871   -0.710292
  O      1.360576   -2.387946   -0.186012
  C      0.868548   -2.154780    1.108217
  C     -0.077031   -0.887747    1.167030
  C     -0.570747   -2.260656    0.760417
  C     -1.745292   -3.009715    1.308523
  H      1.059362    1.747110    0.513618
  H      0.052318    1.945864   -0.930931
  H     -0.681605    1.933338    0.684577
  H     -0.032096   -0.425582   -2.155365
  H     -0.274517   -2.993127   -1.420891
  H      1.476550   -2.464575    1.950521
  H     -0.302022   -0.513202    2.160295
  H     -2.687873   -2.612001    0.914787
  H     -1.695873   -4.075162    1.057865
  H     -1.780441   -2.924897    2.399588

 Total Charge           Charge          ....    0
 Multiplicity           Mult            ....    1
 Number of Electrons    NEL             ....   66
 Basis Dimension        Dim             ....  339

ORBITAL ENERGIES
----------------

  NO   OCC          E(Eh)            E(eV)
   0   2.0000     -20.546652      -559.1028
   1   2.0000     -11.288454      -307.1745
   2   2.0000     -11.288113      -307.1652
   3   2.0000     -11.241744      -305.9034
   4   2.0000     -11.239681      -305.8473
   5   2.0000     -11.233008      -305.6657
   6   2.0000     -11.228766      -305.5503
   7   2.0000     -11.225292      -305.4557
   8   2.0000     -11.210031      -305.0404
   9   2.0000      -1.387940       -37.7678
  10   2.0000      -1.152531       -31.3620
  11   2.0000      -1.059954       -28.8428
  12   2.0000      -0.986464       -26.8430
  13   2.0000      -0.969535       -26.3824
  14   2.0000      -0.883538       -24.0423
  15   2.0000      -0.820861       -22.3368
  16   2.0000      -0.747812       -20.3490
  17   2.0000      -0.705856       -19.2073
  18   2.0000      -0.680223       -18.5098
  19   2.0000      -0.639164       -17.3925
  20   2.0000      -0.608042       -16.5457
  21   2.0000      -0.581767       -15.8307
  22   2.0000      -0.574478       -15.6324
  23   2.0000      -0.569180       -15.4882
  24   2.0000      -0.557941       -15.1823
  25   2.0000      -0.548294       -14.9198
  26   2.0000      -0.545780       -14.8514
  27   2.0000      -0.500371       -13.6158
  28   2.0000      -0.497035       -13.5250
  29   2.0000      -0.448641       -12.2082
  30   2.0000      -0.410789       -11.1781
  31   2.0000      -0.367584       -10.0025
  32   2.0000      -0.324474        -8.8294
  33   0.0000       0.131629         3.5818
  34   0.0000       0.143085         3.8935
  35   0.0000       0.154792         4.2121
  36   0.0000       0.177977         4.8430
  37   0.0000       0.178394         4.8544

MULLIKEN ATOMIC CHARGES
-----------------------
   0 C :   -0.455328
   1 C :    0.037269
   2 C :   -0.251710
   3 C :    0.142049
   4 O :   -0.315699
   5 C :    0.014011
   6 C :   -0.148062
   7 C :    0.023098
   8 C :   -0.402949
   9 H :    0.147205
  10 H :    0.140258
  11 H :    0.139795
  12 H :    0.128259
  13 H :    0.124645
  14 H :    0.132657
  15 H :    0.128676
  16 H :    0.142003
  17 H :    0.140415
  18 H :    0.133410
Sum of atomic charges:   -0.0000000

LOEWDIN ATOMIC CHARGES
----------------------
   0 C :   -0.269371
   1 C :   -0.156966
   2 C :   -0.131733
   3 C :   -0.157272
   4 O :    0.171897
   5 C :   -0.220486
   6 C :   -0.125946
   7 C :   -0.187015
   8 C :   -0.272603
   9 H :    0.134874
  10 H :    0.131284
  11 H :    0.130865
  12 H :    0.137267
  13 H :    0.137168
  14 H :    0.133100
  15 H :    0.149920
  16 H :    0.131991
  17 H :    0.130310
  18 H :    0.132716

  Mayer bond orders larger than 0.1
B(  0-C ,  1-C ) :   0.8687 B(  0-C ,  9-H ) :   0.9290 B(  0-C , 10-H ) :   0.9523
B(  0-C , 11-H ) :   0.9372 B(  1-C ,  2-C ) :   1.7187 B(  1-C ,  6-C ) :   0.9660
B(  2-C ,  3-C ) :   0.9613 B(  2-C , 12-H ) :   0.9199 B(  3-C ,  4-O ) :   0.8487
B(  3-C ,  7-C ) :   0.9212 B(  3-C , 13-H ) :   0.9267 B(  4-O ,  5-C ) :   1.0322
B(  5-C ,  6-C ) :   0.7763 B(  5-C ,  7-C ) :   0.9386 B(  5-C , 14-H ) :   0.9192
B(  6-C ,  7-C ) :   0.8384 B(  6-C , 15-H ) :   0.9202 B(  7-C ,  8-C ) :   0.8406
B(  8-C , 16-H ) :   0.9388 B(  8-C , 17-H ) :   0.9424 B(  8-C , 18-H ) :   0.9357

MP2 TOTAL ENERGY:     -385.172571333 Eh
FINAL SINGLE POINT ENERGY      -385.172571333495

DIPOLE MOMENT
-------------
                                X             Y             Z
Electronic contribution:      3.71322      -2.88073      -1.92102
Nuclear contribution   :     -4.32208       3.02667       2.33998
                        -----------------------------------------
Total Dipole Moment    :     -0.60886       0.14594       0.41896
                        -----------------------------------------
Magnitude (a.u.)       :      0.75335
Magnitude (Debye)      :      1.91487

                             ****ORCA TERMINATED NORMALLY****
TOTAL RUN TIME: 0 days 0 hours 18 minutes 55 seconds 447 msec
