                         Program Version 3.0.3 - RELEASE   -
|  1> ! RI-MP2 RIJK def2-TZVP def2-TZVP/C def2-TZVP/JK TIGHTSCF
|  2> % maxcore 2000
|  3> % mp2 density relaxed end
|  4> *xyz 0 1
|  5>  O        0.0472688818     1.3708629533     0.3270823503
|  6>  C        0.0640930804     0.0198392620    -0.0962340369
|  7>  C       -1.3483100432    -0.5677587297    -0.0656383482
|  8>  C       -1.5909278399    -2.1174561423    -0.0883393232
|  9>  O       -0.4862480526    -2.8177610732     0.4222317025
| 10>  C       -2.6822199141    -1.9456931489     1.0356222814
| 11>  O       -2.6747480479    -2.9003363626     2.0614269849
| 12>  C       -2.0051649025    -0.6028524222     1.3125572316
| 13>  O       -1.7983900193    -0.0216917317     2.3463569074
| 14>  H       -0.2641578252     1.3721059522     1.2408086184
| 15>  H        0.4607893752     0.0119781909    -1.1159918807
| 16>  H        0.7225227071    -0.6012735475     0.5232943601
| 17>  H       -1.9932918247    -0.0639756364    -0.7936521142
| 18>  H       -1.9391468800    -2.5363033292    -1.0383530671
| 19>  H       -0.8385646342    -3.4168673952     1.0968260936
| 20>  H       -3.6840279334    -1.8303003766     0.6041503811
| 21>  H       -2.3960267177    -2.4495109330     2.8693897890
| 22> *
| 23>
| 24>                          ****END OF INPUT****

CARTESIAN COORDINATES (ANGSTROEM)
---------------------------------
  O      0.047269    1.370863    0.327082
  C      0.064093    0.019839   -0.096234
  C     -1.348310   -0.567759   -0.065638
  C     -1.590928   -2.117456   -0.088339
  O     -0.486248   -2.817761    0.422232
  C     -2.682220   -1.945693    1.035622
  O     -2.674748   -2.900336    2.061427
  C     -2.005165   -0.602852    1.312557
  O     -1.798390   -0.021692    2.346357
  H     -0.264158    1.372106    1.240809
  H      0.460789    0.011978   -1.115992
  H      0.722523   -0.601274    0.523294
  H     -1.993292   -0.063976   -0.793652
  H     -1.939147   -2.536303   -1.038353
  H     -0.838565   -3.416867    1.096826
  H     -3.684028   -1.830300    0.604150
  H     -2.396027   -2.449511    2.869390

 Total Charge           Charge          ....    0
 Multiplicity           Mult            ....    1
 Number of Electrons    NEL             ....   70
 Basis Dimension        Dim             ....  327

ORBITAL ENERGIES
----------------

  NO   OCC          E(Eh)            E(eV)
   0   2.0000     -20.599185      -560.5323
   1   2.0000     -20.583888      -560.1161
   2   2.0000     -20.577081      -559.9308
   3   2.0000     -20.554641      -559.3202
   4   2.0000     -11.356902      -309.0370
   5   2.0000     -11.317784      -307.9726
   6   2.0000     -11.314639      -307.8870
   7   2.0000     -11.285335      -307.0896
   8   2.0000     -11.260146      -306.4042
   9   2.0000      -1.433542       -39.0086
  10   2.0000      -1.407409       -38.2975
  11   2.0000      -1.381602       -37.5953
  12   2.0000      -1.360854       -37.0307
  13   2.0000      -1.143905       -31.1272
  14   2.0000      -0.987122       -26.8610
  15   2.0000      -0.878589       -23.9076
  16   2.0000      -0.869488       -23.6600
  17   2.0000      -0.779412       -21.2089
  18   2.0000      -0.729456       -19.8495
  19   2.0000      -0.719678       -19.5834
  20   2.0000      -0.707466       -19.2511
  21   2.0000      -0.683257       -18.5924
  22   2.0000      -0.662818       -18.0362
  23   2.0000      -0.630304       -17.1514
  24   2.0000      -0.605456       -16.4753
  25   2.0000      -0.588734       -16.0203
  26   2.0000      -0.585688       -15.9374
  27   2.0000      -0.568993       -15.4831
  28   2.0000      -0.554848       -15.0982
  29   2.0000      -0.532272       -14.4839
  30   2.0000      -0.516748       -14.0614
  31   2.0000      -0.472229       -12.8500
  32   2.0000      -0.460081       -12.5195
  33   2.0000      -0.438662       -11.9366
  34   2.0000      -0.418686       -11.3930
  35   0.0000       0.099973         2.7204
  36   0.0000       0.134964         3.6726
  37   0.0000       0.144049         3.9198
  38   0.0000       0.168642         4.5890
  39   0.0000       0.173485         4.7208

MULLIKEN ATOMIC CHARGES
-----------------------
   0 O :   -0.474177
   1 C :   -0.065311
   2 C :    0.002799
   3 C :   -0.003938
   4 O :   -0.481054
   5 C :    0.137689
   6 O :   -0.506360
   7 C :    0.007798
   8 O :   -0.288709
   9 H :    0.331419
  10 H :    0.118916
  11 H :    0.139077
  12 H :    0.135506
  13 H :    0.127450
  14 H :    0.336327
  15 H :    0.132786
  16 H :    0.349781
Sum of atomic charges:    0.0000000

LOEWDIN ATOMIC CHARGES
----------------------
   0 O :   -0.040069
   1 C :   -0.317169
   2 C :   -0.191818
   3 C :   -0.277839
   4 O :    0.000642
   5 C :   -0.288814
   6 O :   -0.004236
   7 C :   -0.296244
   8 O :    0.152607
   9 H :    0.176674
  10 H :    0.131969
  11 H :    0.127749
  12 H :    0.168986
  13 H :    0.128810
  14 H :    0.183977
  15 H :    0.151374
  16 H :    0.193402

  Mayer bond orders larger than 0.1
B(  0-O ,  1-C ) :   0.9258 B(  0-O ,  9-H ) :   0.8307 B(  1-C ,  2-C ) :   0.8956
B(  1-C , 10-H ) :   0.9307 B(  1-C , 11-H ) :   0.9270 B(  2-C ,  3-C ) :   0.8581
B(  2-C ,  4-O ) :  -0.1114 B(  2-C ,  7-C ) :   0.8403 B(  2-C , 12-H ) :   0.8798
B(  3-C ,  4-O ) :   1.0357 B(  3-C ,  5-C ) :   0.8729 B(  3-C , 13-H ) :   0.9512
B(  4-O , 14-H ) :   0.8105 B(  5-C ,  6-O ) :   0.9448 B(  5-C ,  7-C ) :   0.8813
B(  5-C , 15-H ) :   0.9130 B(  6-O , 16-H ) :   0.8197 B(  7-C ,  8-O ) :   1.9355

MP2 TOTAL ENERGY:     -495.333162999 Eh
FINAL SINGLE POINT ENERGY      -495.333162998601

DIPOLE MOMENT
-------------
                                X             Y             Z
Electronic contribution:     -1.60207       0.26288       2.94808
Nuclear contribution   :      0.88340      -0.85353      -3.10911
                        -----------------------------------------
Total Dipole Moment    :     -0.71867      -0.59065      -0.16103
                        -----------------------------------------
Magnitude (a.u.)       :      0.94407
Magnitude (Debye)      :      2.39965

                             ****ORCA TERMINATED NORMALLY****
TOTAL RUN TIME: 0 days 0 hours 14 minutes 52 seconds 2 msec
