                         Program Version 3.0.3 - RELEASE   -
|  1> ! RI-MP2 RIJK def2-TZVP def2-TZVP/C def2-TZVP/JK TIGHTSCF
|  2> % maxcore 2000
|  3> % mp2 density relaxed end
|  4> *xyz 0 1
|  5>  C        0.0126074040     1.5414644159    -0.0024428598
|  6>  C       -0.0236552435     0.0263336909     0.0519906237
|  7>  C       -1.1580277994    -0.6098339790    -0.7288759259
|  8>  C        1.3032496312    -0.7166946746     0.1035969802
|  9>  C        0.4042620547    -0.6543784446     1.3200310991
| 10>  O        0.7672335123     0.1511850663     2.3996085328
| 11>  C        1.7164180846    -0.4755844306     3.2497967127
| 12>  C        2.0781420628     0.4248084915     4.3360891546
| 13>  C        2.3950410514     1.1478991034     5.2408302390
| 14>  H        0.8015671021     1.9445773237     0.6346646570
| 15>  H        0.1806638854     1.8858096329    -1.0291965065
| 16>  H       -0.9385971778     1.9646734133     0.3401993775
| 17>  H       -1.0804902340    -0.3674335808    -1.7952009656
| 18>  H       -1.1515542434    -1.7006061060    -0.6362687172
| 19>  H       -2.1304501617    -0.2487327657    -0.3745209723
| 20>  H        1.4032250062    -1.6580514800    -0.4271851136
| 21>  H        2.2048980749    -0.1133520598     0.1331222271
| 22>  H       -0.1201457993    -1.5676310338     1.6096681038
| 23>  H        1.2999684521    -1.4088738961     3.6639915094
| 24>  H        2.6151931322    -0.7561440156     2.6782778191
| 25>  H        2.6704154952     1.7916898186     6.0392671247
| 26> *
| 27>
| 28>                          ****END OF INPUT****

CARTESIAN COORDINATES (ANGSTROEM)
---------------------------------
  C      0.012607    1.541464   -0.002443
  C     -0.023655    0.026334    0.051991
  C     -1.158028   -0.609834   -0.728876
  C      1.303250   -0.716695    0.103597
  C      0.404262   -0.654378    1.320031
  O      0.767234    0.151185    2.399609
  C      1.716418   -0.475584    3.249797
  C      2.078142    0.424808    4.336089
  C      2.395041    1.147899    5.240830
  H      0.801567    1.944577    0.634665
  H      0.180664    1.885810   -1.029197
  H     -0.938597    1.964673    0.340199
  H     -1.080490   -0.367434   -1.795201
  H     -1.151554   -1.700606   -0.636269
  H     -2.130450   -0.248733   -0.374521
  H      1.403225   -1.658051   -0.427185
  H      2.204898   -0.113352    0.133122
  H     -0.120146   -1.567631    1.609668
  H      1.299968   -1.408874    3.663992
  H      2.615193   -0.756144    2.678278
  H      2.670415    1.791690    6.039267

 Total Charge           Charge          ....    0
 Multiplicity           Mult            ....    1
 Number of Electrons    NEL             ....   68
 Basis Dimension        Dim             ....  351

ORBITAL ENERGIES
----------------

  NO   OCC          E(Eh)            E(eV)
   0   2.0000     -20.568757      -559.7043
   1   2.0000     -11.307740      -307.6993
   2   2.0000     -11.281198      -306.9770
   3   2.0000     -11.239298      -305.8369
   4   2.0000     -11.235099      -305.7226
   5   2.0000     -11.226778      -305.4962
   6   2.0000     -11.222532      -305.3806
   7   2.0000     -11.218659      -305.2752
   8   2.0000     -11.210393      -305.0503
   9   2.0000      -1.392870       -37.9019
  10   2.0000      -1.151257       -31.3273
  11   2.0000      -1.051207       -28.6048
  12   2.0000      -0.978667       -26.6309
  13   2.0000      -0.947553       -25.7842
  14   2.0000      -0.934361       -25.4252
  15   2.0000      -0.816680       -22.2230
  16   2.0000      -0.755384       -20.5551
  17   2.0000      -0.724744       -19.7213
  18   2.0000      -0.694800       -18.9065
  19   2.0000      -0.662178       -18.0188
  20   2.0000      -0.654267       -17.8035
  21   2.0000      -0.617425       -16.8010
  22   2.0000      -0.591467       -16.0946
  23   2.0000      -0.587723       -15.9927
  24   2.0000      -0.555902       -15.1269
  25   2.0000      -0.536008       -14.5855
  26   2.0000      -0.528836       -14.3904
  27   2.0000      -0.515593       -14.0300
  28   2.0000      -0.484587       -13.1863
  29   2.0000      -0.473833       -12.8936
  30   2.0000      -0.405791       -11.0421
  31   2.0000      -0.393539       -10.7087
  32   2.0000      -0.389923       -10.6103
  33   2.0000      -0.386190       -10.5088
  34   0.0000       0.135314         3.6821
  35   0.0000       0.153580         4.1791
  36   0.0000       0.167009         4.5446
  37   0.0000       0.169891         4.6230
  38   0.0000       0.170624         4.6429

MULLIKEN ATOMIC CHARGES
-----------------------
   0 C :   -0.393029
   1 C :    0.144012
   2 C :   -0.408513
   3 C :   -0.321821
   4 C :   -0.034565
   5 O :   -0.276305
   6 C :   -0.213191
   7 C :   -0.020531
   8 C :   -0.086828
   9 H :    0.146548
  10 H :    0.128012
  11 H :    0.127271
  12 H :    0.133138
  13 H :    0.124363
  14 H :    0.133215
  15 H :    0.129329
  16 H :    0.139868
  17 H :    0.101645
  18 H :    0.122953
  19 H :    0.131017
  20 H :    0.193413
Sum of atomic charges:    0.0000000

LOEWDIN ATOMIC CHARGES
----------------------
   0 C :   -0.263540
   1 C :   -0.280732
   2 C :   -0.265374
   3 C :   -0.200707
   4 C :   -0.284507
   5 O :    0.203730
   6 C :   -0.299859
   7 C :   -0.103725
   8 C :   -0.087799
   9 H :    0.131998
  10 H :    0.126002
  11 H :    0.128500
  12 H :    0.127430
  13 H :    0.126357
  14 H :    0.127836
  15 H :    0.132148
  16 H :    0.139826
  17 H :    0.135082
  18 H :    0.139382
  19 H :    0.140229
  20 H :    0.127725

  Mayer bond orders larger than 0.1
B(  0-C ,  1-C ) :   0.9182 B(  0-C ,  9-H ) :   0.9270 B(  0-C , 10-H ) :   0.9374
B(  0-C , 11-H ) :   0.9356 B(  1-C ,  2-C ) :   0.9012 B(  1-C ,  3-C ) :   0.8586
B(  1-C ,  4-C ) :   0.8730 B(  2-C , 12-H ) :   0.9412 B(  2-C , 13-H ) :   0.9290
B(  2-C , 14-H ) :   0.9404 B(  3-C ,  4-C ) :   0.9100 B(  3-C , 15-H ) :   0.9179
B(  3-C , 16-H ) :   0.9196 B(  4-C ,  5-O ) :   0.9675 B(  4-C , 17-H ) :   0.9317
B(  5-O ,  6-C ) :   0.9620 B(  6-C ,  7-C ) :   1.1108 B(  6-C ,  8-C ) :  -0.1053
B(  6-C , 18-H ) :   0.9171 B(  6-C , 19-H ) :   0.9291 B(  7-C ,  8-C ) :   2.6201
B(  8-C , 20-H ) :   0.8972

MP2 TOTAL ENERGY:     -386.342739315 Eh
FINAL SINGLE POINT ENERGY      -386.342739314633

DIPOLE MOMENT
-------------
                                X             Y             Z
Electronic contribution:      3.68400       0.74144       8.86624
Nuclear contribution   :     -3.56628      -1.16131      -9.07101
                        -----------------------------------------
Total Dipole Moment    :      0.11772      -0.41987      -0.20477
                        -----------------------------------------
Magnitude (a.u.)       :      0.48175
Magnitude (Debye)      :      1.22450

                             ****ORCA TERMINATED NORMALLY****
TOTAL RUN TIME: 0 days 0 hours 19 minutes 51 seconds 373 msec
