                         Program Version 3.0.3 - RELEASE   -
|  1> ! RI-MP2 RIJK def2-TZVP def2-TZVP/C def2-TZVP/JK TIGHTSCF
|  2> % maxcore 2000
|  3> % mp2 density relaxed end
|  4> *xyz 0 1
|  5>  O        0.0067355986     1.5150951543    -0.3530852829
|  6>  C        0.0420845229     0.1161742642    -0.2386258099
|  7>  C       -1.2849835766    -0.5949711902    -0.0565451719
|  8>  C       -1.8791447113    -0.8510630339    -1.4463973167
|  9>  C       -0.9173947795    -0.2569618631    -2.4703813320
| 10>  C        0.2253328196    -0.7448414059    -1.5205954898
| 11>  C        1.5823591467    -1.0187701340    -2.0579997676
| 12>  O        2.5736894212    -0.4254556656    -1.7003543428
| 13>  C       -0.8181480981    -1.7687827911    -0.8953093747
| 14>  H        0.9157115155     1.8185325731    -0.4549551838
| 15>  H        0.7593407835    -0.2114859204     0.5251149910
| 16>  H       -1.8975756110    -0.6344951445     0.8344820125
| 17>  H       -2.9349260004    -1.0556094967    -1.5665554406
| 18>  H       -0.9269906633    -0.8239068499    -3.4054597526
| 19>  H       -0.9438223683     0.8183906562    -2.6653497730
| 20>  H        1.6420275019    -1.8063273206    -2.8433196933
| 21>  H       -0.7797546812    -2.8269767718    -0.6862346218
| 22> *
| 23>
| 24>                          ****END OF INPUT****

CARTESIAN COORDINATES (ANGSTROEM)
---------------------------------
  O      0.006736    1.515095   -0.353085
  C      0.042085    0.116174   -0.238626
  C     -1.284984   -0.594971   -0.056545
  C     -1.879145   -0.851063   -1.446397
  C     -0.917395   -0.256962   -2.470381
  C      0.225333   -0.744841   -1.520595
  C      1.582359   -1.018770   -2.058000
  O      2.573689   -0.425456   -1.700354
  C     -0.818148   -1.768783   -0.895309
  H      0.915712    1.818533   -0.454955
  H      0.759341   -0.211486    0.525115
  H     -1.897576   -0.634495    0.834482
  H     -2.934926   -1.055609   -1.566555
  H     -0.926991   -0.823907   -3.405460
  H     -0.943822    0.818391   -2.665350
  H      1.642028   -1.806327   -2.843320
  H     -0.779755   -2.826977   -0.686235

 Total Charge           Charge          ....    0
 Multiplicity           Mult            ....    1
 Number of Electrons    NEL             ....   66
 Basis Dimension        Dim             ....  327

ORBITAL ENERGIES
----------------

  NO   OCC          E(Eh)            E(eV)
   0   2.0000     -20.563873      -559.5714
   1   2.0000     -20.557445      -559.3965
   2   2.0000     -11.337304      -308.5037
   3   2.0000     -11.290863      -307.2400
   4   2.0000     -11.256922      -306.3164
   5   2.0000     -11.253999      -306.2369
   6   2.0000     -11.249744      -306.1211
   7   2.0000     -11.244594      -305.9810
   8   2.0000     -11.242566      -305.9258
   9   2.0000      -1.400602       -38.1123
  10   2.0000      -1.368924       -37.2503
  11   2.0000      -1.243016       -33.8242
  12   2.0000      -1.004992       -27.3472
  13   2.0000      -0.980678       -26.6856
  14   2.0000      -0.895244       -24.3608
  15   2.0000      -0.824957       -22.4482
  16   2.0000      -0.759607       -20.6700
  17   2.0000      -0.743997       -20.2452
  18   2.0000      -0.723024       -19.6745
  19   2.0000      -0.691957       -18.8291
  20   2.0000      -0.660732       -17.9794
  21   2.0000      -0.630550       -17.1581
  22   2.0000      -0.611251       -16.6330
  23   2.0000      -0.586907       -15.9706
  24   2.0000      -0.557581       -15.1725
  25   2.0000      -0.547463       -14.8972
  26   2.0000      -0.521215       -14.1830
  27   2.0000      -0.496056       -13.4984
  28   2.0000      -0.466224       -12.6866
  29   2.0000      -0.440805       -11.9949
  30   2.0000      -0.422442       -11.4952
  31   2.0000      -0.406661       -11.0658
  32   2.0000      -0.388617       -10.5748
  33   0.0000       0.113211         3.0806
  34   0.0000       0.147360         4.0099
  35   0.0000       0.153579         4.1791
  36   0.0000       0.159595         4.3428
  37   0.0000       0.173385         4.7181

MULLIKEN ATOMIC CHARGES
-----------------------
   0 O :   -0.471455
   1 C :    0.055066
   2 C :   -0.132570
   3 C :   -0.168529
   4 C :   -0.178749
   5 C :    0.126167
   6 C :    0.083629
   7 O :   -0.275505
   8 C :   -0.239906
   9 H :    0.326477
  10 H :    0.100992
  11 H :    0.142535
  12 H :    0.139839
  13 H :    0.121717
  14 H :    0.125142
  15 H :    0.086077
  16 H :    0.159073
Sum of atomic charges:    0.0000000

LOEWDIN ATOMIC CHARGES
----------------------
   0 O :   -0.005387
   1 C :   -0.279111
   2 C :   -0.135061
   3 C :   -0.157063
   4 C :   -0.160425
   5 C :   -0.181084
   6 C :   -0.259181
   7 O :    0.130948
   8 C :   -0.092867
   9 H :    0.182371
  10 H :    0.146704
  11 H :    0.141962
  12 H :    0.139656
  13 H :    0.141763
  14 H :    0.133654
  15 H :    0.116610
  16 H :    0.136511

  Mayer bond orders larger than 0.1
B(  0-O ,  1-C ) :   1.1266 B(  0-O ,  9-H ) :   0.8367 B(  1-C ,  2-C ) :   0.9317
B(  1-C ,  5-C ) :   0.8753 B(  1-C , 10-H ) :   0.9732 B(  2-C ,  3-C ) :   0.8299
B(  2-C ,  8-C ) :   0.8418 B(  2-C , 11-H ) :   0.9276 B(  3-C ,  4-C ) :   0.9527
B(  3-C ,  8-C ) :   0.8833 B(  3-C , 12-H ) :   0.9308 B(  4-C ,  5-C ) :   0.9037
B(  4-C , 13-H ) :   0.9336 B(  4-C , 14-H ) :   0.8931 B(  5-C ,  6-C ) :   0.8317
B(  5-C ,  7-O ) :  -0.1051 B(  5-C ,  8-C ) :   0.8528 B(  6-C ,  7-O ) :   1.9933
B(  6-C , 15-H ) :   0.9715 B(  8-C , 16-H ) :   0.8965

MP2 TOTAL ENERGY:     -421.076855047 Eh
FINAL SINGLE POINT ENERGY      -421.076855046948

DIPOLE MOMENT
-------------
                                X             Y             Z
Electronic contribution:      3.35908       0.73850       0.54435
Nuclear contribution   :     -3.89774      -1.45096      -0.70383
                        -----------------------------------------
Total Dipole Moment    :     -0.53866      -0.71246      -0.15949
                        -----------------------------------------
Magnitude (a.u.)       :      0.90730
Magnitude (Debye)      :      2.30616

                             ****ORCA TERMINATED NORMALLY****
TOTAL RUN TIME: 0 days 0 hours 18 minutes 1 seconds 118 msec
