                         Program Version 3.0.3 - RELEASE   -
|  1> ! RI-MP2 RIJK def2-TZVP def2-TZVP/C def2-TZVP/JK TIGHTSCF
|  2> % maxcore 2000
|  3> % mp2 density relaxed end
|  4> *xyz 0 1
|  5>  C        0.0266576402     1.5336307166     0.0013701614
|  6>  C       -0.0134532845     0.0234893759    -0.0484489694
|  7>  C        0.3868603785    -0.7330984403    -1.3293835824
|  8>  C       -0.5474329659    -1.8823660072    -0.8522387450
|  9>  C        0.2545117412    -2.8642154382     0.0122794655
| 10>  C        1.1149288429    -2.0460560953     1.0082942436
| 11>  C        0.3949004712    -0.7230075333     1.2962853437
| 12>  C       -1.1147778020    -1.0011094923     1.5589279334
| 13>  C       -1.3207149144    -0.8333773400     0.0456995984
| 14>  H        1.0613528337     1.8992881049     0.0059314860
| 15>  H       -0.4766532037     1.9735401916    -0.8672330507
| 16>  H       -0.4603547873     1.9231441924     0.9028667370
| 17>  H       -0.0144169458    -0.2172336702    -2.2085638058
| 18>  H        1.4403481692    -0.9702405989    -1.5169291124
| 19>  H       -1.1393030963    -2.3950212548    -1.6137418206
| 20>  H       -0.4270981514    -3.5332965137     0.5489501091
| 21>  H        0.8850606085    -3.5011508790    -0.6181086323
| 22>  H        1.2752998510    -2.6041838987     1.9376724160
| 23>  H        2.1074314004    -1.8474632456     0.5888102493
| 24>  H        0.9301567988    -0.1144901022     2.0303426592
| 25>  H       -1.3807558675    -1.9480945584     2.0405688421
| 26>  H       -1.5964447010    -0.1862008283     2.1074376679
| 27>  H       -2.2798286056    -0.4981950648    -0.3557769939
| 28> *
| 29>
| 30>                          ****END OF INPUT****

CARTESIAN COORDINATES (ANGSTROEM)
---------------------------------
  C      0.026658    1.533631    0.001370
  C     -0.013453    0.023489   -0.048449
  C      0.386860   -0.733098   -1.329384
  C     -0.547433   -1.882366   -0.852239
  C      0.254512   -2.864215    0.012279
  C      1.114929   -2.046056    1.008294
  C      0.394900   -0.723008    1.296285
  C     -1.114778   -1.001109    1.558928
  C     -1.320715   -0.833377    0.045700
  H      1.061353    1.899288    0.005931
  H     -0.476653    1.973540   -0.867233
  H     -0.460355    1.923144    0.902867
  H     -0.014417   -0.217234   -2.208564
  H      1.440348   -0.970241   -1.516929
  H     -1.139303   -2.395021   -1.613742
  H     -0.427098   -3.533297    0.548950
  H      0.885061   -3.501151   -0.618109
  H      1.275300   -2.604184    1.937672
  H      2.107431   -1.847463    0.588810
  H      0.930157   -0.114490    2.030343
  H     -1.380756   -1.948095    2.040569
  H     -1.596445   -0.186201    2.107438
  H     -2.279829   -0.498195   -0.355777

 Total Charge           Charge          ....    0
 Multiplicity           Mult            ....    1
 Number of Electrons    NEL             ....   68
 Basis Dimension        Dim             ....  363

ORBITAL ENERGIES
----------------

  NO   OCC          E(Eh)            E(eV)
   0   2.0000     -11.223968      -305.4197
   1   2.0000     -11.221379      -305.3493
   2   2.0000     -11.220916      -305.3367
   3   2.0000     -11.216018      -305.2034
   4   2.0000     -11.213494      -305.1347
   5   2.0000     -11.212856      -305.1173
   6   2.0000     -11.211475      -305.0797
   7   2.0000     -11.209760      -305.0331
   8   2.0000     -11.209110      -305.0154
   9   2.0000      -1.185291       -32.2534
  10   2.0000      -1.025593       -27.9078
  11   2.0000      -1.018783       -27.7225
  12   2.0000      -0.969774       -26.3889
  13   2.0000      -0.905031       -24.6272
  14   2.0000      -0.820265       -22.3206
  15   2.0000      -0.795168       -21.6376
  16   2.0000      -0.775811       -21.1109
  17   2.0000      -0.676723       -18.4146
  18   2.0000      -0.645928       -17.5766
  19   2.0000      -0.639884       -17.4121
  20   2.0000      -0.600878       -16.3507
  21   2.0000      -0.586369       -15.9559
  22   2.0000      -0.559011       -15.2115
  23   2.0000      -0.548624       -14.9288
  24   2.0000      -0.531556       -14.4644
  25   2.0000      -0.525042       -14.2871
  26   2.0000      -0.516339       -14.0503
  27   2.0000      -0.496310       -13.5053
  28   2.0000      -0.473065       -12.8728
  29   2.0000      -0.434857       -11.8331
  30   2.0000      -0.430277       -11.7084
  31   2.0000      -0.402080       -10.9411
  32   2.0000      -0.392531       -10.6813
  33   2.0000      -0.379157       -10.3174
  34   0.0000       0.134518         3.6604
  35   0.0000       0.153313         4.1719
  36   0.0000       0.167207         4.5499
  37   0.0000       0.167316         4.5529
  38   0.0000       0.186415         5.0726

MULLIKEN ATOMIC CHARGES
-----------------------
   0 C :   -0.430782
   1 C :    0.083149
   2 C :   -0.297402
   3 C :   -0.010590
   4 C :   -0.270303
   5 C :   -0.288398
   6 C :    0.010236
   7 C :   -0.317805
   8 C :   -0.102654
   9 H :    0.130201
  10 H :    0.126851
  11 H :    0.129766
  12 H :    0.107988
  13 H :    0.107344
  14 H :    0.110147
  15 H :    0.115801
  16 H :    0.118560
  17 H :    0.120193
  18 H :    0.115263
  19 H :    0.107576
  20 H :    0.110284
  21 H :    0.117398
  22 H :    0.107178
Sum of atomic charges:    0.0000000

LOEWDIN ATOMIC CHARGES
----------------------
   0 C :   -0.278606
   1 C :   -0.212928
   2 C :   -0.183592
   3 C :   -0.189514
   4 C :   -0.237572
   5 C :   -0.236653
   6 C :   -0.170838
   7 C :   -0.205142
   8 C :   -0.141609
   9 H :    0.127601
  10 H :    0.125189
  11 H :    0.127354
  12 H :    0.138403
  13 H :    0.125343
  14 H :    0.135249
  15 H :    0.136357
  16 H :    0.136716
  17 H :    0.136799
  18 H :    0.136694
  19 H :    0.137651
  20 H :    0.125081
  21 H :    0.136607
  22 H :    0.131410

  Mayer bond orders larger than 0.1
B(  0-C ,  1-C ) :   0.8529 B(  0-C ,  9-H ) :   0.9417 B(  0-C , 10-H ) :   0.9417
B(  0-C , 11-H ) :   0.9398 B(  1-C ,  2-C ) :   0.9341 B(  1-C ,  6-C ) :   0.8903
B(  1-C ,  8-C ) :   0.8996 B(  2-C ,  3-C ) :   0.9314 B(  2-C , 12-H ) :   0.9138
B(  2-C , 13-H ) :   0.9130 B(  3-C ,  4-C ) :   0.9190 B(  3-C ,  8-C ) :   0.9100
B(  3-C , 14-H ) :   0.9160 B(  4-C ,  5-C ) :   0.9551 B(  4-C , 15-H ) :   0.9269
B(  4-C , 16-H ) :   0.9279 B(  5-C ,  6-C ) :   0.9082 B(  5-C , 17-H ) :   0.9290
B(  5-C , 18-H ) :   0.9283 B(  6-C ,  7-C ) :   0.9366 B(  6-C , 19-H ) :   0.9170
B(  7-C ,  8-C ) :   0.9383 B(  7-C , 20-H ) :   0.9125 B(  7-C , 21-H ) :   0.9203
B(  8-C , 22-H ) :   0.9049

MP2 TOTAL ENERGY:     -350.505975978 Eh
FINAL SINGLE POINT ENERGY      -350.505975977619

DIPOLE MOMENT
-------------
                                X             Y             Z
Electronic contribution:     -0.97585      -1.02197      -0.28495
Nuclear contribution   :      0.99419       1.03169       0.28962
                        -----------------------------------------
Total Dipole Moment    :      0.01835       0.00972       0.00467
                        -----------------------------------------
Magnitude (a.u.)       :      0.02128
Magnitude (Debye)      :      0.05409

                             ****ORCA TERMINATED NORMALLY****
TOTAL RUN TIME: 0 days 0 hours 24 minutes 13 seconds 762 msec
