                         Program Version 3.0.3 - RELEASE   -
|  1> ! RI-MP2 RIJK def2-TZVP def2-TZVP/C def2-TZVP/JK TIGHTSCF
|  2> % maxcore 2000
|  3> % mp2 density relaxed end
|  4> *xyz 0 1
|  5>  C        0.0689928767     1.3187326329     0.1247983973
|  6>  O       -0.1562369214    -0.0540236364    -0.1008144010
|  7>  C        0.5608858281    -0.5768910777    -1.2004749199
|  8>  C        2.0757114639    -0.7869559464    -0.9449084400
|  9>  C        2.4113335244    -2.0560326644    -1.7561816346
| 10>  N        1.1739368267    -2.8522592116    -1.9079724450
| 11>  C        0.4635093228    -3.0758223030    -0.6419371609
| 12>  C        0.0529272009    -1.9680083904    -1.5408908135
| 13>  H        1.1109466427     1.5306950393     0.4078158784
| 14>  H       -0.1749359603     1.9217863657    -0.7644402910
| 15>  H       -0.5844246064     1.6232866459     0.9460623257
| 16>  H        0.4135328511     0.0812665560    -2.0734004368
| 17>  H        2.6841269034     0.0680390892    -1.2480912092
| 18>  H        2.2294836137    -0.9338816868     0.1284010417
| 19>  H        2.7473552607    -1.7926877869    -2.7650508372
| 20>  H        3.1971979671    -2.6642017569    -1.2971383189
| 21>  H       -0.1263151327    -3.9868989929    -0.6127095993
| 22>  H        0.9530983186    -2.8259016201     0.2954215091
| 23>  H       -0.8530927697    -2.0494150455    -2.1333940250
| 24> *
| 25>
| 26>                          ****END OF INPUT****

CARTESIAN COORDINATES (ANGSTROEM)
---------------------------------
  C      0.068993    1.318733    0.124798
  O     -0.156237   -0.054024   -0.100814
  C      0.560886   -0.576891   -1.200475
  C      2.075711   -0.786956   -0.944908
  C      2.411334   -2.056033   -1.756182
  N      1.173937   -2.852259   -1.907972
  C      0.463509   -3.075822   -0.641937
  C      0.052927   -1.968008   -1.540891
  H      1.110947    1.530695    0.407816
  H     -0.174936    1.921786   -0.764440
  H     -0.584425    1.623287    0.946062
  H      0.413533    0.081267   -2.073400
  H      2.684127    0.068039   -1.248091
  H      2.229484   -0.933882    0.128401
  H      2.747355   -1.792688   -2.765051
  H      3.197198   -2.664202   -1.297138
  H     -0.126315   -3.986899   -0.612710
  H      0.953098   -2.825902    0.295422
  H     -0.853093   -2.049415   -2.133394

 Total Charge           Charge          ....    0
 Multiplicity           Mult            ....    1
 Number of Electrons    NEL             ....   62
 Basis Dimension        Dim             ....  314

ORBITAL ENERGIES
----------------

  NO   OCC          E(Eh)            E(eV)
   0   2.0000     -20.557502      -559.3981
   1   2.0000     -15.554958      -423.2719
   2   2.0000     -11.285028      -307.0812
   3   2.0000     -11.273321      -306.7627
   4   2.0000     -11.250811      -306.1501
   5   2.0000     -11.250581      -306.1439
   6   2.0000     -11.247370      -306.0565
   7   2.0000     -11.224241      -305.4271
   8   2.0000      -1.379721       -37.5441
   9   2.0000      -1.276901       -34.7462
  10   2.0000      -1.044820       -28.4310
  11   2.0000      -0.995831       -27.0980
  12   2.0000      -0.914768       -24.8921
  13   2.0000      -0.867083       -23.5945
  14   2.0000      -0.789105       -21.4726
  15   2.0000      -0.772189       -21.0123
  16   2.0000      -0.704504       -19.1705
  17   2.0000      -0.666888       -18.1469
  18   2.0000      -0.637457       -17.3461
  19   2.0000      -0.620364       -16.8810
  20   2.0000      -0.609620       -16.5886
  21   2.0000      -0.588097       -16.0029
  22   2.0000      -0.564064       -15.3489
  23   2.0000      -0.533267       -14.5109
  24   2.0000      -0.501496       -13.6464
  25   2.0000      -0.498246       -13.5580
  26   2.0000      -0.477435       -12.9917
  27   2.0000      -0.453968       -12.3531
  28   2.0000      -0.442510       -12.0413
  29   2.0000      -0.416734       -11.3399
  30   2.0000      -0.370031       -10.0691
  31   0.0000       0.136753         3.7213
  32   0.0000       0.159277         4.3342
  33   0.0000       0.164308         4.4710
  34   0.0000       0.179969         4.8972
  35   0.0000       0.194296         5.2871

MULLIKEN ATOMIC CHARGES
-----------------------
   0 C :   -0.226139
   1 O :   -0.290051
   2 C :    0.013976
   3 C :   -0.285650
   4 C :   -0.128374
   5 N :   -0.231345
   6 C :   -0.203252
   7 C :    0.023359
   8 H :    0.114872
   9 H :    0.111276
  10 H :    0.143005
  11 H :    0.075853
  12 H :    0.131780
  13 H :    0.131334
  14 H :    0.121461
  15 H :    0.118233
  16 H :    0.127458
  17 H :    0.127160
  18 H :    0.125043
Sum of atomic charges:    0.0000000

LOEWDIN ATOMIC CHARGES
----------------------
   0 C :   -0.357891
   1 O :    0.159252
   2 C :   -0.309309
   3 C :   -0.249691
   4 C :   -0.274208
   5 N :    0.105144
   6 C :   -0.239109
   7 C :   -0.225610
   8 H :    0.101498
   9 H :    0.101931
  10 H :    0.114128
  11 H :    0.138263
  12 H :    0.135099
  13 H :    0.140309
  14 H :    0.132783
  15 H :    0.130531
  16 H :    0.127355
  17 H :    0.129494
  18 H :    0.140030

  Mayer bond orders larger than 0.1
B(  0-C ,  1-O ) :   0.9178 B(  0-C ,  8-H ) :   0.9350 B(  0-C ,  9-H ) :   0.9342
B(  0-C , 10-H ) :   0.9407 B(  1-O ,  2-C ) :   1.0232 B(  2-C ,  3-C ) :   0.8869
B(  2-C ,  7-C ) :   0.9365 B(  2-C , 11-H ) :   0.9394 B(  3-C ,  4-C ) :   0.9284
B(  3-C , 12-H ) :   0.9227 B(  3-C , 13-H ) :   0.9341 B(  4-C ,  5-N ) :   0.9315
B(  4-C , 14-H ) :   0.9309 B(  4-C , 15-H ) :   0.9375 B(  5-N ,  6-C ) :   0.8968
B(  5-N ,  7-C ) :   0.9010 B(  6-C ,  7-C ) :   0.9321 B(  6-C , 16-H ) :   0.9253
B(  6-C , 17-H ) :   0.9111 B(  7-C , 18-H ) :   0.9165

MP2 TOTAL ENERGY:     -364.411365705 Eh
FINAL SINGLE POINT ENERGY      -364.411365705209

DIPOLE MOMENT
-------------
                                X             Y             Z
Electronic contribution:     -2.03034      -3.19060      -1.20703
Nuclear contribution   :      2.35906       3.91674       1.40508
                        -----------------------------------------
Total Dipole Moment    :      0.32872       0.72614       0.19805
                        -----------------------------------------
Magnitude (a.u.)       :      0.82131
Magnitude (Debye)      :      2.08761

                             ****ORCA TERMINATED NORMALLY****
TOTAL RUN TIME: 0 days 0 hours 12 minutes 47 seconds 811 msec
