                         Program Version 3.0.3 - RELEASE   -
|  1> ! RI-MP2 RIJK def2-TZVP def2-TZVP/C def2-TZVP/JK TIGHTSCF
|  2> % maxcore 2000
|  3> % mp2 density relaxed end
|  4> *xyz 0 1
|  5>  C        0.0213990054     1.6072927297    -0.0541885784
|  6>  C        0.0022410016     0.0765419452    -0.1180572786
|  7>  C       -1.3838579220    -0.5410589651     0.0866397199
|  8>  C       -1.4148769148    -2.0790824743    -0.0640833642
|  9>  C       -2.7455257401    -2.5117187821     0.5767616952
| 10>  C       -2.6772262699    -3.4622796464     1.7874538932
| 11>  O       -2.7639553721    -2.3602213737     2.7154367811
| 12>  C       -3.0493955432    -1.4259556269     1.6418065325
| 13>  C       -2.0152237872    -0.3008466795     1.4800776666
| 14>  H        1.0278031530     1.9974692272    -0.2351728110
| 15>  H       -0.6438348229     2.0429514127    -0.8084158094
| 16>  H       -0.3039199724     1.9731766322     0.9249738671
| 17>  H        0.3956016773    -0.2484115964    -1.0902298348
| 18>  H        0.6858374297    -0.3320912858     0.6389852707
| 19>  H       -2.0630985325    -0.1161142253    -0.6680894959
| 20>  H       -1.3154340309    -2.3983675131    -1.1056730395
| 21>  H       -0.5701137086    -2.5126457624     0.4871446514
| 22>  H       -3.5230777777    -2.7244625867    -0.1586678838
| 23>  H       -3.5354584675    -4.1403818292     1.8859903903
| 24>  H       -1.7517337651    -4.0386166938     1.9121327809
| 25>  H       -4.0826131382    -1.0651338710     1.7078403806
| 26>  H       -1.2602957334    -0.4165471098     2.2665939133
| 27>  H       -2.4515096384     0.6963154943     1.5808852831
| 28> *
| 29>
| 30>                          ****END OF INPUT****

CARTESIAN COORDINATES (ANGSTROEM)
---------------------------------
  C      0.021399    1.607293   -0.054189
  C      0.002241    0.076542   -0.118057
  C     -1.383858   -0.541059    0.086640
  C     -1.414877   -2.079082   -0.064083
  C     -2.745526   -2.511719    0.576762
  C     -2.677226   -3.462280    1.787454
  O     -2.763955   -2.360221    2.715437
  C     -3.049396   -1.425956    1.641807
  C     -2.015224   -0.300847    1.480078
  H      1.027803    1.997469   -0.235173
  H     -0.643835    2.042951   -0.808416
  H     -0.303920    1.973177    0.924974
  H      0.395602   -0.248412   -1.090230
  H      0.685837   -0.332091    0.638985
  H     -2.063099   -0.116114   -0.668089
  H     -1.315434   -2.398368   -1.105673
  H     -0.570114   -2.512646    0.487145
  H     -3.523078   -2.724463   -0.158668
  H     -3.535458   -4.140382    1.885990
  H     -1.751734   -4.038617    1.912133
  H     -4.082613   -1.065134    1.707840
  H     -1.260296   -0.416547    2.266594
  H     -2.451510    0.696315    1.580885

 Total Charge           Charge          ....    0
 Multiplicity           Mult            ....    1
 Number of Electrons    NEL             ....   70
 Basis Dimension        Dim             ....  363

ORBITAL ENERGIES
----------------

  NO   OCC          E(Eh)            E(eV)
   0   2.0000     -20.539634      -558.9119
   1   2.0000     -11.273690      -306.7727
   2   2.0000     -11.272231      -306.7330
   3   2.0000     -11.226848      -305.4981
   4   2.0000     -11.226499      -305.4886
   5   2.0000     -11.220582      -305.3276
   6   2.0000     -11.219983      -305.3113
   7   2.0000     -11.214470      -305.1612
   8   2.0000     -11.213213      -305.1270
   9   2.0000      -1.369784       -37.2737
  10   2.0000      -1.118123       -30.4257
  11   2.0000      -1.033826       -28.1318
  12   2.0000      -0.989306       -26.9204
  13   2.0000      -0.938977       -25.5509
  14   2.0000      -0.885869       -24.1057
  15   2.0000      -0.838965       -22.8294
  16   2.0000      -0.766747       -20.8642
  17   2.0000      -0.728109       -19.8128
  18   2.0000      -0.693322       -18.8662
  19   2.0000      -0.644262       -17.5313
  20   2.0000      -0.627531       -17.0760
  21   2.0000      -0.609319       -16.5804
  22   2.0000      -0.598317       -16.2810
  23   2.0000      -0.571375       -15.5479
  24   2.0000      -0.554282       -15.0828
  25   2.0000      -0.549180       -14.9439
  26   2.0000      -0.517747       -14.0886
  27   2.0000      -0.502044       -13.6613
  28   2.0000      -0.493645       -13.4328
  29   2.0000      -0.460027       -12.5180
  30   2.0000      -0.455330       -12.3902
  31   2.0000      -0.453481       -12.3398
  32   2.0000      -0.439951       -11.9717
  33   2.0000      -0.432418       -11.7667
  34   2.0000      -0.404587       -11.0094
  35   0.0000       0.132770         3.6128
  36   0.0000       0.151156         4.1132
  37   0.0000       0.159062         4.3283
  38   0.0000       0.169369         4.6088
  39   0.0000       0.181016         4.9257

MULLIKEN ATOMIC CHARGES
-----------------------
   0 C :   -0.400293
   1 C :   -0.204129
   2 C :   -0.035405
   3 C :   -0.281377
   4 C :   -0.075147
   5 C :   -0.041643
   6 O :   -0.339173
   7 C :    0.121532
   8 C :   -0.324256
   9 H :    0.135159
  10 H :    0.121742
  11 H :    0.131965
  12 H :    0.111772
  13 H :    0.107820
  14 H :    0.089603
  15 H :    0.123690
  16 H :    0.112052
  17 H :    0.119659
  18 H :    0.092632
  19 H :    0.094005
  20 H :    0.089112
  21 H :    0.121308
  22 H :    0.129370
Sum of atomic charges:    0.0000000

LOEWDIN ATOMIC CHARGES
----------------------
   0 C :   -0.317850
   1 C :   -0.276755
   2 C :   -0.247791
   3 C :   -0.213371
   4 C :   -0.207629
   5 C :   -0.259791
   6 O :    0.124693
   7 C :   -0.239533
   8 C :   -0.216309
   9 H :    0.120884
  10 H :    0.120573
  11 H :    0.120978
  12 H :    0.137723
  13 H :    0.137547
  14 H :    0.152505
  15 H :    0.134932
  16 H :    0.143380
  17 H :    0.140808
  18 H :    0.116285
  19 H :    0.115367
  20 H :    0.129912
  21 H :    0.148704
  22 H :    0.134740

  Mayer bond orders larger than 0.1
B(  0-C ,  1-C ) :   0.9178 B(  0-C ,  9-H ) :   0.9417 B(  0-C , 10-H ) :   0.9377
B(  0-C , 11-H ) :   0.9403 B(  1-C ,  2-C ) :   0.8989 B(  1-C , 12-H ) :   0.9361
B(  1-C , 13-H ) :   0.9296 B(  2-C ,  3-C ) :   0.9174 B(  2-C ,  8-C ) :   0.9234
B(  2-C , 14-H ) :   0.9243 B(  3-C ,  4-C ) :   0.9271 B(  3-C , 15-H ) :   0.9270
B(  3-C , 16-H ) :   0.9164 B(  4-C ,  5-C ) :   0.9735 B(  4-C ,  7-C ) :   0.9313
B(  4-C , 17-H ) :   0.9209 B(  5-C ,  6-O ) :   0.9545 B(  5-C , 18-H ) :   0.9195
B(  5-C , 19-H ) :   0.9044 B(  6-O ,  7-C ) :   0.9899 B(  7-C ,  8-C ) :   0.9177
B(  7-C , 20-H ) :   0.9297 B(  8-C , 21-H ) :   0.9069 B(  8-C , 22-H ) :   0.9280

MP2 TOTAL ENERGY:     -387.614853202 Eh
FINAL SINGLE POINT ENERGY      -387.614853201660

DIPOLE MOMENT
-------------
                                X             Y             Z
Electronic contribution:     -4.98355      -5.26675       4.26176
Nuclear contribution   :      5.00812       5.30849      -5.05103
                        -----------------------------------------
Total Dipole Moment    :      0.02456       0.04175      -0.78927
                        -----------------------------------------
Magnitude (a.u.)       :      0.79076
Magnitude (Debye)      :      2.00995

                             ****ORCA TERMINATED NORMALLY****
TOTAL RUN TIME: 0 days 0 hours 32 minutes 30 seconds 527 msec
