                         Program Version 3.0.3 - RELEASE   -
|  1> ! RI-MP2 RIJK def2-TZVP def2-TZVP/C def2-TZVP/JK TIGHTSCF
|  2> % maxcore 2000
|  3> % mp2 density relaxed end
|  4> *xyz 0 1
|  5>  C        0.0530885481     1.6389247581     0.0532404773
|  6>  C        0.0040453186     0.1129915914     0.0265740794
|  7>  C        0.9195380653    -0.5568417087    -1.0416119676
|  8>  C        1.7881295099    -1.4242217449    -0.0999404214
|  9>  C        2.1936383116    -2.8176614152    -0.6455365033
| 10>  C        0.7229538062    -3.2432456752    -0.1486342392
| 11>  C        0.8844647121    -2.0646516437     0.8850044198
| 12>  C        0.6734759819    -0.5469670123     1.2412653844
| 13>  O        2.1326284313    -0.3826887752     0.9264131106
| 14>  H        1.0805670545     1.9773672525     0.2157622659
| 15>  H       -0.3018336496     2.0609207873    -0.8928996810
| 16>  H       -0.5735150983     2.0464292295     0.8543418850
| 17>  H       -1.0338288813    -0.2258191727    -0.0679345723
| 18>  H        0.3715272595    -1.1233632588    -1.7981331925
| 19>  H        1.5565305197     0.1674808165    -1.5569502273
| 20>  H        2.4314609072    -2.9126327494    -1.7085744726
| 21>  H        2.9548332894    -3.3204510143    -0.0460863936
| 22>  H       -0.0282071506    -3.1013853894    -0.9259249310
| 23>  H        0.6232509998    -4.2443445969     0.2743001085
| 24>  H        1.5071073479    -2.4584237161     1.6925853686
| 25>  H        0.4249746265    -0.2054804526     2.2477810822
| 26> *
| 27>
| 28>                          ****END OF INPUT****

CARTESIAN COORDINATES (ANGSTROEM)
---------------------------------
  C      0.053089    1.638925    0.053240
  C      0.004045    0.112992    0.026574
  C      0.919538   -0.556842   -1.041612
  C      1.788130   -1.424222   -0.099940
  C      2.193638   -2.817661   -0.645537
  C      0.722954   -3.243246   -0.148634
  C      0.884465   -2.064652    0.885004
  C      0.673476   -0.546967    1.241265
  O      2.132628   -0.382689    0.926413
  H      1.080567    1.977367    0.215762
  H     -0.301834    2.060921   -0.892900
  H     -0.573515    2.046429    0.854342
  H     -1.033829   -0.225819   -0.067935
  H      0.371527   -1.123363   -1.798133
  H      1.556531    0.167481   -1.556950
  H      2.431461   -2.912633   -1.708574
  H      2.954833   -3.320451   -0.046086
  H     -0.028207   -3.101385   -0.925925
  H      0.623251   -4.244345    0.274300
  H      1.507107   -2.458424    1.692585
  H      0.424975   -0.205480    2.247781

 Total Charge           Charge          ....    0
 Multiplicity           Mult            ....    1
 Number of Electrons    NEL             ....   68
 Basis Dimension        Dim             ....  351

ORBITAL ENERGIES
----------------

  NO   OCC          E(Eh)            E(eV)
   0   2.0000     -20.544229      -559.0369
   1   2.0000     -11.294912      -307.3502
   2   2.0000     -11.279739      -306.9373
   3   2.0000     -11.250343      -306.1374
   4   2.0000     -11.246553      -306.0343
   5   2.0000     -11.229237      -305.5631
   6   2.0000     -11.220870      -305.3354
   7   2.0000     -11.219881      -305.3085
   8   2.0000     -11.209462      -305.0250
   9   2.0000      -1.366808       -37.1927
  10   2.0000      -1.134602       -30.8741
  11   2.0000      -1.066762       -29.0281
  12   2.0000      -0.955152       -25.9910
  13   2.0000      -0.948472       -25.8092
  14   2.0000      -0.865605       -23.5543
  15   2.0000      -0.857007       -23.3203
  16   2.0000      -0.758058       -20.6278
  17   2.0000      -0.728530       -19.8243
  18   2.0000      -0.671028       -18.2596
  19   2.0000      -0.647984       -17.6326
  20   2.0000      -0.622570       -16.9410
  21   2.0000      -0.588153       -16.0044
  22   2.0000      -0.578280       -15.7358
  23   2.0000      -0.552040       -15.0218
  24   2.0000      -0.544800       -14.8248
  25   2.0000      -0.529843       -14.4178
  26   2.0000      -0.498453       -13.5636
  27   2.0000      -0.478830       -13.0296
  28   2.0000      -0.475182       -12.9303
  29   2.0000      -0.472089       -12.8462
  30   2.0000      -0.463181       -12.6038
  31   2.0000      -0.444715       -12.1013
  32   2.0000      -0.408834       -11.1249
  33   2.0000      -0.369158       -10.0453
  34   0.0000       0.136649         3.7184
  35   0.0000       0.150775         4.1028
  36   0.0000       0.155565         4.2331
  37   0.0000       0.160740         4.3740
  38   0.0000       0.189984         5.1697

MULLIKEN ATOMIC CHARGES
-----------------------
   0 C :   -0.448289
   1 C :    0.018408
   2 C :   -0.311951
   3 C :    0.192994
   4 C :   -0.237630
   5 C :   -0.250332
   6 C :   -0.105264
   7 C :   -0.019442
   8 O :   -0.316649
   9 H :    0.148145
  10 H :    0.131631
  11 H :    0.125227
  12 H :    0.091255
  13 H :    0.119598
  14 H :    0.119378
  15 H :    0.125920
  16 H :    0.133662
  17 H :    0.129969
  18 H :    0.129185
  19 H :    0.097039
  20 H :    0.127145
Sum of atomic charges:   -0.0000000

LOEWDIN ATOMIC CHARGES
----------------------
   0 C :   -0.297924
   1 C :   -0.247445
   2 C :   -0.182166
   3 C :   -0.269430
   4 C :   -0.184234
   5 C :   -0.198809
   6 C :   -0.178344
   7 C :   -0.194549
   8 O :    0.130874
   9 H :    0.129744
  10 H :    0.123331
  11 H :    0.121571
  12 H :    0.148923
  13 H :    0.134251
  14 H :    0.144449
  15 H :    0.124827
  16 H :    0.140068
  17 H :    0.130967
  18 H :    0.125119
  19 H :    0.166359
  20 H :    0.132418

  Mayer bond orders larger than 0.1
B(  0-C ,  1-C ) :   0.8692 B(  0-C ,  9-H ) :   0.9382 B(  0-C , 10-H ) :   0.9399
B(  0-C , 11-H ) :   0.9397 B(  1-C ,  2-C ) :   0.9629 B(  1-C ,  7-C ) :   0.9284
B(  1-C , 12-H ) :   0.9138 B(  2-C ,  3-C ) :   0.9456 B(  2-C , 13-H ) :   0.9037
B(  2-C , 14-H ) :   0.9113 B(  3-C ,  4-C ) :   0.8902 B(  3-C ,  6-C ) :   0.9232
B(  3-C ,  8-O ) :   0.9307 B(  4-C ,  5-C ) :   0.9176 B(  4-C , 15-H ) :   0.9198
B(  4-C , 16-H ) :   0.9226 B(  5-C ,  6-C ) :   0.8889 B(  5-C , 17-H ) :   0.9197
B(  5-C , 18-H ) :   0.9180 B(  6-C ,  7-C ) :   0.9322 B(  6-C , 19-H ) :   0.9093
B(  7-C ,  8-O ) :   0.8944 B(  7-C , 20-H ) :   0.8965

MP2 TOTAL ENERGY:     -386.316828104 Eh
FINAL SINGLE POINT ENERGY      -386.316828103802

DIPOLE MOMENT
-------------
                                X             Y             Z
Electronic contribution:      2.79272      -1.14713       2.73279
Nuclear contribution   :     -3.32796       0.65475      -3.07582
                        -----------------------------------------
Total Dipole Moment    :     -0.53524      -0.49238      -0.34303
                        -----------------------------------------
Magnitude (a.u.)       :      0.80411
Magnitude (Debye)      :      2.04388

                             ****ORCA TERMINATED NORMALLY****
TOTAL RUN TIME: 0 days 0 hours 22 minutes 4 seconds 534 msec
