                         Program Version 3.0.3 - RELEASE   -
|  1> ! RI-MP2 RIJK def2-TZVP def2-TZVP/C def2-TZVP/JK TIGHTSCF
|  2> % maxcore 2000
|  3> % mp2 density relaxed end
|  4> *xyz 0 1
|  5>  C       -0.0542409166     1.4567571615     0.0200185224
|  6>  N        0.0142322092     0.0064128186    -0.0797386677
|  7>  C       -1.2620608460    -0.6992179568    -0.0117944995
|  8>  C       -1.1754737183    -2.1232820988    -0.5474091290
|  9>  C       -0.0384685021    -2.8758706620     0.1453830525
| 10>  C        1.2751408152    -2.1500640700    -0.0697930038
| 11>  O        2.3270038001    -2.7125801465    -0.2197129321
| 12>  C        1.2494367560    -0.5937789971    -0.0734436326
| 13>  O        2.2962373798     0.0222745933    -0.0723683777
| 14>  H        0.9597886883     1.8501133053    -0.0232548431
| 15>  H       -0.6472994443     1.8675247034    -0.8052124211
| 16>  H       -0.5233269095     1.7600068438     0.9649797285
| 17>  H       -1.6271772820    -0.7115916077     1.0283697176
| 18>  H       -1.9927102624    -0.1227624586    -0.5909520558
| 19>  H       -2.1330174447    -2.6271330162    -0.3856776991
| 20>  H       -1.0006803870    -2.0989438230    -1.6295308474
| 21>  H       -0.2254736991    -2.9094087846     1.2291531605
| 22>  H        0.0704581234    -3.9073007646    -0.1983406028
| 23> *
| 24>
| 25>                          ****END OF INPUT****

CARTESIAN COORDINATES (ANGSTROEM)
---------------------------------
  C     -0.054241    1.456757    0.020019
  N      0.014232    0.006413   -0.079739
  C     -1.262061   -0.699218   -0.011794
  C     -1.175474   -2.123282   -0.547409
  C     -0.038469   -2.875871    0.145383
  C      1.275141   -2.150064   -0.069793
  O      2.327004   -2.712580   -0.219713
  C      1.249437   -0.593779   -0.073444
  O      2.296237    0.022275   -0.072368
  H      0.959789    1.850113   -0.023255
  H     -0.647299    1.867525   -0.805212
  H     -0.523327    1.760007    0.964980
  H     -1.627177   -0.711592    1.028370
  H     -1.992710   -0.122762   -0.590952
  H     -2.133017   -2.627133   -0.385678
  H     -1.000680   -2.098944   -1.629531
  H     -0.225474   -2.909409    1.229153
  H      0.070458   -3.907301   -0.198341

 Total Charge           Charge          ....    0
 Multiplicity           Mult            ....    1
 Number of Electrons    NEL             ....   68
 Basis Dimension        Dim             ....  333

ORBITAL ENERGIES
----------------

  NO   OCC          E(Eh)            E(eV)
   0   2.0000     -20.566794      -559.6509
   1   2.0000     -20.526241      -558.5474
   2   2.0000     -15.603319      -424.5879
   3   2.0000     -11.359469      -309.1069
   4   2.0000     -11.345357      -308.7229
   5   2.0000     -11.291598      -307.2600
   6   2.0000     -11.265038      -306.5373
   7   2.0000     -11.259333      -306.3820
   8   2.0000     -11.257150      -306.3226
   9   2.0000      -1.417069       -38.5604
  10   2.0000      -1.381159       -37.5832
  11   2.0000      -1.264458       -34.4076
  12   2.0000      -1.102613       -30.0036
  13   2.0000      -1.002623       -27.2828
  14   2.0000      -0.970249       -26.4018
  15   2.0000      -0.869624       -23.6637
  16   2.0000      -0.843471       -22.9520
  17   2.0000      -0.729122       -19.8404
  18   2.0000      -0.700521       -19.0621
  19   2.0000      -0.685071       -18.6417
  20   2.0000      -0.670624       -18.2486
  21   2.0000      -0.637494       -17.3471
  22   2.0000      -0.618948       -16.8424
  23   2.0000      -0.611089       -16.6286
  24   2.0000      -0.602011       -16.3815
  25   2.0000      -0.582553       -15.8521
  26   2.0000      -0.557017       -15.1572
  27   2.0000      -0.541607       -14.7379
  28   2.0000      -0.521329       -14.1861
  29   2.0000      -0.515656       -14.0317
  30   2.0000      -0.497153       -13.5282
  31   2.0000      -0.466040       -12.6816
  32   2.0000      -0.407253       -11.0819
  33   2.0000      -0.384686       -10.4678
  34   0.0000       0.085113         2.3161
  35   0.0000       0.113096         3.0775
  36   0.0000       0.143702         3.9103
  37   0.0000       0.154761         4.2113
  38   0.0000       0.168202         4.5770

MULLIKEN ATOMIC CHARGES
-----------------------
   0 C :   -0.329265
   1 N :   -0.081854
   2 C :   -0.184385
   3 C :   -0.242425
   4 C :   -0.188972
   5 C :    0.139078
   6 O :   -0.227758
   7 C :    0.171557
   8 O :   -0.339180
   9 H :    0.188306
  10 H :    0.137789
  11 H :    0.135539
  12 H :    0.125599
  13 H :    0.138362
  14 H :    0.137146
  15 H :    0.136757
  16 H :    0.134671
  17 H :    0.149034
Sum of atomic charges:    0.0000000

LOEWDIN ATOMIC CHARGES
----------------------
   0 C :   -0.284456
   1 N :    0.172118
   2 C :   -0.257373
   3 C :   -0.256989
   4 C :   -0.231168
   5 C :   -0.286912
   6 O :    0.197026
   7 C :   -0.413405
   8 O :    0.110969
   9 H :    0.137313
  10 H :    0.119248
  11 H :    0.119125
  12 H :    0.134687
  13 H :    0.140124
  14 H :    0.145136
  15 H :    0.146302
  16 H :    0.157900
  17 H :    0.150354

  Mayer bond orders larger than 0.1
B(  0-C ,  1-N ) :   0.8586 B(  0-C ,  9-H ) :   0.9190 B(  0-C , 10-H ) :   0.9330
B(  0-C , 11-H ) :   0.9298 B(  1-N ,  2-C ) :   0.8832 B(  1-N ,  7-C ) :   1.1634
B(  2-C ,  3-C ) :   0.9368 B(  2-C , 12-H ) :   0.9189 B(  2-C , 13-H ) :   0.9277
B(  3-C ,  4-C ) :   0.8860 B(  3-C , 14-H ) :   0.9263 B(  3-C , 15-H ) :   0.9309
B(  4-C ,  5-C ) :   0.9102 B(  4-C , 16-H ) :   0.9057 B(  4-C , 17-H ) :   0.9175
B(  5-C ,  6-O ) :   2.0387 B(  5-C ,  7-C ) :   0.8506 B(  7-C ,  8-O ) :   1.9037

MP2 TOTAL ENERGY:     -438.412437563 Eh
FINAL SINGLE POINT ENERGY      -438.412437563031

DIPOLE MOMENT
-------------
                                X             Y             Z
Electronic contribution:      8.65013      -2.28455      -0.30283
Nuclear contribution   :    -11.07361       2.41053       0.45400
                        -----------------------------------------
Total Dipole Moment    :     -2.42349       0.12598       0.15117
                        -----------------------------------------
Magnitude (a.u.)       :      2.43146
Magnitude (Debye)      :      6.18029

                             ****ORCA TERMINATED NORMALLY****
TOTAL RUN TIME: 0 days 0 hours 18 minutes 11 seconds 218 msec
