                         Program Version 3.0.3 - RELEASE   -
|  1> ! RI-MP2 RIJK def2-TZVP def2-TZVP/C def2-TZVP/JK TIGHTSCF
|  2> % maxcore 2000
|  3> % mp2 density relaxed end
|  4> *xyz 0 1
|  5>  O       -0.1641554513     1.4502398661     0.0750952533
|  6>  C       -0.0323124345     0.0779738331     0.0353741487
|  7>  C       -0.9343559380    -0.8458434001    -0.7819187587
|  8>  O       -0.9308572191    -1.8329367689     0.2865745264
|  9>  C       -0.1912806832    -0.9485742779     1.1340625251
| 10>  C        1.1755987285    -0.6752508556     0.5579395666
| 11>  C        1.9705990884    -1.7133780099    -0.2249625539
| 12>  C        2.9330673592    -2.4205821908     0.6129913737
| 13>  C        3.7259133520    -2.9820728162     1.3204563457
| 14>  H        0.5528434057     1.8432434459    -0.4342857869
| 15>  H       -1.9372931391    -0.4262949212    -0.9160016761
| 16>  H       -0.5635859666    -1.2495737202    -1.7313574397
| 17>  H       -0.4616397209    -0.8968825876     2.1815556158
| 18>  H        1.7674228398    -0.0425781872     1.2162807705
| 19>  H        1.2697107838    -2.4346993381    -0.6605393127
| 20>  H        2.4978268669    -1.2367256549    -1.0618810971
| 21>  H        4.4233580185    -3.4909182166     1.9382669592
| 22> *
| 23>
| 24>                          ****END OF INPUT****

CARTESIAN COORDINATES (ANGSTROEM)
---------------------------------
  O     -0.164155    1.450240    0.075095
  C     -0.032312    0.077974    0.035374
  C     -0.934356   -0.845843   -0.781919
  O     -0.930857   -1.832937    0.286575
  C     -0.191281   -0.948574    1.134063
  C      1.175599   -0.675251    0.557940
  C      1.970599   -1.713378   -0.224963
  C      2.933067   -2.420582    0.612991
  C      3.725913   -2.982073    1.320456
  H      0.552843    1.843243   -0.434286
  H     -1.937293   -0.426295   -0.916002
  H     -0.563586   -1.249574   -1.731357
  H     -0.461640   -0.896883    2.181556
  H      1.767423   -0.042578    1.216281
  H      1.269711   -2.434699   -0.660539
  H      2.497827   -1.236726   -1.061881
  H      4.423358   -3.490918    1.938267

 Total Charge           Charge          ....    0
 Multiplicity           Mult            ....    1
 Number of Electrons    NEL             ....   66
 Basis Dimension        Dim             ....  327

ORBITAL ENERGIES
----------------

  NO   OCC          E(Eh)            E(eV)
   0   2.0000     -20.585470      -560.1591
   1   2.0000     -20.563553      -559.5627
   2   2.0000     -11.303162      -307.5747
   3   2.0000     -11.292282      -307.2786
   4   2.0000     -11.290857      -307.2398
   5   2.0000     -11.259501      -306.3866
   6   2.0000     -11.253885      -306.2338
   7   2.0000     -11.234860      -305.7161
   8   2.0000     -11.220834      -305.3344
   9   2.0000      -1.413243       -38.4563
  10   2.0000      -1.382251       -37.6129
  11   2.0000      -1.133643       -30.8480
  12   2.0000      -1.056822       -28.7576
  13   2.0000      -0.973145       -26.4806
  14   2.0000      -0.953895       -25.9568
  15   2.0000      -0.815392       -22.1879
  16   2.0000      -0.772991       -21.0341
  17   2.0000      -0.742573       -20.2064
  18   2.0000      -0.719674       -19.5833
  19   2.0000      -0.668091       -18.1797
  20   2.0000      -0.656679       -17.8691
  21   2.0000      -0.650655       -17.7052
  22   2.0000      -0.626794       -17.0559
  23   2.0000      -0.597918       -16.2702
  24   2.0000      -0.569851       -15.5064
  25   2.0000      -0.555286       -15.1101
  26   2.0000      -0.533777       -14.5248
  27   2.0000      -0.516718       -14.0606
  28   2.0000      -0.470148       -12.7934
  29   2.0000      -0.416922       -11.3450
  30   2.0000      -0.392617       -10.6836
  31   2.0000      -0.384644       -10.4667
  32   2.0000      -0.373414       -10.1611
  33   0.0000       0.120850         3.2885
  34   0.0000       0.152452         4.1484
  35   0.0000       0.165639         4.5073
  36   0.0000       0.171200         4.6586
  37   0.0000       0.174233         4.7411

MULLIKEN ATOMIC CHARGES
-----------------------
   0 O :   -0.451549
   1 C :    0.128171
   2 C :   -0.025212
   3 O :   -0.337134
   4 C :    0.030251
   5 C :   -0.177404
   6 C :   -0.321058
   7 C :   -0.045001
   8 C :   -0.144004
   9 H :    0.334649
  10 H :    0.116344
  11 H :    0.112325
  12 H :    0.146424
  13 H :    0.136573
  14 H :    0.166626
  15 H :    0.139973
  16 H :    0.190026
Sum of atomic charges:    0.0000000

LOEWDIN ATOMIC CHARGES
----------------------
   0 O :    0.035734
   1 C :   -0.336570
   2 C :   -0.224771
   3 O :    0.147732
   4 C :   -0.204193
   5 C :   -0.172752
   6 C :   -0.227176
   7 C :   -0.105395
   8 C :   -0.106300
   9 H :    0.188229
  10 H :    0.131003
  11 H :    0.118511
  12 H :    0.135379
  13 H :    0.168283
  14 H :    0.168278
  15 H :    0.157891
  16 H :    0.126117

  Mayer bond orders larger than 0.1
B(  0-O ,  1-C ) :   1.0424 B(  0-O ,  9-H ) :   0.8323 B(  1-C ,  2-C ) :   0.9807
B(  1-C ,  4-C ) :   0.8888 B(  1-C ,  5-C ) :   0.8568 B(  2-C ,  3-O ) :   0.9137
B(  2-C , 10-H ) :   0.9012 B(  2-C , 11-H ) :   0.9172 B(  3-O ,  4-C ) :   0.9449
B(  4-C ,  5-C ) :   0.8863 B(  4-C , 12-H ) :   0.9073 B(  5-C ,  6-C ) :   0.8652
B(  5-C , 13-H ) :   0.9330 B(  6-C ,  7-C ) :   1.1413 B(  6-C , 14-H ) :   0.9072
B(  6-C , 15-H ) :   0.9262 B(  7-C ,  8-C ) :   2.6092 B(  8-C , 16-H ) :   0.8982

MP2 TOTAL ENERGY:     -421.019377210 Eh
FINAL SINGLE POINT ENERGY      -421.019377210197

DIPOLE MOMENT
-------------
                                X             Y             Z
Electronic contribution:     -0.87341       0.25500       1.34850
Nuclear contribution   :      1.36308       0.33909      -1.81412
                        -----------------------------------------
Total Dipole Moment    :      0.48967       0.59409      -0.46562
                        -----------------------------------------
Magnitude (a.u.)       :      0.89973
Magnitude (Debye)      :      2.28694

                             ****ORCA TERMINATED NORMALLY****
TOTAL RUN TIME: 0 days 0 hours 15 minutes 39 seconds 839 msec
