                         Program Version 3.0.3 - RELEASE   -
|  1> ! RI-MP2 RIJK def2-TZVP def2-TZVP/C def2-TZVP/JK TIGHTSCF
|  2> % maxcore 2000
|  3> % mp2 density relaxed end
|  4> *xyz 0 1
|  5>  C       -0.1633349747     1.5842530245    -0.0762614152
|  6>  C       -0.0788075167     0.0545920041    -0.0376022466
|  7>  C        0.5587691270    -0.5886331643    -1.2878242165
|  8>  C        1.9775971197    -0.0877178735    -1.6039728415
|  9>  C        3.0019348411    -0.3323063980    -0.4907181928
| 10>  C        0.3658765489    -2.1479655993    -1.3314693705
| 11>  C       -0.6894018695    -2.0160627176    -2.4704411451
| 12>  C       -0.3907173055    -0.5102713297    -2.5045705231
| 13>  O       -0.7290516267     0.3883896473    -3.2227175363
| 14>  H        0.8285010062     2.0459694391    -0.0541076224
| 15>  H       -0.6701424006     1.9264943674    -0.9830400704
| 16>  H       -0.7193899530     1.9589540674     0.7886023768
| 17>  H        0.4829127396    -0.2722775607     0.8462253340
| 18>  H       -1.0888326070    -0.3582178100     0.0847910679
| 19>  H        2.3208317824    -0.5832953425    -2.5212533987
| 20>  H        1.9321142052     0.9799388476    -1.8447307275
| 21>  H        2.7611070901     0.2301157511     0.4164635036
| 22>  H        3.0544812590    -1.3925998648    -0.2204589166
| 23>  H        4.0009626799    -0.0233679189    -0.8133163397
| 24>  H        1.2661619866    -2.6857893475    -1.6369087041
| 25>  H       -0.0060996341    -2.5902528796    -0.4053365347
| 26>  H       -0.4834933283    -2.5436998213    -3.4057573261
| 27>  H       -1.7198919395    -2.2393603106    -2.1768622645
| 28> *
| 29>
| 30>                          ****END OF INPUT****

CARTESIAN COORDINATES (ANGSTROEM)
---------------------------------
  C     -0.163335    1.584253   -0.076261
  C     -0.078808    0.054592   -0.037602
  C      0.558769   -0.588633   -1.287824
  C      1.977597   -0.087718   -1.603973
  C      3.001935   -0.332306   -0.490718
  C      0.365877   -2.147966   -1.331469
  C     -0.689402   -2.016063   -2.470441
  C     -0.390717   -0.510271   -2.504571
  O     -0.729052    0.388390   -3.222718
  H      0.828501    2.045969   -0.054108
  H     -0.670142    1.926494   -0.983040
  H     -0.719390    1.958954    0.788602
  H      0.482913   -0.272278    0.846225
  H     -1.088833   -0.358218    0.084791
  H      2.320832   -0.583295   -2.521253
  H      1.932114    0.979939   -1.844731
  H      2.761107    0.230116    0.416464
  H      3.054481   -1.392600   -0.220459
  H      4.000963   -0.023368   -0.813316
  H      1.266162   -2.685789   -1.636909
  H     -0.006100   -2.590253   -0.405337
  H     -0.483493   -2.543700   -3.405757
  H     -1.719892   -2.239360   -2.176862

 Total Charge           Charge          ....    0
 Multiplicity           Mult            ....    1
 Number of Electrons    NEL             ....   70
 Basis Dimension        Dim             ....  363

ORBITAL ENERGIES
----------------

  NO   OCC          E(Eh)            E(eV)
   0   2.0000     -20.547470      -559.1251
   1   2.0000     -11.322713      -308.1067
   2   2.0000     -11.243669      -305.9558
   3   2.0000     -11.237066      -305.7761
   4   2.0000     -11.233709      -305.6848
   5   2.0000     -11.232517      -305.6523
   6   2.0000     -11.229369      -305.5667
   7   2.0000     -11.220649      -305.3294
   8   2.0000     -11.212787      -305.1154
   9   2.0000      -1.389444       -37.8087
  10   2.0000      -1.148864       -31.2622
  11   2.0000      -1.047817       -28.5125
  12   2.0000      -1.017657       -27.6918
  13   2.0000      -0.921786       -25.0831
  14   2.0000      -0.869634       -23.6639
  15   2.0000      -0.852069       -23.1860
  16   2.0000      -0.803948       -21.8765
  17   2.0000      -0.690847       -18.7989
  18   2.0000      -0.662139       -18.0177
  19   2.0000      -0.655997       -17.8506
  20   2.0000      -0.631359       -17.1801
  21   2.0000      -0.617829       -16.8120
  22   2.0000      -0.588250       -16.0071
  23   2.0000      -0.568795       -15.4777
  24   2.0000      -0.556429       -15.1412
  25   2.0000      -0.535808       -14.5801
  26   2.0000      -0.533814       -14.5258
  27   2.0000      -0.517527       -14.0826
  28   2.0000      -0.510964       -13.9040
  29   2.0000      -0.494112       -13.4455
  30   2.0000      -0.490750       -13.3540
  31   2.0000      -0.485913       -13.2224
  32   2.0000      -0.452750       -12.3200
  33   2.0000      -0.440661       -11.9910
  34   2.0000      -0.380341       -10.3496
  35   0.0000       0.126132         3.4322
  36   0.0000       0.134045         3.6475
  37   0.0000       0.150056         4.0832
  38   0.0000       0.158187         4.3045
  39   0.0000       0.162015         4.4086

MULLIKEN ATOMIC CHARGES
-----------------------
   0 C :   -0.426227
   1 C :   -0.265011
   2 C :    0.253525
   3 C :   -0.272912
   4 C :   -0.411013
   5 C :   -0.317008
   6 C :   -0.194997
   7 C :    0.038795
   8 O :   -0.260540
   9 H :    0.127445
  10 H :    0.156145
  11 H :    0.135236
  12 H :    0.131159
  13 H :    0.117732
  14 H :    0.117300
  15 H :    0.140934
  16 H :    0.132489
  17 H :    0.128900
  18 H :    0.141022
  19 H :    0.126029
  20 H :    0.127439
  21 H :    0.135819
  22 H :    0.137738
Sum of atomic charges:    0.0000000

LOEWDIN ATOMIC CHARGES
----------------------
   0 C :   -0.310499
   1 C :   -0.245588
   2 C :   -0.229818
   3 C :   -0.245828
   4 C :   -0.312039
   5 C :   -0.192677
   6 C :   -0.209040
   7 C :   -0.280278
   8 O :    0.161216
   9 H :    0.120649
  10 H :    0.129536
  11 H :    0.122197
  12 H :    0.140725
  13 H :    0.143751
  14 H :    0.143157
  15 H :    0.145567
  16 H :    0.121089
  17 H :    0.122175
  18 H :    0.123625
  19 H :    0.133875
  20 H :    0.131255
  21 H :    0.141389
  22 H :    0.145561

  Mayer bond orders larger than 0.1
B(  0-C ,  1-C ) :   0.9205 B(  0-C ,  9-H ) :   0.9376 B(  0-C , 10-H ) :   0.9333
B(  0-C , 11-H ) :   0.9375 B(  1-C ,  2-C ) :   0.8831 B(  1-C , 12-H ) :   0.9403
B(  1-C , 13-H ) :   0.9196 B(  2-C ,  3-C ) :   0.8733 B(  2-C ,  5-C ) :   0.8812
B(  2-C ,  6-C ) :  -0.1397 B(  2-C ,  7-C ) :   0.7573 B(  3-C ,  4-C ) :   0.9136
B(  3-C , 14-H ) :   0.9243 B(  3-C , 15-H ) :   0.9388 B(  4-C , 16-H ) :   0.9389
B(  4-C , 17-H ) :   0.9367 B(  4-C , 18-H ) :   0.9410 B(  5-C ,  6-C ) :   0.9706
B(  5-C , 19-H ) :   0.9196 B(  5-C , 20-H ) :   0.9250 B(  6-C ,  7-C ) :   0.9363
B(  6-C , 21-H ) :   0.9027 B(  6-C , 22-H ) :   0.8998 B(  7-C ,  8-O ) :   2.0304

MP2 TOTAL ENERGY:     -387.629590397 Eh
FINAL SINGLE POINT ENERGY      -387.629590397031

DIPOLE MOMENT
-------------
                                X             Y             Z
Electronic contribution:     -5.06913      -0.45907      -6.97293
Nuclear contribution   :      5.43418      -0.20237       7.65687
                        -----------------------------------------
Total Dipole Moment    :      0.36504      -0.66144       0.68394
                        -----------------------------------------
Magnitude (a.u.)       :      1.01909
Magnitude (Debye)      :      2.59031

                             ****ORCA TERMINATED NORMALLY****
TOTAL RUN TIME: 0 days 0 hours 22 minutes 35 seconds 20 msec
