                         Program Version 3.0.3 - RELEASE   -
|  1> ! RI-MP2 RIJK def2-TZVP def2-TZVP/C def2-TZVP/JK TIGHTSCF
|  2> % maxcore 2000
|  3> % mp2 density relaxed end
|  4> *xyz 0 1
|  5>  C       -0.1538887123     1.4855864178     0.0329715789
|  6>  C       -0.0716510617    -0.0402772087     0.0011732789
|  7>  C       -1.3989635578    -0.6842467776    -0.3982228911
|  8>  C        1.1293300023    -0.5762637488    -0.7694316728
|  9>  N        1.4855065517    -0.5420373637    -1.9708707287
| 10>  O        1.7350613882    -1.1429185446     0.3350417842
| 11>  C        0.6549144480    -0.6934163114     1.1905520295
| 12>  C        0.9242329544    -0.2305264337     2.5770245203
| 13>  C        0.1756847520    -1.5355472367     2.3176211482
| 14>  H        0.7988630547     1.9315570507     0.3310924169
| 15>  H       -0.4124013983     1.8678327257    -0.9587284332
| 16>  H       -0.9239870953     1.8175073461     0.7380320327
| 17>  H       -1.6878619451    -0.3564714752    -1.4009746713
| 18>  H       -1.3284300589    -1.7753413465    -0.4047422924
| 19>  H       -2.1945437468    -0.3956813390     0.2975578859
| 20>  H        2.3748516600    -1.0239278080    -2.1131198917
| 21>  H        1.9450248101    -0.3034679020     2.9360392784
| 22>  H        0.3680413021     0.6204123658     2.9565754532
| 23>  H       -0.8896373612    -1.5722047102     2.5207211897
| 24>  H        0.7069741239    -2.4618765600     2.5070217148
| 25> *
| 26>
| 27>                          ****END OF INPUT****

CARTESIAN COORDINATES (ANGSTROEM)
---------------------------------
  C     -0.153889    1.485586    0.032972
  C     -0.071651   -0.040277    0.001173
  C     -1.398964   -0.684247   -0.398223
  C      1.129330   -0.576264   -0.769432
  N      1.485507   -0.542037   -1.970871
  O      1.735061   -1.142919    0.335042
  C      0.654914   -0.693416    1.190552
  C      0.924233   -0.230526    2.577025
  C      0.175685   -1.535547    2.317621
  H      0.798863    1.931557    0.331092
  H     -0.412401    1.867833   -0.958728
  H     -0.923987    1.817507    0.738032
  H     -1.687862   -0.356471   -1.400975
  H     -1.328430   -1.775341   -0.404742
  H     -2.194544   -0.395681    0.297558
  H      2.374852   -1.023928   -2.113120
  H      1.945025   -0.303468    2.936039
  H      0.368041    0.620412    2.956575
  H     -0.889637   -1.572205    2.520721
  H      0.706974   -2.461877    2.507022

 Total Charge           Charge          ....    0
 Multiplicity           Mult            ....    1
 Number of Electrons    NEL             ....   68
 Basis Dimension        Dim             ....  345

ORBITAL ENERGIES
----------------

  NO   OCC          E(Eh)            E(eV)
   0   2.0000     -20.590786      -560.3038
   1   2.0000     -15.534083      -422.7039
   2   2.0000     -11.333849      -308.4097
   3   2.0000     -11.304706      -307.6167
   4   2.0000     -11.261625      -306.4444
   5   2.0000     -11.240098      -305.8586
   6   2.0000     -11.239493      -305.8422
   7   2.0000     -11.229094      -305.5592
   8   2.0000     -11.229076      -305.5587
   9   2.0000      -1.435614       -39.0650
  10   2.0000      -1.197418       -32.5834
  11   2.0000      -1.148228       -31.2449
  12   2.0000      -1.085195       -29.5296
  13   2.0000      -0.948631       -25.8136
  14   2.0000      -0.898100       -24.4385
  15   2.0000      -0.844567       -22.9818
  16   2.0000      -0.807496       -21.9731
  17   2.0000      -0.716772       -19.5043
  18   2.0000      -0.694212       -18.8905
  19   2.0000      -0.674403       -18.3514
  20   2.0000      -0.639943       -17.4137
  21   2.0000      -0.639429       -17.3998
  22   2.0000      -0.611041       -16.6273
  23   2.0000      -0.585629       -15.9358
  24   2.0000      -0.558803       -15.2058
  25   2.0000      -0.551932       -15.0188
  26   2.0000      -0.528270       -14.3750
  27   2.0000      -0.516780       -14.0623
  28   2.0000      -0.498705       -13.5705
  29   2.0000      -0.477100       -12.9826
  30   2.0000      -0.454405       -12.3650
  31   2.0000      -0.430413       -11.7121
  32   2.0000      -0.427903       -11.6438
  33   2.0000      -0.383147       -10.4260
  34   0.0000       0.127045         3.4571
  35   0.0000       0.156129         4.2485
  36   0.0000       0.164744         4.4829
  37   0.0000       0.172255         4.6873
  38   0.0000       0.182699         4.9715

MULLIKEN ATOMIC CHARGES
-----------------------
   0 C :   -0.430217
   1 C :    0.254322
   2 C :   -0.430245
   3 C :    0.033273
   4 N :   -0.366734
   5 O :   -0.253030
   6 C :    0.082235
   7 C :   -0.265842
   8 C :   -0.265840
   9 H :    0.146836
  10 H :    0.152138
  11 H :    0.130169
  12 H :    0.152159
  13 H :    0.146830
  14 H :    0.130177
  15 H :    0.228513
  16 H :    0.142449
  17 H :    0.135175
  18 H :    0.135181
  19 H :    0.142450
Sum of atomic charges:   -0.0000000

LOEWDIN ATOMIC CHARGES
----------------------
   0 C :   -0.251588
   1 C :   -0.238513
   2 C :   -0.251600
   3 C :   -0.352106
   4 N :   -0.050501
   5 O :    0.262027
   6 C :   -0.244030
   7 C :   -0.198720
   8 C :   -0.198720
   9 H :    0.133071
  10 H :    0.135654
  11 H :    0.127162
  12 H :    0.135664
  13 H :    0.133066
  14 H :    0.127163
  15 H :    0.173043
  16 H :    0.142034
  17 H :    0.137431
  18 H :    0.137433
  19 H :    0.142032

  Mayer bond orders larger than 0.1
B(  0-C ,  1-C ) :   0.8840 B(  0-C ,  9-H ) :   0.9331 B(  0-C , 10-H ) :   0.9320
B(  0-C , 11-H ) :   0.9331 B(  1-C ,  2-C ) :   0.8840 B(  1-C ,  3-C ) :   0.8730
B(  1-C ,  6-C ) :   0.8753 B(  2-C , 12-H ) :   0.9320 B(  2-C , 13-H ) :   0.9332
B(  2-C , 14-H ) :   0.9331 B(  3-C ,  4-N ) :   2.1245 B(  3-C ,  5-O ) :   1.0625
B(  4-N , 15-H ) :   0.8469 B(  5-O ,  6-C ) :   0.9234 B(  6-C ,  7-C ) :   0.8618
B(  6-C ,  8-C ) :   0.8618 B(  7-C ,  8-C ) :   0.9232 B(  7-C , 16-H ) :   0.9165
B(  7-C , 17-H ) :   0.9120 B(  8-C , 18-H ) :   0.9120 B(  8-C , 19-H ) :   0.9165

MP2 TOTAL ENERGY:     -402.444324475 Eh
FINAL SINGLE POINT ENERGY      -402.444324474942

DIPOLE MOMENT
-------------
                                X             Y             Z
Electronic contribution:      5.83860      -2.88164      -2.35564
Nuclear contribution   :     -6.29080       2.96282       3.25306
                        -----------------------------------------
Total Dipole Moment    :     -0.45220       0.08118       0.89742
                        -----------------------------------------
Magnitude (a.u.)       :      1.00819
Magnitude (Debye)      :      2.56261

                             ****ORCA TERMINATED NORMALLY****
TOTAL RUN TIME: 0 days 0 hours 21 minutes 0 seconds 841 msec
