                         Program Version 3.0.3 - RELEASE   -
|  1> ! RI-MP2 RIJK def2-TZVP def2-TZVP/C def2-TZVP/JK TIGHTSCF
|  2> % maxcore 2000
|  3> % mp2 density relaxed end
|  4> *xyz 0 1
|  5>  C       -0.0729299695     1.5761643477    -0.0746578988
|  6>  C        0.0366620846     0.0639417617     0.0078925701
|  7>  C       -1.2047509744    -0.6395459361    -0.5166861450
|  8>  C        1.3510137013    -0.6725956756    -0.2432934557
|  9>  C        2.6200906605     0.1054019520    -0.1121299783
| 10>  C        2.8176529134     0.5272353355     1.1379354682
| 11>  C        1.7165080098     0.0607809550     2.0801572653
| 12>  O        1.1657261874     1.0898801730     2.8957924916
| 13>  C        0.7346135826    -0.6619988617     1.1467038223
| 14>  H        0.8634220219     2.0814437022     0.1717397556
| 15>  H       -0.3473562102     1.8818415426    -1.0913042342
| 16>  H       -0.8602772853     1.9465365595     0.5932678351
| 17>  H       -1.3985551235    -0.3650608520    -1.5603108829
| 18>  H       -1.1027031573    -1.7279811337    -0.4695634214
| 19>  H       -2.0893992967    -0.3620507992     0.0687125774
| 20>  H        1.3267249503    -1.5515454829    -0.8796693347
| 21>  H        3.2677044855     0.3137656041    -0.9572437250
| 22>  H        3.6335502417     1.1502995363     1.4866929247
| 23>  H        2.1177950275    -0.6560994134     2.8081709328
| 24>  H        0.7875292590     1.7537041085     2.3109519736
| 25>  H        0.2332270314    -1.5390648135     1.5397968393
| 26> *
| 27>
| 28>                          ****END OF INPUT****

CARTESIAN COORDINATES (ANGSTROEM)
---------------------------------
  C     -0.072930    1.576164   -0.074658
  C      0.036662    0.063942    0.007893
  C     -1.204751   -0.639546   -0.516686
  C      1.351014   -0.672596   -0.243293
  C      2.620091    0.105402   -0.112130
  C      2.817653    0.527235    1.137935
  C      1.716508    0.060781    2.080157
  O      1.165726    1.089880    2.895792
  C      0.734614   -0.661999    1.146704
  H      0.863422    2.081444    0.171740
  H     -0.347356    1.881842   -1.091304
  H     -0.860277    1.946537    0.593268
  H     -1.398555   -0.365061   -1.560311
  H     -1.102703   -1.727981   -0.469563
  H     -2.089399   -0.362051    0.068713
  H      1.326725   -1.551545   -0.879669
  H      3.267704    0.313766   -0.957244
  H      3.633550    1.150300    1.486693
  H      2.117795   -0.656099    2.808171
  H      0.787529    1.753704    2.310952
  H      0.233227   -1.539065    1.539797

 Total Charge           Charge          ....    0
 Multiplicity           Mult            ....    1
 Number of Electrons    NEL             ....   68
 Basis Dimension        Dim             ....  351

ORBITAL ENERGIES
----------------

  NO   OCC          E(Eh)            E(eV)
   0   2.0000     -20.549922      -559.1918
   1   2.0000     -11.283128      -307.0295
   2   2.0000     -11.248253      -306.0805
   3   2.0000     -11.234136      -305.6964
   4   2.0000     -11.233431      -305.6772
   5   2.0000     -11.226667      -305.4931
   6   2.0000     -11.222992      -305.3931
   7   2.0000     -11.222063      -305.3679
   8   2.0000     -11.220683      -305.3303
   9   2.0000      -1.356038       -36.8997
  10   2.0000      -1.185492       -32.2589
  11   2.0000      -1.063355       -28.9354
  12   2.0000      -0.973566       -26.4921
  13   2.0000      -0.940440       -25.5907
  14   2.0000      -0.938552       -25.5393
  15   2.0000      -0.795557       -21.6482
  16   2.0000      -0.766680       -20.8624
  17   2.0000      -0.723992       -19.7008
  18   2.0000      -0.702327       -19.1113
  19   2.0000      -0.636630       -17.3236
  20   2.0000      -0.624916       -17.0048
  21   2.0000      -0.597917       -16.2702
  22   2.0000      -0.587277       -15.9806
  23   2.0000      -0.576953       -15.6997
  24   2.0000      -0.564821       -15.3696
  25   2.0000      -0.553654       -15.0657
  26   2.0000      -0.534574       -14.5465
  27   2.0000      -0.520500       -14.1635
  28   2.0000      -0.492789       -13.4095
  29   2.0000      -0.481415       -13.1000
  30   2.0000      -0.437219       -11.8973
  31   2.0000      -0.431832       -11.7507
  32   2.0000      -0.397873       -10.8267
  33   2.0000      -0.335872        -9.1396
  34   0.0000       0.129781         3.5315
  35   0.0000       0.137678         3.7464
  36   0.0000       0.161983         4.4078
  37   0.0000       0.171030         4.6540
  38   0.0000       0.181787         4.9467

MULLIKEN ATOMIC CHARGES
-----------------------
   0 C :   -0.455426
   1 C :    0.090843
   2 C :   -0.426527
   3 C :   -0.066712
   4 C :   -0.176641
   5 C :   -0.237839
   6 C :    0.124738
   7 O :   -0.458483
   8 C :   -0.167263
   9 H :    0.150733
  10 H :    0.135491
  11 H :    0.146408
  12 H :    0.133191
  13 H :    0.131826
  14 H :    0.136071
  15 H :    0.132623
  16 H :    0.128589
  17 H :    0.126468
  18 H :    0.105095
  19 H :    0.317407
  20 H :    0.129408
Sum of atomic charges:    0.0000000

LOEWDIN ATOMIC CHARGES
----------------------
   0 C :   -0.275501
   1 C :   -0.245089
   2 C :   -0.262729
   3 C :   -0.151784
   4 C :   -0.131831
   5 C :   -0.144743
   6 C :   -0.296353
   7 O :   -0.018904
   8 C :   -0.136393
   9 H :    0.127718
  10 H :    0.130424
  11 H :    0.127473
  12 H :    0.126734
  13 H :    0.128608
  14 H :    0.128313
  15 H :    0.147443
  16 H :    0.139548
  17 H :    0.138102
  18 H :    0.150340
  19 H :    0.170840
  20 H :    0.147785

  Mayer bond orders larger than 0.1
B(  0-C ,  1-C ) :   0.8846 B(  0-C ,  9-H ) :   0.9353 B(  0-C , 10-H ) :   0.9291
B(  0-C , 11-H ) :   0.9411 B(  1-C ,  2-C ) :   0.8982 B(  1-C ,  3-C ) :   0.8360
B(  1-C ,  8-C ) :   0.8747 B(  2-C , 12-H ) :   0.9424 B(  2-C , 13-H ) :   0.9301
B(  2-C , 14-H ) :   0.9381 B(  3-C ,  4-C ) :   0.9210 B(  3-C ,  8-C ) :   0.8437
B(  3-C , 15-H ) :   0.9148 B(  4-C ,  5-C ) :   1.7527 B(  4-C , 16-H ) :   0.9288
B(  5-C ,  6-C ) :   0.9628 B(  5-C , 17-H ) :   0.9395 B(  6-C ,  7-O ) :   0.9365
B(  6-C ,  8-C ) :   0.9179 B(  6-C , 18-H ) :   0.9195 B(  7-O , 19-H ) :   0.8423
B(  8-C , 20-H ) :   0.9275

MP2 TOTAL ENERGY:     -386.410346577 Eh
FINAL SINGLE POINT ENERGY      -386.410346577482

DIPOLE MOMENT
-------------
                                X             Y             Z
Electronic contribution:      4.81192      -0.57937       3.72679
Nuclear contribution   :     -4.95156       0.51859      -4.49349
                        -----------------------------------------
Total Dipole Moment    :     -0.13964      -0.06078      -0.76671
                        -----------------------------------------
Magnitude (a.u.)       :      0.78169
Magnitude (Debye)      :      1.98689

                             ****ORCA TERMINATED NORMALLY****
TOTAL RUN TIME: 0 days 0 hours 18 minutes 33 seconds 512 msec
