                         Program Version 3.0.3 - RELEASE   -
|  1> ! RI-MP2 RIJK def2-TZVP def2-TZVP/C def2-TZVP/JK TIGHTSCF
|  2> % maxcore 2000
|  3> % mp2 density relaxed end
|  4> *xyz 0 1
|  5>  O        0.0179631731    -0.0629251102     0.3956442140
|  6>  C       -0.0056078313     1.1260819136     0.1309104852
|  7>  N       -1.1804127741     1.8080780580    -0.0909760017
|  8>  C       -1.2733689299     3.2614700294    -0.0721117374
|  9>  C       -0.0710078377     3.8751167348    -0.7657351514
| 10>  C       -0.2165596181     4.6584737912    -2.0096214290
| 11>  O       -0.0544503878     5.3075527158    -0.7498684105
| 12>  C        1.2101131667     3.1967911915    -0.4634310700
| 13>  C        1.2330308569     1.9338820003    -0.0300988997
| 14>  H       -2.0075840533     1.2782717696     0.1427619804
| 15>  H       -2.1974204009     3.5714549686    -0.5670104552
| 16>  H       -1.3026555541     3.6548949009     0.9564738675
| 17>  H        0.6245791033     4.7490231233    -2.6953456029
| 18>  H       -1.2024290165     4.7472266597    -2.4644560545
| 19>  H        2.1180433230     3.7707373696    -0.6263033766
| 20>  H        2.1542231207     1.4047941238     0.1823802918
| 21> *
| 22>
| 23>                          ****END OF INPUT****

CARTESIAN COORDINATES (ANGSTROEM)
---------------------------------
  O      0.017963   -0.062925    0.395644
  C     -0.005608    1.126082    0.130910
  N     -1.180413    1.808078   -0.090976
  C     -1.273369    3.261470   -0.072112
  C     -0.071008    3.875117   -0.765735
  C     -0.216560    4.658474   -2.009621
  O     -0.054450    5.307553   -0.749868
  C      1.210113    3.196791   -0.463431
  C      1.233031    1.933882   -0.030099
  H     -2.007584    1.278272    0.142762
  H     -2.197420    3.571455   -0.567010
  H     -1.302656    3.654895    0.956474
  H      0.624579    4.749023   -2.695346
  H     -1.202429    4.747227   -2.464456
  H      2.118043    3.770737   -0.626303
  H      2.154223    1.404794    0.182380

 Total Charge           Charge          ....    0
 Multiplicity           Mult            ....    1
 Number of Electrons    NEL             ....   66
 Basis Dimension        Dim             ....  321

ORBITAL ENERGIES
----------------

  NO   OCC          E(Eh)            E(eV)
   0   2.0000     -20.592321      -560.3455
   1   2.0000     -20.522683      -558.4506
   2   2.0000     -15.588411      -424.1822
   3   2.0000     -11.356233      -309.0188
   4   2.0000     -11.320991      -308.0598
   5   2.0000     -11.306078      -307.6540
   6   2.0000     -11.291418      -307.2551
   7   2.0000     -11.272788      -306.7482
   8   2.0000     -11.254320      -306.2456
   9   2.0000      -1.438320       -39.1387
  10   2.0000      -1.385626       -37.7048
  11   2.0000      -1.245274       -33.8856
  12   2.0000      -1.100700       -29.9516
  13   2.0000      -1.014817       -27.6146
  14   2.0000      -0.933118       -25.3914
  15   2.0000      -0.893645       -24.3173
  16   2.0000      -0.842777       -22.9331
  17   2.0000      -0.744741       -20.2654
  18   2.0000      -0.721713       -19.6388
  19   2.0000      -0.695243       -18.9185
  20   2.0000      -0.661247       -17.9935
  21   2.0000      -0.651246       -17.7213
  22   2.0000      -0.631793       -17.1920
  23   2.0000      -0.620916       -16.8960
  24   2.0000      -0.596066       -16.2198
  25   2.0000      -0.558005       -15.1841
  26   2.0000      -0.554520       -15.0893
  27   2.0000      -0.530247       -14.4288
  28   2.0000      -0.493401       -13.4261
  29   2.0000      -0.466785       -12.7019
  30   2.0000      -0.432694       -11.7742
  31   2.0000      -0.401858       -10.9351
  32   2.0000      -0.380583       -10.3562
  33   0.0000       0.087386         2.3779
  34   0.0000       0.130255         3.5444
  35   0.0000       0.157438         4.2841
  36   0.0000       0.165395         4.5006
  37   0.0000       0.174506         4.7485

MULLIKEN ATOMIC CHARGES
-----------------------
   0 O :   -0.342274
   1 C :    0.239623
   2 N :   -0.301107
   3 C :   -0.115204
   4 C :    0.234238
   5 C :   -0.081925
   6 O :   -0.324660
   7 C :   -0.193880
   8 C :   -0.168493
   9 H :    0.240430
  10 H :    0.134143
  11 H :    0.129733
  12 H :    0.126415
  13 H :    0.120835
  14 H :    0.150973
  15 H :    0.151153
Sum of atomic charges:    0.0000000

LOEWDIN ATOMIC CHARGES
----------------------
   0 O :    0.091170
   1 C :   -0.442885
   2 N :    0.107883
   3 C :   -0.223786
   4 C :   -0.311915
   5 C :   -0.228899
   6 O :    0.178448
   7 C :   -0.096621
   8 C :   -0.109271
   9 H :    0.189857
  10 H :    0.142150
  11 H :    0.140763
  12 H :    0.124766
  13 H :    0.124274
  14 H :    0.156888
  15 H :    0.157179

  Mayer bond orders larger than 0.1
B(  0-O ,  1-C ) :   1.9531 B(  1-C ,  2-N ) :   1.1602 B(  1-C ,  8-C ) :   0.9742
B(  2-N ,  3-C ) :   0.8976 B(  2-N ,  9-H ) :   0.8603 B(  3-C ,  4-C ) :   0.9086
B(  3-C , 10-H ) :   0.9224 B(  3-C , 11-H ) :   0.9283 B(  4-C ,  5-C ) :   0.9515
B(  4-C ,  6-O ) :   0.8690 B(  4-C ,  7-C ) :   0.9544 B(  5-C ,  6-O ) :   0.8896
B(  5-C , 12-H ) :   0.9098 B(  5-C , 13-H ) :   0.9055 B(  7-C ,  8-C ) :   1.6978
B(  7-C , 14-H ) :   0.9128 B(  8-C , 15-H ) :   0.9291

MP2 TOTAL ENERGY:     -437.177404371 Eh
FINAL SINGLE POINT ENERGY      -437.177404371327

DIPOLE MOMENT
-------------
                                X             Y             Z
Electronic contribution:      0.86294      -2.45504       1.50380
Nuclear contribution   :     -1.26407       3.39412      -2.09327
                        -----------------------------------------
Total Dipole Moment    :     -0.40114       0.93908      -0.58946
                        -----------------------------------------
Magnitude (a.u.)       :      1.17909
Magnitude (Debye)      :      2.99700

                             ****ORCA TERMINATED NORMALLY****
TOTAL RUN TIME: 0 days 0 hours 16 minutes 33 seconds 727 msec
