                         Program Version 3.0.3 - RELEASE   -
|  1> ! RI-MP2 RIJK def2-TZVP def2-TZVP/C def2-TZVP/JK TIGHTSCF
|  2> % maxcore 2000
|  3> % mp2 density relaxed end
|  4> *xyz 0 1
|  5>  C        0.0719501167     1.4384978414     0.0209923856
|  6>  O       -0.1478680421     0.0427841433    -0.1032097498
|  7>  C        0.5917366987    -0.5737160131    -1.1368232706
|  8>  C        2.0598533739    -0.8760774964    -0.7345426529
|  9>  O        2.8221977186    -0.0866229303    -0.2411141596
| 10>  C        2.3428157412    -2.3545516348    -1.0248461978
| 11>  C        0.9850335179    -2.8808065410    -1.4024635858
| 12>  C        0.0347538320    -1.9415790781    -1.4506205743
| 13>  C       -1.4143159621    -2.1182280618    -1.7686093484
| 14>  H        1.1079653358     1.6634276406     0.2931524804
| 15>  H       -0.1714346510     1.9619111565    -0.9172191135
| 16>  H       -0.5990979653     1.7921133945     0.8074718807
| 17>  H        0.5920136937     0.0751121871    -2.0335273032
| 18>  H        3.0851063942    -2.4333867285    -1.8313182342
| 19>  H        2.7905456484    -2.8427456953    -0.1503972514
| 20>  H        0.8092496790    -3.9302887933    -1.6148197329
| 21>  H       -1.6660106817    -3.1703185490    -1.9262204872
| 22>  H       -2.0320843852    -1.7246515345    -0.9547896458
| 23>  H       -1.6918411427    -1.5595546573    -2.6719116393
| 24> *
| 25>
| 26>                          ****END OF INPUT****

CARTESIAN COORDINATES (ANGSTROEM)
---------------------------------
  C      0.071950    1.438498    0.020992
  O     -0.147868    0.042784   -0.103210
  C      0.591737   -0.573716   -1.136823
  C      2.059853   -0.876077   -0.734543
  O      2.822198   -0.086623   -0.241114
  C      2.342816   -2.354552   -1.024846
  C      0.985034   -2.880807   -1.402464
  C      0.034754   -1.941579   -1.450621
  C     -1.414316   -2.118228   -1.768609
  H      1.107965    1.663428    0.293152
  H     -0.171435    1.961911   -0.917219
  H     -0.599098    1.792113    0.807472
  H      0.592014    0.075112   -2.033527
  H      3.085106   -2.433387   -1.831318
  H      2.790546   -2.842746   -0.150397
  H      0.809250   -3.930289   -1.614820
  H     -1.666011   -3.170319   -1.926220
  H     -2.032084   -1.724652   -0.954790
  H     -1.691841   -1.559555   -2.671912

 Total Charge           Charge          ....    0
 Multiplicity           Mult            ....    1
 Number of Electrons    NEL             ....   68
 Basis Dimension        Dim             ....  339

ORBITAL ENERGIES
----------------

  NO   OCC          E(Eh)            E(eV)
   0   2.0000     -20.564525      -559.5892
   1   2.0000     -20.553085      -559.2779
   2   2.0000     -11.333240      -308.3931
   3   2.0000     -11.297448      -307.4192
   4   2.0000     -11.267574      -306.6063
   5   2.0000     -11.246127      -306.0227
   6   2.0000     -11.244968      -305.9911
   7   2.0000     -11.239172      -305.8334
   8   2.0000     -11.228588      -305.5454
   9   2.0000      -1.402320       -38.1591
  10   2.0000      -1.376473       -37.4557
  11   2.0000      -1.146024       -31.1849
  12   2.0000      -1.017604       -27.6904
  13   2.0000      -0.977672       -26.6038
  14   2.0000      -0.906330       -24.6625
  15   2.0000      -0.896733       -24.4013
  16   2.0000      -0.757174       -20.6038
  17   2.0000      -0.746539       -20.3144
  18   2.0000      -0.679908       -18.5012
  19   2.0000      -0.668701       -18.1963
  20   2.0000      -0.636245       -17.3131
  21   2.0000      -0.630543       -17.1579
  22   2.0000      -0.604407       -16.4467
  23   2.0000      -0.589202       -16.0330
  24   2.0000      -0.583821       -15.8866
  25   2.0000      -0.568759       -15.4767
  26   2.0000      -0.558991       -15.2109
  27   2.0000      -0.521104       -14.1800
  28   2.0000      -0.513437       -13.9713
  29   2.0000      -0.504153       -13.7187
  30   2.0000      -0.488622       -13.2961
  31   2.0000      -0.462952       -12.5976
  32   2.0000      -0.384952       -10.4751
  33   2.0000      -0.359233        -9.7752
  34   0.0000       0.121583         3.3084
  35   0.0000       0.140646         3.8272
  36   0.0000       0.151215         4.1148
  37   0.0000       0.156704         4.2641
  38   0.0000       0.166310         4.5255

MULLIKEN ATOMIC CHARGES
-----------------------
   0 C :   -0.233291
   1 O :   -0.316843
   2 C :    0.135279
   3 C :    0.085174
   4 O :   -0.268991
   5 C :   -0.113851
   6 C :   -0.232566
   7 C :    0.044085
   8 C :   -0.425376
   9 H :    0.151474
  10 H :    0.106948
  11 H :    0.136951
  12 H :    0.088515
  13 H :    0.138108
  14 H :    0.140937
  15 H :    0.132794
  16 H :    0.135169
  17 H :    0.160605
  18 H :    0.134880
Sum of atomic charges:   -0.0000000

LOEWDIN ATOMIC CHARGES
----------------------
   0 C :   -0.346827
   1 O :    0.163687
   2 C :   -0.257518
   3 C :   -0.265037
   4 O :    0.162921
   5 C :   -0.213746
   6 C :   -0.125792
   7 C :   -0.170215
   8 C :   -0.268787
   9 H :    0.109788
  10 H :    0.101063
  11 H :    0.112943
  12 H :    0.148717
  13 H :    0.154755
  14 H :    0.152528
  15 H :    0.140147
  16 H :    0.130302
  17 H :    0.138353
  18 H :    0.132720

  Mayer bond orders larger than 0.1
B(  0-C ,  1-O ) :   0.8949 B(  0-C ,  9-H ) :   0.9334 B(  0-C , 10-H ) :   0.9358
B(  0-C , 11-H ) :   0.9371 B(  1-O ,  2-C ) :   0.9370 B(  2-C ,  3-C ) :   0.8702
B(  2-C ,  5-C ) :  -0.1092 B(  2-C ,  7-C ) :   0.9080 B(  2-C , 12-H ) :   0.8959
B(  3-C ,  4-O ) :   2.0363 B(  3-C ,  5-C ) :   0.9391 B(  5-C ,  6-C ) :   0.9305
B(  5-C , 13-H ) :   0.8896 B(  5-C , 14-H ) :   0.9004 B(  6-C ,  7-C ) :   1.7018
B(  6-C , 15-H ) :   0.9163 B(  7-C ,  8-C ) :   0.8832 B(  8-C , 16-H ) :   0.9468
B(  8-C , 17-H ) :   0.9334 B(  8-C , 18-H ) :   0.9261

MP2 TOTAL ENERGY:     -422.329012120 Eh
FINAL SINGLE POINT ENERGY      -422.329012119643

DIPOLE MOMENT
-------------
                                X             Y             Z
Electronic contribution:      5.00334      -0.00402       1.71427
Nuclear contribution   :     -5.41890      -0.38448      -2.36900
                        -----------------------------------------
Total Dipole Moment    :     -0.41556      -0.38849      -0.65474
                        -----------------------------------------
Magnitude (a.u.)       :      0.86735
Magnitude (Debye)      :      2.20464

                             ****ORCA TERMINATED NORMALLY****
TOTAL RUN TIME: 0 days 0 hours 18 minutes 16 seconds 520 msec
