                         Program Version 3.0.3 - RELEASE   -
|  1> ! RI-MP2 RIJK def2-TZVP def2-TZVP/C def2-TZVP/JK TIGHTSCF
|  2> % maxcore 2000
|  3> % mp2 density relaxed end
|  4> *xyz 0 1
|  5>  C       -0.0125773889     1.5216507293     0.0007550262
|  6>  C       -0.1332572826     0.0083949386    -0.0757040086
|  7>  O        0.7052120541    -0.4511396531    -1.1179715740
|  8>  C        0.8107410957    -1.8616724119    -1.2371221137
|  9>  C       -0.4336756699    -2.5142972527    -1.8399739967
| 10>  C        2.0373860172    -2.0960243074    -2.1117022997
| 11>  C        3.4188305472    -1.8116751425    -1.4890757672
| 12>  C        3.6754109503    -3.3133760732    -1.7264609531
| 13>  O        2.3405965162    -3.5046245098    -2.2464950618
| 14>  H        1.0214714725     1.8150326992     0.2030474360
| 15>  H       -0.3182197938     1.9780369019    -0.9450680608
| 16>  H       -0.6499303704     1.9156852165     0.7981051027
| 17>  H        0.1667504475    -0.4521925836     0.8808019426
| 18>  H       -1.1805215022    -0.2787697790    -0.2568121367
| 19>  H        1.0091206237    -2.3035241923    -0.2450273262
| 20>  H       -0.2364602845    -3.5747711801    -2.0185945054
| 21>  H       -1.2978221246    -2.4346929121    -1.1747380808
| 22>  H       -0.6852912770    -2.0376363052    -2.7931534594
| 23>  H        1.8729491331    -1.6269603539    -3.0915996142
| 24>  H        4.0583187198    -1.1251558964    -2.0444549556
| 25>  H        3.3833202059    -1.5010362934    -0.4434455484
| 26>  H        4.4395829869    -3.5472694016    -2.4780206415
| 27>  H        3.8583508038    -3.9258819375    -0.8355097835
| 28> *
| 29>
| 30>                          ****END OF INPUT****

CARTESIAN COORDINATES (ANGSTROEM)
---------------------------------
  C     -0.012577    1.521651    0.000755
  C     -0.133257    0.008395   -0.075704
  O      0.705212   -0.451140   -1.117972
  C      0.810741   -1.861672   -1.237122
  C     -0.433676   -2.514297   -1.839974
  C      2.037386   -2.096024   -2.111702
  C      3.418831   -1.811675   -1.489076
  C      3.675411   -3.313376   -1.726461
  O      2.340597   -3.504625   -2.246495
  H      1.021471    1.815033    0.203047
  H     -0.318220    1.978037   -0.945068
  H     -0.649930    1.915685    0.798105
  H      0.166750   -0.452193    0.880802
  H     -1.180522   -0.278770   -0.256812
  H      1.009121   -2.303524   -0.245027
  H     -0.236460   -3.574771   -2.018595
  H     -1.297822   -2.434693   -1.174738
  H     -0.685291   -2.037636   -2.793153
  H      1.872949   -1.626960   -3.091600
  H      4.058319   -1.125156   -2.044455
  H      3.383320   -1.501036   -0.443446
  H      4.439583   -3.547269   -2.478021
  H      3.858351   -3.925882   -0.835510

 Total Charge           Charge          ....    0
 Multiplicity           Mult            ....    1
 Number of Electrons    NEL             ....   72
 Basis Dimension        Dim             ....  363

ORBITAL ENERGIES
----------------

  NO   OCC          E(Eh)            E(eV)
   0   2.0000     -20.552011      -559.2487
   1   2.0000     -20.543563      -559.0188
   2   2.0000     -11.276636      -306.8529
   3   2.0000     -11.275805      -306.8302
   4   2.0000     -11.275786      -306.8297
   5   2.0000     -11.274981      -306.8078
   6   2.0000     -11.224972      -305.4470
   7   2.0000     -11.214738      -305.1685
   8   2.0000     -11.209407      -305.0235
   9   2.0000      -1.380615       -37.5684
  10   2.0000      -1.367989       -37.2249
  11   2.0000      -1.056683       -28.7538
  12   2.0000      -1.005560       -27.3627
  13   2.0000      -0.992353       -27.0033
  14   2.0000      -0.925809       -25.1925
  15   2.0000      -0.849415       -23.1138
  16   2.0000      -0.811016       -22.0689
  17   2.0000      -0.758213       -20.6320
  18   2.0000      -0.690393       -18.7865
  19   2.0000      -0.669595       -18.2206
  20   2.0000      -0.659406       -17.9433
  21   2.0000      -0.647399       -17.6166
  22   2.0000      -0.595932       -16.2161
  23   2.0000      -0.585302       -15.9269
  24   2.0000      -0.577666       -15.7191
  25   2.0000      -0.547377       -14.8949
  26   2.0000      -0.543043       -14.7769
  27   2.0000      -0.531379       -14.4596
  28   2.0000      -0.522323       -14.2131
  29   2.0000      -0.519262       -14.1298
  30   2.0000      -0.488933       -13.3046
  31   2.0000      -0.471072       -12.8185
  32   2.0000      -0.458610       -12.4794
  33   2.0000      -0.451540       -12.2870
  34   2.0000      -0.418792       -11.3959
  35   2.0000      -0.403715       -10.9856
  36   0.0000       0.135930         3.6988
  37   0.0000       0.153618         4.1802
  38   0.0000       0.161049         4.3824
  39   0.0000       0.164189         4.4678
  40   0.0000       0.183892         5.0040

MULLIKEN ATOMIC CHARGES
-----------------------
   0 C :   -0.363354
   1 C :   -0.052698
   2 O :   -0.300710
   3 C :    0.042199
   4 C :   -0.416984
   5 C :    0.170296
   6 C :   -0.293220
   7 C :   -0.009907
   8 O :   -0.349414
   9 H :    0.127171
  10 H :    0.130145
  11 H :    0.121208
  12 H :    0.089099
  13 H :    0.095770
  14 H :    0.066761
  15 H :    0.156124
  16 H :    0.131609
  17 H :    0.124881
  18 H :    0.086604
  19 H :    0.128980
  20 H :    0.123401
  21 H :    0.096011
  22 H :    0.096029
Sum of atomic charges:    0.0000000

LOEWDIN ATOMIC CHARGES
----------------------
   0 C :   -0.317359
   1 C :   -0.351672
   2 O :    0.182948
   3 C :   -0.342959
   4 C :   -0.295248
   5 C :   -0.261928
   6 C :   -0.227641
   7 C :   -0.272455
   8 O :    0.129780
   9 H :    0.122846
  10 H :    0.124123
  11 H :    0.123862
  12 H :    0.115989
  13 H :    0.117055
  14 H :    0.137175
  15 H :    0.135173
  16 H :    0.120616
  17 H :    0.126880
  18 H :    0.138385
  19 H :    0.130664
  20 H :    0.133860
  21 H :    0.115448
  22 H :    0.114458

  Mayer bond orders larger than 0.1
B(  0-C ,  1-C ) :   0.9536 B(  0-C ,  9-H ) :   0.9374 B(  0-C , 10-H ) :   0.9358
B(  0-C , 11-H ) :   0.9326 B(  1-C ,  2-O ) :   0.9228 B(  1-C , 12-H ) :   0.9241
B(  1-C , 13-H ) :   0.9227 B(  2-O ,  3-C ) :   0.9408 B(  3-C ,  4-C ) :   0.9107
B(  3-C ,  5-C ) :   0.9485 B(  3-C , 14-H ) :   0.9238 B(  4-C , 15-H ) :   0.9291
B(  4-C , 16-H ) :   0.9346 B(  4-C , 17-H ) :   0.9319 B(  5-C ,  6-C ) :   0.9080
B(  5-C ,  8-O ) :   0.9100 B(  5-C , 18-H ) :   0.9032 B(  6-C ,  7-C ) :   0.9805
B(  6-C , 19-H ) :   0.9304 B(  6-C , 20-H ) :   0.9266 B(  7-C ,  8-O ) :   0.9411
B(  7-C , 21-H ) :   0.9191 B(  7-C , 22-H ) :   0.9160

MP2 TOTAL ENERGY:     -424.695617978 Eh
FINAL SINGLE POINT ENERGY      -424.695617978227

DIPOLE MOMENT
-------------
                                X             Y             Z
Electronic contribution:      3.43940      -3.94943      -3.08041
Nuclear contribution   :     -3.34056       4.26828       3.61212
                        -----------------------------------------
Total Dipole Moment    :      0.09883       0.31886       0.53171
                        -----------------------------------------
Magnitude (a.u.)       :      0.62781
Magnitude (Debye)      :      1.59578

                             ****ORCA TERMINATED NORMALLY****
TOTAL RUN TIME: 0 days 0 hours 17 minutes 12 seconds 182 msec
