                         Program Version 3.0.3 - RELEASE   -
|  1> ! RI-MP2 RIJK def2-TZVP def2-TZVP/C def2-TZVP/JK TIGHTSCF
|  2> % maxcore 2000
|  3> % mp2 density relaxed end
|  4> *xyz 0 1
|  5>  C       -0.0806013062     1.5442400388    -0.0446638476
|  6>  C       -0.0025635409     0.0439449787    -0.0059098583
|  7>  C        0.8407193786    -0.7865852895    -0.9800523683
|  8>  C       -0.1221025283    -1.9935640768    -0.7511690637
|  9>  C        0.4041130793    -2.8482965641     0.3979120438
| 10>  O        0.5430051970    -1.9227502129     1.4806515614
| 11>  C       -0.3189897681    -0.8220566209     1.2112240848
| 12>  C       -0.8921217166    -0.2353658320     2.4708526014
| 13>  C       -1.1099757890    -1.0314191329    -0.0387369398
| 14>  H        0.8710857189     1.9930819636     0.2654302427
| 15>  H       -0.2955861186     1.8978782279    -1.0601834878
| 16>  H       -0.8593816109     1.9389594250     0.6138920489
| 17>  H        0.7587889679    -0.3924207660    -1.9972570971
| 18>  H        1.8981209626    -0.9413598090    -0.7362675566
| 19>  H       -0.4540354060    -2.5457928329    -1.6295495435
| 20>  H       -0.2990845442    -3.6529977661     0.6650684825
| 21>  H        1.3854129128    -3.2913511406     0.1956394362
| 22>  H       -0.0997077337     0.1746114857     3.1057365462
| 23>  H       -1.6037556697     0.5643383895     2.2529125646
| 24>  H       -1.4121238761    -1.0116713634     3.0403258523
| 25>  H       -2.1862520386    -0.9614387819    -0.1409943422
| 26> *
| 27>
| 28>                          ****END OF INPUT****

CARTESIAN COORDINATES (ANGSTROEM)
---------------------------------
  C     -0.080601    1.544240   -0.044664
  C     -0.002564    0.043945   -0.005910
  C      0.840719   -0.786585   -0.980052
  C     -0.122103   -1.993564   -0.751169
  C      0.404113   -2.848297    0.397912
  O      0.543005   -1.922750    1.480652
  C     -0.318990   -0.822057    1.211224
  C     -0.892122   -0.235366    2.470853
  C     -1.109976   -1.031419   -0.038737
  H      0.871086    1.993082    0.265430
  H     -0.295586    1.897878   -1.060183
  H     -0.859382    1.938959    0.613892
  H      0.758789   -0.392421   -1.997257
  H      1.898121   -0.941360   -0.736268
  H     -0.454035   -2.545793   -1.629550
  H     -0.299085   -3.652998    0.665068
  H      1.385413   -3.291351    0.195639
  H     -0.099708    0.174611    3.105737
  H     -1.603756    0.564338    2.252913
  H     -1.412124   -1.011671    3.040326
  H     -2.186252   -0.961439   -0.140994

 Total Charge           Charge          ....    0
 Multiplicity           Mult            ....    1
 Number of Electrons    NEL             ....   68
 Basis Dimension        Dim             ....  351

ORBITAL ENERGIES
----------------

  NO   OCC          E(Eh)            E(eV)
   0   2.0000     -20.544500      -559.0443
   1   2.0000     -11.279910      -306.9420
   2   2.0000     -11.267229      -306.5969
   3   2.0000     -11.235197      -305.7252
   4   2.0000     -11.233272      -305.6729
   5   2.0000     -11.223741      -305.4135
   6   2.0000     -11.221784      -305.3603
   7   2.0000     -11.218655      -305.2751
   8   2.0000     -11.216703      -305.2220
   9   2.0000      -1.375849       -37.4388
  10   2.0000      -1.176183       -32.0056
  11   2.0000      -1.043585       -28.3974
  12   2.0000      -0.981568       -26.7098
  13   2.0000      -0.934760       -25.4361
  14   2.0000      -0.915202       -24.9039
  15   2.0000      -0.815574       -22.1929
  16   2.0000      -0.759776       -20.6745
  17   2.0000      -0.705808       -19.2060
  18   2.0000      -0.676913       -18.4197
  19   2.0000      -0.652997       -17.7690
  20   2.0000      -0.612691       -16.6722
  21   2.0000      -0.600409       -16.3380
  22   2.0000      -0.576220       -15.6797
  23   2.0000      -0.563381       -15.3304
  24   2.0000      -0.548985       -14.9386
  25   2.0000      -0.537930       -14.6378
  26   2.0000      -0.533724       -14.5234
  27   2.0000      -0.531911       -14.4740
  28   2.0000      -0.480623       -13.0784
  29   2.0000      -0.475236       -12.9318
  30   2.0000      -0.457231       -12.4419
  31   2.0000      -0.434314       -11.8183
  32   2.0000      -0.373807       -10.1718
  33   2.0000      -0.356490        -9.7006
  34   0.0000       0.137750         3.7484
  35   0.0000       0.154733         4.2105
  36   0.0000       0.166263         4.5242
  37   0.0000       0.181750         4.9457
  38   0.0000       0.193380         5.2621

MULLIKEN ATOMIC CHARGES
-----------------------
   0 C :   -0.409156
   1 C :   -0.013819
   2 C :   -0.201194
   3 C :   -0.065107
   4 C :   -0.040842
   5 O :   -0.323011
   6 C :    0.235113
   7 C :   -0.443431
   8 C :   -0.224868
   9 H :    0.138974
  10 H :    0.131405
  11 H :    0.125385
  12 H :    0.113459
  13 H :    0.107660
  14 H :    0.126653
  15 H :    0.086219
  16 H :    0.109672
  17 H :    0.142591
  18 H :    0.127195
  19 H :    0.138367
  20 H :    0.138735
Sum of atomic charges:    0.0000000

LOEWDIN ATOMIC CHARGES
----------------------
   0 C :   -0.274728
   1 C :   -0.187313
   2 C :   -0.166645
   3 C :   -0.195753
   4 C :   -0.274998
   5 O :    0.189312
   6 C :   -0.291633
   7 C :   -0.259473
   8 C :   -0.110904
   9 H :    0.131468
  10 H :    0.127637
  11 H :    0.126957
  12 H :    0.138158
  13 H :    0.129976
  14 H :    0.142079
  15 H :    0.120509
  16 H :    0.126397
  17 H :    0.132398
  18 H :    0.129321
  19 H :    0.131694
  20 H :    0.135541

  Mayer bond orders larger than 0.1
B(  0-C ,  1-C ) :   0.8763 B(  0-C ,  9-H ) :   0.9386 B(  0-C , 10-H ) :   0.9413
B(  0-C , 11-H ) :   0.9370 B(  1-C ,  2-C ) :   0.9233 B(  1-C ,  6-C ) :   0.8774
B(  1-C ,  8-C ) :   0.7780 B(  2-C ,  3-C ) :   0.9258 B(  2-C , 12-H ) :   0.9185
B(  2-C , 13-H ) :   0.9016 B(  3-C ,  4-C ) :   0.9678 B(  3-C ,  8-C ) :   0.9047
B(  3-C , 14-H ) :   0.9065 B(  4-C ,  5-O ) :   0.9462 B(  4-C , 15-H ) :   0.9245
B(  4-C , 16-H ) :   0.9126 B(  5-O ,  6-C ) :   0.9790 B(  6-C ,  7-C ) :   0.8754
B(  6-C ,  8-C ) :   0.8885 B(  7-C , 17-H ) :   0.9429 B(  7-C , 18-H ) :   0.9422
B(  7-C , 19-H ) :   0.9344 B(  8-C , 20-H ) :   0.8939

MP2 TOTAL ENERGY:     -386.395881713 Eh
FINAL SINGLE POINT ENERGY      -386.395881712571

DIPOLE MOMENT
-------------
                                X             Y             Z
Electronic contribution:      0.95034      -4.02074       0.23784
Nuclear contribution   :     -1.32773       4.17349      -0.71871
                        -----------------------------------------
Total Dipole Moment    :     -0.37739       0.15274      -0.48087
                        -----------------------------------------
Magnitude (a.u.)       :      0.63007
Magnitude (Debye)      :      1.60151

                             ****ORCA TERMINATED NORMALLY****
TOTAL RUN TIME: 0 days 0 hours 19 minutes 53 seconds 553 msec
