                         Program Version 3.0.3 - RELEASE   -
|  1> ! RI-MP2 RIJK def2-TZVP def2-TZVP/C def2-TZVP/JK TIGHTSCF
|  2> % maxcore 2000
|  3> % mp2 density relaxed end
|  4> *xyz 0 1
|  5>  O        0.0191040419     1.3294211747     0.0649953985
|  6>  C        0.0304122210    -0.0587013743    -0.0174246179
|  7>  C       -0.3763498475    -0.8604507973     1.2038695270
|  8>  C       -1.2766136321    -0.8220264068    -0.0220825164
|  9>  O       -2.4604058004    -0.0774449595     0.0011612064
| 10>  C       -1.0921507157    -1.9247087264    -1.0122573282
| 11>  C        0.1295946232    -1.8827333331    -1.5511195563
| 12>  C        0.9485270173    -0.7095607818    -1.0460886662
| 13>  H       -0.9030653775     1.6006023080    -0.0429034350
| 14>  H        0.1240890475    -1.7903412089     1.4550860854
| 15>  H       -0.6854860350    -0.2485566504     2.0463770882
| 16>  H       -2.9872969702    -0.3533288369     0.7576176125
| 17>  H       -1.8589070588    -2.6623135878    -1.2200772262
| 18>  H        0.5297842345    -2.6088676790    -2.2494930202
| 19>  H        1.1840432111     0.0020195942    -1.8472021857
| 20>  H        1.9044351606    -1.0295170747    -0.6140187059
| 21> *
| 22>
| 23>                          ****END OF INPUT****

CARTESIAN COORDINATES (ANGSTROEM)
---------------------------------
  O      0.019104    1.329421    0.064995
  C      0.030412   -0.058701   -0.017425
  C     -0.376350   -0.860451    1.203870
  C     -1.276614   -0.822026   -0.022083
  O     -2.460406   -0.077445    0.001161
  C     -1.092151   -1.924709   -1.012257
  C      0.129595   -1.882733   -1.551120
  C      0.948527   -0.709561   -1.046089
  H     -0.903065    1.600602   -0.042903
  H      0.124089   -1.790341    1.455086
  H     -0.685486   -0.248557    2.046377
  H     -2.987297   -0.353329    0.757618
  H     -1.858907   -2.662314   -1.220077
  H      0.529784   -2.608868   -2.249493
  H      1.184043    0.002020   -1.847202
  H      1.904435   -1.029517   -0.614019

 Total Charge           Charge          ....    0
 Multiplicity           Mult            ....    1
 Number of Electrons    NEL             ....   60
 Basis Dimension        Dim             ....  296

ORBITAL ENERGIES
----------------

  NO   OCC          E(Eh)            E(eV)
   0   2.0000     -20.579844      -560.0060
   1   2.0000     -20.557489      -559.3977
   2   2.0000     -11.290645      -307.2341
   3   2.0000     -11.284432      -307.0650
   4   2.0000     -11.234458      -305.7052
   5   2.0000     -11.231455      -305.6234
   6   2.0000     -11.230935      -305.6093
   7   2.0000     -11.230645      -305.6014
   8   2.0000      -1.396177       -37.9919
   9   2.0000      -1.362850       -37.0850
  10   2.0000      -1.167038       -31.7567
  11   2.0000      -1.040118       -28.3030
  12   2.0000      -0.960140       -26.1267
  13   2.0000      -0.846658       -23.0387
  14   2.0000      -0.774929       -21.0869
  15   2.0000      -0.762823       -20.7575
  16   2.0000      -0.721642       -19.6369
  17   2.0000      -0.664190       -18.0735
  18   2.0000      -0.653581       -17.7848
  19   2.0000      -0.620120       -16.8743
  20   2.0000      -0.595940       -16.2164
  21   2.0000      -0.578822       -15.7506
  22   2.0000      -0.562934       -15.3182
  23   2.0000      -0.544691       -14.8218
  24   2.0000      -0.521217       -14.1830
  25   2.0000      -0.518294       -14.1035
  26   2.0000      -0.475711       -12.9448
  27   2.0000      -0.428618       -11.6633
  28   2.0000      -0.383029       -10.4227
  29   2.0000      -0.342181        -9.3112
  30   0.0000       0.131396         3.5755
  31   0.0000       0.146924         3.9980
  32   0.0000       0.158663         4.3175
  33   0.0000       0.175796         4.7837
  34   0.0000       0.196101         5.3362

MULLIKEN ATOMIC CHARGES
-----------------------
   0 O :   -0.461709
   1 C :    0.148107
   2 C :   -0.310984
   3 C :    0.189391
   4 O :   -0.474776
   5 C :   -0.225018
   6 C :   -0.197176
   7 C :   -0.120336
   8 H :    0.336845
   9 H :    0.133091
  10 H :    0.136912
  11 H :    0.339627
  12 H :    0.122963
  13 H :    0.130992
  14 H :    0.124720
  15 H :    0.127354
Sum of atomic charges:   -0.0000000

LOEWDIN ATOMIC CHARGES
----------------------
   0 O :    0.027650
   1 C :   -0.314421
   2 C :   -0.173946
   3 C :   -0.328755
   4 O :    0.021678
   5 C :   -0.123994
   6 C :   -0.141400
   7 C :   -0.194857
   8 H :    0.188791
   9 H :    0.137718
  10 H :    0.141863
  11 H :    0.185491
  12 H :    0.140043
  13 H :    0.136735
  14 H :    0.150658
  15 H :    0.146747

  Mayer bond orders larger than 0.1
B(  0-O ,  1-C ) :   1.1606 B(  0-O ,  7-C ) :  -0.1059 B(  0-O ,  8-H ) :   0.8185
B(  1-C ,  2-C ) :   0.8509 B(  1-C ,  3-C ) :   0.8402 B(  1-C ,  7-C ) :   0.9124
B(  2-C ,  3-C ) :   0.8934 B(  2-C ,  9-H ) :   0.8959 B(  2-C , 10-H ) :   0.9224
B(  3-C ,  4-O ) :   1.0153 B(  3-C ,  5-C ) :   0.9505 B(  4-O , 11-H ) :   0.8327
B(  5-C ,  6-C ) :   1.7730 B(  5-C , 12-H ) :   0.9212 B(  6-C ,  7-C ) :   0.9463
B(  6-C , 13-H ) :   0.9248 B(  7-C , 14-H ) :   0.8993 B(  7-C , 15-H ) :   0.9065

MP2 TOTAL ENERGY:     -383.091817708 Eh
FINAL SINGLE POINT ENERGY      -383.091817707898

DIPOLE MOMENT
-------------
                                X             Y             Z
Electronic contribution:     -1.95278       1.78710      -0.10218
Nuclear contribution   :      1.56599      -2.44798       0.41092
                        -----------------------------------------
Total Dipole Moment    :     -0.38679      -0.66088       0.30874
                        -----------------------------------------
Magnitude (a.u.)       :      0.82564
Magnitude (Debye)      :      2.09862

                             ****ORCA TERMINATED NORMALLY****
TOTAL RUN TIME: 0 days 0 hours 12 minutes 22 seconds 647 msec
