                         Program Version 3.0.3 - RELEASE   -
|  1> ! RI-MP2 RIJK def2-TZVP def2-TZVP/C def2-TZVP/JK TIGHTSCF
|  2> % maxcore 2000
|  3> % mp2 density relaxed end
|  4> *xyz 0 1
|  5>  C       -0.0947497726     1.5504377406    -0.0660631433
|  6>  C        0.0202760098     0.0307670098    -0.0369528790
|  7>  N        0.9636939443    -0.3955935883    -1.1055766519
|  8>  C        1.6251554325    -1.3545794090    -0.5940820419
|  9>  N        3.0267486281    -1.0816202884    -0.2282369064
| 10>  C        2.3044673693    -1.0150343724     1.1525189270
| 11>  C        1.1864715009    -1.9204836190     0.7996318047
| 12>  C        0.7331286757    -0.5738068944     1.2060693201
| 13>  O        0.2169175607    -0.3862968317     2.4733548385
| 14>  H        0.8968358219     2.0099114474    -0.0275886068
| 15>  H       -0.5871953701     1.8790824483    -0.9844795211
| 16>  H       -0.6910296632     1.9026427220     0.7839633100
| 17>  H       -0.9838147231    -0.4157468475    -0.1039289469
| 18>  H        3.5479736941    -1.9629308035    -0.1507700449
| 19>  H        2.9049676174    -0.9609676252     2.0554526754
| 20>  H        0.8894124183    -2.9131408562     1.1134972939
| 21>  H        0.3024599360     0.5464159677     2.7011644426
| 22> *
| 23>
| 24>                          ****END OF INPUT****

CARTESIAN COORDINATES (ANGSTROEM)
---------------------------------
  C     -0.094750    1.550438   -0.066063
  C      0.020276    0.030767   -0.036953
  N      0.963694   -0.395594   -1.105577
  C      1.625155   -1.354579   -0.594082
  N      3.026749   -1.081620   -0.228237
  C      2.304467   -1.015034    1.152519
  C      1.186472   -1.920484    0.799632
  C      0.733129   -0.573807    1.206069
  O      0.216918   -0.386297    2.473355
  H      0.896836    2.009911   -0.027589
  H     -0.587195    1.879082   -0.984480
  H     -0.691030    1.902643    0.783963
  H     -0.983815   -0.415747   -0.103929
  H      3.547974   -1.962931   -0.150770
  H      2.904968   -0.960968    2.055453
  H      0.889412   -2.913141    1.113497
  H      0.302460    0.546416    2.701164

 Total Charge           Charge          ....    0
 Multiplicity           Mult            ....    1
 Number of Electrons    NEL             ....   66
 Basis Dimension        Dim             ....  327

ORBITAL ENERGIES
----------------

  NO   OCC          E(Eh)            E(eV)
   0   2.0000     -20.589328      -560.2641
   1   2.0000     -15.585913      -424.1143
   2   2.0000     -15.544083      -422.9760
   3   2.0000     -11.328995      -308.2776
   4   2.0000     -11.322820      -308.1096
   5   2.0000     -11.296205      -307.3854
   6   2.0000     -11.277549      -306.8777
   7   2.0000     -11.250662      -306.1461
   8   2.0000     -11.220601      -305.3281
   9   2.0000      -1.405644       -38.2495
  10   2.0000      -1.321539       -35.9609
  11   2.0000      -1.185972       -32.2719
  12   2.0000      -1.098841       -29.9010
  13   2.0000      -1.017316       -27.6826
  14   2.0000      -0.875428       -23.8216
  15   2.0000      -0.839358       -22.8401
  16   2.0000      -0.797216       -21.6934
  17   2.0000      -0.768529       -20.9127
  18   2.0000      -0.687389       -18.7048
  19   2.0000      -0.676937       -18.4204
  20   2.0000      -0.646615       -17.5953
  21   2.0000      -0.626835       -17.0570
  22   2.0000      -0.616565       -16.7776
  23   2.0000      -0.573401       -15.6030
  24   2.0000      -0.561450       -15.2778
  25   2.0000      -0.546356       -14.8671
  26   2.0000      -0.521181       -14.1821
  27   2.0000      -0.507714       -13.8156
  28   2.0000      -0.470343       -12.7987
  29   2.0000      -0.438189       -11.9237
  30   2.0000      -0.411401       -11.1948
  31   2.0000      -0.380267       -10.3476
  32   2.0000      -0.354745        -9.6531
  33   0.0000       0.091338         2.4854
  34   0.0000       0.127026         3.4566
  35   0.0000       0.143626         3.9083
  36   0.0000       0.162148         4.4123
  37   0.0000       0.179439         4.8828

MULLIKEN ATOMIC CHARGES
-----------------------
   0 C :   -0.432355
   1 C :    0.090584
   2 N :   -0.213883
   3 C :    0.043712
   4 N :   -0.253439
   5 C :   -0.136164
   6 C :   -0.118583
   7 C :    0.101478
   8 O :   -0.456931
   9 H :    0.147738
  10 H :    0.145350
  11 H :    0.118135
  12 H :    0.103820
  13 H :    0.209783
  14 H :    0.151606
  15 H :    0.160934
  16 H :    0.338215
Sum of atomic charges:    0.0000000

LOEWDIN ATOMIC CHARGES
----------------------
   0 C :   -0.292813
   1 C :   -0.250478
   2 N :    0.157553
   3 C :   -0.270969
   4 N :    0.018274
   5 C :   -0.154867
   6 C :   -0.136159
   7 C :   -0.294415
   8 O :    0.049920
   9 H :    0.130847
  10 H :    0.131034
  11 H :    0.122008
  12 H :    0.149770
  13 H :    0.169738
  14 H :    0.138411
  15 H :    0.141395
  16 H :    0.190752

  Mayer bond orders larger than 0.1
B(  0-C ,  1-C ) :   0.8731 B(  0-C ,  9-H ) :   0.9406 B(  0-C , 10-H ) :   0.9335
B(  0-C , 11-H ) :   0.9342 B(  1-C ,  2-N ) :   0.8796 B(  1-C ,  7-C ) :   0.9002
B(  1-C , 12-H ) :   0.8968 B(  2-N ,  3-C ) :   1.8606 B(  3-C ,  4-N ) :   1.0329
B(  3-C ,  6-C ) :   0.9429 B(  4-N ,  5-C ) :   0.8249 B(  4-N , 13-H ) :   0.8561
B(  5-C ,  6-C ) :   0.8656 B(  5-C ,  7-C ) :   0.8622 B(  5-C , 14-H ) :   0.9068
B(  6-C ,  7-C ) :   0.8793 B(  6-C , 15-H ) :   0.8828 B(  7-C ,  8-O ) :   1.0052
B(  8-O , 16-H ) :   0.8309

MP2 TOTAL ENERGY:     -417.160409955 Eh
FINAL SINGLE POINT ENERGY      -417.160409955024

DIPOLE MOMENT
-------------
                                X             Y             Z
Electronic contribution:      2.05929      -4.30506      -0.73112
Nuclear contribution   :     -2.27663       4.08308       1.69352
                        -----------------------------------------
Total Dipole Moment    :     -0.21734      -0.22199       0.96240
                        -----------------------------------------
Magnitude (a.u.)       :      1.01130
Magnitude (Debye)      :      2.57051

                             ****ORCA TERMINATED NORMALLY****
TOTAL RUN TIME: 0 days 0 hours 20 minutes 12 seconds 840 msec
