                         Program Version 3.0.3 - RELEASE   -
|  1> ! RI-MP2 RIJK def2-TZVP def2-TZVP/C def2-TZVP/JK TIGHTSCF
|  2> % maxcore 2000
|  3> % mp2 density relaxed end
|  4> *xyz 0 1
|  5>  C       -0.2373851592     1.4816588507    -0.1493176599
|  6>  N       -0.0392804419     0.0469912727     0.0204896069
|  7>  C        1.3073014681    -0.4579407140    -0.2063641861
|  8>  C        0.7563010133    -0.4345682204     1.1767540822
|  9>  C        1.2803077585     0.4806444866     2.2303295350
| 10>  C        0.5603325794     0.5411890002     3.5519911589
| 11>  N        2.3116913498     1.1890530754     1.9546000173
| 12>  O        2.6529651537     2.0385401556     3.0178625512
| 13>  H        0.6229937271     2.0962304998     0.1505722602
| 14>  H       -0.4461522649     1.6722755859    -1.2067506172
| 15>  H       -1.1117247827     1.7968086625     0.4299077969
| 16>  H        1.3786592488    -1.4027821884    -0.7393840835
| 17>  H        2.0940745972     0.2600080488    -0.4246498533
| 18>  H        0.3505345619    -1.3584556219     1.5852355433
| 19>  H        1.2717954792     0.4687177030     4.3792638998
| 20>  H        0.0491692410     1.5041846809     3.6637283239
| 21>  H       -0.1811168100    -0.2554624107     3.6347329883
| 22>  H        3.4535579106     2.4616485032     2.6899834161
| 23> *
| 24>
| 25>                          ****END OF INPUT****

CARTESIAN COORDINATES (ANGSTROEM)
---------------------------------
  C     -0.237385    1.481659   -0.149318
  N     -0.039280    0.046991    0.020490
  C      1.307301   -0.457941   -0.206364
  C      0.756301   -0.434568    1.176754
  C      1.280308    0.480644    2.230330
  C      0.560333    0.541189    3.551991
  N      2.311691    1.189053    1.954600
  O      2.652965    2.038540    3.017863
  H      0.622994    2.096230    0.150572
  H     -0.446152    1.672276   -1.206751
  H     -1.111725    1.796809    0.429908
  H      1.378659   -1.402782   -0.739384
  H      2.094075    0.260008   -0.424650
  H      0.350535   -1.358456    1.585236
  H      1.271795    0.468718    4.379264
  H      0.049169    1.504185    3.663728
  H     -0.181117   -0.255462    3.634733
  H      3.453558    2.461649    2.689983

 Total Charge           Charge          ....    0
 Multiplicity           Mult            ....    1
 Number of Electrons    NEL             ....   62
 Basis Dimension        Dim             ....  308

ORBITAL ENERGIES
----------------

  NO   OCC          E(Eh)            E(eV)
   0   2.0000     -20.593852      -560.3872
   1   2.0000     -15.616120      -424.9362
   2   2.0000     -15.563338      -423.4999
   3   2.0000     -11.283926      -307.0512
   4   2.0000     -11.265769      -306.5572
   5   2.0000     -11.251939      -306.1808
   6   2.0000     -11.241695      -305.9021
   7   2.0000     -11.231937      -305.6365
   8   2.0000      -1.421886       -38.6915
   9   2.0000      -1.273919       -34.6651
  10   2.0000      -1.161826       -31.6149
  11   2.0000      -0.997269       -27.1371
  12   2.0000      -0.985360       -26.8130
  13   2.0000      -0.876248       -23.8439
  14   2.0000      -0.823420       -22.4064
  15   2.0000      -0.734446       -19.9853
  16   2.0000      -0.700983       -19.0747
  17   2.0000      -0.667388       -18.1605
  18   2.0000      -0.654765       -17.8171
  19   2.0000      -0.616638       -16.7796
  20   2.0000      -0.606341       -16.4994
  21   2.0000      -0.586037       -15.9469
  22   2.0000      -0.560200       -15.2438
  23   2.0000      -0.555555       -15.1174
  24   2.0000      -0.549806       -14.9610
  25   2.0000      -0.523493       -14.2450
  26   2.0000      -0.476262       -12.9597
  27   2.0000      -0.458104       -12.4656
  28   2.0000      -0.434546       -11.8246
  29   2.0000      -0.389664       -10.6033
  30   2.0000      -0.364132        -9.9085
  31   0.0000       0.135178         3.6784
  32   0.0000       0.138584         3.7711
  33   0.0000       0.157871         4.2959
  34   0.0000       0.173116         4.7107
  35   0.0000       0.176927         4.8144

MULLIKEN ATOMIC CHARGES
-----------------------
   0 C :   -0.304402
   1 N :   -0.221987
   2 C :   -0.158664
   3 C :   -0.076442
   4 C :    0.093384
   5 C :   -0.421505
   6 N :   -0.111526
   7 O :   -0.371111
   8 H :    0.131389
   9 H :    0.140819
  10 H :    0.129377
  11 H :    0.126686
  12 H :    0.135556
  13 H :    0.124133
  14 H :    0.158117
  15 H :    0.150693
  16 H :    0.139400
  17 H :    0.336083
Sum of atomic charges:   -0.0000000

LOEWDIN ATOMIC CHARGES
----------------------
   0 C :   -0.332196
   1 N :    0.090619
   2 C :   -0.239378
   3 C :   -0.229622
   4 C :   -0.296623
   5 C :   -0.279825
   6 N :    0.024956
   7 O :   -0.067807
   8 H :    0.110107
   9 H :    0.119596
  10 H :    0.116895
  11 H :    0.124857
  12 H :    0.129709
  13 H :    0.148930
  14 H :    0.138542
  15 H :    0.139944
  16 H :    0.131102
  17 H :    0.170193

  Mayer bond orders larger than 0.1
B(  0-C ,  1-N ) :   0.8807 B(  0-C ,  8-H ) :   0.9250 B(  0-C ,  9-H ) :   0.9358
B(  0-C , 10-H ) :   0.9386 B(  1-N ,  2-C ) :   0.9052 B(  1-N ,  3-C ) :   0.8951
B(  2-C ,  3-C ) :   0.9367 B(  2-C , 11-H ) :   0.9179 B(  2-C , 12-H ) :   0.9152
B(  3-C ,  4-C ) :   0.9493 B(  3-C , 13-H ) :   0.9160 B(  4-C ,  5-C ) :   0.9500
B(  4-C ,  6-N ) :   1.7651 B(  5-C , 14-H ) :   0.9216 B(  5-C , 15-H ) :   0.9165
B(  5-C , 16-H ) :   0.9333 B(  6-N ,  7-O ) :   0.8180 B(  7-O , 17-H ) :   0.8453

MP2 TOTAL ENERGY:     -380.407385588 Eh
FINAL SINGLE POINT ENERGY      -380.407385588438

DIPOLE MOMENT
-------------
                                X             Y             Z
Electronic contribution:      3.58540      -0.29136       0.85005
Nuclear contribution   :     -3.30172       0.52107      -0.62993
                        -----------------------------------------
Total Dipole Moment    :      0.28367       0.22971       0.22011
                        -----------------------------------------
Magnitude (a.u.)       :      0.42625
Magnitude (Debye)      :      1.08344

                             ****ORCA TERMINATED NORMALLY****
TOTAL RUN TIME: 0 days 0 hours 13 minutes 0 seconds 63 msec
