                         Program Version 3.0.3 - RELEASE   -
|  1> ! RI-MP2 RIJK def2-TZVP def2-TZVP/C def2-TZVP/JK TIGHTSCF
|  2> % maxcore 2000
|  3> % mp2 density relaxed end
|  4> *xyz 0 1
|  5>  C        0.0652786527     1.4158961202     0.0778173004
|  6>  O       -0.0828804694     0.0224615309    -0.1094660032
|  7>  C        0.6993418906    -0.5308054176    -1.1521724462
|  8>  C        2.1819749128    -0.6419296232    -0.8030942043
|  9>  C        0.0435995923    -1.9098441683    -1.4058687303
| 10>  C       -1.4725400971    -1.7226857484    -1.6240035287
| 11>  O       -2.3079928685    -2.3464856833    -1.0377887466
| 12>  C        0.6184724711    -2.5676325346    -2.5754839711
| 13>  N        1.0590798495    -3.0655950677    -3.5212515481
| 14>  H        1.0621784623     1.6830068448     0.4525767037
| 15>  H       -0.1184548722     1.9690760796    -0.8553365093
| 16>  H       -0.6784149861     1.7142635946     0.8195075896
| 17>  H        0.5813571019     0.0776727880    -2.0649849172
| 18>  H        2.3121481456    -1.2170384851     0.1186709019
| 19>  H        2.7295134561    -1.1376798898    -1.6093208737
| 20>  H        2.6247177642     0.3469224944    -0.6590082382
| 21>  H        0.1681336581    -2.5469435554    -0.5243805832
| 22>  H       -1.7231041140    -0.9588983191    -2.3908153054
| 23> *
| 24>
| 25>                          ****END OF INPUT****

CARTESIAN COORDINATES (ANGSTROEM)
---------------------------------
  C      0.065279    1.415896    0.077817
  O     -0.082880    0.022462   -0.109466
  C      0.699342   -0.530805   -1.152172
  C      2.181975   -0.641930   -0.803094
  C      0.043600   -1.909844   -1.405869
  C     -1.472540   -1.722686   -1.624004
  O     -2.307993   -2.346486   -1.037789
  C      0.618472   -2.567633   -2.575484
  N      1.059080   -3.065595   -3.521252
  H      1.062178    1.683007    0.452577
  H     -0.118455    1.969076   -0.855337
  H     -0.678415    1.714264    0.819508
  H      0.581357    0.077673   -2.064985
  H      2.312148   -1.217038    0.118671
  H      2.729513   -1.137680   -1.609321
  H      2.624718    0.346922   -0.659008
  H      0.168134   -2.546944   -0.524381
  H     -1.723104   -0.958898   -2.390815

 Total Charge           Charge          ....    0
 Multiplicity           Mult            ....    1
 Number of Electrons    NEL             ....   68
 Basis Dimension        Dim             ....  333

ORBITAL ENERGIES
----------------

  NO   OCC          E(Eh)            E(eV)
   0   2.0000     -20.587483      -560.2139
   1   2.0000     -20.579499      -559.9966
   2   2.0000     -15.588675      -424.1894
   3   2.0000     -11.359040      -309.0952
   4   2.0000     -11.328442      -308.2626
   5   2.0000     -11.302990      -307.5700
   6   2.0000     -11.295084      -307.3549
   7   2.0000     -11.290954      -307.2425
   8   2.0000     -11.244257      -305.9718
   9   2.0000      -1.422716       -38.7141
  10   2.0000      -1.409036       -38.3418
  11   2.0000      -1.237562       -33.6758
  12   2.0000      -1.121028       -30.5047
  13   2.0000      -1.016887       -27.6709
  14   2.0000      -0.957570       -26.0568
  15   2.0000      -0.847370       -23.0581
  16   2.0000      -0.842830       -22.9346
  17   2.0000      -0.749939       -20.4069
  18   2.0000      -0.699641       -19.0382
  19   2.0000      -0.693420       -18.8689
  20   2.0000      -0.671372       -18.2690
  21   2.0000      -0.651521       -17.7288
  22   2.0000      -0.630604       -17.1596
  23   2.0000      -0.592079       -16.1113
  24   2.0000      -0.585713       -15.9381
  25   2.0000      -0.573768       -15.6130
  26   2.0000      -0.565521       -15.3886
  27   2.0000      -0.543468       -14.7885
  28   2.0000      -0.529243       -14.4014
  29   2.0000      -0.507184       -13.8012
  30   2.0000      -0.494204       -13.4480
  31   2.0000      -0.473280       -12.8786
  32   2.0000      -0.456130       -12.4119
  33   2.0000      -0.431336       -11.7373
  34   0.0000       0.111724         3.0402
  35   0.0000       0.120695         3.2843
  36   0.0000       0.138075         3.7572
  37   0.0000       0.150585         4.0976
  38   0.0000       0.168104         4.5743

MULLIKEN ATOMIC CHARGES
-----------------------
   0 C :   -0.227878
   1 O :   -0.294720
   2 C :    0.024448
   3 C :   -0.416132
   4 C :    0.160498
   5 C :    0.110696
   6 O :   -0.230510
   7 C :   -0.242055
   8 N :   -0.049002
   9 H :    0.123873
  10 H :    0.118226
  11 H :    0.152871
  12 H :    0.096113
  13 H :    0.140574
  14 H :    0.164514
  15 H :    0.141882
  16 H :    0.136790
  17 H :    0.089811
Sum of atomic charges:    0.0000000

LOEWDIN ATOMIC CHARGES
----------------------
   0 C :   -0.345407
   1 O :    0.168485
   2 C :   -0.323457
   3 C :   -0.283994
   4 C :   -0.215325
   5 C :   -0.250359
   6 O :    0.167551
   7 C :   -0.170342
   8 N :    0.075573
   9 H :    0.105057
  10 H :    0.105291
  11 H :    0.118894
  12 H :    0.144257
  13 H :    0.131961
  14 H :    0.138113
  15 H :    0.127281
  16 H :    0.185848
  17 H :    0.120574

  Mayer bond orders larger than 0.1
B(  0-C ,  1-O ) :   0.8991 B(  0-C ,  9-H ) :   0.9343 B(  0-C , 10-H ) :   0.9328
B(  0-C , 11-H ) :   0.9384 B(  1-O ,  2-C ) :   0.9405 B(  2-C ,  3-C ) :   0.9277
B(  2-C ,  4-C ) :   0.8841 B(  2-C , 12-H ) :   0.9179 B(  3-C , 13-H ) :   0.9289
B(  3-C , 14-H ) :   0.9282 B(  3-C , 15-H ) :   0.9336 B(  4-C ,  5-C ) :   0.7959
B(  4-C ,  7-C ) :   0.8987 B(  4-C , 16-H ) :   0.8806 B(  5-C ,  6-O ) :   2.0094
B(  5-C , 17-H ) :   0.9203 B(  7-C ,  8-N ) :   2.8454

MP2 TOTAL ENERGY:     -438.371023728 Eh
FINAL SINGLE POINT ENERGY      -438.371023727779

DIPOLE MOMENT
-------------
                                X             Y             Z
Electronic contribution:     -5.29989      -8.41071      -3.97591
Nuclear contribution   :      5.88128      10.00249       4.62343
                        -----------------------------------------
Total Dipole Moment    :      0.58138       1.59178       0.64752
                        -----------------------------------------
Magnitude (a.u.)       :      1.81413
Magnitude (Debye)      :      4.61115

                             ****ORCA TERMINATED NORMALLY****
TOTAL RUN TIME: 0 days 0 hours 16 minutes 9 seconds 972 msec
