                         Program Version 3.0.3 - RELEASE   -
|  1> ! RI-MP2 RIJK def2-TZVP def2-TZVP/C def2-TZVP/JK TIGHTSCF
|  2> % maxcore 2000
|  3> % mp2 density relaxed end
|  4> *xyz 0 1
|  5>  C        0.0448204641     1.5891522415     0.0545971272
|  6>  C        0.0397720373     0.0603661629     0.0998483394
|  7>  O        0.6602887470    -0.4171985276     1.2919393294
|  8>  C       -1.3600264806    -0.5377292597    -0.0732051959
|  9>  C       -2.0135791695    -0.2395872057    -1.4429990873
| 10>  O       -2.7449847884    -1.3977694640    -1.8307206012
| 11>  C       -2.6960007888    -2.3820896932    -0.7926854478
| 12>  C       -2.7782319643    -3.7619437555    -1.4240028605
| 13>  C       -1.4093221956    -2.0727744247    -0.0244573987
| 14>  H        1.0599740186     1.9663156231     0.2044430121
| 15>  H       -0.3270215123     1.9673720492    -0.9030680374
| 16>  H       -0.5940339417     2.0021613294     0.8458787065
| 17>  H        0.6765518282    -0.3247310685    -0.7077317031
| 18>  H        0.1756261262    -0.0505003252     2.0400679296
| 19>  H       -2.0034200873    -0.1357046823     0.7232952902
| 20>  H       -2.6823417038     0.6299149536    -1.4001680980
| 21>  H       -1.2535525880    -0.0352460432    -2.2117518010
| 22>  H       -3.5617404837    -2.2408439684    -0.1213646518
| 23>  H       -1.9237482396    -3.9307203882    -2.0867154722
| 24>  H       -2.7821750626    -4.5377843832    -0.6517190321
| 25>  H       -3.6940934212    -3.8600592745    -2.0136337353
| 26>  H       -0.5469672845    -2.4965693711    -0.5540013979
| 27>  H       -1.4068304996    -2.4712060749     0.9918091555
| 28> *
| 29>
| 30>                          ****END OF INPUT****

CARTESIAN COORDINATES (ANGSTROEM)
---------------------------------
  C      0.044820    1.589152    0.054597
  C      0.039772    0.060366    0.099848
  O      0.660289   -0.417199    1.291939
  C     -1.360026   -0.537729   -0.073205
  C     -2.013579   -0.239587   -1.442999
  O     -2.744985   -1.397769   -1.830721
  C     -2.696001   -2.382090   -0.792685
  C     -2.778232   -3.761944   -1.424003
  C     -1.409322   -2.072774   -0.024457
  H      1.059974    1.966316    0.204443
  H     -0.327022    1.967372   -0.903068
  H     -0.594034    2.002161    0.845879
  H      0.676552   -0.324731   -0.707732
  H      0.175626   -0.050500    2.040068
  H     -2.003420   -0.135705    0.723295
  H     -2.682342    0.629915   -1.400168
  H     -1.253553   -0.035246   -2.211752
  H     -3.561740   -2.240844   -0.121365
  H     -1.923748   -3.930720   -2.086715
  H     -2.782175   -4.537784   -0.651719
  H     -3.694093   -3.860059   -2.013634
  H     -0.546967   -2.496569   -0.554001
  H     -1.406830   -2.471206    0.991809

 Total Charge           Charge          ....    0
 Multiplicity           Mult            ....    1
 Number of Electrons    NEL             ....   72
 Basis Dimension        Dim             ....  363

ORBITAL ENERGIES
----------------

  NO   OCC          E(Eh)            E(eV)
   0   2.0000     -20.556242      -559.3638
   1   2.0000     -20.544051      -559.0321
   2   2.0000     -11.284479      -307.0663
   3   2.0000     -11.274320      -306.7898
   4   2.0000     -11.272447      -306.7389
   5   2.0000     -11.231894      -305.6354
   6   2.0000     -11.223143      -305.3972
   7   2.0000     -11.219641      -305.3019
   8   2.0000     -11.210954      -305.0656
   9   2.0000      -1.369936       -37.2778
  10   2.0000      -1.362155       -37.0661
  11   2.0000      -1.082235       -29.4491
  12   2.0000      -1.040484       -28.3130
  13   2.0000      -0.992351       -27.0033
  14   2.0000      -0.913600       -24.8603
  15   2.0000      -0.862065       -23.4580
  16   2.0000      -0.797237       -21.6939
  17   2.0000      -0.777291       -21.1512
  18   2.0000      -0.689808       -18.7706
  19   2.0000      -0.675766       -18.3885
  20   2.0000      -0.641389       -17.4531
  21   2.0000      -0.629037       -17.1170
  22   2.0000      -0.610749       -16.6193
  23   2.0000      -0.586574       -15.9615
  24   2.0000      -0.584509       -15.9053
  25   2.0000      -0.555054       -15.1038
  26   2.0000      -0.550233       -14.9726
  27   2.0000      -0.528102       -14.3704
  28   2.0000      -0.525605       -14.3024
  29   2.0000      -0.506704       -13.7881
  30   2.0000      -0.495312       -13.4781
  31   2.0000      -0.479016       -13.0347
  32   2.0000      -0.464380       -12.6364
  33   2.0000      -0.451623       -12.2893
  34   2.0000      -0.433813       -11.8046
  35   2.0000      -0.407263       -11.0822
  36   0.0000       0.126444         3.4407
  37   0.0000       0.145243         3.9523
  38   0.0000       0.149702         4.0736
  39   0.0000       0.164950         4.4885
  40   0.0000       0.180504         4.9118

MULLIKEN ATOMIC CHARGES
-----------------------
   0 C :   -0.392678
   1 C :    0.079760
   2 O :   -0.465727
   3 C :   -0.128300
   4 C :   -0.060571
   5 O :   -0.313456
   6 C :    0.117001
   7 C :   -0.384377
   8 C :   -0.224265
   9 H :    0.150539
  10 H :    0.132052
  11 H :    0.116041
  12 H :    0.094733
  13 H :    0.309410
  14 H :    0.089400
  15 H :    0.102593
  16 H :    0.094884
  17 H :    0.068918
  18 H :    0.123097
  19 H :    0.121690
  20 H :    0.139474
  21 H :    0.110244
  22 H :    0.119538
Sum of atomic charges:   -0.0000000

LOEWDIN ATOMIC CHARGES
----------------------
   0 C :   -0.300431
   1 C :   -0.358037
   2 O :   -0.019028
   3 C :   -0.248024
   4 C :   -0.278843
   5 O :    0.161231
   6 C :   -0.337615
   7 C :   -0.294087
   8 C :   -0.215355
   9 H :    0.127470
  10 H :    0.127702
  11 H :    0.121641
  12 H :    0.147154
  13 H :    0.173376
  14 H :    0.150691
  15 H :    0.120737
  16 H :    0.124338
  17 H :    0.134442
  18 H :    0.124613
  19 H :    0.125950
  20 H :    0.126846
  21 H :    0.145914
  22 H :    0.139316

  Mayer bond orders larger than 0.1
B(  0-C ,  1-C ) :   0.9450 B(  0-C ,  9-H ) :   0.9416 B(  0-C , 10-H ) :   0.9323
B(  0-C , 11-H ) :   0.9207 B(  1-C ,  2-O ) :   0.8890 B(  1-C ,  3-C ) :   0.9400
B(  1-C , 12-H ) :   0.9087 B(  2-O , 13-H ) :   0.8444 B(  3-C ,  4-C ) :   0.9284
B(  3-C ,  8-C ) :   0.9214 B(  3-C , 14-H ) :   0.9093 B(  4-C ,  5-O ) :   0.9586
B(  4-C , 15-H ) :   0.9193 B(  4-C , 16-H ) :   0.9199 B(  5-O ,  6-C ) :   0.9307
B(  6-C ,  7-C ) :   0.9079 B(  6-C ,  8-C ) :   0.9339 B(  6-C , 17-H ) :   0.9256
B(  7-C , 18-H ) :   0.9374 B(  7-C , 19-H ) :   0.9335 B(  7-C , 20-H ) :   0.9396
B(  8-C , 21-H ) :   0.9197 B(  8-C , 22-H ) :   0.9237

MP2 TOTAL ENERGY:     -424.740667703 Eh
FINAL SINGLE POINT ENERGY      -424.740667703023

DIPOLE MOMENT
-------------
                                X             Y             Z
Electronic contribution:     -0.07682      -0.12579       0.16654
Nuclear contribution   :     -0.07845       0.52533       0.35181
                        -----------------------------------------
Total Dipole Moment    :     -0.15528       0.39954       0.51835
                        -----------------------------------------
Magnitude (a.u.)       :      0.67263
Magnitude (Debye)      :      1.70969

                             ****ORCA TERMINATED NORMALLY****
TOTAL RUN TIME: 0 days 0 hours 20 minutes 5 seconds 557 msec
