                         Program Version 3.0.3 - RELEASE   -
|  1> ! RI-MP2 RIJK def2-TZVP def2-TZVP/C def2-TZVP/JK TIGHTSCF
|  2> % maxcore 2000
|  3> % mp2 density relaxed end
|  4> *xyz 0 1
|  5>  C       -0.3261418513     1.5394772507    -0.0163352859
|  6>  N        0.0712909812     0.1407232536     0.0710905797
|  7>  C        1.3480358273    -0.4051291959    -0.3254944946
|  8>  C        2.6329301208     0.4394523537    -0.3481077214
|  9>  C        2.9208956593     0.8238146146     1.1007090874
| 10>  O        1.9525885882     1.6861036298     1.7077127152
| 11>  C        1.8577841561     0.2780194830     1.9617103561
| 12>  C        0.8655949319    -0.4899192254     1.1054433626
| 13>  H        0.4921481525     2.2631024241     0.0010198377
| 14>  H       -0.8987564311     1.6635710026    -0.9424774818
| 15>  H       -0.9917868355     1.7687106083     0.8207769612
| 16>  H        1.3010106896    -1.2438980171    -1.0183174412
| 17>  H        3.4548488473    -0.1764193133    -0.7294734650
| 18>  H        2.5636845650     1.3197196817    -0.9969218798
| 19>  H        3.9443458958     0.9865498351     1.4321665590
| 20>  H        2.0143120315    -0.0214325849     2.9946246122
| 21>  H        0.4422244811    -1.3912452706     1.5436932485
| 22> *
| 23>
| 24>                          ****END OF INPUT****

CARTESIAN COORDINATES (ANGSTROEM)
---------------------------------
  C     -0.326142    1.539477   -0.016335
  N      0.071291    0.140723    0.071091
  C      1.348036   -0.405129   -0.325494
  C      2.632930    0.439452   -0.348108
  C      2.920896    0.823815    1.100709
  O      1.952589    1.686104    1.707713
  C      1.857784    0.278019    1.961710
  C      0.865595   -0.489919    1.105443
  H      0.492148    2.263102    0.001020
  H     -0.898756    1.663571   -0.942477
  H     -0.991787    1.768711    0.820777
  H      1.301011   -1.243898   -1.018317
  H      3.454849   -0.176419   -0.729473
  H      2.563685    1.319720   -0.996922
  H      3.944346    0.986550    1.432167
  H      2.014312   -0.021433    2.994625
  H      0.442224   -1.391245    1.543693

 Total Charge           Charge          ....    0
 Multiplicity           Mult            ....    1
 Number of Electrons    NEL             ....   60
 Basis Dimension        Dim             ....  302

ORBITAL ENERGIES
----------------

  NO   OCC          E(Eh)            E(eV)
   0   2.0000     -20.568591      -559.6998
   1   2.0000     -15.554993      -423.2729
   2   2.0000     -11.288962      -307.1883
   3   2.0000     -11.287793      -307.1565
   4   2.0000     -11.261412      -306.4386
   5   2.0000     -11.260139      -306.4040
   6   2.0000     -11.237647      -305.7919
   7   2.0000     -11.233975      -305.6920
   8   2.0000      -1.417072       -38.5605
   9   2.0000      -1.271418       -34.5970
  10   2.0000      -1.047980       -28.5170
  11   2.0000      -0.983810       -26.7708
  12   2.0000      -0.935254       -25.4496
  13   2.0000      -0.843740       -22.9593
  14   2.0000      -0.789055       -21.4713
  15   2.0000      -0.757789       -20.6205
  16   2.0000      -0.730476       -19.8773
  17   2.0000      -0.645498       -17.5649
  18   2.0000      -0.623286       -16.9605
  19   2.0000      -0.615732       -16.7549
  20   2.0000      -0.576813       -15.6959
  21   2.0000      -0.569732       -15.5032
  22   2.0000      -0.556928       -15.1548
  23   2.0000      -0.536043       -14.5865
  24   2.0000      -0.518593       -14.1116
  25   2.0000      -0.467296       -12.7158
  26   2.0000      -0.447066       -12.1653
  27   2.0000      -0.431488       -11.7414
  28   2.0000      -0.414763       -11.2863
  29   2.0000      -0.354423        -9.6443
  30   0.0000       0.144542         3.9332
  31   0.0000       0.165408         4.5010
  32   0.0000       0.170921         4.6510
  33   0.0000       0.181472         4.9381
  34   0.0000       0.198190         5.3930

MULLIKEN ATOMIC CHARGES
-----------------------
   0 C :   -0.283774
   1 N :   -0.207829
   2 C :   -0.057198
   3 C :   -0.221305
   4 C :    0.014325
   5 O :   -0.325966
   6 C :   -0.012542
   7 C :   -0.063288
   8 H :    0.131230
   9 H :    0.131632
  10 H :    0.131418
  11 H :    0.125796
  12 H :    0.120782
  13 H :    0.133345
  14 H :    0.126825
  15 H :    0.131294
  16 H :    0.125255
Sum of atomic charges:   -0.0000000

LOEWDIN ATOMIC CHARGES
----------------------
   0 C :   -0.326156
   1 N :    0.126591
   2 C :   -0.223533
   3 C :   -0.221679
   4 C :   -0.254135
   5 O :    0.173242
   6 C :   -0.241910
   7 C :   -0.218757
   8 H :    0.108504
   9 H :    0.115287
  10 H :    0.120949
  11 H :    0.135697
  12 H :    0.149745
  13 H :    0.146278
  14 H :    0.132893
  15 H :    0.136890
  16 H :    0.140094

  Mayer bond orders larger than 0.1
B(  0-C ,  1-N ) :   0.8699 B(  0-C ,  8-H ) :   0.9240 B(  0-C ,  9-H ) :   0.9337
B(  0-C , 10-H ) :   0.9390 B(  1-N ,  2-C ) :   0.9453 B(  1-N ,  7-C ) :   0.9539
B(  2-C ,  3-C ) :   0.9464 B(  2-C ,  7-C ) :   0.8872 B(  2-C , 11-H ) :   0.9229
B(  3-C ,  4-C ) :   0.9345 B(  3-C , 12-H ) :   0.9134 B(  3-C , 13-H ) :   0.9083
B(  4-C ,  5-O ) :   0.9097 B(  4-C ,  6-C ) :   0.9555 B(  4-C , 14-H ) :   0.9246
B(  5-O ,  6-C ) :   0.8979 B(  6-C ,  7-C ) :   0.9128 B(  6-C , 15-H ) :   0.9233
B(  7-C , 16-H ) :   0.9204

MP2 TOTAL ENERGY:     -363.184415053 Eh
FINAL SINGLE POINT ENERGY      -363.184415053482

DIPOLE MOMENT
-------------
                                X             Y             Z
Electronic contribution:      0.94215      -0.63957       2.58223
Nuclear contribution   :     -0.31693       0.27448      -2.63717
                        -----------------------------------------
Total Dipole Moment    :      0.62522      -0.36509      -0.05494
                        -----------------------------------------
Magnitude (a.u.)       :      0.72610
Magnitude (Debye)      :      1.84559

                             ****ORCA TERMINATED NORMALLY****
TOTAL RUN TIME: 0 days 0 hours 13 minutes 35 seconds 106 msec
