                         Program Version 3.0.3 - RELEASE   -
|  1> ! RI-MP2 RIJK def2-TZVP def2-TZVP/C def2-TZVP/JK TIGHTSCF
|  2> % maxcore 2000
|  3> % mp2 density relaxed end
|  4> *xyz 0 1
|  5>  C       -0.1957072305     1.3742303541    -0.1249158702
|  6>  C        0.0129414088    -0.1069906889     0.0588412752
|  7>  C       -0.7246961361    -0.9001931358     1.1082246456
|  8>  C        0.7724313111    -0.7416062389     1.2029686404
|  9>  C        1.5926263897    -1.8643728296     0.6015247214
| 10>  O        0.9885227845    -2.1433853542    -0.6661887368
| 11>  C        0.4303347245    -0.9344125949    -1.1616601082
| 12>  C       -0.6824260179    -1.2621434782    -2.0652165648
| 13>  N       -1.5680407657    -1.4675454857    -2.7775143291
| 14>  H        0.6876806862     1.8527496582    -0.5634606479
| 15>  H       -1.0478648755     1.5736257250    -0.7840180453
| 16>  H       -0.3983788749     1.8598673009     0.8337175952
| 17>  H       -1.3320110085    -0.3340128802     1.8053930007
| 18>  H       -1.1241147331    -1.8741334003     0.8431300132
| 19>  H        1.2095799603    -0.1359265438     1.9883297781
| 20>  H        2.6407248878    -1.5525354101     0.4749689213
| 21>  H        1.5731863065    -2.7991461629     1.1699558295
| 22>  H        1.1747542928    -0.3631314448    -1.7421247482
| 23> *
| 24>
| 25>                          ****END OF INPUT****

CARTESIAN COORDINATES (ANGSTROEM)
---------------------------------
  C     -0.195707    1.374230   -0.124916
  C      0.012941   -0.106991    0.058841
  C     -0.724696   -0.900193    1.108225
  C      0.772431   -0.741606    1.202969
  C      1.592626   -1.864373    0.601525
  O      0.988523   -2.143385   -0.666189
  C      0.430335   -0.934413   -1.161660
  C     -0.682426   -1.262143   -2.065217
  N     -1.568041   -1.467545   -2.777514
  H      0.687681    1.852750   -0.563461
  H     -1.047865    1.573626   -0.784018
  H     -0.398379    1.859867    0.833718
  H     -1.332011   -0.334013    1.805393
  H     -1.124115   -1.874133    0.843130
  H      1.209580   -0.135927    1.988330
  H      2.640725   -1.552535    0.474969
  H      1.573186   -2.799146    1.169956
  H      1.174754   -0.363131   -1.742125

 Total Charge           Charge          ....    0
 Multiplicity           Mult            ....    1
 Number of Electrons    NEL             ....   66
 Basis Dimension        Dim             ....  333

ORBITAL ENERGIES
----------------

  NO   OCC          E(Eh)            E(eV)
   0   2.0000     -20.584363      -560.1290
   1   2.0000     -15.572116      -423.7388
   2   2.0000     -11.339029      -308.5507
   3   2.0000     -11.297649      -307.4247
   4   2.0000     -11.271216      -306.7054
   5   2.0000     -11.266656      -306.5813
   6   2.0000     -11.253506      -306.2235
   7   2.0000     -11.243903      -305.9621
   8   2.0000     -11.240683      -305.8745
   9   2.0000      -1.412872       -38.4462
  10   2.0000      -1.217878       -33.1402
  11   2.0000      -1.179143       -32.0861
  12   2.0000      -1.050377       -28.5822
  13   2.0000      -0.977182       -26.5905
  14   2.0000      -0.931337       -25.3430
  15   2.0000      -0.819586       -22.3021
  16   2.0000      -0.796247       -21.6670
  17   2.0000      -0.723421       -19.6853
  18   2.0000      -0.711079       -19.3495
  19   2.0000      -0.651652       -17.7324
  20   2.0000      -0.636629       -17.3236
  21   2.0000      -0.613567       -16.6960
  22   2.0000      -0.589711       -16.0469
  23   2.0000      -0.585711       -15.9380
  24   2.0000      -0.559423       -15.2227
  25   2.0000      -0.559049       -15.2125
  26   2.0000      -0.536785       -14.6067
  27   2.0000      -0.502075       -13.6622
  28   2.0000      -0.479641       -13.0517
  29   2.0000      -0.468849       -12.7580
  30   2.0000      -0.446043       -12.1374
  31   2.0000      -0.431554       -11.7432
  32   2.0000      -0.414183       -11.2705
  33   0.0000       0.121888         3.3167
  34   0.0000       0.151906         4.1336
  35   0.0000       0.153766         4.1842
  36   0.0000       0.164367         4.4726
  37   0.0000       0.172910         4.7051

MULLIKEN ATOMIC CHARGES
-----------------------
   0 C :   -0.426765
   1 C :    0.066986
   2 C :   -0.317017
   3 C :   -0.133377
   4 C :   -0.047717
   5 O :   -0.301024
   6 C :    0.166621
   7 C :   -0.176086
   8 N :   -0.049821
   9 H :    0.135172
  10 H :    0.158401
  11 H :    0.137036
  12 H :    0.141091
  13 H :    0.158340
  14 H :    0.140383
  15 H :    0.105251
  16 H :    0.127300
  17 H :    0.115226
Sum of atomic charges:   -0.0000000

LOEWDIN ATOMIC CHARGES
----------------------
   0 C :   -0.259642
   1 C :   -0.227143
   2 C :   -0.170094
   3 C :   -0.186069
   4 C :   -0.268237
   5 O :    0.190792
   6 C :   -0.263691
   7 C :   -0.149996
   8 N :    0.073541
   9 H :    0.129791
  10 H :    0.135874
  11 H :    0.133628
  12 H :    0.140665
  13 H :    0.146519
  14 H :    0.149524
  15 H :    0.126707
  16 H :    0.133363
  17 H :    0.164468

  Mayer bond orders larger than 0.1
B(  0-C ,  1-C ) :   0.9102 B(  0-C ,  9-H ) :   0.9336 B(  0-C , 10-H ) :   0.9343
B(  0-C , 11-H ) :   0.9323 B(  1-C ,  2-C ) :   0.8915 B(  1-C ,  3-C ) :   0.8337
B(  1-C ,  6-C ) :   0.9101 B(  2-C ,  3-C ) :   0.8790 B(  2-C , 12-H ) :   0.9309
B(  2-C , 13-H ) :   0.9063 B(  3-C ,  4-C ) :   0.9656 B(  3-C , 14-H ) :   0.9152
B(  4-C ,  5-O ) :   0.9091 B(  4-C , 15-H ) :   0.9302 B(  4-C , 16-H ) :   0.9206
B(  5-O ,  6-C ) :   1.0109 B(  6-C ,  7-C ) :   0.9217 B(  6-C , 17-H ) :   0.9060
B(  7-C ,  8-N ) :   2.8572

MP2 TOTAL ENERGY:     -401.265009178 Eh
FINAL SINGLE POINT ENERGY      -401.265009177910

DIPOLE MOMENT
-------------
                                X             Y             Z
Electronic contribution:     -1.35096      -4.92699      -5.78464
Nuclear contribution   :      2.37340       5.85074       7.19306
                        -----------------------------------------
Total Dipole Moment    :      1.02244       0.92375       1.40843
                        -----------------------------------------
Magnitude (a.u.)       :      1.97037
Magnitude (Debye)      :      5.00827

                             ****ORCA TERMINATED NORMALLY****
TOTAL RUN TIME: 0 days 0 hours 18 minutes 52 seconds 377 msec
