                         Program Version 3.0.3 - RELEASE   -
|  1> ! RI-MP2 RIJK def2-TZVP def2-TZVP/C def2-TZVP/JK TIGHTSCF
|  2> % maxcore 2000
|  3> % mp2 density relaxed end
|  4> *xyz 0 1
|  5>  C       -0.1016771059     1.5987758020    -0.0381275343
|  6>  C       -0.0090598382     0.0630975700     0.0100266275
|  7>  C        0.8314890178    -0.5225494638    -1.1273145345
|  8>  C        1.8573504736    -1.2740540478    -0.6852741106
|  9>  C        1.8118929681    -1.2784780811     0.7726129707
| 10>  N        2.5087986070    -1.8064893739     1.7701801485
| 11>  N        1.8468822265    -1.3489511252     2.8632667908
| 12>  C        0.7663723600    -0.5592064207     2.5740201584
| 13>  C        0.7155678046    -0.4937654016     1.2052036951
| 14>  H        0.8941109345     2.0470758898     0.0223599194
| 15>  H       -0.5726784657     1.9320339378    -0.9685724130
| 16>  H       -0.6989471395     1.9783273252     0.7967138795
| 17>  H       -1.0294010170    -0.3423987770    -0.0563549364
| 18>  H        0.5974230730    -0.3223610077    -2.1663212248
| 19>  H        2.5891929320    -1.7880828333    -1.2940860588
| 20>  H        2.1815439296    -1.6115922310     3.7743682484
| 21>  H        0.1618505895    -0.1384182118     3.3623152539
| 22> *
| 23>
| 24>                          ****END OF INPUT****

CARTESIAN COORDINATES (ANGSTROEM)
---------------------------------
  C     -0.101677    1.598776   -0.038128
  C     -0.009060    0.063098    0.010027
  C      0.831489   -0.522549   -1.127315
  C      1.857350   -1.274054   -0.685274
  C      1.811893   -1.278478    0.772613
  N      2.508799   -1.806489    1.770180
  N      1.846882   -1.348951    2.863267
  C      0.766372   -0.559206    2.574020
  C      0.715568   -0.493765    1.205204
  H      0.894111    2.047076    0.022360
  H     -0.572678    1.932034   -0.968572
  H     -0.698947    1.978327    0.796714
  H     -1.029401   -0.342399   -0.056355
  H      0.597423   -0.322361   -2.166321
  H      2.589193   -1.788083   -1.294086
  H      2.181544   -1.611592    3.774368
  H      0.161851   -0.138418    3.362315

 Total Charge           Charge          ....    0
 Multiplicity           Mult            ....    1
 Number of Electrons    NEL             ....   64
 Basis Dimension        Dim             ....  327

ORBITAL ENERGIES
----------------

  NO   OCC          E(Eh)            E(eV)
   0   2.0000     -15.626741      -425.2252
   1   2.0000     -15.578826      -423.9214
   2   2.0000     -11.274884      -306.8052
   3   2.0000     -11.247228      -306.0526
   4   2.0000     -11.245291      -305.9999
   5   2.0000     -11.236819      -305.7694
   6   2.0000     -11.233887      -305.6896
   7   2.0000     -11.222499      -305.3797
   8   2.0000     -11.212274      -305.1015
   9   2.0000      -1.360822       -37.0299
  10   2.0000      -1.152822       -31.3699
  11   2.0000      -1.084673       -29.5155
  12   2.0000      -1.012654       -27.5557
  13   2.0000      -1.002376       -27.2760
  14   2.0000      -0.876839       -23.8600
  15   2.0000      -0.831554       -22.6277
  16   2.0000      -0.762876       -20.7589
  17   2.0000      -0.736970       -20.0540
  18   2.0000      -0.698397       -19.0044
  19   2.0000      -0.657080       -17.8801
  20   2.0000      -0.619199       -16.8493
  21   2.0000      -0.595548       -16.2057
  22   2.0000      -0.588317       -16.0089
  23   2.0000      -0.557237       -15.1632
  24   2.0000      -0.540057       -14.6957
  25   2.0000      -0.528427       -14.3792
  26   2.0000      -0.505745       -13.7620
  27   2.0000      -0.483823       -13.1655
  28   2.0000      -0.438938       -11.9441
  29   2.0000      -0.417747       -11.3675
  30   2.0000      -0.336520        -9.1572
  31   2.0000      -0.308958        -8.4072
  32   0.0000       0.119370         3.2482
  33   0.0000       0.137979         3.7546
  34   0.0000       0.143383         3.9016
  35   0.0000       0.166507         4.5309
  36   0.0000       0.173598         4.7239

MULLIKEN ATOMIC CHARGES
-----------------------
   0 C :   -0.404643
   1 C :    0.035970
   2 C :   -0.146472
   3 C :   -0.270511
   4 C :    0.131277
   5 N :   -0.204754
   6 N :   -0.081640
   7 C :   -0.118110
   8 C :   -0.112231
   9 H :    0.138384
  10 H :    0.130613
  11 H :    0.128185
  12 H :    0.112030
  13 H :    0.129030
  14 H :    0.132012
  15 H :    0.251969
  16 H :    0.148891
Sum of atomic charges:    0.0000000

LOEWDIN ATOMIC CHARGES
----------------------
   0 C :   -0.278231
   1 C :   -0.212340
   2 C :   -0.116292
   3 C :   -0.109155
   4 C :   -0.249613
   5 N :    0.042698
   6 N :    0.130137
   7 C :   -0.218717
   8 C :   -0.132166
   9 H :    0.128934
  10 H :    0.123249
  11 H :    0.123163
  12 H :    0.167273
  13 H :    0.136678
  14 H :    0.143526
  15 H :    0.184745
  16 H :    0.136112

  Mayer bond orders larger than 0.1
B(  0-C ,  1-C ) :   0.8441 B(  0-C ,  9-H ) :   0.9343 B(  0-C , 10-H ) :   0.9356
B(  0-C , 11-H ) :   0.9361 B(  1-C ,  2-C ) :   0.9521 B(  1-C ,  8-C ) :   1.0008
B(  1-C , 12-H ) :   0.8897 B(  2-C ,  3-C ) :   1.7055 B(  2-C , 13-H ) :   0.9276
B(  3-C ,  4-C ) :   1.0546 B(  3-C , 14-H ) :   0.9274 B(  4-C ,  5-N ) :   1.5995
B(  4-C ,  8-C ) :   1.1841 B(  5-N ,  6-N ) :   1.0738 B(  5-N ,  7-C ) :   0.1193
B(  6-N ,  7-C ) :   1.2148 B(  6-N , 15-H ) :   0.8731 B(  7-C ,  8-C ) :   1.3895
B(  7-C , 16-H ) :   0.8957

MP2 TOTAL ENERGY:     -380.216359039 Eh
FINAL SINGLE POINT ENERGY      -380.216359038904

DIPOLE MOMENT
-------------
                                X             Y             Z
Electronic contribution:      3.96624      -5.67197       3.54102
Nuclear contribution   :     -4.59630       6.13596      -3.03443
                        -----------------------------------------
Total Dipole Moment    :     -0.63006       0.46398       0.50659
                        -----------------------------------------
Magnitude (a.u.)       :      0.93214
Magnitude (Debye)      :      2.36932

                             ****ORCA TERMINATED NORMALLY****
TOTAL RUN TIME: 0 days 0 hours 19 minutes 27 seconds 476 msec
