                         Program Version 3.0.3 - RELEASE   -
|  1> ! RI-MP2 RIJK def2-TZVP def2-TZVP/C def2-TZVP/JK TIGHTSCF
|  2> % maxcore 2000
|  3> % mp2 density relaxed end
|  4> *xyz 0 1
|  5>  C       -0.0257798848     1.5187909444     0.0588594892
|  6>  C        0.0222343116    -0.0163348832     0.0243316524
|  7>  C       -1.4189441932    -0.5366003845    -0.0869062483
|  8>  C        0.9796816341    -0.5868144987    -1.0842205977
|  9>  C        1.9990132974    -1.3413798726    -0.2015062861
| 10>  C        2.2726604417    -0.3184666799     0.9338436756
| 11>  C        0.7695502108    -0.6100838070     1.2523968140
| 12>  O        0.1558397778    -0.2790529374     2.4585434107
| 13>  C        1.0787219233    -2.0776009892     0.8091684781
| 14>  H        0.9681520365     1.9712458334     0.1054800351
| 15>  H       -0.5193018922     1.9042170694    -0.8399673499
| 16>  H       -0.5915218545     1.8643491517     0.9296540445
| 17>  H       -1.9004053795    -0.1341281121    -0.9848037075
| 18>  H       -1.4704960299    -1.6266901591    -0.1490838012
| 19>  H       -2.0069260407    -0.2231582008     0.7813023758
| 20>  H        0.4587537334    -1.2549770337    -1.7771854822
| 21>  H        1.4503875818     0.2067406876    -1.6730487652
| 22>  H        2.8141438327    -1.8588766103    -0.7054812836
| 23>  H        2.9379491210    -0.7197666412     1.7042337071
| 24>  H        2.5786972562     0.6954642975     0.6688755753
| 25>  H        0.6597204865    -0.6728119654     3.1774429136
| 26>  H        0.2707314987    -2.7050431751     0.4278257913
| 27>  H        1.6468671712    -2.6219490337     1.5694682190
| 28> *
| 29>
| 30>                          ****END OF INPUT****

CARTESIAN COORDINATES (ANGSTROEM)
---------------------------------
  C     -0.025780    1.518791    0.058859
  C      0.022234   -0.016335    0.024332
  C     -1.418944   -0.536600   -0.086906
  C      0.979682   -0.586814   -1.084221
  C      1.999013   -1.341380   -0.201506
  C      2.272660   -0.318467    0.933844
  C      0.769550   -0.610084    1.252397
  O      0.155840   -0.279053    2.458543
  C      1.078722   -2.077601    0.809168
  H      0.968152    1.971246    0.105480
  H     -0.519302    1.904217   -0.839967
  H     -0.591522    1.864349    0.929654
  H     -1.900405   -0.134128   -0.984804
  H     -1.470496   -1.626690   -0.149084
  H     -2.006926   -0.223158    0.781302
  H      0.458754   -1.254977   -1.777185
  H      1.450388    0.206741   -1.673049
  H      2.814144   -1.858877   -0.705481
  H      2.937949   -0.719767    1.704234
  H      2.578697    0.695464    0.668876
  H      0.659720   -0.672812    3.177443
  H      0.270731   -2.705043    0.427826
  H      1.646867   -2.621949    1.569468

 Total Charge           Charge          ....    0
 Multiplicity           Mult            ....    1
 Number of Electrons    NEL             ....   70
 Basis Dimension        Dim             ....  363

ORBITAL ENERGIES
----------------

  NO   OCC          E(Eh)            E(eV)
   0   2.0000     -20.558051      -559.4130
   1   2.0000     -11.284111      -307.0563
   2   2.0000     -11.231491      -305.6244
   3   2.0000     -11.229797      -305.5783
   4   2.0000     -11.219298      -305.2926
   5   2.0000     -11.219278      -305.2921
   6   2.0000     -11.216128      -305.2064
   7   2.0000     -11.202437      -304.8338
   8   2.0000     -11.202418      -304.8333
   9   2.0000      -1.370061       -37.2813
  10   2.0000      -1.178548       -32.0699
  11   2.0000      -1.045700       -28.4549
  12   2.0000      -0.941343       -25.6153
  13   2.0000      -0.929213       -25.2852
  14   2.0000      -0.890978       -24.2447
  15   2.0000      -0.865044       -23.5390
  16   2.0000      -0.759704       -20.6726
  17   2.0000      -0.723623       -19.6908
  18   2.0000      -0.688672       -18.7397
  19   2.0000      -0.649425       -17.6717
  20   2.0000      -0.608931       -16.5699
  21   2.0000      -0.597186       -16.2503
  22   2.0000      -0.583016       -15.8647
  23   2.0000      -0.577808       -15.7230
  24   2.0000      -0.562867       -15.3164
  25   2.0000      -0.526242       -14.3198
  26   2.0000      -0.520731       -14.1698
  27   2.0000      -0.508618       -13.8402
  28   2.0000      -0.497309       -13.5325
  29   2.0000      -0.475651       -12.9431
  30   2.0000      -0.467928       -12.7330
  31   2.0000      -0.440478       -11.9860
  32   2.0000      -0.437164       -11.8958
  33   2.0000      -0.410054       -11.1581
  34   2.0000      -0.399538       -10.8720
  35   0.0000       0.133033         3.6200
  36   0.0000       0.149262         4.0616
  37   0.0000       0.157959         4.2983
  38   0.0000       0.173775         4.7287
  39   0.0000       0.191827         5.2199

MULLIKEN ATOMIC CHARGES
-----------------------
   0 C :   -0.430968
   1 C :    0.092687
   2 C :   -0.430968
   3 C :   -0.295320
   4 C :   -0.043598
   5 C :   -0.269791
   6 C :    0.190162
   7 O :   -0.466471
   8 C :   -0.269817
   9 H :    0.118454
  10 H :    0.131370
  11 H :    0.145103
  12 H :    0.131380
  13 H :    0.118409
  14 H :    0.145082
  15 H :    0.120995
  16 H :    0.121020
  17 H :    0.123012
  18 H :    0.110296
  19 H :    0.115006
  20 H :    0.318658
  21 H :    0.114996
  22 H :    0.110303
Sum of atomic charges:   -0.0000000

LOEWDIN ATOMIC CHARGES
----------------------
   0 C :   -0.269215
   1 C :   -0.264537
   2 C :   -0.269218
   3 C :   -0.177281
   4 C :   -0.205971
   5 C :   -0.187290
   6 C :   -0.327986
   7 O :    0.030261
   8 C :   -0.187303
   9 H :    0.120728
  10 H :    0.125176
  11 H :    0.130518
  12 H :    0.125176
  13 H :    0.120729
  14 H :    0.130516
  15 H :    0.136937
  16 H :    0.136938
  17 H :    0.131776
  18 H :    0.134572
  19 H :    0.125527
  20 H :    0.179853
  21 H :    0.125527
  22 H :    0.134567

  Mayer bond orders larger than 0.1
B(  0-C ,  1-C ) :   0.9068 B(  0-C ,  9-H ) :   0.9275 B(  0-C , 10-H ) :   0.9416
B(  0-C , 11-H ) :   0.9376 B(  1-C ,  2-C ) :   0.9068 B(  1-C ,  3-C ) :   0.9450
B(  1-C ,  6-C ) :   0.8888 B(  2-C , 12-H ) :   0.9416 B(  2-C , 13-H ) :   0.9275
B(  2-C , 14-H ) :   0.9376 B(  3-C ,  4-C ) :   0.9170 B(  3-C , 15-H ) :   0.9269
B(  3-C , 16-H ) :   0.9269 B(  4-C ,  5-C ) :   0.9245 B(  4-C ,  8-C ) :   0.9245
B(  4-C , 17-H ) :   0.9196 B(  5-C ,  6-C ) :   0.8889 B(  5-C , 18-H ) :   0.9167
B(  5-C , 19-H ) :   0.9240 B(  6-C ,  7-O ) :   1.0123 B(  6-C ,  8-C ) :   0.8888
B(  7-O , 20-H ) :   0.8386 B(  8-C , 21-H ) :   0.9241 B(  8-C , 22-H ) :   0.9167

MP2 TOTAL ENERGY:     -387.628076138 Eh
FINAL SINGLE POINT ENERGY      -387.628076138070

DIPOLE MOMENT
-------------
                                X             Y             Z
Electronic contribution:      1.73929      -1.42886       3.54445
Nuclear contribution   :     -1.28304       1.11569      -3.50205
                        -----------------------------------------
Total Dipole Moment    :      0.45625      -0.31317       0.04240
                        -----------------------------------------
Magnitude (a.u.)       :      0.55501
Magnitude (Debye)      :      1.41073

                             ****ORCA TERMINATED NORMALLY****
TOTAL RUN TIME: 0 days 0 hours 23 minutes 49 seconds 710 msec
