                         Program Version 3.0.3 - RELEASE   -
|  1> ! RI-MP2 RIJK def2-TZVP def2-TZVP/C def2-TZVP/JK TIGHTSCF
|  2> % maxcore 2000
|  3> % mp2 density relaxed end
|  4> *xyz 0 1
|  5>  N        0.1965151227     1.4412970216     0.0098702222
|  6>  C       -0.0169273917     0.0467554488     0.0116789702
|  7>  C       -1.1048795587    -0.8028881674    -0.0125368918
|  8>  N       -2.4858042135    -0.8978819585    -0.0486869580
|  9>  C       -2.7723846456    -2.2541341005    -0.0490095242
| 10>  N       -1.7274323747    -3.0345133129    -0.0169356939
| 11>  C       -0.6521880354    -2.1536010306     0.0068238640
| 12>  C        0.7315455787    -2.1327360168     0.0434454136
| 13>  N        1.0797430066    -0.8047227607     0.0453710271
| 14>  H       -0.1657488168     1.8935771120    -0.8228523972
| 15>  H       -0.2105790128     1.9025295582     0.8165545647
| 16>  H       -3.1603972200    -0.1546472864    -0.0703975492
| 17>  H       -3.7987755849    -2.5950760780    -0.0744192518
| 18>  H        1.4734212860    -2.9124808676     0.0673702040
| 19>  H        2.0191439101    -0.4454547313     0.0684433303
| 20> *
| 21>
| 22>                          ****END OF INPUT****

CARTESIAN COORDINATES (ANGSTROEM)
---------------------------------
  N      0.196515    1.441297    0.009870
  C     -0.016927    0.046755    0.011679
  C     -1.104880   -0.802888   -0.012537
  N     -2.485804   -0.897882   -0.048687
  C     -2.772385   -2.254134   -0.049010
  N     -1.727432   -3.034513   -0.016936
  C     -0.652188   -2.153601    0.006824
  C      0.731546   -2.132736    0.043445
  N      1.079743   -0.804723    0.045371
  H     -0.165749    1.893577   -0.822852
  H     -0.210579    1.902530    0.816555
  H     -3.160397   -0.154647   -0.070398
  H     -3.798776   -2.595076   -0.074419
  H      1.473421   -2.912481    0.067370
  H      2.019144   -0.445455    0.068443

 Total Charge           Charge          ....    0
 Multiplicity           Mult            ....    1
 Number of Electrons    NEL             ....   64
 Basis Dimension        Dim             ....  315

ORBITAL ENERGIES
----------------

  NO   OCC          E(Eh)            E(eV)
   0   2.0000     -15.602230      -424.5583
   1   2.0000     -15.596370      -424.3988
   2   2.0000     -15.564298      -423.5261
   3   2.0000     -15.539248      -422.8444
   4   2.0000     -11.304189      -307.6026
   5   2.0000     -11.279152      -306.9213
   6   2.0000     -11.243466      -305.9503
   7   2.0000     -11.243186      -305.9427
   8   2.0000     -11.226748      -305.4953
   9   2.0000      -1.329860       -36.1873
  10   2.0000      -1.280511       -34.8445
  11   2.0000      -1.184201       -32.2238
  12   2.0000      -1.158360       -31.5206
  13   2.0000      -1.023868       -27.8609
  14   2.0000      -0.946259       -25.7490
  15   2.0000      -0.852347       -23.1935
  16   2.0000      -0.804585       -21.8939
  17   2.0000      -0.764621       -20.8064
  18   2.0000      -0.715919       -19.4812
  19   2.0000      -0.677755       -18.4426
  20   2.0000      -0.675482       -18.3808
  21   2.0000      -0.631995       -17.1975
  22   2.0000      -0.600796       -16.3485
  23   2.0000      -0.598048       -16.2737
  24   2.0000      -0.580382       -15.7930
  25   2.0000      -0.545331       -14.8392
  26   2.0000      -0.526968       -14.3395
  27   2.0000      -0.443469       -12.0674
  28   2.0000      -0.415989       -11.3196
  29   2.0000      -0.412016       -11.2115
  30   2.0000      -0.311553        -8.4778
  31   2.0000      -0.263421        -7.1681
  32   0.0000       0.114822         3.1245
  33   0.0000       0.142524         3.8783
  34   0.0000       0.145632         3.9628
  35   0.0000       0.159211         4.3323
  36   0.0000       0.190334         5.1793

MULLIKEN ATOMIC CHARGES
-----------------------
   0 N :   -0.551750
   1 C :    0.066691
   2 C :    0.046670
   3 N :   -0.326484
   4 C :    0.072489
   5 N :   -0.273509
   6 C :    0.037296
   7 C :   -0.146448
   8 N :   -0.193271
   9 H :    0.247378
  10 H :    0.247377
  11 H :    0.241360
  12 H :    0.139299
  13 H :    0.148179
  14 H :    0.244723
Sum of atomic charges:   -0.0000000

LOEWDIN ATOMIC CHARGES
----------------------
   0 N :   -0.129069
   1 C :   -0.338276
   2 C :   -0.212402
   3 N :    0.158662
   4 C :   -0.299348
   5 N :    0.104135
   6 C :   -0.242758
   7 C :   -0.217468
   8 N :    0.208490
   9 H :    0.163114
  10 H :    0.163116
  11 H :    0.186002
  12 H :    0.128526
  13 H :    0.133293
  14 H :    0.193983

  Mayer bond orders larger than 0.1
B(  0-N ,  1-C ) :   1.0901 B(  0-N ,  9-H ) :   0.8908 B(  0-N , 10-H ) :   0.8908
B(  1-C ,  2-C ) :   1.3169 B(  1-C ,  7-C ) :   0.1450 B(  1-C ,  8-N ) :   1.1745
B(  2-C ,  3-N ) :   1.0548 B(  2-C ,  6-C ) :   1.1541 B(  3-N ,  4-C ) :   1.1138
B(  3-N , 11-H ) :   0.8651 B(  4-C ,  5-N ) :   1.6256 B(  4-C , 12-H ) :   0.9281
B(  5-N ,  6-C ) :   1.2662 B(  6-C ,  7-C ) :   1.3682 B(  7-C ,  8-N ) :   1.1749
B(  7-C , 13-H ) :   0.9099 B(  8-N , 14-H ) :   0.8642

MP2 TOTAL ENERGY:     -412.315969674 Eh
FINAL SINGLE POINT ENERGY      -412.315969674497

DIPOLE MOMENT
-------------
                                X             Y             Z
Electronic contribution:     -0.86858      -2.46340      -0.00962
Nuclear contribution   :      0.58133       4.11223      -0.00719
                        -----------------------------------------
Total Dipole Moment    :     -0.28725       1.64882      -0.01681
                        -----------------------------------------
Magnitude (a.u.)       :      1.67374
Magnitude (Debye)      :      4.25432

                             ****ORCA TERMINATED NORMALLY****
TOTAL RUN TIME: 0 days 0 hours 15 minutes 17 seconds 271 msec
