                         Program Version 3.0.3 - RELEASE   -
|  1> ! RI-MP2 RIJK def2-TZVP def2-TZVP/C def2-TZVP/JK TIGHTSCF
|  2> % maxcore 2000
|  3> % mp2 density relaxed end
|  4> *xyz 0 1
|  5>  O        0.1355692543     1.4269599285    -0.0891220287
|  6>  C        0.1064773834     0.0415991463    -0.0698582939
|  7>  C        0.0284860829    -0.6729992693     1.3123590086
|  8>  O       -1.3586514962    -0.1534026761     1.4479792341
|  9>  C       -1.2802035481    -0.6639026252     0.0503138596
| 10>  C       -0.5951905346    -1.9198241151     0.6173032684
| 11>  O        0.1413687847    -2.6951738112    -0.2827904609
| 12>  H       -0.5068276353     1.7059861029     0.5792563261
| 13>  H        0.8099634426    -0.3478765096    -0.8040541297
| 14>  H        0.6764883921    -0.5944322615     2.1863494468
| 15>  H       -2.1745520018    -0.5743120357    -0.5664456641
| 16>  H       -1.2433266209    -2.4966889398     1.2844194594
| 17>  H        0.5819561667    -3.3966500541     0.2064836243
| 18> *
| 19>
| 20>                          ****END OF INPUT****

CARTESIAN COORDINATES (ANGSTROEM)
---------------------------------
  O      0.135569    1.426960   -0.089122
  C      0.106477    0.041599   -0.069858
  C      0.028486   -0.672999    1.312359
  O     -1.358651   -0.153403    1.447979
  C     -1.280204   -0.663903    0.050314
  C     -0.595191   -1.919824    0.617303
  O      0.141369   -2.695174   -0.282790
  H     -0.506828    1.705986    0.579256
  H      0.809963   -0.347877   -0.804054
  H      0.676488   -0.594432    2.186349
  H     -2.174552   -0.574312   -0.566446
  H     -1.243327   -2.496689    1.284419
  H      0.581956   -3.396650    0.206484

 Total Charge           Charge          ....    0
 Multiplicity           Mult            ....    1
 Number of Electrons    NEL             ....   54
 Basis Dimension        Dim             ....  253

ORBITAL ENERGIES
----------------

  NO   OCC          E(Eh)            E(eV)
   0   2.0000     -20.581787      -560.0589
   1   2.0000     -20.567068      -559.6584
   2   2.0000     -20.561824      -559.5157
   3   2.0000     -11.307177      -307.6839
   4   2.0000     -11.303624      -307.5873
   5   2.0000     -11.303547      -307.5852
   6   2.0000     -11.297466      -307.4197
   7   2.0000      -1.426906       -38.8281
   8   2.0000      -1.386456       -37.7274
   9   2.0000      -1.358608       -36.9696
  10   2.0000      -1.067257       -29.0415
  11   2.0000      -0.909838       -24.7579
  12   2.0000      -0.900516       -24.5043
  13   2.0000      -0.782251       -21.2861
  14   2.0000      -0.734891       -19.9974
  15   2.0000      -0.713256       -19.4087
  16   2.0000      -0.676495       -18.4084
  17   2.0000      -0.634635       -17.2693
  18   2.0000      -0.603406       -16.4195
  19   2.0000      -0.586125       -15.9493
  20   2.0000      -0.565609       -15.3910
  21   2.0000      -0.541644       -14.7389
  22   2.0000      -0.506732       -13.7889
  23   2.0000      -0.497467       -13.5368
  24   2.0000      -0.452924       -12.3247
  25   2.0000      -0.424650       -11.5553
  26   2.0000      -0.419533       -11.4161
  27   0.0000       0.123715         3.3665
  28   0.0000       0.163305         4.4438
  29   0.0000       0.174999         4.7620
  30   0.0000       0.179629         4.8880
  31   0.0000       0.193527         5.2661

MULLIKEN ATOMIC CHARGES
-----------------------
   0 O :   -0.467027
   1 C :    0.130991
   2 C :   -0.075767
   3 O :   -0.334594
   4 C :   -0.049986
   5 C :    0.065777
   6 O :   -0.460960
   7 H :    0.331339
   8 H :    0.134590
   9 H :    0.144655
  10 H :    0.143163
  11 H :    0.108763
  12 H :    0.329055
Sum of atomic charges:   -0.0000000

LOEWDIN ATOMIC CHARGES
----------------------
   0 O :    0.003955
   1 C :   -0.303059
   2 C :   -0.209564
   3 O :    0.118238
   4 C :   -0.196567
   5 C :   -0.309043
   6 O :   -0.001787
   7 H :    0.186786
   8 H :    0.142932
   9 H :    0.123276
  10 H :    0.126495
  11 H :    0.135567
  12 H :    0.182772

  Mayer bond orders larger than 0.1
B(  0-O ,  1-C ) :   0.9879 B(  0-O ,  7-H ) :   0.8166 B(  1-C ,  2-C ) :   0.9064
B(  1-C ,  4-C ) :   0.9084 B(  1-C ,  8-H ) :   0.9215 B(  2-C ,  3-O ) :   0.8856
B(  2-C ,  5-C ) :   0.8906 B(  2-C ,  9-H ) :   0.8888 B(  3-O ,  4-C ) :   0.8829
B(  4-C ,  5-C ) :   0.9276 B(  4-C , 10-H ) :   0.8883 B(  5-C ,  6-O ) :   1.0813
B(  5-C , 11-H ) :   0.9409 B(  6-O , 12-H ) :   0.8379

MP2 TOTAL ENERGY:     -380.925602995 Eh
FINAL SINGLE POINT ENERGY      -380.925602994916

DIPOLE MOMENT
-------------
                                X             Y             Z
Electronic contribution:     -0.30609       0.76042       0.09915
Nuclear contribution   :      0.46995      -1.64278       0.33009
                        -----------------------------------------
Total Dipole Moment    :      0.16386      -0.88236       0.42924
                        -----------------------------------------
Magnitude (a.u.)       :      0.99481
Magnitude (Debye)      :      2.52861

                             ****ORCA TERMINATED NORMALLY****
TOTAL RUN TIME: 0 days 0 hours 7 minutes 1 seconds 446 msec
