                         Program Version 3.0.3 - RELEASE   -
|  1> ! RI-MP2 RIJK def2-TZVP def2-TZVP/C def2-TZVP/JK TIGHTSCF
|  2> % maxcore 2000
|  3> % mp2 density relaxed end
|  4> *xyz 0 1
|  5>  C       -0.2115086516     1.2809821105     0.0442987816
|  6>  N        0.0433906394    -0.1522924158    -0.0622113188
|  7>  C        0.7847367812    -0.5597290413    -1.2649621826
|  8>  C        1.4724093363    -0.5521597732     0.0479001305
|  9>  C        1.6527102801    -1.9872446655     0.4563580194
| 10>  C        2.2947412115    -2.3735313640     1.7503029374
| 11>  C        1.1220619216    -2.7838808495    -0.4768985920
| 12>  C        0.4905756333    -2.0207722151    -1.6337768207
| 13>  O       -0.8996121610    -2.2757417941    -1.7667639863
| 14>  H        0.6040189448     1.9064557764    -0.3544258467
| 15>  H       -1.1264501564     1.5240910511    -0.5053730319
| 16>  H       -0.3631974656     1.5439248288     1.0959944266
| 17>  H        0.9740599977     0.1845905134    -2.0317766782
| 18>  H        2.1894221096     0.2145500171     0.3280263785
| 19>  H        1.7428866416    -1.9553494831     2.6016542445
| 20>  H        2.3367383686    -3.4591890180     1.8697436724
| 21>  H        3.3183986620    -1.9841178321     1.8191954175
| 22>  H        1.0469210386    -3.8640087443    -0.4111906094
| 23>  H        0.9326179606    -2.2893539865    -2.6000859025
| 24>  H       -1.2949937723    -1.8698142647    -0.9822109392
| 25> *
| 26>
| 27>                          ****END OF INPUT****

CARTESIAN COORDINATES (ANGSTROEM)
---------------------------------
  C     -0.211509    1.280982    0.044299
  N      0.043391   -0.152292   -0.062211
  C      0.784737   -0.559729   -1.264962
  C      1.472409   -0.552160    0.047900
  C      1.652710   -1.987245    0.456358
  C      2.294741   -2.373531    1.750303
  C      1.122062   -2.783881   -0.476899
  C      0.490576   -2.020772   -1.633777
  O     -0.899612   -2.275742   -1.766764
  H      0.604019    1.906456   -0.354426
  H     -1.126450    1.524091   -0.505373
  H     -0.363197    1.543925    1.095994
  H      0.974060    0.184591   -2.031777
  H      2.189422    0.214550    0.328026
  H      1.742887   -1.955349    2.601654
  H      2.336738   -3.459189    1.869744
  H      3.318399   -1.984118    1.819195
  H      1.046921   -3.864009   -0.411191
  H      0.932618   -2.289354   -2.600086
  H     -1.294994   -1.869814   -0.982211

 Total Charge           Charge          ....    0
 Multiplicity           Mult            ....    1
 Number of Electrons    NEL             ....   68
 Basis Dimension        Dim             ....  345

ORBITAL ENERGIES
----------------

  NO   OCC          E(Eh)            E(eV)
   0   2.0000     -20.541720      -558.9686
   1   2.0000     -15.569859      -423.6774
   2   2.0000     -11.280752      -306.9649
   3   2.0000     -11.264686      -306.5277
   4   2.0000     -11.257622      -306.3355
   5   2.0000     -11.253033      -306.2106
   6   2.0000     -11.239705      -305.8479
   7   2.0000     -11.228300      -305.5376
   8   2.0000     -11.217410      -305.2413
   9   2.0000      -1.353305       -36.8253
  10   2.0000      -1.282015       -34.8854
  11   2.0000      -1.101989       -29.9866
  12   2.0000      -1.005450       -27.3597
  13   2.0000      -0.962992       -26.2043
  14   2.0000      -0.904384       -24.6095
  15   2.0000      -0.838678       -22.8216
  16   2.0000      -0.789793       -21.4913
  17   2.0000      -0.735559       -20.0156
  18   2.0000      -0.700089       -19.0504
  19   2.0000      -0.653917       -17.7940
  20   2.0000      -0.611784       -16.6475
  21   2.0000      -0.601681       -16.3726
  22   2.0000      -0.589145       -16.0315
  23   2.0000      -0.582968       -15.8634
  24   2.0000      -0.578502       -15.7418
  25   2.0000      -0.568181       -15.4610
  26   2.0000      -0.547961       -14.9108
  27   2.0000      -0.510155       -13.8820
  28   2.0000      -0.496543       -13.5116
  29   2.0000      -0.478511       -13.0210
  30   2.0000      -0.452477       -12.3125
  31   2.0000      -0.435514       -11.8509
  32   2.0000      -0.378750       -10.3063
  33   2.0000      -0.339194        -9.2299
  34   0.0000       0.136459         3.7132
  35   0.0000       0.142714         3.8834
  36   0.0000       0.152492         4.1495
  37   0.0000       0.168485         4.5847
  38   0.0000       0.179684         4.8895

MULLIKEN ATOMIC CHARGES
-----------------------
   0 C :   -0.312041
   1 N :   -0.268448
   2 C :   -0.112445
   3 C :   -0.023379
   4 C :    0.072289
   5 C :   -0.441552
   6 C :   -0.272679
   7 C :    0.203366
   8 O :   -0.474116
   9 H :    0.109144
  10 H :    0.143782
  11 H :    0.141361
  12 H :    0.127958
  13 H :    0.130659
  14 H :    0.145007
  15 H :    0.142838
  16 H :    0.140483
  17 H :    0.125519
  18 H :    0.100371
  19 H :    0.321882
Sum of atomic charges:   -0.0000000

LOEWDIN ATOMIC CHARGES
----------------------
   0 C :   -0.329048
   1 N :    0.102721
   2 C :   -0.203612
   3 C :   -0.182601
   4 C :   -0.166914
   5 C :   -0.270680
   6 C :   -0.110862
   7 C :   -0.301440
   8 O :   -0.021333
   9 H :    0.106836
  10 H :    0.120142
  11 H :    0.118643
  12 H :    0.137978
  13 H :    0.141153
  14 H :    0.134366
  15 H :    0.131959
  16 H :    0.131580
  17 H :    0.139622
  18 H :    0.144437
  19 H :    0.177052

  Mayer bond orders larger than 0.1
B(  0-C ,  1-N ) :   0.8763 B(  0-C ,  9-H ) :   0.9253 B(  0-C , 10-H ) :   0.9364
B(  0-C , 11-H ) :   0.9396 B(  1-N ,  2-C ) :   0.9290 B(  1-N ,  3-C ) :   0.8340
B(  2-C ,  3-C ) :   0.9176 B(  2-C ,  7-C ) :   0.9207 B(  2-C , 12-H ) :   0.9180
B(  3-C ,  4-C ) :   0.9046 B(  3-C , 13-H ) :   0.9100 B(  4-C ,  5-C ) :   0.8737
B(  4-C ,  6-C ) :   1.7287 B(  5-C , 14-H ) :   0.9294 B(  5-C , 15-H ) :   0.9528
B(  5-C , 16-H ) :   0.9338 B(  6-C ,  7-C ) :   0.9431 B(  6-C , 17-H ) :   0.9277
B(  7-C ,  8-O ) :   0.9509 B(  7-C , 18-H ) :   0.9349 B(  8-O , 19-H ) :   0.8219

MP2 TOTAL ENERGY:     -402.436812897 Eh
FINAL SINGLE POINT ENERGY      -402.436812896575

DIPOLE MOMENT
-------------
                                X             Y             Z
Electronic contribution:     -1.73721      -2.77492      -3.66598
Nuclear contribution   :      2.43638       3.48549       4.15816
                        -----------------------------------------
Total Dipole Moment    :      0.69917       0.71057       0.49218
                        -----------------------------------------
Magnitude (a.u.)       :      1.11175
Magnitude (Debye)      :      2.82584

                             ****ORCA TERMINATED NORMALLY****
TOTAL RUN TIME: 0 days 0 hours 19 minutes 37 seconds 343 msec
