                         Program Version 3.0.3 - RELEASE   -
|  1> ! RI-MP2 RIJK def2-TZVP def2-TZVP/C def2-TZVP/JK TIGHTSCF
|  2> % maxcore 2000
|  3> % mp2 density relaxed end
|  4> *xyz 0 1
|  5>  N        0.2978193140     1.1310982479    -0.3605409212
|  6>  C        0.1479652989    -0.1031959930    -0.1514225497
|  7>  O       -1.0606625351    -0.5827365020     0.2116218977
|  8>  C       -1.2135236694    -1.9798884586     0.3510545265
|  9>  C       -2.1232284706    -2.4590298840     1.5109221647
| 10>  C       -2.7518305237    -3.5109113005     0.5452507275
| 11>  C       -2.1717666359    -2.6875236748    -0.6086456394
| 12>  C       -2.8468524641    -2.1055596439    -1.7661314189
| 13>  O       -1.8498322641    -3.1355943418    -1.9051100605
| 14>  H        1.2652566033     1.3254451550    -0.6097410689
| 15>  H        0.9203316574    -0.8812020324    -0.2257171579
| 16>  H       -0.2347644090    -2.4763966949     0.3635296118
| 17>  H       -1.6279356658    -2.8256263750     2.4104813588
| 18>  H       -2.8334184108    -1.6743335606     1.7791733819
| 19>  H       -2.2732827846    -4.4909583077     0.6240771287
| 20>  H       -3.8347775428    -3.6393227753     0.5757770756
| 21>  H       -3.8651098164    -2.4111392165    -2.0020143189
| 22>  H       -2.5525001612    -1.1200644419    -2.1207801677
| 23> *
| 24>
| 25>                          ****END OF INPUT****

CARTESIAN COORDINATES (ANGSTROEM)
---------------------------------
  N      0.297819    1.131098   -0.360541
  C      0.147965   -0.103196   -0.151423
  O     -1.060663   -0.582737    0.211622
  C     -1.213524   -1.979888    0.351055
  C     -2.123228   -2.459030    1.510922
  C     -2.751831   -3.510911    0.545251
  C     -2.171767   -2.687524   -0.608646
  C     -2.846852   -2.105560   -1.766131
  O     -1.849832   -3.135594   -1.905110
  H      1.265257    1.325445   -0.609741
  H      0.920332   -0.881202   -0.225717
  H     -0.234764   -2.476397    0.363530
  H     -1.627936   -2.825626    2.410481
  H     -2.833418   -1.674334    1.779173
  H     -2.273283   -4.490958    0.624077
  H     -3.834778   -3.639323    0.575777
  H     -3.865110   -2.411139   -2.002014
  H     -2.552500   -1.120064   -2.120780

 Total Charge           Charge          ....    0
 Multiplicity           Mult            ....    1
 Number of Electrons    NEL             ....   68
 Basis Dimension        Dim             ....  333

ORBITAL ENERGIES
----------------

  NO   OCC          E(Eh)            E(eV)
   0   2.0000     -20.598742      -560.5203
   1   2.0000     -20.575272      -559.8816
   2   2.0000     -15.541968      -422.9184
   3   2.0000     -11.342306      -308.6398
   4   2.0000     -11.307325      -307.6880
   5   2.0000     -11.298582      -307.4501
   6   2.0000     -11.287801      -307.1567
   7   2.0000     -11.242962      -305.9366
   8   2.0000     -11.242306      -305.9187
   9   2.0000      -1.437755       -39.1233
  10   2.0000      -1.418809       -38.6078
  11   2.0000      -1.204503       -32.7762
  12   2.0000      -1.136237       -30.9186
  13   2.0000      -0.933683       -25.4068
  14   2.0000      -0.926437       -25.2096
  15   2.0000      -0.876191       -23.8424
  16   2.0000      -0.834602       -22.7107
  17   2.0000      -0.780111       -21.2279
  18   2.0000      -0.725479       -19.7413
  19   2.0000      -0.689894       -18.7730
  20   2.0000      -0.683020       -18.5859
  21   2.0000      -0.663167       -18.0457
  22   2.0000      -0.621290       -16.9062
  23   2.0000      -0.617781       -16.8107
  24   2.0000      -0.590876       -16.0785
  25   2.0000      -0.543314       -14.7843
  26   2.0000      -0.525380       -14.2963
  27   2.0000      -0.511391       -13.9157
  28   2.0000      -0.491571       -13.3763
  29   2.0000      -0.483263       -13.1503
  30   2.0000      -0.450051       -12.2465
  31   2.0000      -0.440633       -11.9902
  32   2.0000      -0.435389       -11.8475
  33   2.0000      -0.396437       -10.7876
  34   0.0000       0.133962         3.6453
  35   0.0000       0.144722         3.9381
  36   0.0000       0.157204         4.2777
  37   0.0000       0.162392         4.4189
  38   0.0000       0.170829         4.6485

MULLIKEN ATOMIC CHARGES
-----------------------
   0 N :   -0.340397
   1 C :    0.063924
   2 O :   -0.212598
   3 C :    0.094384
   4 C :   -0.257501
   5 C :   -0.202858
   6 C :    0.096406
   7 C :   -0.103472
   8 O :   -0.335159
   9 H :    0.226967
  10 H :    0.083241
  11 H :    0.093211
  12 H :    0.132179
  13 H :    0.136775
  14 H :    0.130020
  15 H :    0.132507
  16 H :    0.120404
  17 H :    0.141966
Sum of atomic charges:    0.0000000

LOEWDIN ATOMIC CHARGES
----------------------
   0 N :   -0.081969
   1 C :   -0.396741
   2 O :    0.274761
   3 C :   -0.252645
   4 C :   -0.203407
   5 C :   -0.193272
   6 C :   -0.315222
   7 C :   -0.220679
   8 O :    0.170127
   9 H :    0.168816
  10 H :    0.106756
  11 H :    0.143330
  12 H :    0.128548
  13 H :    0.145064
  14 H :    0.142507
  15 H :    0.133170
  16 H :    0.122997
  17 H :    0.127858

  Mayer bond orders larger than 0.1
B(  0-N ,  1-C ) :   1.9671 B(  0-N ,  9-H ) :   0.8495 B(  1-C ,  2-O ) :   1.0366
B(  1-C , 10-H ) :   0.9200 B(  2-O ,  3-C ) :   0.9339 B(  3-C ,  4-C ) :   0.9260
B(  3-C ,  6-C ) :   0.8800 B(  3-C , 11-H ) :   0.9194 B(  4-C ,  5-C ) :   0.9328
B(  4-C , 12-H ) :   0.9341 B(  4-C , 13-H ) :   0.9193 B(  5-C ,  6-C ) :   0.8896
B(  5-C , 14-H ) :   0.9177 B(  5-C , 15-H ) :   0.9253 B(  6-C ,  7-C ) :   0.9895
B(  6-C ,  8-O ) :   0.9255 B(  7-C ,  8-O ) :   0.8869 B(  7-C , 16-H ) :   0.9167
B(  7-C , 17-H ) :   0.9076

MP2 TOTAL ENERGY:     -438.316932154 Eh
FINAL SINGLE POINT ENERGY      -438.316932154114

DIPOLE MOMENT
-------------
                                X             Y             Z
Electronic contribution:      1.68170       1.88845      -2.43349
Nuclear contribution   :     -1.53224      -2.69469       2.90406
                        -----------------------------------------
Total Dipole Moment    :      0.14946      -0.80624       0.47057
                        -----------------------------------------
Magnitude (a.u.)       :      0.94541
Magnitude (Debye)      :      2.40304

                             ****ORCA TERMINATED NORMALLY****
TOTAL RUN TIME: 0 days 0 hours 14 minutes 57 seconds 352 msec
