                         Program Version 3.0.3 - RELEASE   -
|  1> ! RI-MP2 RIJK def2-TZVP def2-TZVP/C def2-TZVP/JK TIGHTSCF
|  2> % maxcore 2000
|  3> % mp2 density relaxed end
|  4> *xyz 0 1
|  5>  O        0.0178105929     1.4959661282     0.1041421660
|  6>  C        0.0863811719     0.0950208609     0.2771292609
|  7>  C       -1.2674931724    -0.5508323461    -0.0260268797
|  8>  O       -1.7070239986    -0.0933913277    -1.3183237026
|  9>  C       -1.6998135969    -1.0191799342    -2.4073897016
| 10>  C       -1.7292536359    -2.4738578106    -1.9429705473
| 11>  C       -2.5843926948    -2.5761436000    -0.6488081403
| 12>  C       -1.3054786699    -2.0748845421     0.0827184816
| 13>  C       -0.4844117782    -2.7391829721    -1.0590756738
| 14>  H       -0.4589464544     1.6230187838    -0.7261839788
| 15>  H        0.8699484481    -0.3465266182    -0.3591435595
| 16>  H        0.3629553259    -0.0929359159     1.3211637719
| 17>  H       -1.9961477910    -0.1289533252     0.6807811871
| 18>  H       -2.5897594117    -0.7848895587    -3.0045930756
| 19>  H       -0.8172994083    -0.8493333762    -3.0438666518
| 20>  H       -1.9382978842    -3.1412441239    -2.7826876868
| 21>  H       -3.4868771606    -1.9631359079    -0.5770742244
| 22>  H       -2.8177526605    -3.6132614527    -0.3970880321
| 23>  H       -1.1230469586    -2.3883376488     1.1135646365
| 24>  H       -0.3333283432    -3.8052686080    -0.8715802632
| 25>  H        0.4651843906    -2.2902591345    -1.3628444967
| 26> *
| 27>
| 28>                          ****END OF INPUT****

CARTESIAN COORDINATES (ANGSTROEM)
---------------------------------
  O      0.017811    1.495966    0.104142
  C      0.086381    0.095021    0.277129
  C     -1.267493   -0.550832   -0.026027
  O     -1.707024   -0.093391   -1.318324
  C     -1.699814   -1.019180   -2.407390
  C     -1.729254   -2.473858   -1.942971
  C     -2.584393   -2.576144   -0.648808
  C     -1.305479   -2.074885    0.082718
  C     -0.484412   -2.739183   -1.059076
  H     -0.458946    1.623019   -0.726184
  H      0.869948   -0.346527   -0.359144
  H      0.362955   -0.092936    1.321164
  H     -1.996148   -0.128953    0.680781
  H     -2.589759   -0.784890   -3.004593
  H     -0.817299   -0.849333   -3.043867
  H     -1.938298   -3.141244   -2.782688
  H     -3.486877   -1.963136   -0.577074
  H     -2.817753   -3.613261   -0.397088
  H     -1.123047   -2.388338    1.113565
  H     -0.333328   -3.805269   -0.871580
  H      0.465184   -2.290259   -1.362844

 Total Charge           Charge          ....    0
 Multiplicity           Mult            ....    1
 Number of Electrons    NEL             ....   70
 Basis Dimension        Dim             ....  351

ORBITAL ENERGIES
----------------

  NO   OCC          E(Eh)            E(eV)
   0   2.0000     -20.555749      -559.3504
   1   2.0000     -20.542124      -558.9796
   2   2.0000     -11.280975      -306.9709
   3   2.0000     -11.279894      -306.9415
   4   2.0000     -11.267851      -306.6138
   5   2.0000     -11.240888      -305.8801
   6   2.0000     -11.239319      -305.8374
   7   2.0000     -11.230048      -305.5852
   8   2.0000     -11.229776      -305.5777
   9   2.0000      -1.379798       -37.5462
  10   2.0000      -1.343849       -36.5680
  11   2.0000      -1.151964       -31.3465
  12   2.0000      -1.040899       -28.3243
  13   2.0000      -0.936558       -25.4850
  14   2.0000      -0.907582       -24.6966
  15   2.0000      -0.859374       -23.3848
  16   2.0000      -0.830407       -22.5965
  17   2.0000      -0.724346       -19.7104
  18   2.0000      -0.698432       -19.0053
  19   2.0000      -0.689580       -18.7644
  20   2.0000      -0.649352       -17.6698
  21   2.0000      -0.636924       -17.3316
  22   2.0000      -0.617985       -16.8162
  23   2.0000      -0.585114       -15.9218
  24   2.0000      -0.572976       -15.5915
  25   2.0000      -0.567930       -15.4542
  26   2.0000      -0.553464       -15.0605
  27   2.0000      -0.537909       -14.6373
  28   2.0000      -0.500602       -13.6221
  29   2.0000      -0.466211       -12.6863
  30   2.0000      -0.463813       -12.6210
  31   2.0000      -0.449099       -12.2206
  32   2.0000      -0.435854       -11.8602
  33   2.0000      -0.431623       -11.7451
  34   2.0000      -0.403122       -10.9695
  35   0.0000       0.131185         3.5697
  36   0.0000       0.152073         4.1381
  37   0.0000       0.161548         4.3959
  38   0.0000       0.168830         4.5941
  39   0.0000       0.181155         4.9295

MULLIKEN ATOMIC CHARGES
-----------------------
   0 O :   -0.481289
   1 C :    0.012158
   2 C :   -0.006780
   3 O :   -0.365979
   4 C :   -0.071661
   5 C :   -0.017078
   6 C :   -0.299463
   7 C :   -0.013004
   8 C :   -0.328202
   9 H :    0.326257
  10 H :    0.085083
  11 H :    0.103629
  12 H :    0.093385
  13 H :    0.117057
  14 H :    0.097962
  15 H :    0.119976
  16 H :    0.128865
  17 H :    0.126067
  18 H :    0.125168
  19 H :    0.124508
  20 H :    0.123343
Sum of atomic charges:   -0.0000000

LOEWDIN ATOMIC CHARGES
----------------------
   0 O :   -0.048184
   1 C :   -0.330249
   2 C :   -0.304194
   3 O :    0.154462
   4 C :   -0.285360
   5 C :   -0.233048
   6 C :   -0.190585
   7 C :   -0.206464
   8 C :   -0.200934
   9 H :    0.176702
  10 H :    0.115730
  11 H :    0.129983
  12 H :    0.149741
  13 H :    0.130009
  14 H :    0.124116
  15 H :    0.140359
  16 H :    0.132658
  17 H :    0.137735
  18 H :    0.143651
  19 H :    0.138374
  20 H :    0.125497

  Mayer bond orders larger than 0.1
B(  0-O ,  1-C ) :   0.9382 B(  0-O ,  9-H ) :   0.8260 B(  1-C ,  2-C ) :   0.9589
B(  1-C , 10-H ) :   0.9111 B(  1-C , 11-H ) :   0.9253 B(  2-C ,  3-O ) :   0.8739
B(  2-C ,  7-C ) :   0.9059 B(  2-C , 12-H ) :   0.9180 B(  3-O ,  4-C ) :   0.9248
B(  4-C ,  5-C ) :   0.9228 B(  4-C , 13-H ) :   0.9314 B(  4-C , 14-H ) :   0.9232
B(  5-C ,  6-C ) :   0.9113 B(  5-C ,  8-C ) :   0.8993 B(  5-C , 15-H ) :   0.9169
B(  6-C ,  7-C ) :   0.8960 B(  6-C , 16-H ) :   0.9187 B(  6-C , 17-H ) :   0.9242
B(  7-C ,  8-C ) :   0.8976 B(  7-C , 18-H ) :   0.9187 B(  8-C , 19-H ) :   0.9238
B(  8-C , 20-H ) :   0.9280

MP2 TOTAL ENERGY:     -423.512998639 Eh
FINAL SINGLE POINT ENERGY      -423.512998638605

DIPOLE MOMENT
-------------
                                X             Y             Z
Electronic contribution:     -0.30801       3.91268       0.38516
Nuclear contribution   :      0.08307      -5.06463      -0.75417
                        -----------------------------------------
Total Dipole Moment    :     -0.22494      -1.15195      -0.36901
                        -----------------------------------------
Magnitude (a.u.)       :      1.23035
Magnitude (Debye)      :      3.12729

                             ****ORCA TERMINATED NORMALLY****
TOTAL RUN TIME: 0 days 0 hours 18 minutes 44 seconds 193 msec
