                         Program Version 3.0.3 - RELEASE   -
|  1> ! RI-MP2 RIJK def2-TZVP def2-TZVP/C def2-TZVP/JK TIGHTSCF
|  2> % maxcore 2000
|  3> % mp2 density relaxed end
|  4> *xyz 0 1
|  5>  C       -0.2767303067     1.3609718868     0.1141626155
|  6>  C       -0.1347846643    -0.1129646249    -0.1143179022
|  7>  N        0.7573871347    -0.6133058907    -0.8558224214
|  8>  O       -1.1086993637    -0.7830408102     0.6030522211
|  9>  C       -1.1098307634    -2.1703804274     0.5529852544
| 10>  C       -2.3937425201    -2.8286251233     0.9053151730
| 11>  C       -1.9118872202    -2.8739504050    -0.5437985463
| 12>  C       -2.5944370787    -2.0862147707    -1.5291909651
| 13>  N       -3.1436242464    -1.4546657195    -2.3275182796
| 14>  H        0.5042197967     1.8895169727    -0.4299506261
| 15>  H       -1.2593543189     1.6972734729    -0.2307247457
| 16>  H       -0.2087351901     1.5897121094     1.1820124132
| 17>  H        0.6971326792    -1.6275486605    -0.9295918524
| 18>  H       -0.1750864525    -2.6411106619     0.8485469894
| 19>  H       -2.3725659056    -3.7546609976     1.4667441232
| 20>  H       -3.2302807540    -2.1729620009     1.1140394521
| 21>  H       -1.5208323260    -3.8166855891    -0.9115114131
| 22> *
| 23>
| 24>                          ****END OF INPUT****

CARTESIAN COORDINATES (ANGSTROEM)
---------------------------------
  C     -0.276730    1.360972    0.114163
  C     -0.134785   -0.112965   -0.114318
  N      0.757387   -0.613306   -0.855822
  O     -1.108699   -0.783041    0.603052
  C     -1.109831   -2.170380    0.552985
  C     -2.393743   -2.828625    0.905315
  C     -1.911887   -2.873950   -0.543799
  C     -2.594437   -2.086215   -1.529191
  N     -3.143624   -1.454666   -2.327518
  H      0.504220    1.889517   -0.429951
  H     -1.259354    1.697273   -0.230725
  H     -0.208735    1.589712    1.182012
  H      0.697133   -1.627549   -0.929592
  H     -0.175086   -2.641111    0.848547
  H     -2.372566   -3.754661    1.466744
  H     -3.230281   -2.172962    1.114039
  H     -1.520832   -3.816686   -0.911511

 Total Charge           Charge          ....    0
 Multiplicity           Mult            ....    1
 Number of Electrons    NEL             ....   66
 Basis Dimension        Dim             ....  327

ORBITAL ENERGIES
----------------

  NO   OCC          E(Eh)            E(eV)
   0   2.0000     -20.618803      -561.0661
   1   2.0000     -15.573377      -423.7731
   2   2.0000     -15.546323      -423.0370
   3   2.0000     -11.351247      -308.8831
   4   2.0000     -11.338184      -308.5277
   5   2.0000     -11.300462      -307.5012
   6   2.0000     -11.279837      -306.9400
   7   2.0000     -11.276557      -306.8507
   8   2.0000     -11.233660      -305.6834
   9   2.0000      -1.453371       -39.5482
  10   2.0000      -1.230141       -33.4738
  11   2.0000      -1.212205       -32.9858
  12   2.0000      -1.175547       -31.9883
  13   2.0000      -1.011689       -27.5295
  14   2.0000      -0.935425       -25.4542
  15   2.0000      -0.875889       -23.8341
  16   2.0000      -0.806392       -21.9430
  17   2.0000      -0.743901       -20.2426
  18   2.0000      -0.725498       -19.7418
  19   2.0000      -0.694331       -18.8937
  20   2.0000      -0.657309       -17.8863
  21   2.0000      -0.623018       -16.9532
  22   2.0000      -0.592571       -16.1247
  23   2.0000      -0.568880       -15.4800
  24   2.0000      -0.564390       -15.3578
  25   2.0000      -0.557755       -15.1773
  26   2.0000      -0.545606       -14.8467
  27   2.0000      -0.520623       -14.1669
  28   2.0000      -0.500260       -13.6128
  29   2.0000      -0.455331       -12.3902
  30   2.0000      -0.441031       -12.0011
  31   2.0000      -0.434905       -11.8344
  32   2.0000      -0.410114       -11.1598
  33   0.0000       0.115499         3.1429
  34   0.0000       0.144124         3.9218
  35   0.0000       0.147438         4.0120
  36   0.0000       0.154329         4.1995
  37   0.0000       0.174734         4.7547

MULLIKEN ATOMIC CHARGES
-----------------------
   0 C :   -0.393324
   1 C :    0.240469
   2 N :   -0.375803
   3 O :   -0.240677
   4 C :   -0.046150
   5 C :   -0.248554
   6 C :   -0.015217
   7 C :   -0.181850
   8 N :   -0.054784
   9 H :    0.157285
  10 H :    0.154846
  11 H :    0.142010
  12 H :    0.217770
  13 H :    0.153179
  14 H :    0.156324
  15 H :    0.169080
  16 H :    0.165397
Sum of atomic charges:   -0.0000000

LOEWDIN ATOMIC CHARGES
----------------------
   0 C :   -0.262480
   1 C :   -0.409358
   2 N :   -0.044168
   3 O :    0.276832
   4 C :   -0.275376
   5 C :   -0.164117
   6 C :   -0.197680
   7 C :   -0.179444
   8 N :    0.070461
   9 H :    0.139065
  10 H :    0.140451
  11 H :    0.135710
  12 H :    0.159874
  13 H :    0.143631
  14 H :    0.142416
  15 H :    0.154143
  16 H :    0.170038

  Mayer bond orders larger than 0.1
B(  0-C ,  1-C ) :   0.9155 B(  0-C ,  9-H ) :   0.9424 B(  0-C , 10-H ) :   0.9209
B(  0-C , 11-H ) :   0.9235 B(  1-C ,  2-N ) :   1.9487 B(  1-C ,  3-O ) :   0.9939
B(  2-N , 12-H ) :   0.8698 B(  3-O ,  4-C ) :   0.9731 B(  4-C ,  5-C ) :   0.9012
B(  4-C ,  6-C ) :   0.8401 B(  4-C , 13-H ) :   0.9363 B(  5-C ,  6-C ) :   0.8429
B(  5-C , 14-H ) :   0.9244 B(  5-C , 15-H ) :   0.9203 B(  6-C ,  7-C ) :   0.9657
B(  6-C , 16-H ) :   0.9063 B(  7-C ,  8-N ) :   2.8355

MP2 TOTAL ENERGY:     -417.299046451 Eh
FINAL SINGLE POINT ENERGY      -417.299046451232

DIPOLE MOMENT
-------------
                                X             Y             Z
Electronic contribution:     -2.34971      -2.18892      -2.92035
Nuclear contribution   :      2.57541       1.09192       4.40925
                        -----------------------------------------
Total Dipole Moment    :      0.22570      -1.09700       1.48889
                        -----------------------------------------
Magnitude (a.u.)       :      1.86310
Magnitude (Debye)      :      4.73563

                             ****ORCA TERMINATED NORMALLY****
TOTAL RUN TIME: 0 days 0 hours 17 minutes 7 seconds 554 msec
