                         Program Version 3.0.3 - RELEASE   -
|  1> ! RI-MP2 RIJK def2-TZVP def2-TZVP/C def2-TZVP/JK TIGHTSCF
|  2> % maxcore 2000
|  3> % mp2 density relaxed end
|  4> *xyz 0 1
|  5>  C       -0.0823045855     1.6815556754    -0.0851924554
|  6>  C        0.1150097068     0.1686441222     0.0625436191
|  7>  C        0.7580174935    -0.4469168565    -1.1806304557
|  8>  C        0.9277284929    -1.9898747718    -1.3094900914
|  9>  C        0.3698823928    -2.9093953126    -0.2449262085
| 10>  O        0.0852368510    -1.9781652107    -2.5129477610
| 11>  C       -0.1125245333    -0.6106613230    -2.4101664994
| 12>  N       -0.8011551164     0.1641992943    -3.1124404098
| 13>  C       -1.5439547265    -0.3746070424    -4.2437997348
| 14>  H        0.8788815216     2.1938746095    -0.2051581184
| 15>  H       -0.6914084421     1.9029344312    -0.9655695525
| 16>  H       -0.5764755158     2.0995919226     0.7969702036
| 17>  H        0.7469447003    -0.0454317513     0.9338456085
| 18>  H       -0.8530911020    -0.3074659545     0.2534998268
| 19>  H        1.6872814878     0.0841936879    -1.4129237258
| 20>  H        1.9421848945    -2.2929618886    -1.5887109920
| 21>  H       -0.6558441147    -2.6414354052     0.0203976034
| 22>  H        0.3706363152    -3.9422630693    -0.6057667827
| 23>  H        0.9873090815    -2.8649803719     0.6583117095
| 24>  H       -1.4795710762    -1.4643867979    -4.3441787767
| 25>  H       -2.5979005004    -0.0915066683    -4.1477533340
| 26>  H       -1.1744884250     0.0837230609    -5.1682817928
| 27> *
| 28>
| 29>                          ****END OF INPUT****

CARTESIAN COORDINATES (ANGSTROEM)
---------------------------------
  C     -0.082305    1.681556   -0.085192
  C      0.115010    0.168644    0.062544
  C      0.758017   -0.446917   -1.180630
  C      0.927728   -1.989875   -1.309490
  C      0.369882   -2.909395   -0.244926
  O      0.085237   -1.978165   -2.512948
  C     -0.112525   -0.610661   -2.410166
  N     -0.801155    0.164199   -3.112440
  C     -1.543955   -0.374607   -4.243800
  H      0.878882    2.193875   -0.205158
  H     -0.691408    1.902934   -0.965570
  H     -0.576476    2.099592    0.796970
  H      0.746945   -0.045432    0.933846
  H     -0.853091   -0.307466    0.253500
  H      1.687281    0.084194   -1.412924
  H      1.942185   -2.292962   -1.588711
  H     -0.655844   -2.641435    0.020398
  H      0.370636   -3.942263   -0.605767
  H      0.987309   -2.864980    0.658312
  H     -1.479571   -1.464387   -4.344179
  H     -2.597901   -0.091507   -4.147753
  H     -1.174488    0.083723   -5.168282

 Total Charge           Charge          ....    0
 Multiplicity           Mult            ....    1
 Number of Electrons    NEL             ....   70
 Basis Dimension        Dim             ....  357

ORBITAL ENERGIES
----------------

  NO   OCC          E(Eh)            E(eV)
   0   2.0000     -20.579102      -559.9858
   1   2.0000     -15.533273      -422.6819
   2   2.0000     -11.323834      -308.1372
   3   2.0000     -11.299663      -307.4795
   4   2.0000     -11.247069      -306.0483
   5   2.0000     -11.235669      -305.7381
   6   2.0000     -11.233427      -305.6771
   7   2.0000     -11.229183      -305.5616
   8   2.0000     -11.211773      -305.0878
   9   2.0000      -1.421140       -38.6712
  10   2.0000      -1.207321       -32.8529
  11   2.0000      -1.086674       -29.5699
  12   2.0000      -1.021371       -27.7929
  13   2.0000      -0.971483       -26.4354
  14   2.0000      -0.922985       -25.1157
  15   2.0000      -0.848553       -23.0903
  16   2.0000      -0.812182       -22.1006
  17   2.0000      -0.717216       -19.5164
  18   2.0000      -0.689009       -18.7489
  19   2.0000      -0.657360       -17.8877
  20   2.0000      -0.643508       -17.5107
  21   2.0000      -0.609233       -16.5781
  22   2.0000      -0.591884       -16.1060
  23   2.0000      -0.574407       -15.6304
  24   2.0000      -0.571492       -15.5511
  25   2.0000      -0.557304       -15.1650
  26   2.0000      -0.539781       -14.6882
  27   2.0000      -0.527858       -14.3637
  28   2.0000      -0.511092       -13.9075
  29   2.0000      -0.499998       -13.6056
  30   2.0000      -0.486474       -13.2376
  31   2.0000      -0.472938       -12.8693
  32   2.0000      -0.457763       -12.4564
  33   2.0000      -0.399089       -10.8598
  34   2.0000      -0.375051       -10.2057
  35   0.0000       0.128465         3.4957
  36   0.0000       0.155603         4.2342
  37   0.0000       0.157132         4.2758
  38   0.0000       0.164960         4.4888
  39   0.0000       0.187704         5.1077

MULLIKEN ATOMIC CHARGES
-----------------------
   0 C :   -0.395835
   1 C :   -0.216926
   2 C :   -0.033116
   3 C :    0.105696
   4 C :   -0.396189
   5 O :   -0.292174
   6 C :    0.118348
   7 N :   -0.270361
   8 C :   -0.276679
   9 H :    0.116331
  10 H :    0.159164
  11 H :    0.129340
  12 H :    0.112561
  13 H :    0.109905
  14 H :    0.118106
  15 H :    0.101269
  16 H :    0.134495
  17 H :    0.147412
  18 H :    0.130541
  19 H :    0.129617
  20 H :    0.133852
  21 H :    0.134642
Sum of atomic charges:   -0.0000000

LOEWDIN ATOMIC CHARGES
----------------------
   0 C :   -0.311667
   1 C :   -0.265645
   2 C :   -0.182101
   3 C :   -0.247068
   4 C :   -0.292756
   5 O :    0.221834
   6 C :   -0.346621
   7 N :    0.069214
   8 C :   -0.328524
   9 H :    0.120508
  10 H :    0.129777
  11 H :    0.120075
  12 H :    0.137567
  13 H :    0.140001
  14 H :    0.161462
  15 H :    0.137580
  16 H :    0.128005
  17 H :    0.131183
  18 H :    0.131080
  19 H :    0.110447
  20 H :    0.117243
  21 H :    0.118406

  Mayer bond orders larger than 0.1
B(  0-C ,  1-C ) :   0.9236 B(  0-C ,  9-H ) :   0.9369 B(  0-C , 10-H ) :   0.9314
B(  0-C , 11-H ) :   0.9386 B(  1-C ,  2-C ) :   0.9016 B(  1-C , 12-H ) :   0.9328
B(  1-C , 13-H ) :   0.9297 B(  2-C ,  3-C ) :   0.9303 B(  2-C ,  6-C ) :   0.9135
B(  2-C , 14-H ) :   0.9091 B(  3-C ,  4-C ) :   0.9158 B(  3-C ,  5-O ) :   0.8850
B(  3-C , 15-H ) :   0.9212 B(  4-C , 16-H ) :   0.9376 B(  4-C , 17-H ) :   0.9320
B(  4-C , 18-H ) :   0.9269 B(  5-O ,  6-C ) :   1.0453 B(  6-C ,  7-N ) :   1.9359
B(  7-N ,  8-C ) :   0.8519 B(  8-C , 19-H ) :   0.9310 B(  8-C , 20-H ) :   0.9361
B(  8-C , 21-H ) :   0.9356

MP2 TOTAL ENERGY:     -403.658100910 Eh
FINAL SINGLE POINT ENERGY      -403.658100910493

DIPOLE MOMENT
-------------
                                X             Y             Z
Electronic contribution:      1.16875      -2.22276      -4.92551
Nuclear contribution   :     -0.74546       1.83039       5.58034
                        -----------------------------------------
Total Dipole Moment    :      0.42329      -0.39237       0.65484
                        -----------------------------------------
Magnitude (a.u.)       :      0.87289
Magnitude (Debye)      :      2.21872

                             ****ORCA TERMINATED NORMALLY****
TOTAL RUN TIME: 0 days 0 hours 18 minutes 50 seconds 774 msec
