                         Program Version 3.0.3 - RELEASE   -
|  1> ! RI-MP2 RIJK def2-TZVP def2-TZVP/C def2-TZVP/JK TIGHTSCF
|  2> % maxcore 2000
|  3> % mp2 density relaxed end
|  4> *xyz 0 1
|  5>  O        0.0169623966    -0.1156963853    -0.3897323238
|  6>  C       -0.0365997967     1.0667118836    -0.1243051169
|  7>  C        1.1479399258     1.8456059301     0.1774412622
|  8>  C        2.1226287917     2.5071098632     0.4247702988
|  9>  C       -1.3288839502     1.8236973881    -0.0834759844
| 10>  C       -2.5073342244     1.2375252428    -0.8154917010
| 11>  C       -2.5149785032     1.2130793194     0.6881460495
| 12>  C       -2.3810572244    -0.0201856659     1.4139855510
| 13>  N       -2.3199747875    -0.9926315749     2.0363271095
| 14>  H        2.9968121690     3.0716989998     0.6436635425
| 15>  H       -1.2450129680     2.9008973017    -0.0052477809
| 16>  H       -3.1930035673     1.9146604924    -1.3097032528
| 17>  H       -2.3169168721     0.2939863034    -1.3129572383
| 18>  H       -3.1436012693     1.9410909116     1.1900476644
| 19> *
| 20>
| 21>                          ****END OF INPUT****

CARTESIAN COORDINATES (ANGSTROEM)
---------------------------------
  O      0.016962   -0.115696   -0.389732
  C     -0.036600    1.066712   -0.124305
  C      1.147940    1.845606    0.177441
  C      2.122629    2.507110    0.424770
  C     -1.328884    1.823697   -0.083476
  C     -2.507334    1.237525   -0.815492
  C     -2.514979    1.213079    0.688146
  C     -2.381057   -0.020186    1.413986
  N     -2.319975   -0.992632    2.036327
  H      2.996812    3.071699    0.643664
  H     -1.245013    2.900897   -0.005248
  H     -3.193004    1.914660   -1.309703
  H     -2.316917    0.293986   -1.312957
  H     -3.143601    1.941091    1.190048

 Total Charge           Charge          ....    0
 Multiplicity           Mult            ....    1
 Number of Electrons    NEL             ....   62
 Basis Dimension        Dim             ....  309

ORBITAL ENERGIES
----------------

  NO   OCC          E(Eh)            E(eV)
   0   2.0000     -20.574954      -559.8730
   1   2.0000     -15.570802      -423.7031
   2   2.0000     -11.379139      -309.6421
   3   2.0000     -11.309908      -307.7582
   4   2.0000     -11.289824      -307.2117
   5   2.0000     -11.279283      -306.9249
   6   2.0000     -11.276176      -306.8403
   7   2.0000     -11.276150      -306.8396
   8   2.0000     -11.265603      -306.5527
   9   2.0000      -1.418708       -38.6050
  10   2.0000      -1.228098       -33.4183
  11   2.0000      -1.191283       -32.4165
  12   2.0000      -1.079023       -29.3617
  13   2.0000      -0.972613       -26.4661
  14   2.0000      -0.920838       -25.0573
  15   2.0000      -0.840290       -22.8654
  16   2.0000      -0.777241       -21.1498
  17   2.0000      -0.739248       -20.1160
  18   2.0000      -0.705304       -19.1923
  19   2.0000      -0.678382       -18.4597
  20   2.0000      -0.634550       -17.2670
  21   2.0000      -0.595925       -16.2159
  22   2.0000      -0.576122       -15.6771
  23   2.0000      -0.554157       -15.0794
  24   2.0000      -0.536733       -14.6053
  25   2.0000      -0.496023       -13.4975
  26   2.0000      -0.466498       -12.6940
  27   2.0000      -0.453366       -12.3367
  28   2.0000      -0.435206       -11.8426
  29   2.0000      -0.430007       -11.7011
  30   2.0000      -0.423806       -11.5324
  31   0.0000       0.059781         1.6267
  32   0.0000       0.119663         3.2562
  33   0.0000       0.145819         3.9679
  34   0.0000       0.150443         4.0938
  35   0.0000       0.159539         4.3413

MULLIKEN ATOMIC CHARGES
-----------------------
   0 O :   -0.260570
   1 C :    0.030158
   2 C :    0.058570
   3 C :   -0.082226
   4 C :   -0.135265
   5 C :   -0.234664
   6 C :   -0.002441
   7 C :   -0.192858
   8 N :   -0.045887
   9 H :    0.207602
  10 H :    0.153297
  11 H :    0.159536
  12 H :    0.177902
  13 H :    0.166849
Sum of atomic charges:   -0.0000000

LOEWDIN ATOMIC CHARGES
----------------------
   0 O :    0.197567
   1 C :   -0.312804
   2 C :   -0.053667
   3 C :   -0.031731
   4 C :   -0.144727
   5 C :   -0.153021
   6 C :   -0.174132
   7 C :   -0.174104
   8 N :    0.076372
   9 H :    0.134380
  10 H :    0.162347
  11 H :    0.142492
  12 H :    0.156324
  13 H :    0.174704

  Mayer bond orders larger than 0.1
B(  0-O ,  1-C ) :   1.9633 B(  1-C ,  2-C ) :   1.0086 B(  1-C ,  3-C ) :  -0.1079
B(  1-C ,  4-C ) :   1.0334 B(  2-C ,  3-C ) :   2.6171 B(  2-C ,  4-C ) :  -0.1292
B(  3-C ,  9-H ) :   0.8867 B(  4-C ,  5-C ) :   0.8662 B(  4-C ,  6-C ) :   0.7974
B(  4-C , 10-H ) :   0.9181 B(  5-C ,  6-C ) :   0.8558 B(  5-C , 11-H ) :   0.9257
B(  5-C , 12-H ) :   0.9153 B(  6-C ,  7-C ) :   0.9888 B(  6-C , 13-H ) :   0.9125
B(  7-C ,  8-N ) :   2.8401

MP2 TOTAL ENERGY:     -398.817167441 Eh
FINAL SINGLE POINT ENERGY      -398.817167440886

DIPOLE MOMENT
-------------
                                X             Y             Z
Electronic contribution:      2.23758      -2.86092       1.71690
Nuclear contribution   :     -2.32617       5.11377      -2.38798
                        -----------------------------------------
Total Dipole Moment    :     -0.08859       2.25285      -0.67107
                        -----------------------------------------
Magnitude (a.u.)       :      2.35234
Magnitude (Debye)      :      5.97918

                             ****ORCA TERMINATED NORMALLY****
TOTAL RUN TIME: 0 days 0 hours 14 minutes 53 seconds 471 msec
