                         Program Version 3.0.3 - RELEASE   -
|  1> ! RI-MP2 RIJK def2-TZVP def2-TZVP/C def2-TZVP/JK TIGHTSCF
|  2> % maxcore 2000
|  3> % mp2 density relaxed end
|  4> *xyz 0 1
|  5>  C       -0.0894465976     1.5484055673     0.0644346398
|  6>  C       -0.0046714587     0.0513806483    -0.0124143484
|  7>  C        0.0016583538    -0.6293958874    -1.1615183751
|  8>  C        0.0650701683    -2.1384883434    -1.1393980164
|  9>  C        1.4881439919    -2.6417030945    -0.8281970381
| 10>  O        1.5640265817    -2.4758236411     0.5892608346
| 11>  C        0.2370109698    -2.2091821152     1.0502681386
| 12>  C        0.0613882540    -0.7048940701     1.2993111873
| 13>  O       -0.6238290785    -2.6320544901     0.0197663425
| 14>  H        0.7826296155     1.9680563814     0.5820160466
| 15>  H       -0.1479720052     2.0010878522    -0.9290888902
| 16>  H       -0.9715313015     1.8640497799     0.6366155037
| 17>  H       -0.0229486133    -0.1233321908    -2.1223913380
| 18>  H       -0.3832219848    -2.5976342939    -2.0218363893
| 19>  H        1.6069916013    -3.6998105306    -1.0963531210
| 20>  H        2.2740163834    -2.0506263208    -1.3070489516
| 21>  H        0.0378265383    -2.8108054046     1.9422257797
| 22>  H        0.9037800667    -0.3491871714     1.9055436813
| 23>  H       -0.8479818251    -0.5236460753     1.8898360342
| 24> *
| 25>
| 26>                          ****END OF INPUT****

CARTESIAN COORDINATES (ANGSTROEM)
---------------------------------
  C     -0.089447    1.548406    0.064435
  C     -0.004671    0.051381   -0.012414
  C      0.001658   -0.629396   -1.161518
  C      0.065070   -2.138488   -1.139398
  C      1.488144   -2.641703   -0.828197
  O      1.564027   -2.475824    0.589261
  C      0.237011   -2.209182    1.050268
  C      0.061388   -0.704894    1.299311
  O     -0.623829   -2.632054    0.019766
  H      0.782630    1.968056    0.582016
  H     -0.147972    2.001088   -0.929089
  H     -0.971531    1.864050    0.636616
  H     -0.022949   -0.123332   -2.122391
  H     -0.383222   -2.597634   -2.021836
  H      1.606992   -3.699811   -1.096353
  H      2.274016   -2.050626   -1.307049
  H      0.037827   -2.810805    1.942226
  H      0.903780   -0.349187    1.905544
  H     -0.847982   -0.523646    1.889836

 Total Charge           Charge          ....    0
 Multiplicity           Mult            ....    1
 Number of Electrons    NEL             ....   68
 Basis Dimension        Dim             ....  339

ORBITAL ENERGIES
----------------

  NO   OCC          E(Eh)            E(eV)
   0   2.0000     -20.562248      -559.5272
   1   2.0000     -20.555243      -559.3366
   2   2.0000     -11.330286      -308.3128
   3   2.0000     -11.288763      -307.1828
   4   2.0000     -11.277032      -306.8636
   5   2.0000     -11.243026      -305.9383
   6   2.0000     -11.229381      -305.5670
   7   2.0000     -11.226154      -305.4792
   8   2.0000     -11.221331      -305.3479
   9   2.0000      -1.438719       -39.1495
  10   2.0000      -1.325927       -36.0803
  11   2.0000      -1.105647       -30.0862
  12   2.0000      -1.054121       -28.6841
  13   2.0000      -0.966710       -26.3055
  14   2.0000      -0.919419       -25.0187
  15   2.0000      -0.841680       -22.9033
  16   2.0000      -0.827293       -22.5118
  17   2.0000      -0.733366       -19.9559
  18   2.0000      -0.713199       -19.4071
  19   2.0000      -0.656452       -17.8630
  20   2.0000      -0.640112       -17.4183
  21   2.0000      -0.627722       -17.0812
  22   2.0000      -0.591952       -16.1078
  23   2.0000      -0.582856       -15.8603
  24   2.0000      -0.576219       -15.6797
  25   2.0000      -0.552686       -15.0394
  26   2.0000      -0.543490       -14.7891
  27   2.0000      -0.533695       -14.5226
  28   2.0000      -0.507162       -13.8006
  29   2.0000      -0.495489       -13.4829
  30   2.0000      -0.488636       -13.2965
  31   2.0000      -0.435706       -11.8562
  32   2.0000      -0.414827       -11.2880
  33   2.0000      -0.346410        -9.4263
  34   0.0000       0.137277         3.7355
  35   0.0000       0.144690         3.9372
  36   0.0000       0.161797         4.4027
  37   0.0000       0.168599         4.5878
  38   0.0000       0.188833         5.1384

MULLIKEN ATOMIC CHARGES
-----------------------
   0 C :   -0.421086
   1 C :   -0.009956
   2 C :   -0.252377
   3 C :    0.112322
   4 C :   -0.047101
   5 O :   -0.344143
   6 C :    0.238118
   7 C :   -0.183098
   8 O :   -0.318786
   9 H :    0.139387
  10 H :    0.133272
  11 H :    0.137895
  12 H :    0.119730
  13 H :    0.137259
  14 H :    0.102064
  15 H :    0.107801
  16 H :    0.116312
  17 H :    0.119012
  18 H :    0.113376
Sum of atomic charges:    0.0000000

LOEWDIN ATOMIC CHARGES
----------------------
   0 C :   -0.270205
   1 C :   -0.180756
   2 C :   -0.135505
   3 C :   -0.291562
   4 C :   -0.274219
   5 O :    0.158164
   6 C :   -0.370204
   7 C :   -0.205831
   8 O :    0.204676
   9 H :    0.130859
  10 H :    0.128995
  11 H :    0.131437
  12 H :    0.143089
  13 H :    0.147666
  14 H :    0.120988
  15 H :    0.127848
  16 H :    0.135366
  17 H :    0.151885
  18 H :    0.147306

  Mayer bond orders larger than 0.1
B(  0-C ,  1-C ) :   0.8947 B(  0-C ,  9-H ) :   0.9323 B(  0-C , 10-H ) :   0.9449
B(  0-C , 11-H ) :   0.9282 B(  1-C ,  2-C ) :   1.7966 B(  1-C ,  7-C ) :   0.9705
B(  2-C ,  3-C ) :   0.9360 B(  2-C , 12-H ) :   0.9156 B(  3-C ,  4-C ) :   0.9410
B(  3-C ,  8-O ) :   0.9191 B(  3-C , 13-H ) :   0.9163 B(  4-C ,  5-O ) :   0.9426
B(  4-C , 14-H ) :   0.9287 B(  4-C , 15-H ) :   0.9085 B(  5-O ,  6-C ) :   0.9602
B(  6-C ,  7-C ) :   0.9423 B(  6-C ,  8-O ) :   0.9764 B(  6-C , 16-H ) :   0.9302
B(  7-C , 17-H ) :   0.9019 B(  7-C , 18-H ) :   0.8917

MP2 TOTAL ENERGY:     -422.337814292 Eh
FINAL SINGLE POINT ENERGY      -422.337814291793

DIPOLE MOMENT
-------------
                                X             Y             Z
Electronic contribution:     -0.10093      -6.08331       0.19418
Nuclear contribution   :      0.10426       6.59019      -0.51518
                        -----------------------------------------
Total Dipole Moment    :      0.00333       0.50688      -0.32100
                        -----------------------------------------
Magnitude (a.u.)       :      0.59998
Magnitude (Debye)      :      1.52503

                             ****ORCA TERMINATED NORMALLY****
TOTAL RUN TIME: 0 days 0 hours 18 minutes 52 seconds 280 msec
