                         Program Version 3.0.3 - RELEASE   -
|  1> ! RI-MP2 RIJK def2-TZVP def2-TZVP/C def2-TZVP/JK TIGHTSCF
|  2> % maxcore 2000
|  3> % mp2 density relaxed end
|  4> *xyz 0 1
|  5>  N       -0.1082567346     1.2551293195     0.3823338170
|  6>  C       -0.0186677807     0.0362299023     0.0270217913
|  7>  N        1.1661417200    -0.6738168403    -0.1755623039
|  8>  C        1.3377404715    -1.9179598091    -0.7677863651
|  9>  O        2.4284894606    -2.4394938772    -0.8002434843
| 10>  C        0.1118513078    -2.5320959721    -1.4290443893
| 11>  C       -1.2082551938    -2.0278511893    -0.9070829086
| 12>  O       -1.3437680144    -2.0010419746     0.5101633201
| 13>  C       -1.2679735920    -0.7467711573    -0.1871445084
| 14>  H        0.8095780085     1.6941119159     0.4823908969
| 15>  H        2.0283257079    -0.2625619900     0.1594074511
| 16>  H        0.1856079412    -2.3227578305    -2.5041494469
| 17>  H        0.1937067812    -3.6166166459    -1.3152619758
| 18>  H       -2.0965159596    -2.3585579333    -1.4443600525
| 19>  H       -2.1707368535    -0.1443172682    -0.1749045615
| 20> *
| 21>
| 22>                          ****END OF INPUT****

CARTESIAN COORDINATES (ANGSTROEM)
---------------------------------
  N     -0.108257    1.255129    0.382334
  C     -0.018668    0.036230    0.027022
  N      1.166142   -0.673817   -0.175562
  C      1.337740   -1.917960   -0.767786
  O      2.428489   -2.439494   -0.800243
  C      0.111851   -2.532096   -1.429044
  C     -1.208255   -2.027851   -0.907083
  O     -1.343768   -2.001042    0.510163
  C     -1.267974   -0.746771   -0.187145
  H      0.809578    1.694112    0.482391
  H      2.028326   -0.262562    0.159407
  H      0.185608   -2.322758   -2.504149
  H      0.193707   -3.616617   -1.315262
  H     -2.096516   -2.358558   -1.444360
  H     -2.170737   -0.144317   -0.174905

 Total Charge           Charge          ....    0
 Multiplicity           Mult            ....    1
 Number of Electrons    NEL             ....   66
 Basis Dimension        Dim             ....  315

ORBITAL ENERGIES
----------------

  NO   OCC          E(Eh)            E(eV)
   0   2.0000     -20.599485      -560.5405
   1   2.0000     -20.547512      -559.1262
   2   2.0000     -15.622276      -425.1037
   3   2.0000     -15.561358      -423.4461
   4   2.0000     -11.382751      -309.7404
   5   2.0000     -11.350082      -308.8514
   6   2.0000     -11.323359      -308.1243
   7   2.0000     -11.317375      -307.9614
   8   2.0000     -11.270910      -306.6970
   9   2.0000      -1.448853       -39.4253
  10   2.0000      -1.414198       -38.4823
  11   2.0000      -1.299454       -35.3599
  12   2.0000      -1.193567       -32.4786
  13   2.0000      -1.070489       -29.1295
  14   2.0000      -0.983222       -26.7548
  15   2.0000      -0.895086       -24.3565
  16   2.0000      -0.862728       -23.4760
  17   2.0000      -0.783480       -21.3196
  18   2.0000      -0.745848       -20.2956
  19   2.0000      -0.714097       -19.4316
  20   2.0000      -0.691665       -18.8212
  21   2.0000      -0.657715       -17.8973
  22   2.0000      -0.641290       -17.4504
  23   2.0000      -0.615671       -16.7532
  24   2.0000      -0.598135       -16.2761
  25   2.0000      -0.573087       -15.5945
  26   2.0000      -0.548401       -14.9227
  27   2.0000      -0.524344       -14.2681
  28   2.0000      -0.486979       -13.2514
  29   2.0000      -0.475135       -12.9291
  30   2.0000      -0.454584       -12.3699
  31   2.0000      -0.440188       -11.9781
  32   2.0000      -0.397511       -10.8168
  33   0.0000       0.114034         3.1030
  34   0.0000       0.129419         3.5217
  35   0.0000       0.138793         3.7767
  36   0.0000       0.164090         4.4651
  37   0.0000       0.167393         4.5550

MULLIKEN ATOMIC CHARGES
-----------------------
   0 N :   -0.323978
   1 C :    0.048501
   2 N :   -0.259594
   3 C :    0.178393
   4 O :   -0.307551
   5 C :   -0.148331
   6 C :   -0.027763
   7 O :   -0.312932
   8 C :    0.117561
   9 H :    0.206716
  10 H :    0.243733
  11 H :    0.144768
  12 H :    0.152334
  13 H :    0.140161
  14 H :    0.147981
Sum of atomic charges:    0.0000000

LOEWDIN ATOMIC CHARGES
----------------------
   0 N :   -0.034772
   1 C :   -0.345094
   2 N :    0.169623
   3 C :   -0.412934
   4 O :    0.117404
   5 C :   -0.203613
   6 C :   -0.260283
   7 O :    0.188429
   8 C :   -0.211112
   9 H :    0.160909
  10 H :    0.201562
  11 H :    0.167157
  12 H :    0.164726
  13 H :    0.144245
  14 H :    0.153752

  Mayer bond orders larger than 0.1
B(  0-N ,  1-C ) :   2.0530 B(  0-N ,  9-H ) :   0.8563 B(  1-C ,  2-N ) :   1.0754
B(  1-C ,  8-C ) :   0.9153 B(  2-N ,  3-C ) :   1.0816 B(  2-N , 10-H ) :   0.8522
B(  3-C ,  4-O ) :   2.0317 B(  3-C ,  5-C ) :   0.9339 B(  5-C ,  6-C ) :   0.8894
B(  5-C , 11-H ) :   0.8892 B(  5-C , 12-H ) :   0.9053 B(  6-C ,  7-O ) :   0.9465
B(  6-C ,  8-C ) :   0.9141 B(  6-C , 13-H ) :   0.9204 B(  7-O ,  8-C ) :   0.8546
B(  8-C , 14-H ) :   0.9312

MP2 TOTAL ENERGY:     -453.240376210 Eh
FINAL SINGLE POINT ENERGY      -453.240376210058

DIPOLE MOMENT
-------------
                                X             Y             Z
Electronic contribution:      1.51919      -0.16290       1.68639
Nuclear contribution   :     -1.79758       0.38731      -2.44518
                        -----------------------------------------
Total Dipole Moment    :     -0.27839       0.22441      -0.75879
                        -----------------------------------------
Magnitude (a.u.)       :      0.83882
Magnitude (Debye)      :      2.13211

                             ****ORCA TERMINATED NORMALLY****
TOTAL RUN TIME: 0 days 0 hours 14 minutes 2 seconds 478 msec
