                         Program Version 3.0.3 - RELEASE   -
|  1> ! RI-MP2 RIJK def2-TZVP def2-TZVP/C def2-TZVP/JK TIGHTSCF
|  2> % maxcore 2000
|  3> % mp2 density relaxed end
|  4> *xyz 0 1
|  5>  C        0.0606773155     1.5790197821     0.0610350932
|  6>  C        0.1189030278     0.0497443455     0.0670984503
|  7>  C        0.5860261756    -0.5332330488    -1.2813782890
|  8>  C        0.6579303098    -2.0267867323    -1.3101588692
|  9>  C       -0.0679887464    -2.8640556413    -2.0620452567
| 10>  N        0.2723641212    -4.2071731002    -1.8260554231
| 11>  C        1.2772280442    -4.3187702139    -0.8830936673
| 12>  O        1.7747113474    -5.3468712955    -0.4863516916
| 13>  C        1.5967897838    -2.8696643943    -0.4733582993
| 14>  H        1.0446117191     2.0123420522    -0.1506719202
| 15>  H       -0.6324781658     1.9460742024    -0.7041798107
| 16>  H       -0.2736626965     1.9688720272     1.0273071597
| 17>  H        0.7938980448    -0.2879129050     0.8633403278
| 18>  H       -0.8687250144    -0.3620340816     0.3081924232
| 19>  H       -0.0919567601    -0.1913638377    -2.0738582644
| 20>  H        1.5726009179    -0.1073994218    -1.5192151456
| 21>  H       -0.8344553105    -2.6299769569    -2.7880405551
| 22>  H       -0.1327147725    -5.0064610485    -2.2833776636
| 23>  H        2.6562923496    -2.6606967497    -0.6648726900
| 24>  H        1.4489808896    -2.7594509117     0.6070434515
| 25> *
| 26>
| 27>                          ****END OF INPUT****

CARTESIAN COORDINATES (ANGSTROEM)
---------------------------------
  C      0.060677    1.579020    0.061035
  C      0.118903    0.049744    0.067098
  C      0.586026   -0.533233   -1.281378
  C      0.657930   -2.026787   -1.310159
  C     -0.067989   -2.864056   -2.062045
  N      0.272364   -4.207173   -1.826055
  C      1.277228   -4.318770   -0.883094
  O      1.774711   -5.346871   -0.486352
  C      1.596790   -2.869664   -0.473358
  H      1.044612    2.012342   -0.150672
  H     -0.632478    1.946074   -0.704180
  H     -0.273663    1.968872    1.027307
  H      0.793898   -0.287913    0.863340
  H     -0.868725   -0.362034    0.308192
  H     -0.091957   -0.191364   -2.073858
  H      1.572601   -0.107399   -1.519215
  H     -0.834455   -2.629977   -2.788041
  H     -0.132715   -5.006461   -2.283378
  H      2.656292   -2.660697   -0.664873
  H      1.448981   -2.759451    0.607043

 Total Charge           Charge          ....    0
 Multiplicity           Mult            ....    1
 Number of Electrons    NEL             ....   68
 Basis Dimension        Dim             ....  345

ORBITAL ENERGIES
----------------

  NO   OCC          E(Eh)            E(eV)
   0   2.0000     -20.521121      -558.4081
   1   2.0000     -15.592170      -424.2845
   2   2.0000     -11.351497      -308.8899
   3   2.0000     -11.276157      -306.8398
   4   2.0000     -11.244835      -305.9875
   5   2.0000     -11.236746      -305.7674
   6   2.0000     -11.235056      -305.7214
   7   2.0000     -11.228764      -305.5502
   8   2.0000     -11.219643      -305.3020
   9   2.0000      -1.384767       -37.6814
  10   2.0000      -1.266474       -34.4625
  11   2.0000      -1.099033       -29.9062
  12   2.0000      -1.042021       -28.3548
  13   2.0000      -0.977821       -26.6079
  14   2.0000      -0.930119       -25.3098
  15   2.0000      -0.822646       -22.3853
  16   2.0000      -0.808398       -21.9976
  17   2.0000      -0.753846       -20.5132
  18   2.0000      -0.700027       -19.0487
  19   2.0000      -0.642609       -17.4863
  20   2.0000      -0.635064       -17.2810
  21   2.0000      -0.626137       -17.0381
  22   2.0000      -0.604047       -16.4369
  23   2.0000      -0.591319       -16.0906
  24   2.0000      -0.569876       -15.5071
  25   2.0000      -0.556299       -15.1377
  26   2.0000      -0.534748       -14.5512
  27   2.0000      -0.518979       -14.1221
  28   2.0000      -0.499169       -13.5831
  29   2.0000      -0.491258       -13.3678
  30   2.0000      -0.476657       -12.9705
  31   2.0000      -0.467572       -12.7233
  32   2.0000      -0.416716       -11.3394
  33   2.0000      -0.315601        -8.5879
  34   0.0000       0.125979         3.4281
  35   0.0000       0.136289         3.7086
  36   0.0000       0.142879         3.8879
  37   0.0000       0.155541         4.2325
  38   0.0000       0.168036         4.5725

MULLIKEN ATOMIC CHARGES
-----------------------
   0 C :   -0.387973
   1 C :   -0.195217
   2 C :   -0.262744
   3 C :   -0.007809
   4 C :   -0.074037
   5 N :   -0.272792
   6 C :    0.190455
   7 O :   -0.327411
   8 C :   -0.181167
   9 H :    0.123465
  10 H :    0.122934
  11 H :    0.135886
  12 H :    0.109934
  13 H :    0.113303
  14 H :    0.118626
  15 H :    0.117513
  16 H :    0.146553
  17 H :    0.242647
  18 H :    0.142828
  19 H :    0.145005
Sum of atomic charges:    0.0000000

LOEWDIN ATOMIC CHARGES
----------------------
   0 C :   -0.320883
   1 C :   -0.287808
   2 C :   -0.237422
   3 C :   -0.185806
   4 C :   -0.184428
   5 N :    0.144801
   6 C :   -0.412460
   7 O :    0.089594
   8 C :   -0.175703
   9 H :    0.120720
  10 H :    0.120586
  11 H :    0.121754
  12 H :    0.134355
  13 H :    0.135902
  14 H :    0.146530
  15 H :    0.145093
  16 H :    0.138983
  17 H :    0.186829
  18 H :    0.160120
  19 H :    0.159243

  Mayer bond orders larger than 0.1
B(  0-C ,  1-C ) :   0.9164 B(  0-C ,  9-H ) :   0.9386 B(  0-C , 10-H ) :   0.9397
B(  0-C , 11-H ) :   0.9419 B(  1-C ,  2-C ) :   0.9132 B(  1-C , 12-H ) :   0.9345
B(  1-C , 13-H ) :   0.9329 B(  2-C ,  3-C ) :   0.9036 B(  2-C , 14-H ) :   0.9406
B(  2-C , 15-H ) :   0.9238 B(  3-C ,  4-C ) :   1.7305 B(  3-C ,  8-C ) :   0.9247
B(  4-C ,  5-N ) :   0.9945 B(  4-C , 16-H ) :   0.9032 B(  5-N ,  6-C ) :   1.1119
B(  5-N , 17-H ) :   0.8657 B(  6-C ,  7-O ) :   2.0284 B(  6-C ,  8-C ) :   0.9330
B(  8-C , 18-H ) :   0.8879 B(  8-C , 19-H ) :   0.8921

MP2 TOTAL ENERGY:     -402.504604095 Eh
FINAL SINGLE POINT ENERGY      -402.504604094583

DIPOLE MOMENT
-------------
                                X             Y             Z
Electronic contribution:      2.08624     -14.78467      -2.84988
Nuclear contribution   :     -2.82660      15.82493       2.26680
                        -----------------------------------------
Total Dipole Moment    :     -0.74036       1.04026      -0.58308
                        -----------------------------------------
Magnitude (a.u.)       :      1.40365
Magnitude (Debye)      :      3.56781

                             ****ORCA TERMINATED NORMALLY****
TOTAL RUN TIME: 0 days 0 hours 17 minutes 6 seconds 926 msec
