                         Program Version 3.0.3 - RELEASE   -
|  1> ! RI-MP2 RIJK def2-TZVP def2-TZVP/C def2-TZVP/JK TIGHTSCF
|  2> % maxcore 2000
|  3> % mp2 density relaxed end
|  4> *xyz 0 1
|  5>  C       -0.8935182641     1.0171835970     0.1068415749
|  6>  C        0.1007320470    -0.1233687799    -0.0366371808
|  7>  C        1.0047808724    -0.2253478545    -1.3230482318
|  8>  O        1.2172088303     1.0262833612    -1.9149095926
|  9>  C        2.2331940224    -0.6402635316    -0.4214217537
| 10>  C        2.5043584488    -2.1363206984    -0.3655185079
| 11>  O        3.4163721664     0.0802027492    -0.7058287715
| 12>  C        1.4160527681    -0.0433410866     0.7395150860
| 13>  O        1.7871682367     0.5554303428     1.7120945387
| 14>  H       -0.4348949372     1.9551914121    -0.2117735180
| 15>  H       -1.7820090111     0.8438026898    -0.5072609635
| 16>  H       -1.2102749909     1.1189918277     1.1487142469
| 17>  H       -0.3729171116    -1.0964007821     0.1430874464
| 18>  H        0.6893005652    -0.9717551158    -2.0614695374
| 19>  H        2.1775881846     1.1599831389    -1.9075235604
| 20>  H        2.9634866456    -2.4571808482    -1.3055563258
| 21>  H        3.1907268942    -2.3705429620     0.4531993498
| 22>  H        1.5823085372    -2.7072411919    -0.2204141538
| 23>  H        3.6006280459     0.6332918425     0.0655976945
| 24> *
| 25>
| 26>                          ****END OF INPUT****

CARTESIAN COORDINATES (ANGSTROEM)
---------------------------------
  C     -0.893518    1.017184    0.106842
  C      0.100732   -0.123369   -0.036637
  C      1.004781   -0.225348   -1.323048
  O      1.217209    1.026283   -1.914910
  C      2.233194   -0.640264   -0.421422
  C      2.504358   -2.136321   -0.365519
  O      3.416372    0.080203   -0.705829
  C      1.416053   -0.043341    0.739515
  O      1.787168    0.555430    1.712095
  H     -0.434895    1.955191   -0.211774
  H     -1.782009    0.843803   -0.507261
  H     -1.210275    1.118992    1.148714
  H     -0.372917   -1.096401    0.143087
  H      0.689301   -0.971755   -2.061470
  H      2.177588    1.159983   -1.907524
  H      2.963487   -2.457181   -1.305556
  H      3.190727   -2.370543    0.453199
  H      1.582309   -2.707241   -0.220414
  H      3.600628    0.633292    0.065598

 Total Charge           Charge          ....    0
 Multiplicity           Mult            ....    1
 Number of Electrons    NEL             ....   70
 Basis Dimension        Dim             ....  339

ORBITAL ENERGIES
----------------

  NO   OCC          E(Eh)            E(eV)
   0   2.0000     -20.586541      -560.1883
   1   2.0000     -20.569910      -559.7357
   2   2.0000     -20.563058      -559.5493
   3   2.0000     -11.340747      -308.5974
   4   2.0000     -11.310190      -307.7659
   5   2.0000     -11.299263      -307.4686
   6   2.0000     -11.253453      -306.2220
   7   2.0000     -11.241493      -305.8966
   8   2.0000     -11.223413      -305.4046
   9   2.0000      -1.421428       -38.6790
  10   2.0000      -1.394406       -37.9437
  11   2.0000      -1.367347       -37.2074
  12   2.0000      -1.137785       -30.9607
  13   2.0000      -1.028025       -27.9740
  14   2.0000      -0.957161       -26.0457
  15   2.0000      -0.860749       -23.4222
  16   2.0000      -0.841572       -22.9003
  17   2.0000      -0.757394       -20.6097
  18   2.0000      -0.711938       -19.3728
  19   2.0000      -0.697008       -18.9666
  20   2.0000      -0.686903       -18.6916
  21   2.0000      -0.639342       -17.3974
  22   2.0000      -0.611110       -16.6291
  23   2.0000      -0.600128       -16.3303
  24   2.0000      -0.584592       -15.9076
  25   2.0000      -0.577417       -15.7123
  26   2.0000      -0.567165       -15.4333
  27   2.0000      -0.554420       -15.0865
  28   2.0000      -0.536583       -14.6012
  29   2.0000      -0.534318       -14.5395
  30   2.0000      -0.517763       -14.0890
  31   2.0000      -0.500995       -13.6328
  32   2.0000      -0.448072       -12.1927
  33   2.0000      -0.435458       -11.8494
  34   2.0000      -0.403365       -10.9761
  35   0.0000       0.112704         3.0668
  36   0.0000       0.127703         3.4750
  37   0.0000       0.152504         4.1499
  38   0.0000       0.164744         4.4829
  39   0.0000       0.183333         4.9888

MULLIKEN ATOMIC CHARGES
-----------------------
   0 C :   -0.432220
   1 C :    0.049622
   2 C :   -0.032169
   3 O :   -0.486810
   4 C :    0.318505
   5 C :   -0.405647
   6 O :   -0.507541
   7 C :   -0.039578
   8 O :   -0.260011
   9 H :    0.157444
  10 H :    0.135600
  11 H :    0.143533
  12 H :    0.133537
  13 H :    0.117303
  14 H :    0.338104
  15 H :    0.146495
  16 H :    0.139763
  17 H :    0.135439
  18 H :    0.348633
Sum of atomic charges:   -0.0000000

LOEWDIN ATOMIC CHARGES
----------------------
   0 C :   -0.285676
   1 C :   -0.206623
   2 C :   -0.265226
   3 O :    0.000849
   4 C :   -0.345340
   5 C :   -0.261482
   6 O :    0.015635
   7 C :   -0.278592
   8 O :    0.164582
   9 H :    0.133881
  10 H :    0.127672
  11 H :    0.131330
  12 H :    0.164810
  13 H :    0.130023
  14 H :    0.182721
  15 H :    0.135272
  16 H :    0.132473
  17 H :    0.131483
  18 H :    0.192207

  Mayer bond orders larger than 0.1
B(  0-C ,  1-C ) :   0.8669 B(  0-C ,  9-H ) :   0.9337 B(  0-C , 10-H ) :   0.9364
B(  0-C , 11-H ) :   0.9336 B(  1-C ,  2-C ) :   0.8517 B(  1-C ,  3-O ) :  -0.1157
B(  1-C ,  7-C ) :   0.8479 B(  1-C , 12-H ) :   0.8858 B(  2-C ,  3-O ) :   1.0476
B(  2-C ,  4-C ) :   0.8514 B(  2-C , 13-H ) :   0.9581 B(  3-O , 14-H ) :   0.8050
B(  4-C ,  5-C ) :   0.8860 B(  4-C ,  6-O ) :   0.9723 B(  4-C ,  7-C ) :   0.7883
B(  5-C , 15-H ) :   0.9351 B(  5-C , 16-H ) :   0.9282 B(  5-C , 17-H ) :   0.9292
B(  6-O , 18-H ) :   0.8177 B(  7-C ,  8-O ) :   2.0030

MP2 TOTAL ENERGY:     -459.442009596 Eh
FINAL SINGLE POINT ENERGY      -459.442009595542

DIPOLE MOMENT
-------------
                                X             Y             Z
Electronic contribution:      3.74592       2.62158       1.54835
Nuclear contribution   :     -3.88192      -3.39670      -1.63903
                        -----------------------------------------
Total Dipole Moment    :     -0.13600      -0.77512      -0.09068
                        -----------------------------------------
Magnitude (a.u.)       :      0.79217
Magnitude (Debye)      :      2.01353

                             ****ORCA TERMINATED NORMALLY****
TOTAL RUN TIME: 0 days 0 hours 19 minutes 32 seconds 92 msec
