                         Program Version 3.0.3 - RELEASE   -
|  1> ! RI-MP2 RIJK def2-TZVP def2-TZVP/C def2-TZVP/JK TIGHTSCF
|  2> % maxcore 2000
|  3> % mp2 density relaxed end
|  4> *xyz 0 1
|  5>  C        0.0842580325     1.5709851839     0.1079160382
|  6>  C        0.1430273533     0.0420951976    -0.0083238519
|  7>  C        0.7946874119    -0.4145376070    -1.2764921031
|  8>  N        0.5877981170     0.0925702663    -2.4815527131
|  9>  C        1.3581350338    -0.6342972052    -3.3381153506
| 10>  C        2.0561245376    -1.6091805140    -2.6542656884
| 11>  N        1.6778057639    -1.4465514004    -1.3297230894
| 12>  C        2.9710600705    -2.5929735388    -3.0763855300
| 13>  N        3.7249239159    -3.4065472620    -3.4146605876
| 14>  H        1.0890486177     2.0010747252     0.1506298048
| 15>  H       -0.4257702204     1.9964218331    -0.7587822554
| 16>  H       -0.4545702889     1.8642107592     1.0129297401
| 17>  H        0.6766721930    -0.3889576552     0.8467732460
| 18>  H       -0.8756707854    -0.3654918488     0.0283139116
| 19>  H        1.3864742878    -0.4344854219    -4.3981923835
| 20>  H        2.0075463199    -2.0005000819    -0.5555968476
| 21> *
| 22>
| 23>                          ****END OF INPUT****

CARTESIAN COORDINATES (ANGSTROEM)
---------------------------------
  C      0.084258    1.570985    0.107916
  C      0.143027    0.042095   -0.008324
  C      0.794687   -0.414538   -1.276492
  N      0.587798    0.092570   -2.481553
  C      1.358135   -0.634297   -3.338115
  C      2.056125   -1.609181   -2.654266
  N      1.677806   -1.446551   -1.329723
  C      2.971060   -2.592974   -3.076386
  N      3.724924   -3.406547   -3.414661
  H      1.089049    2.001075    0.150630
  H     -0.425770    1.996422   -0.758782
  H     -0.454570    1.864211    1.012930
  H      0.676672   -0.388958    0.846773
  H     -0.875671   -0.365492    0.028314
  H      1.386474   -0.434485   -4.398192
  H      2.007546   -2.000500   -0.555597

 Total Charge           Charge          ....    0
 Multiplicity           Mult            ....    1
 Number of Electrons    NEL             ....   64
 Basis Dimension        Dim             ....  321

ORBITAL ENERGIES
----------------

  NO   OCC          E(Eh)            E(eV)
   0   2.0000     -15.646882      -425.7733
   1   2.0000     -15.579004      -423.9262
   2   2.0000     -15.564436      -423.5298
   3   2.0000     -11.332048      -308.3607
   4   2.0000     -11.303518      -307.5844
   5   2.0000     -11.285435      -307.0923
   6   2.0000     -11.285374      -307.0906
   7   2.0000     -11.263111      -306.4848
   8   2.0000     -11.233723      -305.6851
   9   2.0000      -1.372683       -37.3526
  10   2.0000      -1.224988       -33.3336
  11   2.0000      -1.194850       -32.5135
  12   2.0000      -1.097192       -29.8561
  13   2.0000      -1.025527       -27.9060
  14   2.0000      -0.902014       -24.5451
  15   2.0000      -0.869478       -23.6597
  16   2.0000      -0.839510       -22.8442
  17   2.0000      -0.770230       -20.9590
  18   2.0000      -0.688217       -18.7273
  19   2.0000      -0.655327       -17.8324
  20   2.0000      -0.640511       -17.4292
  21   2.0000      -0.615703       -16.7541
  22   2.0000      -0.597176       -16.2500
  23   2.0000      -0.566908       -15.4264
  24   2.0000      -0.545509       -14.8441
  25   2.0000      -0.527569       -14.3559
  26   2.0000      -0.519926       -14.1479
  27   2.0000      -0.496839       -13.5197
  28   2.0000      -0.487722       -13.2716
  29   2.0000      -0.450627       -12.2622
  30   2.0000      -0.428910       -11.6712
  31   2.0000      -0.335188        -9.1209
  32   0.0000       0.101727         2.7681
  33   0.0000       0.108431         2.9506
  34   0.0000       0.137893         3.7523
  35   0.0000       0.161613         4.3977
  36   0.0000       0.168660         4.5895

MULLIKEN ATOMIC CHARGES
-----------------------
   0 C :   -0.379872
   1 C :   -0.230814
   2 C :    0.231231
   3 N :   -0.285356
   4 C :   -0.121033
   5 C :    0.255722
   6 N :   -0.301020
   7 C :   -0.208294
   8 N :   -0.043529
   9 H :    0.126608
  10 H :    0.154723
  11 H :    0.134688
  12 H :    0.112698
  13 H :    0.137452
  14 H :    0.154251
  15 H :    0.262545
Sum of atomic charges:   -0.0000000

LOEWDIN ATOMIC CHARGES
----------------------
   0 C :   -0.301721
   1 C :   -0.256352
   2 C :   -0.300465
   3 N :    0.126888
   4 C :   -0.199566
   5 C :   -0.235318
   6 N :    0.239762
   7 C :   -0.170529
   8 N :    0.078768
   9 H :    0.124202
  10 H :    0.131216
  11 H :    0.122168
  12 H :    0.141558
  13 H :    0.152383
  14 H :    0.142503
  15 H :    0.204502

  Mayer bond orders larger than 0.1
B(  0-C ,  1-C ) :   0.9349 B(  0-C ,  9-H ) :   0.9344 B(  0-C , 10-H ) :   0.9328
B(  0-C , 11-H ) :   0.9359 B(  1-C ,  2-C ) :   0.9093 B(  1-C , 12-H ) :   0.9410
B(  1-C , 13-H ) :   0.9204 B(  2-C ,  3-N ) :   1.4777 B(  2-C ,  6-N ) :   1.1895
B(  3-N ,  4-C ) :   1.3286 B(  4-C ,  5-C ) :   1.4441 B(  4-C , 14-H ) :   0.9365
B(  5-C ,  6-N ) :   1.0822 B(  5-C ,  7-C ) :   0.8853 B(  6-N , 15-H ) :   0.8584
B(  7-C ,  8-N ) :   2.8488

MP2 TOTAL ENERGY:     -396.298279246 Eh
FINAL SINGLE POINT ENERGY      -396.298279245953

DIPOLE MOMENT
-------------
                                X             Y             Z
Electronic contribution:      5.78478      -7.95671      -7.43249
Nuclear contribution   :     -6.35559       8.33304       8.90332
                        -----------------------------------------
Total Dipole Moment    :     -0.57081       0.37632       1.47082
                        -----------------------------------------
Magnitude (a.u.)       :      1.62196
Magnitude (Debye)      :      4.12270

                             ****ORCA TERMINATED NORMALLY****
TOTAL RUN TIME: 0 days 0 hours 14 minutes 38 seconds 861 msec
