                         Program Version 3.0.3 - RELEASE   -
|  1> ! RI-MP2 RIJK def2-TZVP def2-TZVP/C def2-TZVP/JK TIGHTSCF
|  2> % maxcore 2000
|  3> % mp2 density relaxed end
|  4> *xyz 0 1
|  5>  C       -0.1083734609     1.5389966948    -0.1435464042
|  6>  C       -0.0370084531     0.0194536614    -0.0126018834
|  7>  C       -1.3011536817    -0.4936512676     0.7983988141
|  8>  C       -0.3617026275    -0.4569848970     2.0888659467
|  9>  C        0.7926249391    -0.6269146535     1.0788715096
| 10>  C        2.0878346304    -0.2336509215     0.3289104511
| 11>  C        1.1221068459    -0.6053419809    -0.9133600864
| 12>  C        0.9577717743    -2.0903025763    -0.6663862865
| 13>  O        0.7252476370    -2.0570823963     0.7504068926
| 14>  H        0.8305741450     1.9947278191    -0.4666206366
| 15>  H       -0.8629676787     1.7914539097    -0.8986272182
| 16>  H       -0.4178748482     2.0252348743     0.7882283685
| 17>  H       -2.1540109597     0.1894356196     0.7967678599
| 18>  H       -1.6368005188    -1.5035510646     0.5743597536
| 19>  H       -0.3830645500     0.5213454487     2.5720000890
| 20>  H       -0.4820391842    -1.2441418087     2.8348752092
| 21>  H        2.3464377256     0.8220151345     0.3696986351
| 22>  H        2.9747544047    -0.8570602880     0.4677493455
| 23>  H        1.3305394365    -0.2579935786    -1.9265906009
| 24>  H        0.0986652921    -2.5307141655    -1.1886150953
| 25>  H        1.8531928721    -2.6811309936    -0.8967207135
| 26> *
| 27>
| 28>                          ****END OF INPUT****

CARTESIAN COORDINATES (ANGSTROEM)
---------------------------------
  C     -0.108373    1.538997   -0.143546
  C     -0.037008    0.019454   -0.012602
  C     -1.301154   -0.493651    0.798399
  C     -0.361703   -0.456985    2.088866
  C      0.792625   -0.626915    1.078872
  C      2.087835   -0.233651    0.328910
  C      1.122107   -0.605342   -0.913360
  C      0.957772   -2.090303   -0.666386
  O      0.725248   -2.057082    0.750407
  H      0.830574    1.994728   -0.466621
  H     -0.862968    1.791454   -0.898627
  H     -0.417875    2.025235    0.788228
  H     -2.154011    0.189436    0.796768
  H     -1.636801   -1.503551    0.574360
  H     -0.383065    0.521345    2.572000
  H     -0.482039   -1.244142    2.834875
  H      2.346438    0.822015    0.369699
  H      2.974754   -0.857060    0.467749
  H      1.330539   -0.257994   -1.926591
  H      0.098665   -2.530714   -1.188615
  H      1.853193   -2.681131   -0.896721

 Total Charge           Charge          ....    0
 Multiplicity           Mult            ....    1
 Number of Electrons    NEL             ....   68
 Basis Dimension        Dim             ....  351

ORBITAL ENERGIES
----------------

  NO   OCC          E(Eh)            E(eV)
   0   2.0000     -20.537661      -558.8582
   1   2.0000     -11.276517      -306.8496
   2   2.0000     -11.265898      -306.5607
   3   2.0000     -11.248101      -306.0764
   4   2.0000     -11.236825      -305.7696
   5   2.0000     -11.232890      -305.6625
   6   2.0000     -11.229642      -305.5741
   7   2.0000     -11.228273      -305.5368
   8   2.0000     -11.219225      -305.2906
   9   2.0000      -1.374487       -37.4017
  10   2.0000      -1.144899       -31.1543
  11   2.0000      -1.056253       -28.7421
  12   2.0000      -0.970380       -26.4054
  13   2.0000      -0.946164       -25.7464
  14   2.0000      -0.856695       -23.3119
  15   2.0000      -0.836873       -22.7725
  16   2.0000      -0.776562       -21.1313
  17   2.0000      -0.705809       -19.2060
  18   2.0000      -0.673706       -18.3325
  19   2.0000      -0.652855       -17.7651
  20   2.0000      -0.619277       -16.8514
  21   2.0000      -0.610111       -16.6020
  22   2.0000      -0.591257       -16.0889
  23   2.0000      -0.546584       -14.8733
  24   2.0000      -0.536112       -14.5883
  25   2.0000      -0.525719       -14.3056
  26   2.0000      -0.508449       -13.8356
  27   2.0000      -0.499865       -13.6020
  28   2.0000      -0.472778       -12.8649
  29   2.0000      -0.464105       -12.6289
  30   2.0000      -0.458091       -12.4653
  31   2.0000      -0.428709       -11.6658
  32   2.0000      -0.413570       -11.2538
  33   2.0000      -0.346505        -9.4289
  34   0.0000       0.139525         3.7967
  35   0.0000       0.155414         4.2290
  36   0.0000       0.165784         4.5112
  37   0.0000       0.176572         4.8048
  38   0.0000       0.189352         5.1525

MULLIKEN ATOMIC CHARGES
-----------------------
   0 C :   -0.473501
   1 C :    0.073150
   2 C :   -0.267537
   3 C :   -0.244714
   4 C :    0.159043
   5 C :   -0.255176
   6 C :   -0.098180
   7 C :   -0.068538
   8 O :   -0.329921
   9 H :    0.128191
  10 H :    0.142946
  11 H :    0.135237
  12 H :    0.120718
  13 H :    0.132106
  14 H :    0.122433
  15 H :    0.126955
  16 H :    0.134154
  17 H :    0.121290
  18 H :    0.130964
  19 H :    0.102915
  20 H :    0.107466
Sum of atomic charges:    0.0000000

LOEWDIN ATOMIC CHARGES
----------------------
   0 C :   -0.269234
   1 C :   -0.190175
   2 C :   -0.184963
   3 C :   -0.192419
   4 C :   -0.264464
   5 C :   -0.170935
   6 C :   -0.167462
   7 C :   -0.286251
   8 O :    0.174342
   9 H :    0.124430
  10 H :    0.131716
  11 H :    0.127384
  12 H :    0.124560
  13 H :    0.136126
  14 H :    0.134282
  15 H :    0.129349
  16 H :    0.134804
  17 H :    0.128798
  18 H :    0.134689
  19 H :    0.122660
  20 H :    0.122765

  Mayer bond orders larger than 0.1
B(  0-C ,  1-C ) :   0.8995 B(  0-C ,  9-H ) :   0.9313 B(  0-C , 10-H ) :   0.9455
B(  0-C , 11-H ) :   0.9304 B(  1-C ,  2-C ) :   0.8984 B(  1-C ,  4-C ) :   0.8272
B(  1-C ,  6-C ) :   0.8502 B(  2-C ,  3-C ) :   0.9644 B(  2-C , 12-H ) :   0.9257
B(  2-C , 13-H ) :   0.9038 B(  3-C ,  4-C ) :   0.8894 B(  3-C , 14-H ) :   0.9214
B(  3-C , 15-H ) :   0.9183 B(  4-C ,  5-C ) :   0.9358 B(  4-C ,  8-O ) :   0.9215
B(  5-C ,  6-C ) :   0.9051 B(  5-C , 16-H ) :   0.9242 B(  5-C , 17-H ) :   0.9139
B(  6-C ,  7-C ) :   0.9606 B(  6-C , 18-H ) :   0.8975 B(  7-C ,  8-O ) :   0.9321
B(  7-C , 19-H ) :   0.9298 B(  7-C , 20-H ) :   0.9173

MP2 TOTAL ENERGY:     -386.328481299 Eh
FINAL SINGLE POINT ENERGY      -386.328481298587

DIPOLE MOMENT
-------------
                                X             Y             Z
Electronic contribution:      1.52667      -4.13896       0.90285
Nuclear contribution   :     -1.51820       4.70677      -1.30657
                        -----------------------------------------
Total Dipole Moment    :      0.00846       0.56781      -0.40372
                        -----------------------------------------
Magnitude (a.u.)       :      0.69676
Magnitude (Debye)      :      1.77102

                             ****ORCA TERMINATED NORMALLY****
TOTAL RUN TIME: 0 days 0 hours 23 minutes 32 seconds 884 msec
