                         Program Version 3.0.3 - RELEASE   -
|  1> ! RI-MP2 RIJK def2-TZVP def2-TZVP/C def2-TZVP/JK TIGHTSCF
|  2> % maxcore 2000
|  3> % mp2 density relaxed end
|  4> *xyz 0 1
|  5>  C        0.1531458673     1.1525842272    -1.0677256295
|  6>  C        0.0138421520    -0.0085795914    -0.1084591720
|  7>  C        1.1542313436    -0.9074140784     0.1376256817
|  8>  O        0.7891421527     0.0942553202     1.0913240071
|  9>  C       -1.3806324738    -0.5496981239     0.0593254499
| 10>  C       -1.8214983688    -1.1485092758     1.3585285106
| 11>  C       -2.4166009727     0.1797573067     0.9129244222
| 12>  C       -2.1039082739     1.3965539267     1.6034715236
| 13>  C       -1.8740069335     2.4315342182     2.1720326021
| 14>  H        1.1975775104     1.4636241007    -1.1487677990
| 15>  H       -0.2073669691     0.8756648388    -2.0645855398
| 16>  H       -0.4374049143     2.0030653390    -0.7150434836
| 17>  H        0.9730064149    -1.9348252055     0.4502564440
| 18>  H        2.0975359850    -0.7357125569    -0.3793172539
| 19>  H       -1.7828200498    -0.9871647642    -0.8511442823
| 20>  H       -2.4693741059    -2.0174704587     1.3474651769
| 21>  H       -1.1095237741    -1.1007298275     2.1736463358
| 22>  H       -3.4335665728     0.1329714981     0.5331054310
| 23>  H       -1.6556798972     3.3352189566     2.6843835851
| 24> *
| 25>
| 26>                          ****END OF INPUT****

CARTESIAN COORDINATES (ANGSTROEM)
---------------------------------
  C      0.153146    1.152584   -1.067726
  C      0.013842   -0.008580   -0.108459
  C      1.154231   -0.907414    0.137626
  O      0.789142    0.094255    1.091324
  C     -1.380632   -0.549698    0.059325
  C     -1.821498   -1.148509    1.358529
  C     -2.416601    0.179757    0.912924
  C     -2.103908    1.396554    1.603472
  C     -1.874007    2.431534    2.172033
  H      1.197578    1.463624   -1.148768
  H     -0.207367    0.875665   -2.064586
  H     -0.437405    2.003065   -0.715043
  H      0.973006   -1.934825    0.450256
  H      2.097536   -0.735713   -0.379317
  H     -1.782820   -0.987165   -0.851144
  H     -2.469374   -2.017470    1.347465
  H     -1.109524   -1.100730    2.173646
  H     -3.433567    0.132971    0.533105
  H     -1.655680    3.335219    2.684384

 Total Charge           Charge          ....    0
 Multiplicity           Mult            ....    1
 Number of Electrons    NEL             ....   66
 Basis Dimension        Dim             ....  339

ORBITAL ENERGIES
----------------

  NO   OCC          E(Eh)            E(eV)
   0   2.0000     -20.563883      -559.5717
   1   2.0000     -11.295541      -307.3673
   2   2.0000     -11.278407      -306.9011
   3   2.0000     -11.259021      -306.3735
   4   2.0000     -11.249747      -306.1212
   5   2.0000     -11.237549      -305.7892
   6   2.0000     -11.228292      -305.5374
   7   2.0000     -11.220444      -305.3238
   8   2.0000     -11.213641      -305.1387
   9   2.0000      -1.410014       -38.3684
  10   2.0000      -1.165691       -31.7201
  11   2.0000      -1.024778       -27.8856
  12   2.0000      -1.009700       -27.4753
  13   2.0000      -0.911931       -24.8149
  14   2.0000      -0.878117       -23.8948
  15   2.0000      -0.854378       -23.2488
  16   2.0000      -0.770517       -20.9668
  17   2.0000      -0.719722       -19.5846
  18   2.0000      -0.691712       -18.8224
  19   2.0000      -0.670174       -18.2364
  20   2.0000      -0.651968       -17.7409
  21   2.0000      -0.610508       -16.6128
  22   2.0000      -0.576514       -15.6877
  23   2.0000      -0.562721       -15.3124
  24   2.0000      -0.545172       -14.8349
  25   2.0000      -0.525544       -14.3008
  26   2.0000      -0.507784       -13.8175
  27   2.0000      -0.483759       -13.1638
  28   2.0000      -0.462301       -12.5798
  29   2.0000      -0.439619       -11.9626
  30   2.0000      -0.426853       -11.6153
  31   2.0000      -0.374936       -10.2025
  32   2.0000      -0.352738        -9.5985
  33   0.0000       0.137498         3.7415
  34   0.0000       0.156730         4.2648
  35   0.0000       0.164446         4.4748
  36   0.0000       0.169350         4.6083
  37   0.0000       0.179360         4.8806

MULLIKEN ATOMIC CHARGES
-----------------------
   0 C :   -0.434805
   1 C :    0.209433
   2 C :   -0.091752
   3 O :   -0.340080
   4 C :   -0.089703
   5 C :   -0.246385
   6 C :   -0.285950
   7 C :   -0.008256
   8 C :   -0.122144
   9 H :    0.137798
  10 H :    0.129548
  11 H :    0.159542
  12 H :    0.117172
  13 H :    0.116063
  14 H :    0.126160
  15 H :    0.137023
  16 H :    0.163372
  17 H :    0.135661
  18 H :    0.187302
Sum of atomic charges:    0.0000000

LOEWDIN ATOMIC CHARGES
----------------------
   0 C :   -0.258499
   1 C :   -0.335635
   2 C :   -0.241372
   3 O :    0.174675
   4 C :   -0.159983
   5 C :   -0.173886
   6 C :   -0.184980
   7 C :   -0.094565
   8 C :   -0.097004
   9 H :    0.131309
  10 H :    0.130320
  11 H :    0.136877
  12 H :    0.122142
  13 H :    0.120839
  14 H :    0.157128
  15 H :    0.133239
  16 H :    0.149059
  17 H :    0.164371
  18 H :    0.125966

  Mayer bond orders larger than 0.1
B(  0-C ,  1-C ) :   0.8882 B(  0-C ,  9-H ) :   0.9359 B(  0-C , 10-H ) :   0.9370
B(  0-C , 11-H ) :   0.9354 B(  1-C ,  2-C ) :   0.9762 B(  1-C ,  3-O ) :   0.8386
B(  1-C ,  4-C ) :   0.9421 B(  2-C ,  3-O ) :   0.9017 B(  2-C , 12-H ) :   0.9029
B(  2-C , 13-H ) :   0.9145 B(  4-C ,  5-C ) :   0.8929 B(  4-C ,  6-C ) :   0.8557
B(  4-C , 14-H ) :   0.9235 B(  5-C ,  6-C ) :   0.8328 B(  5-C , 15-H ) :   0.9250
B(  5-C , 16-H ) :   0.9184 B(  6-C ,  7-C ) :   1.2101 B(  6-C ,  8-C ) :  -0.1314
B(  6-C , 17-H ) :   0.9440 B(  7-C ,  8-C ) :   2.5445 B(  8-C , 18-H ) :   0.8997

MP2 TOTAL ENERGY:     -385.138177586 Eh
FINAL SINGLE POINT ENERGY      -385.138177585841

DIPOLE MOMENT
-------------
                                X             Y             Z
Electronic contribution:     -0.91095       1.06838       3.53409
Nuclear contribution   :      0.80954      -1.57643      -4.26144
                        -----------------------------------------
Total Dipole Moment    :     -0.10142      -0.50805      -0.72735
                        -----------------------------------------
Magnitude (a.u.)       :      0.89299
Magnitude (Debye)      :      2.26980

                             ****ORCA TERMINATED NORMALLY****
TOTAL RUN TIME: 0 days 0 hours 19 minutes 38 seconds 392 msec
