                         Program Version 3.0.3 - RELEASE   -
|  1> ! RI-MP2 RIJK def2-TZVP def2-TZVP/C def2-TZVP/JK TIGHTSCF
|  2> % maxcore 2000
|  3> % mp2 density relaxed end
|  4> *xyz 0 1
|  5>  C       -0.0809495624     1.6217434219     0.2048076313
|  6>  C        0.0057841090     0.1183955346     0.3047928054
|  7>  C        1.1733287024    -0.6827482733    -0.1556429553
|  8>  N        2.4346540604     0.0007884498    -0.2189039871
|  9>  C        2.7795648282     0.3775284083     1.0659091852
| 10>  N        1.9383922649     0.0979544590     1.9956998553
| 11>  C        0.8386991859    -0.5886692730     1.3817842816
| 12>  C        0.2185655345    -1.6970126601     2.1403845790
| 13>  O       -0.6680456902    -2.4013517359     1.7143002930
| 14>  H        0.8589633922     2.1087852900     0.4712584650
| 15>  H       -0.3383179172     1.9211456345    -0.8167682635
| 16>  H       -0.8561009443     2.0038074971     0.8757012209
| 17>  H       -0.9300274585    -0.4165920687     0.1635481886
| 18>  H        1.0521316193    -1.5876032061    -0.7398835702
| 19>  H        3.1396773127    -0.2815122732    -0.8814070244
| 20>  H        3.7121767380     0.9057837153     1.2350973015
| 21>  H        0.6525184350    -1.8403310703     3.1528742035
| 22> *
| 23>
| 24>                          ****END OF INPUT****

CARTESIAN COORDINATES (ANGSTROEM)
---------------------------------
  C     -0.080950    1.621743    0.204808
  C      0.005784    0.118396    0.304793
  C      1.173329   -0.682748   -0.155643
  N      2.434654    0.000788   -0.218904
  C      2.779565    0.377528    1.065909
  N      1.938392    0.097954    1.995700
  C      0.838699   -0.588669    1.381784
  C      0.218566   -1.697013    2.140385
  O     -0.668046   -2.401352    1.714300
  H      0.858963    2.108785    0.471258
  H     -0.338318    1.921146   -0.816768
  H     -0.856101    2.003807    0.875701
  H     -0.930027   -0.416592    0.163548
  H      1.052132   -1.587603   -0.739884
  H      3.139677   -0.281512   -0.881407
  H      3.712177    0.905784    1.235097
  H      0.652518   -1.840331    3.152874

 Total Charge           Charge          ....    0
 Multiplicity           Mult            ....    1
 Number of Electrons    NEL             ....   66
 Basis Dimension        Dim             ....  327

ORBITAL ENERGIES
----------------

  NO   OCC          E(Eh)            E(eV)
   0   2.0000     -20.546035      -559.0860
   1   2.0000     -15.599217      -424.4763
   2   2.0000     -15.553766      -423.2395
   3   2.0000     -11.326044      -308.1973
   4   2.0000     -11.320831      -308.0555
   5   2.0000     -11.289269      -307.1966
   6   2.0000     -11.272476      -306.7397
   7   2.0000     -11.248844      -306.0966
   8   2.0000     -11.223094      -305.3959
   9   2.0000      -1.386518       -37.7291
  10   2.0000      -1.333881       -36.2968
  11   2.0000      -1.174522       -31.9604
  12   2.0000      -1.128613       -30.7111
  13   2.0000      -0.982723       -26.7412
  14   2.0000      -0.910712       -24.7817
  15   2.0000      -0.856120       -23.2962
  16   2.0000      -0.787508       -21.4292
  17   2.0000      -0.772113       -21.0103
  18   2.0000      -0.722758       -19.6673
  19   2.0000      -0.669463       -18.2170
  20   2.0000      -0.656801       -17.8725
  21   2.0000      -0.629404       -17.1269
  22   2.0000      -0.604437       -16.4476
  23   2.0000      -0.589429       -16.0392
  24   2.0000      -0.577717       -15.7205
  25   2.0000      -0.550244       -14.9729
  26   2.0000      -0.531425       -14.4608
  27   2.0000      -0.509079       -13.8527
  28   2.0000      -0.484675       -13.1887
  29   2.0000      -0.451146       -12.2763
  30   2.0000      -0.429845       -11.6967
  31   2.0000      -0.377701       -10.2778
  32   2.0000      -0.350822        -9.5463
  33   0.0000       0.121832         3.3152
  34   0.0000       0.126693         3.4475
  35   0.0000       0.148994         4.0543
  36   0.0000       0.157418         4.2836
  37   0.0000       0.173326         4.7164

MULLIKEN ATOMIC CHARGES
-----------------------
   0 C :   -0.397029
   1 C :   -0.099579
   2 C :   -0.059589
   3 N :   -0.335198
   4 C :    0.031062
   5 N :   -0.291147
   6 C :    0.170685
   7 C :    0.059378
   8 O :   -0.299968
   9 H :    0.146224
  10 H :    0.136054
  11 H :    0.143209
  12 H :    0.150296
  13 H :    0.158123
  14 H :    0.246673
  15 H :    0.144704
  16 H :    0.096099
Sum of atomic charges:   -0.0000000

LOEWDIN ATOMIC CHARGES
----------------------
   0 C :   -0.280758
   1 C :   -0.191901
   2 C :   -0.180591
   3 N :    0.102926
   4 C :   -0.309909
   5 N :    0.109659
   6 C :   -0.254081
   7 C :   -0.263002
   8 O :    0.118762
   9 H :    0.131927
  10 H :    0.129803
  11 H :    0.131615
  12 H :    0.168405
  13 H :    0.145963
  14 H :    0.185870
  15 H :    0.134001
  16 H :    0.121312

  Mayer bond orders larger than 0.1
B(  0-C ,  1-C ) :   0.8939 B(  0-C ,  9-H ) :   0.9297 B(  0-C , 10-H ) :   0.9383
B(  0-C , 11-H ) :   0.9384 B(  1-C ,  2-C ) :   0.9311 B(  1-C ,  6-C ) :   0.7856
B(  1-C , 12-H ) :   0.9134 B(  2-C ,  3-N ) :   1.0068 B(  2-C ,  6-C ) :   0.7689
B(  2-C , 13-H ) :   0.9014 B(  3-N ,  4-C ) :   1.1207 B(  3-N , 14-H ) :   0.8670
B(  4-C ,  5-N ) :   1.7200 B(  4-C , 15-H ) :   0.9253 B(  5-N ,  6-C ) :   0.9967
B(  6-C ,  7-C ) :   0.8951 B(  7-C ,  8-O ) :   1.9498 B(  7-C , 16-H ) :   0.9515

MP2 TOTAL ENERGY:     -417.306749484 Eh
FINAL SINGLE POINT ENERGY      -417.306749484378

DIPOLE MOMENT
-------------
                                X             Y             Z
Electronic contribution:      1.28060      -4.81980       2.60026
Nuclear contribution   :     -0.25486       5.29926      -3.70473
                        -----------------------------------------
Total Dipole Moment    :      1.02574       0.47946      -1.10447
                        -----------------------------------------
Magnitude (a.u.)       :      1.58173
Magnitude (Debye)      :      4.02043

                             ****ORCA TERMINATED NORMALLY****
TOTAL RUN TIME: 0 days 0 hours 17 minutes 38 seconds 305 msec
