                         Program Version 3.0.3 - RELEASE   -
|  1> ! RI-MP2 RIJK def2-TZVP def2-TZVP/C def2-TZVP/JK TIGHTSCF
|  2> % maxcore 2000
|  3> % mp2 density relaxed end
|  4> *xyz 0 1
|  5>  C       -0.0582987311     1.4992115214     0.0423503234
|  6>  C        0.0006494647     0.0457604861     0.0200587885
|  7>  C        0.0554597178    -1.1565759678     0.0054197029
|  8>  C        0.0847405222    -2.6246231305    -0.0195667654
|  9>  O       -1.2079481924    -3.2018313763     0.1453545026
| 10>  C        0.7489499892    -3.1098004300    -1.2385943137
| 11>  C        1.2738189408    -3.5239604381    -2.2469127232
| 12>  C        1.8651179363    -3.9869139020    -3.3812649219
| 13>  C        2.3891939148    -4.3984106853    -4.3881621880
| 14>  H        0.6479906040     1.9112708888     0.7709903908
| 15>  H        0.1864579414     1.9217406652    -0.9379796912
| 16>  H       -1.0597793299     1.8479322802     0.3166737217
| 17>  H        0.6525707034    -2.9861187173     0.8482848429
| 18>  H       -1.7601707112    -2.8741882930    -0.5743330838
| 19>  H        2.8511280900    -4.7604440814    -5.2729435658
| 20> *
| 21>
| 22>                          ****END OF INPUT****

CARTESIAN COORDINATES (ANGSTROEM)
---------------------------------
  C     -0.058299    1.499212    0.042350
  C      0.000649    0.045760    0.020059
  C      0.055460   -1.156576    0.005420
  C      0.084741   -2.624623   -0.019567
  O     -1.207948   -3.201831    0.145355
  C      0.748950   -3.109800   -1.238594
  C      1.273819   -3.523960   -2.246913
  C      1.865118   -3.986914   -3.381265
  C      2.389194   -4.398411   -4.388162
  H      0.647991    1.911271    0.770990
  H      0.186458    1.921741   -0.937980
  H     -1.059779    1.847932    0.316674
  H      0.652571   -2.986119    0.848285
  H     -1.760171   -2.874188   -0.574333
  H      2.851128   -4.760444   -5.272944

 Total Charge           Charge          ....    0
 Multiplicity           Mult            ....    1
 Number of Electrons    NEL             ....   62
 Basis Dimension        Dim             ....  315

ORBITAL ENERGIES
----------------

  NO   OCC          E(Eh)            E(eV)
   0   2.0000     -20.578867      -559.9794
   1   2.0000     -11.348012      -308.7951
   2   2.0000     -11.263093      -306.4843
   3   2.0000     -11.261885      -306.4515
   4   2.0000     -11.258375      -306.3560
   5   2.0000     -11.256718      -306.3109
   6   2.0000     -11.254045      -306.2381
   7   2.0000     -11.244811      -305.9869
   8   2.0000     -11.232245      -305.6449
   9   2.0000      -1.386418       -37.7264
  10   2.0000      -1.103419       -30.0255
  11   2.0000      -1.077431       -29.3184
  12   2.0000      -1.041361       -28.3369
  13   2.0000      -0.994728       -27.0679
  14   2.0000      -0.938068       -25.5261
  15   2.0000      -0.838362       -22.8130
  16   2.0000      -0.744526       -20.2596
  17   2.0000      -0.727379       -19.7930
  18   2.0000      -0.706902       -19.2358
  19   2.0000      -0.647287       -17.6136
  20   2.0000      -0.638918       -17.3858
  21   2.0000      -0.597560       -16.2604
  22   2.0000      -0.595985       -16.2176
  23   2.0000      -0.562749       -15.3132
  24   2.0000      -0.506925       -13.7941
  25   2.0000      -0.487954       -13.2779
  26   2.0000      -0.485708       -13.2168
  27   2.0000      -0.396609       -10.7923
  28   2.0000      -0.389026       -10.5859
  29   2.0000      -0.363203        -9.8832
  30   2.0000      -0.358164        -9.7461
  31   0.0000       0.097102         2.6423
  32   0.0000       0.109264         2.9732
  33   0.0000       0.128814         3.5052
  34   0.0000       0.147903         4.0247
  35   0.0000       0.155937         4.2433

MULLIKEN ATOMIC CHARGES
-----------------------
   0 C :   -0.478724
   1 C :    0.065046
   2 C :   -0.069850
   3 C :   -0.004055
   4 O :   -0.441414
   5 C :   -0.140168
   6 C :    0.045760
   7 C :    0.001947
   8 C :   -0.144394
   9 H :    0.166578
  10 H :    0.166959
  11 H :    0.166271
  12 H :    0.146791
  13 H :    0.323324
  14 H :    0.195931
Sum of atomic charges:   -0.0000000

LOEWDIN ATOMIC CHARGES
----------------------
   0 C :   -0.289202
   1 C :   -0.082703
   2 C :   -0.058269
   3 C :   -0.328420
   4 O :    0.006502
   5 C :    0.011343
   6 C :   -0.047856
   7 C :   -0.095234
   8 C :   -0.040732
   9 H :    0.143820
  10 H :    0.143214
  11 H :    0.143860
  12 H :    0.179540
  13 H :    0.183136
  14 H :    0.131001

  Mayer bond orders larger than 0.1
B(  0-C ,  1-C ) :   0.8624 B(  0-C ,  9-H ) :   0.9466 B(  0-C , 10-H ) :   0.9445
B(  0-C , 11-H ) :   0.9426 B(  1-C ,  2-C ) :   2.6797 B(  2-C ,  3-C ) :   1.0903
B(  3-C ,  4-O ) :   0.8921 B(  3-C ,  5-C ) :   1.0378 B(  3-C , 12-H ) :   0.8931
B(  4-O , 13-H ) :   0.8384 B(  5-C ,  6-C ) :   2.5723 B(  5-C ,  8-C ) :   0.1214
B(  6-C ,  7-C ) :   1.2967 B(  7-C ,  8-C ) :   2.5506 B(  8-C , 14-H ) :   0.8866

MP2 TOTAL ENERGY:     -382.692282899 Eh
FINAL SINGLE POINT ENERGY      -382.692282899341

DIPOLE MOMENT
-------------
                                X             Y             Z
Electronic contribution:      1.46150      -7.12113      -2.35259
Nuclear contribution   :     -1.39264       7.90487       2.00569
                        -----------------------------------------
Total Dipole Moment    :      0.06886       0.78375      -0.34690
                        -----------------------------------------
Magnitude (a.u.)       :      0.85985
Magnitude (Debye)      :      2.18557

                             ****ORCA TERMINATED NORMALLY****
TOTAL RUN TIME: 0 days 0 hours 12 minutes 25 seconds 819 msec
