                         Program Version 3.0.3 - RELEASE   -
|  1> ! RI-MP2 RIJK def2-TZVP def2-TZVP/C def2-TZVP/JK TIGHTSCF
|  2> % maxcore 2000
|  3> % mp2 density relaxed end
|  4> *xyz 0 1
|  5>  O       -0.0164463328     1.4309795797     0.2917771542
|  6>  C       -0.0770401144     0.0425370844     0.1185786702
|  7>  C       -0.4471420321    -0.8270207943     1.2702416646
|  8>  C       -1.5207905549    -0.1522964545     2.1338267974
|  9>  C       -2.4491648181    -0.0420102590     0.8836166053
| 10>  C       -1.3691828156    -0.7170601209     0.0282159127
| 11>  H       -0.3098732903     1.8448322684    -0.5266617526
| 12>  H        0.7199172662    -0.3662349250    -0.5044935325
| 13>  H        0.1879852760    -1.6455698645     1.5887873522
| 14>  H       -1.9300919790    -0.8219964431     2.8927340298
| 15>  H       -1.2224976984     0.7864243722     2.6061503878
| 16>  H       -3.3505455422    -0.6502941772     0.9808741636
| 17>  H       -2.7369919053     0.9679661759     0.5770759461
| 18>  H       -1.5521012992    -1.4362115922    -0.7626247486
| 19> *
| 20>
| 21>                          ****END OF INPUT****

CARTESIAN COORDINATES (ANGSTROEM)
---------------------------------
  O     -0.016446    1.430980    0.291777
  C     -0.077040    0.042537    0.118579
  C     -0.447142   -0.827021    1.270242
  C     -1.520791   -0.152296    2.133827
  C     -2.449165   -0.042010    0.883617
  C     -1.369183   -0.717060    0.028216
  H     -0.309873    1.844832   -0.526662
  H      0.719917   -0.366235   -0.504494
  H      0.187985   -1.645570    1.588787
  H     -1.930092   -0.821996    2.892734
  H     -1.222498    0.786424    2.606150
  H     -3.350546   -0.650294    0.980874
  H     -2.736992    0.967966    0.577076
  H     -1.552101   -1.436212   -0.762625

 Total Charge           Charge          ....    0
 Multiplicity           Mult            ....    1
 Number of Electrons    NEL             ....   46
 Basis Dimension        Dim             ....  234

ORBITAL ENERGIES
----------------

  NO   OCC          E(Eh)            E(eV)
   0   2.0000     -20.558314      -559.4202
   1   2.0000     -11.279629      -306.9343
   2   2.0000     -11.229889      -305.5808
   3   2.0000     -11.228710      -305.5487
   4   2.0000     -11.222193      -305.3714
   5   2.0000     -11.219201      -305.2900
   6   2.0000      -1.367877       -37.2218
   7   2.0000      -1.174185       -31.9512
   8   2.0000      -0.978299       -26.6209
   9   2.0000      -0.890813       -24.2403
  10   2.0000      -0.790641       -21.5144
  11   2.0000      -0.733911       -19.9707
  12   2.0000      -0.706455       -19.2236
  13   2.0000      -0.668052       -18.1786
  14   2.0000      -0.621733       -16.9182
  15   2.0000      -0.591564       -16.0973
  16   2.0000      -0.565055       -15.3759
  17   2.0000      -0.510200       -13.8833
  18   2.0000      -0.479834       -13.0569
  19   2.0000      -0.471720       -12.8362
  20   2.0000      -0.460997       -12.5444
  21   2.0000      -0.400780       -10.9058
  22   2.0000      -0.373919       -10.1749
  23   0.0000       0.137826         3.7504
  24   0.0000       0.160348         4.3633
  25   0.0000       0.170692         4.6448
  26   0.0000       0.175780         4.7832
  27   0.0000       0.206767         5.6264

MULLIKEN ATOMIC CHARGES
-----------------------
   0 O :   -0.466894
   1 C :    0.020118
   2 C :   -0.125808
   3 C :   -0.200311
   4 C :   -0.212245
   5 C :   -0.153919
   6 H :    0.320196
   7 H :    0.105272
   8 H :    0.132134
   9 H :    0.118774
  10 H :    0.117944
  11 H :    0.119811
  12 H :    0.099271
  13 H :    0.125658
Sum of atomic charges:   -0.0000000

LOEWDIN ATOMIC CHARGES
----------------------
   0 O :   -0.002706
   1 C :   -0.317389
   2 C :   -0.167526
   3 C :   -0.215675
   4 C :   -0.221474
   5 C :   -0.179509
   6 H :    0.180648
   7 H :    0.139304
   8 H :    0.132667
   9 H :    0.132616
  10 H :    0.131001
  11 H :    0.132756
  12 H :    0.124509
  13 H :    0.130780

  Mayer bond orders larger than 0.1
B(  0-O ,  1-C ) :   1.0554 B(  0-O ,  6-H ) :   0.8426 B(  1-C ,  2-C ) :   0.8712
B(  1-C ,  5-C ) :   0.8952 B(  1-C ,  7-H ) :   0.9568 B(  2-C ,  3-C ) :   0.9548
B(  2-C ,  5-C ) :   0.8318 B(  2-C ,  8-H ) :   0.9203 B(  3-C ,  4-C ) :   0.9796
B(  3-C ,  9-H ) :   0.9327 B(  3-C , 10-H ) :   0.9120 B(  4-C ,  5-C ) :   0.9365
B(  4-C , 11-H ) :   0.9311 B(  4-C , 12-H ) :   0.9174 B(  5-C , 13-H ) :   0.9225

MP2 TOTAL ENERGY:     -269.932027450 Eh
FINAL SINGLE POINT ENERGY      -269.932027449737

DIPOLE MOMENT
-------------
                                X             Y             Z
Electronic contribution:      2.08310       1.05678      -1.11277
Nuclear contribution   :     -2.32604      -1.32497       0.63605
                        -----------------------------------------
Total Dipole Moment    :     -0.24294      -0.26819      -0.47672
                        -----------------------------------------
Magnitude (a.u.)       :      0.59850
Magnitude (Debye)      :      1.52127

                             ****ORCA TERMINATED NORMALLY****
TOTAL RUN TIME: 0 days 0 hours 5 minutes 9 seconds 677 msec
