                         Program Version 3.0.3 - RELEASE   -
|  1> ! RI-MP2 RIJK def2-TZVP def2-TZVP/C def2-TZVP/JK TIGHTSCF
|  2> % maxcore 2000
|  3> % mp2 density relaxed end
|  4> *xyz 0 1
|  5>  O        0.0642036746     1.3797728169     0.2332972263
|  6>  C        0.0055326899    -0.0146308709     0.0380675076
|  7>  C       -1.4450124809    -0.5132897008     0.0098110054
|  8>  C       -1.5612952498    -2.0643083262    -0.0617255088
|  9>  N       -1.9458275763    -2.3914832598     1.3187422458
| 10>  C       -2.3422370985    -1.2168180531     1.9184832244
| 11>  C       -2.9801320027    -1.1981768503     3.2814039902
| 12>  O       -3.3319410406     0.1024745854     3.6651105422
| 13>  N       -2.1000040410    -0.1327885293     1.2792798292
| 14>  H       -0.5295018034     1.5642823600     0.9722309827
| 15>  H        0.4952228714    -0.2279756454    -0.9191201310
| 16>  H        0.5545384601    -0.5625865354     0.8237259007
| 17>  H       -1.9580108312    -0.0221141207    -0.8231524297
| 18>  H       -2.3258310975    -2.3860172358    -0.7792078071
| 19>  H       -0.6147640041    -2.5443355999    -0.3325331719
| 20>  H       -2.4567586326    -3.2414466691     1.5040904474
| 21>  H       -3.8688651678    -1.8513181672     3.2685911603
| 22>  H       -2.2767293239    -1.6450677476     4.0023288986
| 23>  H       -3.0380079357     0.6740160993     2.9388570278
| 24> *
| 25>
| 26>                          ****END OF INPUT****

CARTESIAN COORDINATES (ANGSTROEM)
---------------------------------
  O      0.064204    1.379773    0.233297
  C      0.005533   -0.014631    0.038068
  C     -1.445012   -0.513290    0.009811
  C     -1.561295   -2.064308   -0.061726
  N     -1.945828   -2.391483    1.318742
  C     -2.342237   -1.216818    1.918483
  C     -2.980132   -1.198177    3.281404
  O     -3.331941    0.102475    3.665111
  N     -2.100004   -0.132789    1.279280
  H     -0.529502    1.564282    0.972231
  H      0.495223   -0.227976   -0.919120
  H      0.554538   -0.562587    0.823726
  H     -1.958011   -0.022114   -0.823152
  H     -2.325831   -2.386017   -0.779208
  H     -0.614764   -2.544336   -0.332533
  H     -2.456759   -3.241447    1.504090
  H     -3.868865   -1.851318    3.268591
  H     -2.276729   -1.645068    4.002329
  H     -3.038008    0.674016    2.938857

 Total Charge           Charge          ....    0
 Multiplicity           Mult            ....    1
 Number of Electrons    NEL             ....   70
 Basis Dimension        Dim             ....  339

ORBITAL ENERGIES
----------------

  NO   OCC          E(Eh)            E(eV)
   0   2.0000     -20.554149      -559.3068
   1   2.0000     -20.546532      -559.0996
   2   2.0000     -15.592008      -424.2801
   3   2.0000     -15.546362      -423.0380
   4   2.0000     -11.325592      -308.1850
   5   2.0000     -11.298604      -307.4507
   6   2.0000     -11.279978      -306.9438
   7   2.0000     -11.273941      -306.7795
   8   2.0000     -11.267060      -306.5923
   9   2.0000      -1.372580       -37.3498
  10   2.0000      -1.356952       -36.9245
  11   2.0000      -1.315295       -35.7910
  12   2.0000      -1.166562       -31.7438
  13   2.0000      -1.054911       -28.7056
  14   2.0000      -0.960315       -26.1315
  15   2.0000      -0.910174       -24.7671
  16   2.0000      -0.830357       -22.5952
  17   2.0000      -0.778435       -21.1823
  18   2.0000      -0.746887       -20.3238
  19   2.0000      -0.703128       -19.1331
  20   2.0000      -0.655896       -17.8478
  21   2.0000      -0.645924       -17.5765
  22   2.0000      -0.632944       -17.2233
  23   2.0000      -0.618679       -16.8351
  24   2.0000      -0.608397       -16.5553
  25   2.0000      -0.591508       -16.0958
  26   2.0000      -0.562694       -15.3117
  27   2.0000      -0.546894       -14.8818
  28   2.0000      -0.515078       -14.0160
  29   2.0000      -0.508338       -13.8326
  30   2.0000      -0.480797       -13.0831
  31   2.0000      -0.450892       -12.2694
  32   2.0000      -0.442380       -12.0378
  33   2.0000      -0.438624       -11.9356
  34   2.0000      -0.362819        -9.8728
  35   0.0000       0.115754         3.1498
  36   0.0000       0.140435         3.8214
  37   0.0000       0.156896         4.2694
  38   0.0000       0.169071         4.6007
  39   0.0000       0.174876         4.7586

MULLIKEN ATOMIC CHARGES
-----------------------
   0 O :   -0.476092
   1 C :   -0.048053
   2 C :    0.060616
   3 C :   -0.167740
   4 N :   -0.353101
   5 C :    0.207044
   6 C :   -0.014399
   7 O :   -0.481105
   8 N :   -0.427830
   9 H :    0.327573
  10 H :    0.108981
  11 H :    0.099524
  12 H :    0.110510
  13 H :    0.126494
  14 H :    0.130065
  15 H :    0.236971
  16 H :    0.104557
  17 H :    0.119492
  18 H :    0.336490
Sum of atomic charges:   -0.0000000

LOEWDIN ATOMIC CHARGES
----------------------
   0 O :   -0.041184
   1 C :   -0.337357
   2 C :   -0.281183
   3 C :   -0.238513
   4 N :    0.079712
   5 C :   -0.350178
   6 C :   -0.315458
   7 O :   -0.035415
   8 N :    0.063328
   9 H :    0.177040
  10 H :    0.128158
  11 H :    0.120316
  12 H :    0.146525
  13 H :    0.126970
  14 H :    0.132867
  15 H :    0.181247
  16 H :    0.130180
  17 H :    0.134530
  18 H :    0.178414

  Mayer bond orders larger than 0.1
B(  0-O ,  1-C ) :   0.9413 B(  0-O ,  9-H ) :   0.8269 B(  1-C ,  2-C ) :   0.9247
B(  1-C , 10-H ) :   0.9329 B(  1-C , 11-H ) :   0.9050 B(  2-C ,  3-C ) :   0.8915
B(  2-C ,  8-N ) :   0.8702 B(  2-C , 12-H ) :   0.9291 B(  3-C ,  4-N ) :   0.9064
B(  3-C , 13-H ) :   0.9316 B(  3-C , 14-H ) :   0.9234 B(  4-N ,  5-C ) :   1.1141
B(  4-N , 15-H ) :   0.8690 B(  5-C ,  6-C ) :   0.9276 B(  5-C ,  8-N ) :   1.6674
B(  6-C ,  7-O ) :   1.0256 B(  6-C , 16-H ) :   0.9187 B(  6-C , 17-H ) :   0.9171
B(  7-O , 18-H ) :   0.8047

MP2 TOTAL ENERGY:     -455.625159122 Eh
FINAL SINGLE POINT ENERGY      -455.625159122052

DIPOLE MOMENT
-------------
                                X             Y             Z
Electronic contribution:     -1.44276       1.91526       1.79099
Nuclear contribution   :      1.19535      -3.65678      -2.36835
                        -----------------------------------------
Total Dipole Moment    :     -0.24741      -1.74152      -0.57736
                        -----------------------------------------
Magnitude (a.u.)       :      1.85133
Magnitude (Debye)      :      4.70571

                             ****ORCA TERMINATED NORMALLY****
TOTAL RUN TIME: 0 days 0 hours 26 minutes 4 seconds 310 msec
