                         Program Version 3.0.3 - RELEASE   -
|  1> ! RI-MP2 RIJK def2-TZVP def2-TZVP/C def2-TZVP/JK TIGHTSCF
|  2> % maxcore 2000
|  3> % mp2 density relaxed end
|  4> *xyz 0 1
|  5>  N        0.0604900435     1.4193884744     0.1815027402
|  6>  C       -0.0087650328     0.0393776371     0.0594304007
|  7>  N       -1.1412261542    -0.5392054990    -0.0031794791
|  8>  C       -1.2030884808    -1.9529170587    -0.3240093171
|  9>  C        0.0750213927    -2.7889626443    -0.2315467029
| 10>  O        0.0938994371    -3.9481329425    -0.5669282498
| 11>  C        1.2854214787    -2.0776518632     0.3490677930
| 12>  C        1.3449207236    -0.6358114768    -0.1374290153
| 13>  O        1.6698070584    -0.6753399447    -1.5240476797
| 14>  H        0.8254623982     1.7859617896     0.7290330202
| 15>  H       -0.8306595445     1.8504821199     0.3892270349
| 16>  H       -1.9447525721    -2.4302751996     0.3310206253
| 17>  H       -1.6001772918    -2.0831930431    -1.3398444778
| 18>  H        1.1865821546    -2.0817248947     1.4428647702
| 19>  H        2.1931077290    -2.6241109067     0.0848917544
| 20>  H        2.1204900574    -0.0849449703     0.4195581207
| 21>  H        1.5396764929     0.2094150627    -1.8837158678
| 22> *
| 23>
| 24>                          ****END OF INPUT****

CARTESIAN COORDINATES (ANGSTROEM)
---------------------------------
  N      0.060490    1.419388    0.181503
  C     -0.008765    0.039378    0.059430
  N     -1.141226   -0.539205   -0.003179
  C     -1.203088   -1.952917   -0.324009
  C      0.075021   -2.788963   -0.231547
  O      0.093899   -3.948133   -0.566928
  C      1.285421   -2.077652    0.349068
  C      1.344921   -0.635811   -0.137429
  O      1.669807   -0.675340   -1.524048
  H      0.825462    1.785962    0.729033
  H     -0.830660    1.850482    0.389227
  H     -1.944753   -2.430275    0.331021
  H     -1.600177   -2.083193   -1.339844
  H      1.186582   -2.081725    1.442865
  H      2.193108   -2.624111    0.084892
  H      2.120490   -0.084945    0.419558
  H      1.539676    0.209415   -1.883716

 Total Charge           Charge          ....    0
 Multiplicity           Mult            ....    1
 Number of Electrons    NEL             ....   68
 Basis Dimension        Dim             ....  327

ORBITAL ENERGIES
----------------

  NO   OCC          E(Eh)            E(eV)
   0   2.0000     -20.582378      -560.0750
   1   2.0000     -20.542546      -558.9911
   2   2.0000     -15.587288      -424.1517
   3   2.0000     -15.550240      -423.1435
   4   2.0000     -11.329970      -308.3042
   5   2.0000     -11.325885      -308.1930
   6   2.0000     -11.318200      -307.9839
   7   2.0000     -11.261534      -306.4419
   8   2.0000     -11.247415      -306.0577
   9   2.0000      -1.393433       -37.9172
  10   2.0000      -1.385678       -37.7062
  11   2.0000      -1.281774       -34.8788
  12   2.0000      -1.183609       -32.2076
  13   2.0000      -1.067020       -29.0351
  14   2.0000      -0.988059       -26.8864
  15   2.0000      -0.902024       -24.5453
  16   2.0000      -0.813869       -22.1465
  17   2.0000      -0.750580       -20.4243
  18   2.0000      -0.728615       -19.8266
  19   2.0000      -0.694378       -18.8950
  20   2.0000      -0.681297       -18.5390
  21   2.0000      -0.659586       -17.9482
  22   2.0000      -0.630830       -17.1658
  23   2.0000      -0.608559       -16.5597
  24   2.0000      -0.600017       -16.3273
  25   2.0000      -0.578790       -15.7497
  26   2.0000      -0.561274       -15.2731
  27   2.0000      -0.536507       -14.5991
  28   2.0000      -0.518754       -14.1160
  29   2.0000      -0.496616       -13.5136
  30   2.0000      -0.485626       -13.2146
  31   2.0000      -0.449677       -12.2363
  32   2.0000      -0.381162       -10.3719
  33   2.0000      -0.373584       -10.1657
  34   0.0000       0.106660         2.9024
  35   0.0000       0.142045         3.8652
  36   0.0000       0.145964         3.9719
  37   0.0000       0.150264         4.0889
  38   0.0000       0.163929         4.4607

MULLIKEN ATOMIC CHARGES
-----------------------
   0 N :   -0.492766
   1 C :    0.063924
   2 N :   -0.257328
   3 C :   -0.136507
   4 C :    0.127381
   5 O :   -0.277113
   6 C :   -0.176213
   7 C :    0.104333
   8 O :   -0.462533
   9 H :    0.252832
  10 H :    0.257390
  11 H :    0.145995
  12 H :    0.145550
  13 H :    0.132409
  14 H :    0.147286
  15 H :    0.098889
  16 H :    0.326471
Sum of atomic charges:    0.0000000

LOEWDIN ATOMIC CHARGES
----------------------
   0 N :   -0.056516
   1 C :   -0.368843
   2 N :    0.093116
   3 C :   -0.266981
   4 C :   -0.319790
   5 O :    0.155700
   6 C :   -0.203357
   7 C :   -0.317246
   8 O :   -0.002063
   9 H :    0.167250
  10 H :    0.172720
  11 H :    0.152183
  12 H :    0.154705
  13 H :    0.162300
  14 H :    0.156521
  15 H :    0.138204
  16 H :    0.182096

  Mayer bond orders larger than 0.1
B(  0-N ,  1-C ) :   1.0678 B(  0-N ,  9-H ) :   0.8672 B(  0-N , 10-H ) :   0.8617
B(  1-C ,  2-N ) :   1.8412 B(  1-C ,  7-C ) :   0.9416 B(  2-N ,  3-C ) :   0.9367
B(  3-C ,  4-C ) :   0.8860 B(  3-C , 11-H ) :   0.9121 B(  3-C , 12-H ) :   0.9113
B(  4-C ,  5-O ) :   2.0016 B(  4-C ,  6-C ) :   0.9254 B(  6-C ,  7-C ) :   0.8885
B(  6-C , 13-H ) :   0.8975 B(  6-C , 14-H ) :   0.9112 B(  7-C ,  8-O ) :   0.9426
B(  7-C , 15-H ) :   0.9065 B(  8-O , 16-H ) :   0.8364

MP2 TOTAL ENERGY:     -454.441316580 Eh
FINAL SINGLE POINT ENERGY      -454.441316579733

DIPOLE MOMENT
-------------
                                X             Y             Z
Electronic contribution:     -0.76476      -2.36715      -1.28013
Nuclear contribution   :      1.26020       4.01563       2.14643
                        -----------------------------------------
Total Dipole Moment    :      0.49544       1.64848       0.86631
                        -----------------------------------------
Magnitude (a.u.)       :      1.92703
Magnitude (Debye)      :      4.89812

                             ****ORCA TERMINATED NORMALLY****
TOTAL RUN TIME: 0 days 0 hours 17 minutes 6 seconds 167 msec
