                         Program Version 3.0.3 - RELEASE   -
|  1> ! RI-MP2 RIJK def2-TZVP def2-TZVP/C def2-TZVP/JK TIGHTSCF
|  2> % maxcore 2000
|  3> % mp2 density relaxed end
|  4> *xyz 0 1
|  5>  O        0.0508351739     1.3812913337     0.0021678486
|  6>  C        0.0202818630    -0.0277315436    -0.0648313061
|  7>  C        0.7646460600    -0.7163606208     1.1138358770
|  8>  C        0.0352487348    -2.0686104897     1.3441078874
|  9>  C        0.1206559884    -2.5596084869     2.7186249114
| 10>  N        0.1847188168    -2.9547286711     3.8028288515
| 11>  C       -1.3944221061    -1.7986771354     0.8688206081
| 12>  N       -1.9330590703    -0.5176600694     1.3591248258
| 13>  C       -1.3829183109    -0.6134013263    -0.0131374468
| 14>  H       -0.4709751914     1.6270330114     0.7766533775
| 15>  H        0.4881514050    -0.2873156074    -1.0208337777
| 16>  H        1.8293243982    -0.8501656328     0.9174169088
| 17>  H        0.6636868372    -0.0905130261     2.0022205238
| 18>  H        0.4626286617    -2.8398004390     0.6912521653
| 19>  H       -2.0672889066    -2.6354042922     0.7176589137
| 20>  H       -2.9484270008    -0.5473785405     1.3296521815
| 21>  H       -2.0476934329    -0.5139326840    -0.8643083499
| 22> *
| 23>
| 24>                          ****END OF INPUT****

CARTESIAN COORDINATES (ANGSTROEM)
---------------------------------
  O      0.050835    1.381291    0.002168
  C      0.020282   -0.027732   -0.064831
  C      0.764646   -0.716361    1.113836
  C      0.035249   -2.068610    1.344108
  C      0.120656   -2.559608    2.718625
  N      0.184719   -2.954729    3.802829
  C     -1.394422   -1.798677    0.868821
  N     -1.933059   -0.517660    1.359125
  C     -1.382918   -0.613401   -0.013137
  H     -0.470975    1.627033    0.776653
  H      0.488151   -0.287316   -1.020834
  H      1.829324   -0.850166    0.917417
  H      0.663687   -0.090513    2.002221
  H      0.462629   -2.839800    0.691252
  H     -2.067289   -2.635404    0.717659
  H     -2.948427   -0.547379    1.329652
  H     -2.047693   -0.513933   -0.864308

 Total Charge           Charge          ....    0
 Multiplicity           Mult            ....    1
 Number of Electrons    NEL             ....   66
 Basis Dimension        Dim             ....  327

ORBITAL ENERGIES
----------------

  NO   OCC          E(Eh)            E(eV)
   0   2.0000     -20.566630      -559.6465
   1   2.0000     -15.586554      -424.1317
   2   2.0000     -15.568271      -423.6342
   3   2.0000     -11.301992      -307.5428
   4   2.0000     -11.295129      -307.3561
   5   2.0000     -11.293739      -307.3183
   6   2.0000     -11.282138      -307.0026
   7   2.0000     -11.271635      -306.7168
   8   2.0000     -11.249782      -306.1221
   9   2.0000      -1.378455       -37.5097
  10   2.0000      -1.299942       -35.3732
  11   2.0000      -1.217160       -33.1206
  12   2.0000      -1.103987       -30.0410
  13   2.0000      -1.001177       -27.2434
  14   2.0000      -0.929683       -25.2980
  15   2.0000      -0.843294       -22.9472
  16   2.0000      -0.812214       -22.1015
  17   2.0000      -0.753699       -20.5092
  18   2.0000      -0.711662       -19.3653
  19   2.0000      -0.682413       -18.5694
  20   2.0000      -0.635181       -17.2842
  21   2.0000      -0.633341       -17.2341
  22   2.0000      -0.592597       -16.1254
  23   2.0000      -0.566520       -15.4158
  24   2.0000      -0.557103       -15.1596
  25   2.0000      -0.540400       -14.7050
  26   2.0000      -0.517463       -14.0809
  27   2.0000      -0.504293       -13.7225
  28   2.0000      -0.488886       -13.3033
  29   2.0000      -0.476426       -12.9642
  30   2.0000      -0.456219       -12.4143
  31   2.0000      -0.441557       -12.0154
  32   2.0000      -0.407822       -11.0974
  33   0.0000       0.114244         3.1087
  34   0.0000       0.132635         3.6092
  35   0.0000       0.150458         4.0942
  36   0.0000       0.156313         4.2535
  37   0.0000       0.178251         4.8505

MULLIKEN ATOMIC CHARGES
-----------------------
   0 O :   -0.464949
   1 C :    0.096046
   2 C :   -0.259427
   3 C :    0.088568
   4 C :   -0.232847
   5 N :   -0.053197
   6 C :   -0.066057
   7 N :   -0.408555
   8 C :   -0.079712
   9 H :    0.327237
  10 H :    0.106394
  11 H :    0.145331
  12 H :    0.143848
  13 H :    0.138207
  14 H :    0.150742
  15 H :    0.228494
  16 H :    0.139876
Sum of atomic charges:    0.0000000

LOEWDIN ATOMIC CHARGES
----------------------
   0 O :   -0.009829
   1 C :   -0.320261
   2 C :   -0.185999
   3 C :   -0.212559
   4 C :   -0.165347
   5 N :    0.062670
   6 C :   -0.211872
   7 N :    0.012695
   8 C :   -0.231613
   9 H :    0.182526
  10 H :    0.148590
  11 H :    0.141558
  12 H :    0.152639
  13 H :    0.180029
  14 H :    0.142899
  15 H :    0.174072
  16 H :    0.139800

  Mayer bond orders larger than 0.1
B(  0-O ,  1-C ) :   0.9627 B(  0-O ,  9-H ) :   0.8300 B(  1-C ,  2-C ) :   0.9132
B(  1-C ,  8-C ) :   0.9379 B(  1-C , 10-H ) :   0.9351 B(  2-C ,  3-C ) :   0.8790
B(  2-C , 11-H ) :   0.9282 B(  2-C , 12-H ) :   0.9164 B(  3-C ,  4-C ) :   0.9139
B(  3-C ,  6-C ) :   0.8530 B(  3-C , 13-H ) :   0.9046 B(  4-C ,  5-N ) :   2.8792
B(  6-C ,  7-N ) :   0.9656 B(  6-C ,  8-C ) :   0.8873 B(  6-C , 14-H ) :   0.9129
B(  7-N ,  8-C ) :   0.9242 B(  7-N , 15-H ) :   0.8687 B(  8-C , 16-H ) :   0.9224

MP2 TOTAL ENERGY:     -417.310046070 Eh
FINAL SINGLE POINT ENERGY      -417.310046070027

DIPOLE MOMENT
-------------
                                X             Y             Z
Electronic contribution:      0.06950      -1.97385       3.22571
Nuclear contribution   :     -0.82195       1.90069      -4.71796
                        -----------------------------------------
Total Dipole Moment    :     -0.75245      -0.07316      -1.49225
                        -----------------------------------------
Magnitude (a.u.)       :      1.67282
Magnitude (Debye)      :      4.25198

                             ****ORCA TERMINATED NORMALLY****
TOTAL RUN TIME: 0 days 0 hours 17 minutes 0 seconds 482 msec
