                         Program Version 3.0.3 - RELEASE   -
|  1> ! RI-MP2 RIJK def2-TZVP def2-TZVP/C def2-TZVP/JK TIGHTSCF
|  2> % maxcore 2000
|  3> % mp2 density relaxed end
|  4> *xyz 0 1
|  5>  C        0.0372559176     1.6273180908     0.0856496027
|  6>  C        0.1083949412     0.1085808672     0.0014007908
|  7>  C        0.8258245094    -0.4521118521    -1.2495116486
|  8>  O        1.8878051771     0.3775446801    -1.6820648298
|  9>  C        1.3777710294    -1.8227471326    -0.7511576636
| 10>  O        2.6179396337    -2.1589931927    -1.3757960598
| 11>  C        1.5427404428    -1.6408734061     0.7453848189
| 12>  C        2.2088282075    -0.4021107258     1.2280938889
| 13>  N        0.7396913271    -0.4953220177     1.2052221209
| 14>  H        1.0347030767     2.0690680128     0.0411173373
| 15>  H       -0.5456958769     2.0324314004    -0.7471966794
| 16>  H       -0.4417835267     1.9260196662     1.0220729010
| 17>  H       -0.9138577574    -0.2930892944    -0.0107003426
| 18>  H        0.1094368453    -0.5892458983    -2.0738171568
| 19>  H        2.6157919346    -0.2292230811    -1.8879266022
| 20>  H        0.6398547171    -2.6134157585    -0.9374953623
| 21>  H        2.4278004043    -2.6309430334    -2.1932509464
| 22>  H        1.5323206510    -2.5320953379     1.3661857570
| 23>  H        2.6374448028    -0.3973482929     2.2262859893
| 24>  H        2.7053037634     0.2351255261     0.5058314147
| 25> *
| 26>
| 27>                          ****END OF INPUT****

CARTESIAN COORDINATES (ANGSTROEM)
---------------------------------
  C      0.037256    1.627318    0.085650
  C      0.108395    0.108581    0.001401
  C      0.825825   -0.452112   -1.249512
  O      1.887805    0.377545   -1.682065
  C      1.377771   -1.822747   -0.751158
  O      2.617940   -2.158993   -1.375796
  C      1.542740   -1.640873    0.745385
  C      2.208828   -0.402111    1.228094
  N      0.739691   -0.495322    1.205222
  H      1.034703    2.069068    0.041117
  H     -0.545696    2.032431   -0.747197
  H     -0.441784    1.926020    1.022073
  H     -0.913858   -0.293089   -0.010700
  H      0.109437   -0.589246   -2.073817
  H      2.615792   -0.229223   -1.887927
  H      0.639855   -2.613416   -0.937495
  H      2.427800   -2.630943   -2.193251
  H      1.532321   -2.532095    1.366186
  H      2.637445   -0.397348    2.226286
  H      2.705304    0.235126    0.505831

 Total Charge           Charge          ....    0
 Multiplicity           Mult            ....    1
 Number of Electrons    NEL             ....   70
 Basis Dimension        Dim             ....  345

ORBITAL ENERGIES
----------------

  NO   OCC          E(Eh)            E(eV)
   0   2.0000     -20.583530      -560.1063
   1   2.0000     -20.550405      -559.2049
   2   2.0000     -15.556302      -423.3085
   3   2.0000     -11.298561      -307.4495
   4   2.0000     -11.281913      -306.9965
   5   2.0000     -11.255864      -306.2876
   6   2.0000     -11.255712      -306.2835
   7   2.0000     -11.247153      -306.0506
   8   2.0000     -11.206836      -304.9535
   9   2.0000      -1.396202       -37.9926
  10   2.0000      -1.354183       -36.8492
  11   2.0000      -1.276523       -34.7359
  12   2.0000      -1.050445       -28.5841
  13   2.0000      -1.008169       -27.4337
  14   2.0000      -0.908632       -24.7251
  15   2.0000      -0.863890       -23.5076
  16   2.0000      -0.790233       -21.5033
  17   2.0000      -0.765952       -20.8426
  18   2.0000      -0.726277       -19.7630
  19   2.0000      -0.698320       -19.0023
  20   2.0000      -0.696316       -18.9477
  21   2.0000      -0.625691       -17.0259
  22   2.0000      -0.609195       -16.5770
  23   2.0000      -0.590416       -16.0660
  24   2.0000      -0.578596       -15.7444
  25   2.0000      -0.552444       -15.0328
  26   2.0000      -0.538504       -14.6534
  27   2.0000      -0.525411       -14.2972
  28   2.0000      -0.523010       -14.2318
  29   2.0000      -0.499277       -13.5860
  30   2.0000      -0.467088       -12.7101
  31   2.0000      -0.453977       -12.3534
  32   2.0000      -0.438752       -11.9390
  33   2.0000      -0.429413       -11.6849
  34   2.0000      -0.368171       -10.0184
  35   0.0000       0.115569         3.1448
  36   0.0000       0.147744         4.0203
  37   0.0000       0.160491         4.3672
  38   0.0000       0.178115         4.8468
  39   0.0000       0.199360         5.4249

MULLIKEN ATOMIC CHARGES
-----------------------
   0 C :   -0.404958
   1 C :    0.019334
   2 C :    0.072837
   3 O :   -0.485479
   4 C :   -0.068672
   5 O :   -0.474858
   6 C :    0.030060
   7 C :   -0.236519
   8 N :   -0.227084
   9 H :    0.141513
  10 H :    0.126708
  11 H :    0.140580
  12 H :    0.098492
  13 H :    0.096115
  14 H :    0.332351
  15 H :    0.109577
  16 H :    0.330403
  17 H :    0.123891
  18 H :    0.124415
  19 H :    0.151297
Sum of atomic charges:   -0.0000000

LOEWDIN ATOMIC CHARGES
----------------------
   0 C :   -0.287718
   1 C :   -0.283407
   2 C :   -0.310429
   3 O :   -0.017763
   4 C :   -0.307676
   5 O :   -0.018639
   6 C :   -0.230779
   7 C :   -0.234455
   8 N :    0.129754
   9 H :    0.128231
  10 H :    0.127715
  11 H :    0.127806
  12 H :    0.152415
  13 H :    0.131736
  14 H :    0.173866
  15 H :    0.141442
  16 H :    0.178638
  17 H :    0.139896
  18 H :    0.126989
  19 H :    0.132380

  Mayer bond orders larger than 0.1
B(  0-C ,  1-C ) :   0.9286 B(  0-C ,  9-H ) :   0.9257 B(  0-C , 10-H ) :   0.9362
B(  0-C , 11-H ) :   0.9385 B(  1-C ,  2-C ) :   0.8953 B(  1-C ,  8-N ) :   0.9246
B(  1-C , 12-H ) :   0.9223 B(  2-C ,  3-O ) :   1.0169 B(  2-C ,  4-C ) :   0.9229
B(  2-C , 13-H ) :   0.9256 B(  3-O , 14-H ) :   0.8080 B(  4-C ,  5-O ) :   1.0419
B(  4-C ,  6-C ) :   0.9335 B(  4-C , 15-H ) :   0.9423 B(  5-O , 16-H ) :   0.8389
B(  6-C ,  7-C ) :   0.9102 B(  6-C ,  8-N ) :   0.9012 B(  6-C , 17-H ) :   0.9207
B(  7-C ,  8-N ) :   0.8833 B(  7-C , 18-H ) :   0.9240 B(  7-C , 19-H ) :   0.9086

MP2 TOTAL ENERGY:     -439.553577416 Eh
FINAL SINGLE POINT ENERGY      -439.553577416343

DIPOLE MOMENT
-------------
                                X             Y             Z
Electronic contribution:      2.13554      -3.52674      -0.86094
Nuclear contribution   :     -2.29619       2.70693       0.16724
                        -----------------------------------------
Total Dipole Moment    :     -0.16065      -0.81982      -0.69370
                        -----------------------------------------
Magnitude (a.u.)       :      1.08587
Magnitude (Debye)      :      2.76007

                             ****ORCA TERMINATED NORMALLY****
TOTAL RUN TIME: 0 days 0 hours 23 minutes 27 seconds 889 msec
