                         Program Version 3.0.3 - RELEASE   -
|  1> ! RI-MP2 RIJK def2-TZVP def2-TZVP/C def2-TZVP/JK TIGHTSCF
|  2> % maxcore 2000
|  3> % mp2 density relaxed end
|  4> *xyz 0 1
|  5>  C       -0.0453404465     1.3647638203    -0.0439419301
|  6>  O       -0.0058176672    -0.0413340723    -0.0103059402
|  7>  C        0.6795594265    -0.5453730873     1.1128683227
|  8>  C        0.6674447299    -2.0666834577     1.0388017980
|  9>  C        1.3633064917    -2.7169632957     2.2322664400
| 10>  N        1.3638241837    -4.1717631562     2.0987645568
| 11>  C        1.9723927523    -4.8373916429     3.2428645391
| 12>  C        1.9126733588    -6.2949893134     3.1023069774
| 13>  N        1.8460692418    -7.4439130556     3.0057632664
| 14>  H        0.9650583664     1.8020892531    -0.0862181280
| 15>  H       -0.5930159965     1.6555097721    -0.9435396042
| 16>  H       -0.5609372373     1.7813466573     0.8362682678
| 17>  H        1.7180784236    -0.1694570929     1.1317192703
| 18>  H        0.1981242585    -0.1987405517     2.0448213416
| 19>  H       -0.3760316321    -2.4021739139     0.9856643623
| 20>  H        1.1533435502    -2.3894252655     0.1127149572
| 21>  H        2.4100532562    -2.3866255566     2.2786466851
| 22>  H        0.8893241194    -2.3793266410     3.1742546891
| 23>  H        0.4127502038    -4.5070977279     1.9801374485
| 24>  H        3.0271896109    -4.5404180456     3.3036851468
| 25>  H        1.5193543856    -4.5718554066     4.2166994135
| 26> *
| 27>
| 28>                          ****END OF INPUT****

CARTESIAN COORDINATES (ANGSTROEM)
---------------------------------
  C     -0.045340    1.364764   -0.043942
  O     -0.005818   -0.041334   -0.010306
  C      0.679559   -0.545373    1.112868
  C      0.667445   -2.066683    1.038802
  C      1.363306   -2.716963    2.232266
  N      1.363824   -4.171763    2.098765
  C      1.972393   -4.837392    3.242865
  C      1.912673   -6.294989    3.102307
  N      1.846069   -7.443913    3.005763
  H      0.965058    1.802089   -0.086218
  H     -0.593016    1.655510   -0.943540
  H     -0.560937    1.781347    0.836268
  H      1.718078   -0.169457    1.131719
  H      0.198124   -0.198741    2.044821
  H     -0.376032   -2.402174    0.985664
  H      1.153344   -2.389425    0.112715
  H      2.410053   -2.386626    2.278647
  H      0.889324   -2.379327    3.174255
  H      0.412750   -4.507098    1.980137
  H      3.027190   -4.540418    3.303685
  H      1.519354   -4.571855    4.216699

 Total Charge           Charge          ....    0
 Multiplicity           Mult            ....    1
 Number of Electrons    NEL             ....   70
 Basis Dimension        Dim             ....  351

ORBITAL ENERGIES
----------------

  NO   OCC          E(Eh)            E(eV)
   0   2.0000     -20.562545      -559.5353
   1   2.0000     -15.574846      -423.8131
   2   2.0000     -15.572561      -423.7509
   3   2.0000     -11.313277      -307.8499
   4   2.0000     -11.285046      -307.0817
   5   2.0000     -11.276626      -306.8526
   6   2.0000     -11.274535      -306.7957
   7   2.0000     -11.272008      -306.7269
   8   2.0000     -11.232381      -305.6486
   9   2.0000      -1.384292       -37.6685
  10   2.0000      -1.248861       -33.9832
  11   2.0000      -1.212977       -33.0068
  12   2.0000      -1.069325       -29.0978
  13   2.0000      -0.996444       -27.1146
  14   2.0000      -0.934284       -25.4232
  15   2.0000      -0.873215       -23.7614
  16   2.0000      -0.827830       -22.5264
  17   2.0000      -0.724682       -19.7196
  18   2.0000      -0.693604       -18.8739
  19   2.0000      -0.674023       -18.3411
  20   2.0000      -0.662890       -18.0382
  21   2.0000      -0.652475       -17.7548
  22   2.0000      -0.620506       -16.8848
  23   2.0000      -0.617700       -16.8085
  24   2.0000      -0.588426       -16.0119
  25   2.0000      -0.561575       -15.2812
  26   2.0000      -0.550794       -14.9879
  27   2.0000      -0.519842       -14.1456
  28   2.0000      -0.509647       -13.8682
  29   2.0000      -0.498622       -13.5682
  30   2.0000      -0.485266       -13.2047
  31   2.0000      -0.465773       -12.6743
  32   2.0000      -0.462657       -12.5895
  33   2.0000      -0.431649       -11.7458
  34   2.0000      -0.403807       -10.9881
  35   0.0000       0.116912         3.1813
  36   0.0000       0.135779         3.6947
  37   0.0000       0.148259         4.0343
  38   0.0000       0.158589         4.3154
  39   0.0000       0.168010         4.5718

MULLIKEN ATOMIC CHARGES
-----------------------
   0 C :   -0.214144
   1 O :   -0.299378
   2 C :   -0.065827
   3 C :   -0.151871
   4 C :   -0.190841
   5 N :   -0.308021
   6 C :   -0.051409
   7 C :   -0.158904
   8 N :   -0.057491
   9 H :    0.111733
  10 H :    0.141266
  11 H :    0.110656
  12 H :    0.090984
  13 H :    0.087545
  14 H :    0.110929
  15 H :    0.131748
  16 H :    0.113619
  17 H :    0.097370
  18 H :    0.213184
  19 H :    0.150970
  20 H :    0.137882
Sum of atomic charges:   -0.0000000

LOEWDIN ATOMIC CHARGES
----------------------
   0 C :   -0.361091
   1 O :    0.135394
   2 C :   -0.332271
   3 C :   -0.266812
   4 C :   -0.308334
   5 N :   -0.015353
   6 C :   -0.295817
   7 C :   -0.188489
   8 N :    0.063198
   9 H :    0.101328
  10 H :    0.114250
  11 H :    0.101004
  12 H :    0.118790
  13 H :    0.117678
  14 H :    0.140300
  15 H :    0.145543
  16 H :    0.133948
  17 H :    0.118456
  18 H :    0.177912
  19 H :    0.157931
  20 H :    0.142435

  Mayer bond orders larger than 0.1
B(  0-C ,  1-O ) :   0.9180 B(  0-C ,  9-H ) :   0.9371 B(  0-C , 10-H ) :   0.9392
B(  0-C , 11-H ) :   0.9366 B(  1-O ,  2-C ) :   0.9640 B(  2-C ,  3-C ) :   0.9490
B(  2-C , 12-H ) :   0.9249 B(  2-C , 13-H ) :   0.9200 B(  3-C ,  4-C ) :   0.9313
B(  3-C , 14-H ) :   0.9245 B(  3-C , 15-H ) :   0.9208 B(  4-C ,  5-N ) :   0.9605
B(  4-C , 16-H ) :   0.9162 B(  4-C , 17-H ) :   0.9218 B(  5-N ,  6-C ) :   0.9679
B(  5-N , 18-H ) :   0.8742 B(  6-C ,  7-C ) :   0.9297 B(  6-C , 19-H ) :   0.9000
B(  6-C , 20-H ) :   0.9083 B(  7-C ,  8-N ) :   2.8652

MP2 TOTAL ENERGY:     -419.685257499 Eh
FINAL SINGLE POINT ENERGY      -419.685257498789

DIPOLE MOMENT
-------------
                                X             Y             Z
Electronic contribution:      1.65685     -12.78268       1.98168
Nuclear contribution   :     -1.71558      14.73016      -1.38147
                        -----------------------------------------
Total Dipole Moment    :     -0.05874       1.94749       0.60021
                        -----------------------------------------
Magnitude (a.u.)       :      2.03873
Magnitude (Debye)      :      5.18203

                             ****ORCA TERMINATED NORMALLY****
TOTAL RUN TIME: 0 days 0 hours 14 minutes 58 seconds 718 msec
