                         Program Version 3.0.3 - RELEASE   -
|  1> ! RI-MP2 RIJK def2-TZVP def2-TZVP/C def2-TZVP/JK TIGHTSCF
|  2> % maxcore 2000
|  3> % mp2 density relaxed end
|  4> *xyz 0 1
|  5>  C       -0.0303164278     1.5076811241    -0.0056555401
|  6>  C        0.0765271399    -0.0225949958    -0.0933343960
|  7>  C        0.8174741108    -0.4703507550    -1.3601993779
|  8>  C        0.7000171996    -0.5770498915     1.1744604132
|  9>  C        2.1942731098    -0.3314962853     1.5258752604
| 10>  C        2.3400650180    -1.8376876248     1.9096700527
| 11>  C        0.8476250392    -2.0839672505     1.5672903934
| 12>  C       -0.1279013475    -1.7363363256     2.6994654130
| 13>  O       -0.1443748091    -0.3372820832     2.3349099080
| 14>  H        0.9630986730     1.9707525333     0.0173304973
| 15>  H       -0.5642590246     1.9110844353    -0.8720142317
| 16>  H       -0.5657655219     1.8059100690     0.8993265040
| 17>  H       -0.9427470018    -0.4312512598    -0.1318474179
| 18>  H        1.8270041347    -0.0481490192    -1.4074646075
| 19>  H        0.9049313883    -1.5605703927    -1.4150918571
| 20>  H        0.2817728662    -0.1341143519    -2.2535061066
| 21>  H        2.8213782884    -0.0314872585     0.6826846044
| 22>  H        2.3261332969     0.3868864387     2.3372413912
| 23>  H        3.0245672639    -2.3814112157     1.2545204410
| 24>  H        2.6213213262    -2.0472371860     2.9455516769
| 25>  H        0.5969012132    -2.9220259688     0.9170559318
| 26>  H       -1.1257287668    -2.1842004074     2.6031635790
| 27>  H        0.2348519416    -1.8966083388     3.7233527684
| 28> *
| 29>
| 30>                          ****END OF INPUT****

CARTESIAN COORDINATES (ANGSTROEM)
---------------------------------
  C     -0.030316    1.507681   -0.005656
  C      0.076527   -0.022595   -0.093334
  C      0.817474   -0.470351   -1.360199
  C      0.700017   -0.577050    1.174460
  C      2.194273   -0.331496    1.525875
  C      2.340065   -1.837688    1.909670
  C      0.847625   -2.083967    1.567290
  C     -0.127901   -1.736336    2.699465
  O     -0.144375   -0.337282    2.334910
  H      0.963099    1.970753    0.017330
  H     -0.564259    1.911084   -0.872014
  H     -0.565766    1.805910    0.899327
  H     -0.942747   -0.431251   -0.131847
  H      1.827004   -0.048149   -1.407465
  H      0.904931   -1.560570   -1.415092
  H      0.281773   -0.134114   -2.253506
  H      2.821378   -0.031487    0.682685
  H      2.326133    0.386886    2.337241
  H      3.024567   -2.381411    1.254520
  H      2.621321   -2.047237    2.945552
  H      0.596901   -2.922026    0.917056
  H     -1.125729   -2.184200    2.603164
  H      0.234852   -1.896608    3.723353

 Total Charge           Charge          ....    0
 Multiplicity           Mult            ....    1
 Number of Electrons    NEL             ....   70
 Basis Dimension        Dim             ....  363

ORBITAL ENERGIES
----------------

  NO   OCC          E(Eh)            E(eV)
   0   2.0000     -20.538999      -558.8946
   1   2.0000     -11.278698      -306.9090
   2   2.0000     -11.273142      -306.7578
   3   2.0000     -11.227118      -305.5054
   4   2.0000     -11.225355      -305.4574
   5   2.0000     -11.224801      -305.4424
   6   2.0000     -11.217875      -305.2539
   7   2.0000     -11.215320      -305.1844
   8   2.0000     -11.206748      -304.9511
   9   2.0000      -1.372193       -37.3393
  10   2.0000      -1.109473       -30.1903
  11   2.0000      -1.063676       -28.9441
  12   2.0000      -0.962820       -26.1997
  13   2.0000      -0.926268       -25.2050
  14   2.0000      -0.888985       -24.1905
  15   2.0000      -0.846197       -23.0262
  16   2.0000      -0.795376       -21.6433
  17   2.0000      -0.697372       -18.9765
  18   2.0000      -0.669720       -18.2240
  19   2.0000      -0.646401       -17.5895
  20   2.0000      -0.641979       -17.4691
  21   2.0000      -0.608285       -16.5523
  22   2.0000      -0.584878       -15.9153
  23   2.0000      -0.571291       -15.5456
  24   2.0000      -0.552801       -15.0425
  25   2.0000      -0.533120       -14.5069
  26   2.0000      -0.520461       -14.1625
  27   2.0000      -0.512615       -13.9490
  28   2.0000      -0.497031       -13.5249
  29   2.0000      -0.481890       -13.1129
  30   2.0000      -0.467604       -12.7241
  31   2.0000      -0.459832       -12.5127
  32   2.0000      -0.437734       -11.9114
  33   2.0000      -0.401272       -10.9192
  34   2.0000      -0.389964       -10.6115
  35   0.0000       0.133436         3.6310
  36   0.0000       0.153059         4.1650
  37   0.0000       0.161636         4.3983
  38   0.0000       0.168603         4.5879
  39   0.0000       0.183710         4.9990

MULLIKEN ATOMIC CHARGES
-----------------------
   0 C :   -0.420501
   1 C :   -0.039099
   2 C :   -0.415108
   3 C :    0.280472
   4 C :   -0.298965
   5 C :   -0.212441
   6 C :   -0.165777
   7 C :   -0.030950
   8 O :   -0.345171
   9 H :    0.120236
  10 H :    0.130557
  11 H :    0.155065
  12 H :    0.081806
  13 H :    0.121140
  14 H :    0.131002
  15 H :    0.136867
  16 H :    0.117378
  17 H :    0.122319
  18 H :    0.116776
  19 H :    0.111760
  20 H :    0.116029
  21 H :    0.095499
  22 H :    0.091104
Sum of atomic charges:   -0.0000000

LOEWDIN ATOMIC CHARGES
----------------------
   0 C :   -0.285007
   1 C :   -0.276907
   2 C :   -0.287340
   3 C :   -0.257602
   4 C :   -0.195474
   5 C :   -0.218510
   6 C :   -0.179680
   7 C :   -0.253197
   8 O :    0.153205
   9 H :    0.123417
  10 H :    0.122624
  11 H :    0.130465
  12 H :    0.158503
  13 H :    0.121818
  14 H :    0.123220
  15 H :    0.125612
  16 H :    0.130897
  17 H :    0.135285
  18 H :    0.131874
  19 H :    0.128161
  20 H :    0.133936
  21 H :    0.117613
  22 H :    0.117087

  Mayer bond orders larger than 0.1
B(  0-C ,  1-C ) :   0.9215 B(  0-C ,  9-H ) :   0.9282 B(  0-C , 10-H ) :   0.9380
B(  0-C , 11-H ) :   0.9369 B(  1-C ,  2-C ) :   0.9077 B(  1-C ,  3-C ) :   0.9053
B(  1-C , 12-H ) :   0.9243 B(  2-C , 13-H ) :   0.9295 B(  2-C , 14-H ) :   0.9407
B(  2-C , 15-H ) :   0.9368 B(  3-C ,  4-C ) :   0.8864 B(  3-C ,  6-C ) :   0.8873
B(  3-C ,  8-O ) :   0.9223 B(  4-C ,  5-C ) :   0.9753 B(  4-C , 16-H ) :   0.9199
B(  4-C , 17-H ) :   0.9069 B(  5-C ,  6-C ) :   0.9417 B(  5-C , 18-H ) :   0.9216
B(  5-C , 19-H ) :   0.9185 B(  6-C ,  7-C ) :   0.9851 B(  6-C , 20-H ) :   0.9068
B(  7-C ,  8-O ) :   0.9468 B(  7-C , 21-H ) :   0.9209 B(  7-C , 22-H ) :   0.9005

MP2 TOTAL ENERGY:     -387.589617247 Eh
FINAL SINGLE POINT ENERGY      -387.589617246608

DIPOLE MOMENT
-------------
                                X             Y             Z
Electronic contribution:     -1.77513      -1.71618       5.05286
Nuclear contribution   :      2.04015       1.20463      -5.39221
                        -----------------------------------------
Total Dipole Moment    :      0.26502      -0.51156      -0.33935
                        -----------------------------------------
Magnitude (a.u.)       :      0.66864
Magnitude (Debye)      :      1.69956

                             ****ORCA TERMINATED NORMALLY****
TOTAL RUN TIME: 0 days 0 hours 23 minutes 42 seconds 575 msec
