                         Program Version 3.0.3 - RELEASE   -
|  1> ! RI-MP2 RIJK def2-TZVP def2-TZVP/C def2-TZVP/JK TIGHTSCF
|  2> % maxcore 2000
|  3> % mp2 density relaxed end
|  4> *xyz 0 1
|  5>  C       -0.1157426845     1.4241179287     0.0043200166
|  6>  N        0.0917330436    -0.0127297719    -0.0460134456
|  7>  C        0.0222805249    -0.7494362866     1.2036135397
|  8>  C        0.0132318593    -0.6494846125    -1.2331913309
|  9>  N       -0.0661509188    -0.1027511689    -2.4236986756
| 10>  C       -0.0738299090    -1.2125395187    -3.2291048399
| 11>  N       -0.2047791564    -1.0931084087    -4.5914872469
| 12>  N       -0.0021652539    -2.3762076142    -2.6235480525
| 13>  O        0.0411600549    -1.9863969851    -1.2417163013
| 14>  H        0.5921411572     1.8717664238     0.7099536449
| 15>  H        0.0472405059     1.8422472271    -0.9878285555
| 16>  H       -1.1350325774     1.6728081588     0.3314760753
| 17>  H       -0.9994064389    -0.7708467687     1.6086453423
| 18>  H        0.3591018787    -1.7737405196     1.0506572043
| 19>  H        0.6735270464    -0.2688992172     1.9407261659
| 20>  H        0.1638284063    -0.2283445704    -4.9573099580
| 21>  H        0.0828764317    -1.9094339458    -5.1105599529
| 22> *
| 23>
| 24>                          ****END OF INPUT****

CARTESIAN COORDINATES (ANGSTROEM)
---------------------------------
  C     -0.115743    1.424118    0.004320
  N      0.091733   -0.012730   -0.046013
  C      0.022281   -0.749436    1.203614
  C      0.013232   -0.649485   -1.233191
  N     -0.066151   -0.102751   -2.423699
  C     -0.073830   -1.212540   -3.229105
  N     -0.204779   -1.093108   -4.591487
  N     -0.002165   -2.376208   -2.623548
  O      0.041160   -1.986397   -1.241716
  H      0.592141    1.871766    0.709954
  H      0.047241    1.842247   -0.987829
  H     -1.135033    1.672808    0.331476
  H     -0.999406   -0.770847    1.608645
  H      0.359102   -1.773741    1.050657
  H      0.673527   -0.268899    1.940726
  H      0.163828   -0.228345   -4.957310
  H      0.082876   -1.909434   -5.110560

 Total Charge           Charge          ....    0
 Multiplicity           Mult            ....    1
 Number of Electrons    NEL             ....   68
 Basis Dimension        Dim             ....  327

ORBITAL ENERGIES
----------------

  NO   OCC          E(Eh)            E(eV)
   0   2.0000     -20.626532      -561.2765
   1   2.0000     -15.604382      -424.6168
   2   2.0000     -15.581902      -424.0051
   3   2.0000     -15.577634      -423.8890
   4   2.0000     -15.544440      -422.9857
   5   2.0000     -11.383913      -309.7720
   6   2.0000     -11.335951      -308.4669
   7   2.0000     -11.272301      -306.7349
   8   2.0000     -11.269720      -306.6647
   9   2.0000      -1.492139       -40.6032
  10   2.0000      -1.288850       -35.0714
  11   2.0000      -1.273185       -34.6451
  12   2.0000      -1.188726       -32.3469
  13   2.0000      -1.104771       -30.0623
  14   2.0000      -0.987047       -26.8589
  15   2.0000      -0.945284       -25.7225
  16   2.0000      -0.821263       -22.3477
  17   2.0000      -0.798340       -21.7239
  18   2.0000      -0.734047       -19.9744
  19   2.0000      -0.695010       -18.9122
  20   2.0000      -0.689184       -18.7536
  21   2.0000      -0.654087       -17.7986
  22   2.0000      -0.634355       -17.2617
  23   2.0000      -0.616493       -16.7756
  24   2.0000      -0.584770       -15.9124
  25   2.0000      -0.570502       -15.5242
  26   2.0000      -0.568505       -15.4698
  27   2.0000      -0.551062       -14.9952
  28   2.0000      -0.524591       -14.2748
  29   2.0000      -0.502352       -13.6697
  30   2.0000      -0.463975       -12.6254
  31   2.0000      -0.446058       -12.1379
  32   2.0000      -0.393184       -10.6991
  33   2.0000      -0.338316        -9.2061
  34   0.0000       0.129290         3.5182
  35   0.0000       0.140465         3.8222
  36   0.0000       0.171400         4.6640
  37   0.0000       0.173524         4.7218
  38   0.0000       0.196024         5.3341

MULLIKEN ATOMIC CHARGES
-----------------------
   0 C :   -0.304038
   1 N :   -0.132121
   2 C :   -0.315981
   3 C :    0.343493
   4 N :   -0.398146
   5 C :    0.269481
   6 N :   -0.509849
   7 N :   -0.223325
   8 O :   -0.154724
   9 H :    0.136126
  10 H :    0.178889
  11 H :    0.132691
  12 H :    0.137023
  13 H :    0.175629
  14 H :    0.138443
  15 H :    0.264339
  16 H :    0.262070
Sum of atomic charges:    0.0000000

LOEWDIN ATOMIC CHARGES
----------------------
   0 C :   -0.280669
   1 N :    0.144954
   2 C :   -0.285101
   3 C :   -0.440394
   4 N :    0.073293
   5 C :   -0.489047
   6 N :   -0.053915
   7 N :   -0.012242
   8 O :    0.246490
   9 H :    0.119902
  10 H :    0.135216
  11 H :    0.117401
  12 H :    0.117890
  13 H :    0.132327
  14 H :    0.121844
  15 H :    0.176371
  16 H :    0.175681

  Mayer bond orders larger than 0.1
B(  0-C ,  1-N ) :   0.8791 B(  0-C ,  9-H ) :   0.9326 B(  0-C , 10-H ) :   0.9245
B(  0-C , 11-H ) :   0.9299 B(  1-N ,  2-C ) :   0.8865 B(  1-N ,  3-C ) :   1.1940
B(  2-C , 12-H ) :   0.9290 B(  2-C , 13-H ) :   0.9268 B(  2-C , 14-H ) :   0.9323
B(  3-C ,  4-N ) :   1.5140 B(  3-C ,  8-O ) :   1.1588 B(  4-N ,  5-C ) :   1.2406
B(  5-C ,  6-N ) :   1.0921 B(  5-C ,  7-N ) :   1.6293 B(  6-N , 15-H ) :   0.8677
B(  6-N , 16-H ) :   0.8723 B(  7-N ,  8-O ) :   0.7991

MP2 TOTAL ENERGY:     -450.590671545 Eh
FINAL SINGLE POINT ENERGY      -450.590671545048

DIPOLE MOMENT
-------------
                                X             Y             Z
Electronic contribution:      0.29618      -5.06865      -6.00902
Nuclear contribution   :      0.02971       5.99932       6.62500
                        -----------------------------------------
Total Dipole Moment    :      0.32589       0.93067       0.61599
                        -----------------------------------------
Magnitude (a.u.)       :      1.16266
Magnitude (Debye)      :      2.95526

                             ****ORCA TERMINATED NORMALLY****
TOTAL RUN TIME: 0 days 0 hours 16 minutes 25 seconds 94 msec
