                         Program Version 3.0.3 - RELEASE   -
|  1> ! RI-MP2 RIJK def2-TZVP def2-TZVP/C def2-TZVP/JK TIGHTSCF
|  2> % maxcore 2000
|  3> % mp2 density relaxed end
|  4> *xyz 0 1
|  5>  O       -0.0194400895     0.0273180502     0.1998981147
|  6>  C        0.0149449504     1.2029662845    -0.0124693630
|  7>  O       -1.1409860112     1.9250266217    -0.3306966631
|  8>  C       -0.7701271191     3.2621041501    -0.5690241103
|  9>  C       -0.9096431213     4.4499062423     0.4588134541
| 10>  C        0.6037386093     4.8009202542     0.1725955414
| 11>  C        0.6870593422     3.3631510711    -0.2794703110
| 12>  C        1.1492039835     2.1684017073     0.0894638166
| 13>  H       -1.1057347030     3.5646160303    -1.5654850159
| 14>  H       -1.6549182659     5.2116590120     0.2243053952
| 15>  H       -1.0437347967     4.0770810854     1.4749087870
| 16>  H        0.7028126033     5.5287368089    -0.6370165348
| 17>  H        1.2324446459     5.0991855575     1.0116081346
| 18>  H        2.0846763022     1.8867632844     0.5497348945
| 19> *
| 20>
| 21>                          ****END OF INPUT****

CARTESIAN COORDINATES (ANGSTROEM)
---------------------------------
  O     -0.019440    0.027318    0.199898
  C      0.014945    1.202966   -0.012469
  O     -1.140986    1.925027   -0.330697
  C     -0.770127    3.262104   -0.569024
  C     -0.909643    4.449906    0.458813
  C      0.603739    4.800920    0.172596
  C      0.687059    3.363151   -0.279470
  C      1.149204    2.168402    0.089464
  H     -1.105735    3.564616   -1.565485
  H     -1.654918    5.211659    0.224305
  H     -1.043735    4.077081    1.474909
  H      0.702813    5.528737   -0.637017
  H      1.232445    5.099186    1.011608
  H      2.084676    1.886763    0.549735

 Total Charge           Charge          ....    0
 Multiplicity           Mult            ....    1
 Number of Electrons    NEL             ....   58
 Basis Dimension        Dim             ....  284

ORBITAL ENERGIES
----------------

  NO   OCC          E(Eh)            E(eV)
   0   2.0000     -20.600019      -560.5550
   1   2.0000     -20.538183      -558.8724
   2   2.0000     -11.379836      -309.6611
   3   2.0000     -11.310401      -307.7717
   4   2.0000     -11.282662      -307.0168
   5   2.0000     -11.275085      -306.8107
   6   2.0000     -11.267036      -306.5916
   7   2.0000     -11.253774      -306.2307
   8   2.0000      -1.453545       -39.5530
   9   2.0000      -1.368170       -37.2298
  10   2.0000      -1.180932       -32.1348
  11   2.0000      -1.054901       -28.7053
  12   2.0000      -0.936854       -25.4931
  13   2.0000      -0.883586       -24.0436
  14   2.0000      -0.796241       -21.6668
  15   2.0000      -0.773556       -21.0495
  16   2.0000      -0.707769       -19.2594
  17   2.0000      -0.689581       -18.7645
  18   2.0000      -0.647360       -17.6155
  19   2.0000      -0.623703       -16.9718
  20   2.0000      -0.614076       -16.7099
  21   2.0000      -0.573306       -15.6004
  22   2.0000      -0.544533       -14.8175
  23   2.0000      -0.539268       -14.6742
  24   2.0000      -0.525876       -14.3098
  25   2.0000      -0.487858       -13.2753
  26   2.0000      -0.454018       -12.3545
  27   2.0000      -0.442808       -12.0494
  28   2.0000      -0.382594       -10.4109
  29   0.0000       0.086300         2.3484
  30   0.0000       0.127337         3.4650
  31   0.0000       0.156842         4.2679
  32   0.0000       0.161595         4.3972
  33   0.0000       0.174141         4.7386

MULLIKEN ATOMIC CHARGES
-----------------------
   0 O :   -0.281959
   1 C :    0.301267
   2 O :   -0.242137
   3 C :    0.095613
   4 C :   -0.237916
   5 C :   -0.191419
   6 C :   -0.005290
   7 C :   -0.279606
   8 H :    0.123172
   9 H :    0.137489
  10 H :    0.140089
  11 H :    0.142885
  12 H :    0.142397
  13 H :    0.155415
Sum of atomic charges:   -0.0000000

LOEWDIN ATOMIC CHARGES
----------------------
   0 O :    0.144566
   1 C :   -0.426050
   2 O :    0.259640
   3 C :   -0.238107
   4 C :   -0.182246
   5 C :   -0.183402
   6 C :   -0.129659
   7 C :   -0.105882
   8 H :    0.152471
   9 H :    0.129759
  10 H :    0.145098
  11 H :    0.146227
  12 H :    0.137305
  13 H :    0.150279

  Mayer bond orders larger than 0.1
B(  0-O ,  1-C ) :   2.0122 B(  1-C ,  2-O ) :   1.0362 B(  1-C ,  7-C ) :   0.9903
B(  2-O ,  3-C ) :   0.9487 B(  3-C ,  4-C ) :   0.8683 B(  3-C ,  6-C ) :   0.9391
B(  3-C ,  8-H ) :   0.9202 B(  4-C ,  5-C ) :   0.9100 B(  4-C ,  9-H ) :   0.9220
B(  4-C , 10-H ) :   0.9148 B(  5-C ,  6-C ) :   0.9024 B(  5-C , 11-H ) :   0.9172
B(  5-C , 12-H ) :   0.9201 B(  6-C ,  7-C ) :   1.6888 B(  7-C , 13-H ) :   0.9294

MP2 TOTAL ENERGY:     -381.911207568 Eh
FINAL SINGLE POINT ENERGY      -381.911207567501

DIPOLE MOMENT
-------------
                                X             Y             Z
Electronic contribution:     -0.23134      -7.02713      -1.11341
Nuclear contribution   :      0.64951       9.02893       1.12991
                        -----------------------------------------
Total Dipole Moment    :      0.41816       2.00181       0.01650
                        -----------------------------------------
Magnitude (a.u.)       :      2.04508
Magnitude (Debye)      :      5.19819

                             ****ORCA TERMINATED NORMALLY****
TOTAL RUN TIME: 0 days 0 hours 11 minutes 27 seconds 875 msec
