                         Program Version 3.0.3 - RELEASE   -
|  1> ! RI-MP2 RIJK def2-TZVP def2-TZVP/C def2-TZVP/JK TIGHTSCF
|  2> % maxcore 2000
|  3> % mp2 density relaxed end
|  4> *xyz 0 1
|  5>  C       -0.0466027089     1.5209590276    -0.1799975265
|  6>  C        1.4936882518     1.5634821936     0.0397970041
|  7>  C        1.9388635587     1.9298872246     1.4625142209
|  8>  C        1.3242144491     1.0121044835     2.5480919480
|  9>  C        1.0443109278    -0.4111925890     2.0231017178
| 10>  C        2.0784211927    -0.8081261367     0.9589060618
| 11>  C        1.5412302635     0.0105693567    -0.2135638650
| 12>  C       -0.0041097591    -0.0181224845    -0.0168390263
| 13>  O       -0.2078382364    -0.4619479296     1.3205388961
| 14>  H       -0.6811803816     2.0612557237     0.5278131778
| 15>  H       -0.3236145550     1.8111110846    -1.1979675945
| 16>  H        2.0434729651     2.1681291896    -0.6862783127
| 17>  H        3.0324586623     1.8589331298     1.5069540313
| 18>  H        1.6965702388     2.9782210268     1.6708106493
| 19>  H        2.0020165885     0.9594589922     3.4078232989
| 20>  H        0.3765060857     1.4159381185     2.9183215403
| 21>  H        0.9571724314    -1.1187855757     2.8517191908
| 22>  H        3.1038783115    -0.5550074196     1.2429902761
| 23>  H        2.0313589226    -1.8805081904     0.7455615965
| 24>  H        1.9104196107    -0.2799916326    -1.1972800982
| 25>  H       -0.6389742292    -0.6190708032    -0.6728804065
| 26> *
| 27>
| 28>                          ****END OF INPUT****

CARTESIAN COORDINATES (ANGSTROEM)
---------------------------------
  C     -0.046603    1.520959   -0.179998
  C      1.493688    1.563482    0.039797
  C      1.938864    1.929887    1.462514
  C      1.324214    1.012104    2.548092
  C      1.044311   -0.411193    2.023102
  C      2.078421   -0.808126    0.958906
  C      1.541230    0.010569   -0.213564
  C     -0.004110   -0.018122   -0.016839
  O     -0.207838   -0.461948    1.320539
  H     -0.681180    2.061256    0.527813
  H     -0.323615    1.811111   -1.197968
  H      2.043473    2.168129   -0.686278
  H      3.032459    1.858933    1.506954
  H      1.696570    2.978221    1.670811
  H      2.002017    0.959459    3.407823
  H      0.376506    1.415938    2.918322
  H      0.957172   -1.118786    2.851719
  H      3.103878   -0.555007    1.242990
  H      2.031359   -1.880508    0.745562
  H      1.910420   -0.279992   -1.197280
  H     -0.638974   -0.619071   -0.672880

 Total Charge           Charge          ....    0
 Multiplicity           Mult            ....    1
 Number of Electrons    NEL             ....   68
 Basis Dimension        Dim             ....  351

ORBITAL ENERGIES
----------------

  NO   OCC          E(Eh)            E(eV)
   0   2.0000     -20.541198      -558.9544
   1   2.0000     -11.271424      -306.7110
   2   2.0000     -11.267413      -306.6019
   3   2.0000     -11.225983      -305.4745
   4   2.0000     -11.223654      -305.4111
   5   2.0000     -11.219875      -305.3083
   6   2.0000     -11.218877      -305.2812
   7   2.0000     -11.215940      -305.2013
   8   2.0000     -11.213095      -305.1238
   9   2.0000      -1.369592       -37.2685
  10   2.0000      -1.129820       -30.7440
  11   2.0000      -1.057274       -28.7699
  12   2.0000      -1.006721       -27.3943
  13   2.0000      -0.909288       -24.7430
  14   2.0000      -0.878060       -23.8932
  15   2.0000      -0.829866       -22.5818
  16   2.0000      -0.745726       -20.2922
  17   2.0000      -0.714188       -19.4340
  18   2.0000      -0.706390       -19.2218
  19   2.0000      -0.641882       -17.4665
  20   2.0000      -0.619380       -16.8542
  21   2.0000      -0.612218       -16.6593
  22   2.0000      -0.584709       -15.9107
  23   2.0000      -0.570821       -15.5328
  24   2.0000      -0.543676       -14.7942
  25   2.0000      -0.530367       -14.4320
  26   2.0000      -0.507247       -13.8029
  27   2.0000      -0.495223       -13.4757
  28   2.0000      -0.484941       -13.1959
  29   2.0000      -0.456000       -12.4084
  30   2.0000      -0.438579       -11.9343
  31   2.0000      -0.414876       -11.2894
  32   2.0000      -0.413060       -11.2399
  33   2.0000      -0.394049       -10.7226
  34   0.0000       0.131369         3.5747
  35   0.0000       0.160171         4.3585
  36   0.0000       0.164705         4.4818
  37   0.0000       0.169672         4.6170
  38   0.0000       0.185751         5.0545

MULLIKEN ATOMIC CHARGES
-----------------------
   0 C :   -0.238633
   1 C :   -0.065292
   2 C :   -0.259599
   3 C :   -0.292487
   4 C :    0.155155
   5 C :   -0.316212
   6 C :   -0.052857
   7 C :    0.013966
   8 O :   -0.332138
   9 H :    0.107643
  10 H :    0.112450
  11 H :    0.105820
  12 H :    0.115202
  13 H :    0.126760
  14 H :    0.115907
  15 H :    0.120896
  16 H :    0.113806
  17 H :    0.120357
  18 H :    0.120634
  19 H :    0.120594
  20 H :    0.108028
Sum of atomic charges:    0.0000000

LOEWDIN ATOMIC CHARGES
----------------------
   0 C :   -0.203339
   1 C :   -0.202561
   2 C :   -0.244431
   3 C :   -0.241157
   4 C :   -0.295610
   5 C :   -0.218963
   6 C :   -0.180124
   7 C :   -0.260816
   8 O :    0.187787
   9 H :    0.130704
  10 H :    0.136186
  11 H :    0.139304
  12 H :    0.138612
  13 H :    0.139159
  14 H :    0.138803
  15 H :    0.141500
  16 H :    0.140039
  17 H :    0.142157
  18 H :    0.141496
  19 H :    0.143771
  20 H :    0.127482

  Mayer bond orders larger than 0.1
B(  0-C ,  1-C ) :   0.9529 B(  0-C ,  7-C ) :   0.9142 B(  0-C ,  9-H ) :   0.9034
B(  0-C , 10-H ) :   0.9123 B(  1-C ,  2-C ) :   0.9238 B(  1-C ,  6-C ) :   0.9224
B(  1-C , 11-H ) :   0.9172 B(  2-C ,  3-C ) :   0.9290 B(  2-C , 12-H ) :   0.9252
B(  2-C , 13-H ) :   0.9323 B(  3-C ,  4-C ) :   0.8995 B(  3-C , 14-H ) :   0.9191
B(  3-C , 15-H ) :   0.9319 B(  4-C ,  5-C ) :   0.9534 B(  4-C ,  8-O ) :   0.9133
B(  4-C , 16-H ) :   0.9368 B(  5-C ,  6-C ) :   0.9283 B(  5-C , 17-H ) :   0.9230
B(  5-C , 18-H ) :   0.9149 B(  6-C ,  7-C ) :   0.9145 B(  6-C , 19-H ) :   0.9122
B(  7-C ,  8-O ) :   0.9590 B(  7-C , 20-H ) :   0.9331

MP2 TOTAL ENERGY:     -386.434935070 Eh
FINAL SINGLE POINT ENERGY      -386.434935070264

DIPOLE MOMENT
-------------
                                X             Y             Z
Electronic contribution:     -2.62553      -2.68552      -0.50071
Nuclear contribution   :      3.21447       2.88149       0.29454
                        -----------------------------------------
Total Dipole Moment    :      0.58894       0.19597      -0.20617
                        -----------------------------------------
Magnitude (a.u.)       :      0.65403
Magnitude (Debye)      :      1.66241

                             ****ORCA TERMINATED NORMALLY****
TOTAL RUN TIME: 0 days 0 hours 23 minutes 22 seconds 758 msec
