                         Program Version 3.0.3 - RELEASE   -
|  1> ! RI-MP2 RIJK def2-TZVP def2-TZVP/C def2-TZVP/JK TIGHTSCF
|  2> % maxcore 2000
|  3> % mp2 density relaxed end
|  4> *xyz 0 1
|  5>  C        0.0813264086     1.5917543994     0.2358409826
|  6>  C       -0.0229911178     0.0879322996     0.0560170062
|  7>  C       -1.3513514989    -0.4228732398    -0.4845030952
|  8>  C       -1.6762001840     0.0317972979    -1.9167556913
|  9>  C       -2.9693375783    -0.5562483960    -2.4413094292
| 10>  C       -4.2906688286     0.1062578270    -2.1373208545
| 11>  C       -3.7378295631     0.1278903283    -3.5422012733
| 12>  C        1.2280131403    -0.6603441952    -0.3436957517
| 13>  C        0.6926154639    -0.7790737020     1.0648963854
| 14>  H        1.0472552554     1.8696679685     0.6692827876
| 15>  H       -0.0152321058     2.1253622072    -0.7161119414
| 16>  H       -0.7029967405     1.9637901001     0.9062888131
| 17>  H       -1.3451315248    -1.5204688257    -0.4586137363
| 18>  H       -2.1635908262    -0.1085542444     0.1855218498
| 19>  H       -1.7436427345     1.1264272490    -1.9558448114
| 20>  H       -0.8462891733    -0.2472464153    -2.5799912861
| 21>  H       -2.9866389996    -1.6439733528    -2.4632678539
| 22>  H       -5.1534178117    -0.5178115958    -1.9315992423
| 23>  H       -4.2722465098     1.0340217814    -1.5738792340
| 24>  H       -3.3510860372     1.0693484266    -3.9193035531
| 25>  H       -4.2212527480    -0.4841163615    -4.2958805670
| 26>  H        1.1257560740    -1.5182503917    -1.0006424803
| 27>  H        2.1407698466    -0.0941141553    -0.4975479566
| 28>  H        1.2426327413    -0.2905388094     1.8626518417
| 29>  H        0.2297075920    -1.7160615502     1.3571676312
| 30> *
| 31>
| 32>                          ****END OF INPUT****

CARTESIAN COORDINATES (ANGSTROEM)
---------------------------------
  C      0.081326    1.591754    0.235841
  C     -0.022991    0.087932    0.056017
  C     -1.351351   -0.422873   -0.484503
  C     -1.676200    0.031797   -1.916756
  C     -2.969338   -0.556248   -2.441309
  C     -4.290669    0.106258   -2.137321
  C     -3.737830    0.127890   -3.542201
  C      1.228013   -0.660344   -0.343696
  C      0.692615   -0.779074    1.064896
  H      1.047255    1.869668    0.669283
  H     -0.015232    2.125362   -0.716112
  H     -0.702997    1.963790    0.906289
  H     -1.345132   -1.520469   -0.458614
  H     -2.163591   -0.108554    0.185522
  H     -1.743643    1.126427   -1.955845
  H     -0.846289   -0.247246   -2.579991
  H     -2.986639   -1.643973   -2.463268
  H     -5.153418   -0.517812   -1.931599
  H     -4.272247    1.034022   -1.573879
  H     -3.351086    1.069348   -3.919304
  H     -4.221253   -0.484116   -4.295881
  H      1.125756   -1.518250   -1.000642
  H      2.140770   -0.094114   -0.497548
  H      1.242633   -0.290539    1.862652
  H      0.229708   -1.716062    1.357168

 Total Charge           Charge          ....    0
 Multiplicity           Mult            ....    1
 Number of Electrons    NEL             ....   70
 Basis Dimension        Dim             ....  375

ORBITAL ENERGIES
----------------

  NO   OCC          E(Eh)            E(eV)
   0   2.0000     -11.231340      -305.6203
   1   2.0000     -11.225109      -305.4508
   2   2.0000     -11.219068      -305.2864
   3   2.0000     -11.218437      -305.2692
   4   2.0000     -11.216859      -305.2263
   5   2.0000     -11.216829      -305.2254
   6   2.0000     -11.216095      -305.2055
   7   2.0000     -11.216043      -305.2041
   8   2.0000     -11.212985      -305.1208
   9   2.0000      -1.151976       -31.3469
  10   2.0000      -1.136878       -30.9360
  11   2.0000      -1.018777       -27.7223
  12   2.0000      -0.955134       -25.9905
  13   2.0000      -0.877878       -23.8883
  14   2.0000      -0.818323       -22.2677
  15   2.0000      -0.816864       -22.2280
  16   2.0000      -0.769335       -20.9347
  17   2.0000      -0.731372       -19.9016
  18   2.0000      -0.662221       -18.0199
  19   2.0000      -0.649857       -17.6835
  20   2.0000      -0.632405       -17.2086
  21   2.0000      -0.601621       -16.3709
  22   2.0000      -0.586845       -15.9689
  23   2.0000      -0.565817       -15.3967
  24   2.0000      -0.535451       -14.5704
  25   2.0000      -0.527462       -14.3530
  26   2.0000      -0.508419       -13.8348
  27   2.0000      -0.503449       -13.6995
  28   2.0000      -0.497862       -13.5475
  29   2.0000      -0.489498       -13.3199
  30   2.0000      -0.459424       -12.5016
  31   2.0000      -0.417767       -11.3680
  32   2.0000      -0.406712       -11.0672
  33   2.0000      -0.397691       -10.8217
  34   2.0000      -0.380241       -10.3469
  35   0.0000       0.138747         3.7755
  36   0.0000       0.153278         4.1709
  37   0.0000       0.159162         4.3310
  38   0.0000       0.166492         4.5305
  39   0.0000       0.180999         4.9252

MULLIKEN ATOMIC CHARGES
-----------------------
   0 C :   -0.432750
   1 C :    0.158358
   2 C :   -0.241206
   3 C :   -0.279422
   4 C :   -0.058193
   5 C :   -0.278493
   6 C :   -0.258306
   7 C :   -0.302224
   8 C :   -0.285675
   9 H :    0.127780
  10 H :    0.134391
  11 H :    0.129451
  12 H :    0.111352
  13 H :    0.120412
  14 H :    0.114085
  15 H :    0.124191
  16 H :    0.113517
  17 H :    0.127047
  18 H :    0.123924
  19 H :    0.125457
  20 H :    0.126988
  21 H :    0.124414
  22 H :    0.125449
  23 H :    0.124941
  24 H :    0.124508
Sum of atomic charges:   -0.0000000

LOEWDIN ATOMIC CHARGES
----------------------
   0 C :   -0.267639
   1 C :   -0.279212
   2 C :   -0.219859
   3 C :   -0.244260
   4 C :   -0.234771
   5 C :   -0.234081
   6 C :   -0.233420
   7 C :   -0.215290
   8 C :   -0.214176
   9 H :    0.127905
  10 H :    0.124018
  11 H :    0.126641
  12 H :    0.144653
  13 H :    0.143352
  14 H :    0.141121
  15 H :    0.142246
  16 H :    0.146295
  17 H :    0.128899
  18 H :    0.131250
  19 H :    0.131172
  20 H :    0.129279
  21 H :    0.132145
  22 H :    0.131411
  23 H :    0.131095
  24 H :    0.131227

  Mayer bond orders larger than 0.1
B(  0-C ,  1-C ) :   0.9137 B(  0-C ,  9-H ) :   0.9306 B(  0-C , 10-H ) :   0.9420
B(  0-C , 11-H ) :   0.9378 B(  1-C ,  2-C ) :   0.9007 B(  1-C ,  7-C ) :   0.8699
B(  1-C ,  8-C ) :   0.8713 B(  2-C ,  3-C ) :   0.9243 B(  2-C , 12-H ) :   0.9305
B(  2-C , 13-H ) :   0.9361 B(  3-C ,  4-C ) :   0.9167 B(  3-C , 14-H ) :   0.9272
B(  3-C , 15-H ) :   0.9350 B(  4-C ,  5-C ) :   0.8874 B(  4-C ,  6-C ) :   0.8915
B(  4-C , 16-H ) :   0.9308 B(  5-C ,  6-C ) :   0.9034 B(  5-C , 17-H ) :   0.9293
B(  5-C , 18-H ) :   0.9293 B(  6-C , 19-H ) :   0.9302 B(  6-C , 20-H ) :   0.9328
B(  7-C ,  8-C ) :   0.9086 B(  7-C , 21-H ) :   0.9265 B(  7-C , 22-H ) :   0.9279
B(  8-C , 23-H ) :   0.9309 B(  8-C , 24-H ) :   0.9236

MP2 TOTAL ENERGY:     -351.684002358 Eh
FINAL SINGLE POINT ENERGY      -351.684002358181

DIPOLE MOMENT
-------------
                                X             Y             Z
Electronic contribution:     -0.33744      -1.53400      -0.40554
Nuclear contribution   :      0.32693       1.54149       0.40262
                        -----------------------------------------
Total Dipole Moment    :     -0.01051       0.00749      -0.00293
                        -----------------------------------------
Magnitude (a.u.)       :      0.01324
Magnitude (Debye)      :      0.03364

                             ****ORCA TERMINATED NORMALLY****
TOTAL RUN TIME: 0 days 0 hours 18 minutes 54 seconds 42 msec
