                         Program Version 3.0.3 - RELEASE   -
|  1> ! RI-MP2 RIJK def2-TZVP def2-TZVP/C def2-TZVP/JK TIGHTSCF
|  2> % maxcore 2000
|  3> % mp2 density relaxed end
|  4> *xyz 0 1
|  5>  C       -0.4727369785     1.3986038578    -0.0275080673
|  6>  C       -0.0969427698    -0.0807943575    -0.0183916575
|  7>  C        1.1213712385    -0.4605197747    -0.9081379493
|  8>  C        2.0425738152    -0.5568579664     0.3613134491
|  9>  C        2.9278868924    -1.8012354432     0.4856658512
| 10>  C        2.8137903979     0.6553247164     0.5902766446
| 11>  C        3.4306213319     1.6611059646     0.8345629844
| 12>  C        0.7193341471    -0.5490883656     1.2289167010
| 13>  O        0.6842417393     0.1883462284     2.4144640002
| 14>  H        0.4055100644     2.0424399632     0.0822135094
| 15>  H       -0.9603314955     1.6643792993    -0.9712218982
| 16>  H       -1.1628133879     1.6279020649     0.7902253988
| 17>  H       -0.9930111400    -0.6818259168    -0.1993358987
| 18>  H        1.0165629586    -1.4353571823    -1.3911990451
| 19>  H        1.4236821368     0.2735898374    -1.6575409489
| 20>  H        3.7373656004    -1.7846506263    -0.2507388259
| 21>  H        3.3765961871    -1.8598543264     1.4819054527
| 22>  H        2.3330649026    -2.7053117840     0.3209433116
| 23>  H        3.9957606863     2.5414206109     1.0191537592
| 24>  H        0.4623045256    -1.5782094693     1.4982979890
| 25>  H        1.1949075878     0.9962639497     2.2729002295
| 26> *
| 27>
| 28>                          ****END OF INPUT****

CARTESIAN COORDINATES (ANGSTROEM)
---------------------------------
  C     -0.472737    1.398604   -0.027508
  C     -0.096943   -0.080794   -0.018392
  C      1.121371   -0.460520   -0.908138
  C      2.042574   -0.556858    0.361313
  C      2.927887   -1.801235    0.485666
  C      2.813790    0.655325    0.590277
  C      3.430621    1.661106    0.834563
  C      0.719334   -0.549088    1.228917
  O      0.684242    0.188346    2.414464
  H      0.405510    2.042440    0.082214
  H     -0.960331    1.664379   -0.971222
  H     -1.162813    1.627902    0.790225
  H     -0.993011   -0.681826   -0.199336
  H      1.016563   -1.435357   -1.391199
  H      1.423682    0.273590   -1.657541
  H      3.737366   -1.784651   -0.250739
  H      3.376596   -1.859854    1.481905
  H      2.333065   -2.705312    0.320943
  H      3.995761    2.541421    1.019154
  H      0.462305   -1.578209    1.498298
  H      1.194908    0.996264    2.272900

 Total Charge           Charge          ....    0
 Multiplicity           Mult            ....    1
 Number of Electrons    NEL             ....   68
 Basis Dimension        Dim             ....  351

ORBITAL ENERGIES
----------------

  NO   OCC          E(Eh)            E(eV)
   0   2.0000     -20.553442      -559.2876
   1   2.0000     -11.282950      -307.0247
   2   2.0000     -11.262048      -306.4559
   3   2.0000     -11.240725      -305.8757
   4   2.0000     -11.230653      -305.6016
   5   2.0000     -11.229866      -305.5802
   6   2.0000     -11.228539      -305.5441
   7   2.0000     -11.225516      -305.4618
   8   2.0000     -11.213254      -305.1281
   9   2.0000      -1.365654       -37.1613
  10   2.0000      -1.149570       -31.2814
  11   2.0000      -1.047841       -28.5132
  12   2.0000      -1.002481       -27.2789
  13   2.0000      -0.941376       -25.6162
  14   2.0000      -0.893644       -24.3173
  15   2.0000      -0.852081       -23.1863
  16   2.0000      -0.766958       -20.8700
  17   2.0000      -0.723921       -19.6989
  18   2.0000      -0.687441       -18.7062
  19   2.0000      -0.659472       -17.9451
  20   2.0000      -0.620636       -16.8884
  21   2.0000      -0.599290       -16.3075
  22   2.0000      -0.579009       -15.7556
  23   2.0000      -0.561715       -15.2850
  24   2.0000      -0.557800       -15.1785
  25   2.0000      -0.547199       -14.8900
  26   2.0000      -0.534955       -14.5569
  27   2.0000      -0.524479       -14.2718
  28   2.0000      -0.480353       -13.0711
  29   2.0000      -0.462693       -12.5905
  30   2.0000      -0.441832       -12.0229
  31   2.0000      -0.419816       -11.4238
  32   2.0000      -0.385065       -10.4781
  33   2.0000      -0.380628       -10.3574
  34   0.0000       0.134450         3.6586
  35   0.0000       0.146384         3.9833
  36   0.0000       0.153747         4.1837
  37   0.0000       0.161242         4.3876
  38   0.0000       0.170762         4.6467

MULLIKEN ATOMIC CHARGES
-----------------------
   0 C :   -0.478374
   1 C :    0.012915
   2 C :   -0.263714
   3 C :    0.130864
   4 C :   -0.410781
   5 C :   -0.163228
   6 C :   -0.170845
   7 C :   -0.010073
   8 O :   -0.446982
   9 H :    0.138356
  10 H :    0.133005
  11 H :    0.146514
  12 H :    0.099699
  13 H :    0.123836
  14 H :    0.127118
  15 H :    0.139873
  16 H :    0.145471
  17 H :    0.129820
  18 H :    0.189817
  19 H :    0.098173
  20 H :    0.328537
Sum of atomic charges:   -0.0000000

LOEWDIN ATOMIC CHARGES
----------------------
   0 C :   -0.299367
   1 C :   -0.235492
   2 C :   -0.160095
   3 C :   -0.248614
   4 C :   -0.255047
   5 C :   -0.080908
   6 C :   -0.101142
   7 C :   -0.264559
   8 O :    0.007547
   9 H :    0.126118
  10 H :    0.125245
  11 H :    0.128032
  12 H :    0.140088
  13 H :    0.136860
  14 H :    0.135904
  15 H :    0.130294
  16 H :    0.133201
  17 H :    0.125745
  18 H :    0.128295
  19 H :    0.145456
  20 H :    0.182440

  Mayer bond orders larger than 0.1
B(  0-C ,  1-C ) :   0.8782 B(  0-C ,  9-H ) :   0.9345 B(  0-C , 10-H ) :   0.9378
B(  0-C , 11-H ) :   0.9376 B(  1-C ,  2-C ) :   0.9150 B(  1-C ,  7-C ) :   0.8826
B(  1-C , 12-H ) :   0.9156 B(  2-C ,  3-C ) :   0.8439 B(  2-C , 13-H ) :   0.9104
B(  2-C , 14-H ) :   0.9200 B(  3-C ,  4-C ) :   0.8931 B(  3-C ,  5-C ) :   1.2129
B(  3-C ,  6-C ) :  -0.1023 B(  3-C ,  7-C ) :   0.8258 B(  4-C , 15-H ) :   0.9380
B(  4-C , 16-H ) :   0.9352 B(  4-C , 17-H ) :   0.9274 B(  5-C ,  6-C ) :   2.5404
B(  6-C , 18-H ) :   0.8959 B(  7-C ,  8-O ) :   1.0462 B(  7-C , 19-H ) :   0.9291
B(  8-O , 20-H ) :   0.8206

MP2 TOTAL ENERGY:     -386.374908822 Eh
FINAL SINGLE POINT ENERGY      -386.374908821575

DIPOLE MOMENT
-------------
                                X             Y             Z
Electronic contribution:      2.23211       1.35908       3.15431
Nuclear contribution   :     -2.04139      -1.32271      -3.71131
                        -----------------------------------------
Total Dipole Moment    :      0.19072       0.03637      -0.55700
                        -----------------------------------------
Magnitude (a.u.)       :      0.58987
Magnitude (Debye)      :      1.49934

                             ****ORCA TERMINATED NORMALLY****
TOTAL RUN TIME: 0 days 0 hours 22 minutes 27 seconds 118 msec
