                         Program Version 3.0.3 - RELEASE   -
|  1> ! RI-MP2 RIJK def2-TZVP def2-TZVP/C def2-TZVP/JK TIGHTSCF
|  2> % maxcore 2000
|  3> % mp2 density relaxed end
|  4> *xyz 0 1
|  5>  C        0.0341545046     1.4919969341    -0.1119616527
|  6>  C        0.0371231445    -0.0017305436    -0.0124916016
|  7>  O        0.4380287950    -0.6526459111    -1.2232973155
|  8>  C        0.3678112309    -1.9972799555    -0.9049551501
|  9>  N        0.6332633091    -2.9620725744    -1.6677835176
| 10>  C       -0.0860294074    -2.0091471886     0.5202769641
| 11>  C        0.6090193392    -0.7895384243     1.2111436092
| 12>  O       -0.5905411841    -0.4799065321     1.9922397880
| 13>  C       -1.1032124101    -0.8292910853     0.6655845646
| 14>  H        1.0331090308     1.8655016137    -0.3546286293
| 15>  H       -0.6548176723     1.8262917910    -0.8929002006
| 16>  H       -0.2811316823     1.9106822422     0.8462618605
| 17>  H        0.9191095612    -2.6247698390    -2.5894796276
| 18>  H       -0.2300316652    -2.9498458761     1.0407708440
| 19>  H        1.5795505652    -0.7358689564     1.7038663618
| 20>  H       -2.1811534192    -0.8231834945     0.5056080227
| 21> *
| 22>
| 23>                          ****END OF INPUT****

CARTESIAN COORDINATES (ANGSTROEM)
---------------------------------
  C      0.034155    1.491997   -0.111962
  C      0.037123   -0.001731   -0.012492
  O      0.438029   -0.652646   -1.223297
  C      0.367811   -1.997280   -0.904955
  N      0.633263   -2.962073   -1.667784
  C     -0.086029   -2.009147    0.520277
  C      0.609019   -0.789538    1.211144
  O     -0.590541   -0.479907    1.992240
  C     -1.103212   -0.829291    0.665585
  H      1.033109    1.865502   -0.354629
  H     -0.654818    1.826292   -0.892900
  H     -0.281132    1.910682    0.846262
  H      0.919110   -2.624770   -2.589480
  H     -0.230032   -2.949846    1.040771
  H      1.579551   -0.735869    1.703866
  H     -2.181153   -0.823183    0.505608

 Total Charge           Charge          ....    0
 Multiplicity           Mult            ....    1
 Number of Electrons    NEL             ....   66
 Basis Dimension        Dim             ....  321

ORBITAL ENERGIES
----------------

  NO   OCC          E(Eh)            E(eV)
   0   2.0000     -20.603598      -560.6524
   1   2.0000     -20.574792      -559.8686
   2   2.0000     -15.546239      -423.0347
   3   2.0000     -11.346166      -308.7449
   4   2.0000     -11.326367      -308.2061
   5   2.0000     -11.322677      -308.1057
   6   2.0000     -11.322648      -308.1049
   7   2.0000     -11.269154      -306.6493
   8   2.0000     -11.238369      -305.8116
   9   2.0000      -1.461632       -39.7730
  10   2.0000      -1.407512       -38.3003
  11   2.0000      -1.207408       -32.8552
  12   2.0000      -1.104889       -30.0656
  13   2.0000      -1.036064       -28.1927
  14   2.0000      -0.915497       -24.9120
  15   2.0000      -0.900400       -24.5011
  16   2.0000      -0.795378       -21.6433
  17   2.0000      -0.780027       -21.2256
  18   2.0000      -0.729877       -19.8610
  19   2.0000      -0.688387       -18.7320
  20   2.0000      -0.663241       -18.0477
  21   2.0000      -0.651587       -17.7306
  22   2.0000      -0.588620       -16.0172
  23   2.0000      -0.584459       -15.9039
  24   2.0000      -0.562284       -15.3005
  25   2.0000      -0.561168       -15.2701
  26   2.0000      -0.544136       -14.8067
  27   2.0000      -0.528777       -14.3888
  28   2.0000      -0.496413       -13.5081
  29   2.0000      -0.460669       -12.5354
  30   2.0000      -0.453191       -12.3320
  31   2.0000      -0.419016       -11.4020
  32   2.0000      -0.400036       -10.8855
  33   0.0000       0.139814         3.8045
  34   0.0000       0.149450         4.0667
  35   0.0000       0.157655         4.2900
  36   0.0000       0.168296         4.5796
  37   0.0000       0.181179         4.9301

MULLIKEN ATOMIC CHARGES
-----------------------
   0 C :   -0.452105
   1 C :    0.239331
   2 O :   -0.271534
   3 C :    0.072951
   4 N :   -0.352507
   5 C :   -0.044840
   6 C :   -0.005354
   7 O :   -0.319607
   8 C :   -0.005365
   9 H :    0.146655
  10 H :    0.146661
  11 H :    0.165569
  12 H :    0.228292
  13 H :    0.154098
  14 H :    0.148878
  15 H :    0.148876
Sum of atomic charges:    0.0000000

LOEWDIN ATOMIC CHARGES
----------------------
   0 C :   -0.261288
   1 C :   -0.281639
   2 O :    0.259634
   3 C :   -0.374031
   4 N :   -0.042073
   5 C :   -0.123328
   6 C :   -0.163199
   7 O :    0.143965
   8 C :   -0.163203
   9 H :    0.135696
  10 H :    0.135697
  11 H :    0.144124
  12 H :    0.172511
  13 H :    0.154194
  14 H :    0.131470
  15 H :    0.131470

  Mayer bond orders larger than 0.1
B(  0-C ,  1-C ) :   0.8706 B(  0-C ,  9-H ) :   0.9339 B(  0-C , 10-H ) :   0.9339
B(  0-C , 11-H ) :   0.9377 B(  1-C ,  2-O ) :   0.9163 B(  1-C ,  6-C ) :   0.8904
B(  1-C ,  8-C ) :   0.8904 B(  2-O ,  3-C ) :   1.0546 B(  3-C ,  4-N ) :   2.0709
B(  3-C ,  5-C ) :   0.9520 B(  4-N , 12-H ) :   0.8513 B(  5-C ,  6-C ) :   0.8891
B(  5-C ,  8-C ) :   0.8891 B(  5-C , 13-H ) :   0.9160 B(  6-C ,  7-O ) :   0.9130
B(  6-C , 14-H ) :   0.8850 B(  7-O ,  8-C ) :   0.9130 B(  8-C , 15-H ) :   0.8850

MP2 TOTAL ENERGY:     -437.113553511 Eh
FINAL SINGLE POINT ENERGY      -437.113553510781

DIPOLE MOMENT
-------------
                                X             Y             Z
Electronic contribution:      0.07293      -3.62809       0.03532
Nuclear contribution   :     -0.08521       4.37773      -0.05139
                        -----------------------------------------
Total Dipole Moment    :     -0.01228       0.74964      -0.01608
                        -----------------------------------------
Magnitude (a.u.)       :      0.74991
Magnitude (Debye)      :      1.90613

                             ****ORCA TERMINATED NORMALLY****
TOTAL RUN TIME: 0 days 0 hours 15 minutes 51 seconds 710 msec
