                         Program Version 3.0.3 - RELEASE   -
|  1> ! RI-MP2 RIJK def2-TZVP def2-TZVP/C def2-TZVP/JK TIGHTSCF
|  2> % maxcore 2000
|  3> % mp2 density relaxed end
|  4> *xyz 0 1
|  5>  O       -0.0303739786    -0.0120765085    -0.2195217439
|  6>  C        0.0303775300     1.1970778474    -0.1285825272
|  7>  N        1.1732236224     1.9103923452     0.0205821892
|  8>  C        2.5062587948     1.3974230632     0.1006732756
|  9>  C        3.4766091077     2.3982878124    -0.5076358087
| 10>  C        3.3442461814     2.2899315149     1.0034423773
| 11>  C        2.5514613846     3.6178057122     1.0293509780
| 12>  C        2.6837655870     3.7262821393    -0.4818571548
| 13>  C        1.3536461649     3.3240043611     0.1379561652
| 14>  H       -0.8596045955     1.8563335161    -0.1588845480
| 15>  H        2.6336616921     0.3276380534     0.0352105571
| 16>  H        4.2937854500     2.1367758004    -1.1642783274
| 17>  H        4.0386567696     1.9275440939     1.7476263437
| 18>  H        2.5745168310     4.3805297004     1.7945123586
| 19>  H        2.8297665780     4.5892344856    -1.1156959118
| 20>  H        0.4805736607     3.9612619531     0.1072838069
| 21> *
| 22>
| 23>                          ****END OF INPUT****

CARTESIAN COORDINATES (ANGSTROEM)
---------------------------------
  O     -0.030374   -0.012077   -0.219522
  C      0.030378    1.197078   -0.128583
  N      1.173224    1.910392    0.020582
  C      2.506259    1.397423    0.100673
  C      3.476609    2.398288   -0.507636
  C      3.344246    2.289932    1.003442
  C      2.551461    3.617806    1.029351
  C      2.683766    3.726282   -0.481857
  C      1.353646    3.324004    0.137956
  H     -0.859605    1.856334   -0.158885
  H      2.633662    0.327638    0.035211
  H      4.293785    2.136776   -1.164278
  H      4.038657    1.927544    1.747626
  H      2.574517    4.380530    1.794512
  H      2.829767    4.589234   -1.115696
  H      0.480574    3.961262    0.107284

 Total Charge           Charge          ....    0
 Multiplicity           Mult            ....    1
 Number of Electrons    NEL             ....   64
 Basis Dimension        Dim             ....  321

ORBITAL ENERGIES
----------------

  NO   OCC          E(Eh)            E(eV)
   0   2.0000     -20.515652      -558.2593
   1   2.0000     -15.593570      -424.3226
   2   2.0000     -11.347749      -308.7879
   3   2.0000     -11.289140      -307.1931
   4   2.0000     -11.279294      -306.9252
   5   2.0000     -11.251874      -306.1791
   6   2.0000     -11.251252      -306.1621
   7   2.0000     -11.249326      -306.1097
   8   2.0000     -11.248702      -306.0927
   9   2.0000      -1.380915       -37.5766
  10   2.0000      -1.316080       -35.8124
  11   2.0000      -1.176864       -32.0241
  12   2.0000      -1.076567       -29.2949
  13   2.0000      -0.907140       -24.6845
  14   2.0000      -0.893851       -24.3229
  15   2.0000      -0.832693       -22.6587
  16   2.0000      -0.778846       -21.1935
  17   2.0000      -0.737832       -20.0774
  18   2.0000      -0.732792       -19.9403
  19   2.0000      -0.677990       -18.4490
  20   2.0000      -0.634703       -17.2712
  21   2.0000      -0.620357       -16.8808
  22   2.0000      -0.616818       -16.7845
  23   2.0000      -0.577991       -15.7279
  24   2.0000      -0.560048       -15.2397
  25   2.0000      -0.525314       -14.2945
  26   2.0000      -0.501713       -13.6523
  27   2.0000      -0.473308       -12.8794
  28   2.0000      -0.425406       -11.5759
  29   2.0000      -0.416948       -11.3457
  30   2.0000      -0.364365        -9.9149
  31   2.0000      -0.348912        -9.4944
  32   0.0000       0.143696         3.9102
  33   0.0000       0.160817         4.3761
  34   0.0000       0.161569         4.3965
  35   0.0000       0.170618         4.6427
  36   0.0000       0.174026         4.7355

MULLIKEN ATOMIC CHARGES
-----------------------
   0 O :   -0.365328
   1 C :    0.132175
   2 N :    0.006665
   3 C :   -0.145834
   4 C :   -0.115322
   5 C :   -0.115500
   6 C :   -0.123828
   7 C :   -0.123838
   8 C :   -0.149285
   9 H :    0.076617
  10 H :    0.164373
  11 H :    0.150024
  12 H :    0.150006
  13 H :    0.150062
  14 H :    0.150081
  15 H :    0.158932
Sum of atomic charges:    0.0000000

LOEWDIN ATOMIC CHARGES
----------------------
   0 O :    0.053349
   1 C :   -0.410458
   2 N :    0.237548
   3 C :   -0.165006
   4 C :   -0.128518
   5 C :   -0.128543
   6 C :   -0.130380
   7 C :   -0.130351
   8 C :   -0.182960
   9 H :    0.113080
  10 H :    0.159271
  11 H :    0.140603
  12 H :    0.140609
  13 H :    0.139719
  14 H :    0.139716
  15 H :    0.152321

  Mayer bond orders larger than 0.1
B(  0-O ,  1-C ) :   1.9009 B(  1-C ,  2-N ) :   1.1143 B(  1-C ,  9-H ) :   0.9341
B(  2-N ,  3-C ) :   0.8963 B(  2-N ,  8-C ) :   0.9763 B(  3-C ,  4-C ) :   0.8576
B(  3-C ,  5-C ) :   0.8577 B(  3-C , 10-H ) :   0.9484 B(  4-C ,  5-C ) :   0.8710
B(  4-C ,  7-C ) :   0.9346 B(  4-C , 11-H ) :   0.9308 B(  5-C ,  6-C ) :   0.9346
B(  5-C , 12-H ) :   0.9308 B(  6-C ,  7-C ) :   0.8552 B(  6-C ,  8-C ) :   0.8739
B(  6-C , 13-H ) :   0.9238 B(  7-C ,  8-C ) :   0.8740 B(  7-C , 14-H ) :   0.9238
B(  8-C , 15-H ) :   0.9147

MP2 TOTAL ENERGY:     -400.014235571 Eh
FINAL SINGLE POINT ENERGY      -400.014235570818

DIPOLE MOMENT
-------------
                                X             Y             Z
Electronic contribution:     -2.05321      -2.31485      -0.34536
Nuclear contribution   :      2.84945       3.78327       0.51933
                        -----------------------------------------
Total Dipole Moment    :      0.79625       1.46842       0.17397
                        -----------------------------------------
Magnitude (a.u.)       :      1.67945
Magnitude (Debye)      :      4.26881

                             ****ORCA TERMINATED NORMALLY****
TOTAL RUN TIME: 0 days 0 hours 16 minutes 15 seconds 838 msec
