                         Program Version 3.0.3 - RELEASE   -
|  1> ! RI-MP2 RIJK def2-TZVP def2-TZVP/C def2-TZVP/JK TIGHTSCF
|  2> % maxcore 2000
|  3> % mp2 density relaxed end
|  4> *xyz 0 1
|  5>  C        0.2903719333    -0.1912283455    -1.1144453157
|  6>  C        0.1572659820     0.5286467811    -0.1612087035
|  7>  C        0.0527127856     1.4081030043     1.0047448373
|  8>  N        1.2651608544     2.1973190319     1.2833020442
|  9>  C        1.5771925953     3.2311868881     0.4180524345
| 10>  C        2.7140999556     3.6831590013    -0.1755512673
| 11>  N        2.4282850732     4.8693739089    -0.8484926894
| 12>  C        1.1713690027     5.0596093986    -0.6495897577
| 13>  O        0.5723509446     4.1059472091     0.1245795838
| 14>  H        0.3953882966    -0.8229800384    -1.9617996456
| 15>  H       -0.7760968190     2.1099761435     0.8783020514
| 16>  H       -0.1687344198     0.8181969649     1.9002045230
| 17>  H        2.0711064108     1.6051215990     1.4371230415
| 18>  H        3.7009011874     3.2504761345    -0.1685439130
| 19>  H        0.5340409773     5.8479125184    -1.0154442936
| 20> *
| 21>
| 22>                          ****END OF INPUT****

CARTESIAN COORDINATES (ANGSTROEM)
---------------------------------
  C      0.290372   -0.191228   -1.114445
  C      0.157266    0.528647   -0.161209
  C      0.052713    1.408103    1.004745
  N      1.265161    2.197319    1.283302
  C      1.577193    3.231187    0.418052
  C      2.714100    3.683159   -0.175551
  N      2.428285    4.869374   -0.848493
  C      1.171369    5.059609   -0.649590
  O      0.572351    4.105947    0.124580
  H      0.395388   -0.822980   -1.961800
  H     -0.776097    2.109976    0.878302
  H     -0.168734    0.818197    1.900205
  H      2.071106    1.605122    1.437123
  H      3.700901    3.250476   -0.168544
  H      0.534041    5.847913   -1.015444

 Total Charge           Charge          ....    0
 Multiplicity           Mult            ....    1
 Number of Electrons    NEL             ....   64
 Basis Dimension        Dim             ....  315

ORBITAL ENERGIES
----------------

  NO   OCC          E(Eh)            E(eV)
   0   2.0000     -20.636369      -561.5441
   1   2.0000     -15.593073      -424.3091
   2   2.0000     -15.564616      -423.5347
   3   2.0000     -11.333440      -308.3986
   4   2.0000     -11.324428      -308.1534
   5   2.0000     -11.302951      -307.5689
   6   2.0000     -11.245153      -305.9962
   7   2.0000     -11.244203      -305.9703
   8   2.0000     -11.236557      -305.7623
   9   2.0000      -1.488456       -40.5030
  10   2.0000      -1.257835       -34.2274
  11   2.0000      -1.227058       -33.3899
  12   2.0000      -1.065061       -28.9818
  13   2.0000      -1.012605       -27.5544
  14   2.0000      -0.946648       -25.7596
  15   2.0000      -0.851503       -23.1706
  16   2.0000      -0.802141       -21.8274
  17   2.0000      -0.753244       -20.4968
  18   2.0000      -0.739747       -20.1295
  19   2.0000      -0.675711       -18.3870
  20   2.0000      -0.675100       -18.3704
  21   2.0000      -0.662463       -18.0265
  22   2.0000      -0.630924       -17.1683
  23   2.0000      -0.593314       -16.1449
  24   2.0000      -0.584529       -15.9058
  25   2.0000      -0.574896       -15.6437
  26   2.0000      -0.483898       -13.1675
  27   2.0000      -0.453919       -12.3518
  28   2.0000      -0.453070       -12.3287
  29   2.0000      -0.406826       -11.0703
  30   2.0000      -0.400823       -10.9070
  31   2.0000      -0.308569        -8.3966
  32   0.0000       0.127354         3.4655
  33   0.0000       0.145972         3.9721
  34   0.0000       0.162547         4.4231
  35   0.0000       0.165208         4.4955
  36   0.0000       0.168234         4.5779

MULLIKEN ATOMIC CHARGES
-----------------------
   0 C :   -0.179405
   1 C :   -0.049779
   2 C :   -0.190180
   3 N :   -0.316981
   4 C :    0.241887
   5 C :   -0.174984
   6 N :   -0.264049
   7 C :    0.096005
   8 O :   -0.230456
   9 H :    0.194568
  10 H :    0.172063
  11 H :    0.166492
  12 H :    0.234323
  13 H :    0.142311
  14 H :    0.158186
Sum of atomic charges:    0.0000000

LOEWDIN ATOMIC CHARGES
----------------------
   0 C :   -0.090053
   1 C :   -0.119022
   2 C :   -0.270636
   3 N :    0.069572
   4 C :   -0.344110
   5 C :   -0.253383
   6 N :    0.097432
   7 C :   -0.329529
   8 O :    0.337792
   9 H :    0.128834
  10 H :    0.158410
  11 H :    0.153539
  12 H :    0.194273
  13 H :    0.135589
  14 H :    0.131292

  Mayer bond orders larger than 0.1
B(  0-C ,  1-C ) :   2.6751 B(  0-C ,  9-H ) :   0.9091 B(  1-C ,  2-C ) :   0.9526
B(  2-C ,  3-N ) :   0.9014 B(  2-C , 10-H ) :   0.9450 B(  2-C , 11-H ) :   0.9509
B(  3-N ,  4-C ) :   1.1193 B(  3-N , 12-H ) :   0.8772 B(  4-C ,  5-C ) :   1.5545
B(  4-C ,  8-O ) :   1.0177 B(  5-C ,  6-N ) :   1.1769 B(  5-C , 13-H ) :   0.9325
B(  6-N ,  7-C ) :   1.6743 B(  7-C ,  8-O ) :   1.0373 B(  7-C , 14-H ) :   0.9259

MP2 TOTAL ENERGY:     -416.068065186 Eh
FINAL SINGLE POINT ENERGY      -416.068065185503

DIPOLE MOMENT
-------------
                                X             Y             Z
Electronic contribution:      0.57930       2.84001      -0.61484
Nuclear contribution   :     -0.97493      -3.73634       0.96078
                        -----------------------------------------
Total Dipole Moment    :     -0.39563      -0.89633       0.34594
                        -----------------------------------------
Magnitude (a.u.)       :      1.03904
Magnitude (Debye)      :      2.64103

                             ****ORCA TERMINATED NORMALLY****
TOTAL RUN TIME: 0 days 0 hours 13 minutes 3 seconds 412 msec
