                         Program Version 3.0.3 - RELEASE   -
|  1> ! RI-MP2 RIJK def2-TZVP def2-TZVP/C def2-TZVP/JK TIGHTSCF
|  2> % maxcore 2000
|  3> % mp2 density relaxed end
|  4> *xyz 0 1
|  5>  O        0.0038242652     1.3579254542     0.0274220933
|  6>  C        0.0284722278    -0.0474841640     0.0049468873
|  7>  C        0.6292947351    -0.7000705272    -1.2691003931
|  8>  C        0.2718208652    -2.1838901244    -1.0464940535
|  9>  O        1.1607666379    -2.7531976967    -0.0561296075
| 10>  C        0.3051901274    -2.2156746060     0.9803319955
| 11>  C        0.6705690290    -0.7393935078     1.2374574593
| 12>  C       -0.8973452413    -2.1168297218    -0.0122594974
| 13>  C       -1.3817330613    -0.6708738068     0.0183864858
| 14>  H        0.9130254748     1.6746075273     0.0162763340
| 15>  H        0.1376436410    -0.2893725880    -2.1578056933
| 16>  H        1.7107118541    -0.5675812621    -1.3691529402
| 17>  H        0.2089332171    -2.7976016872    -1.9471944732
| 18>  H        0.2716555109    -2.8573764003     1.8629144744
| 19>  H        1.7547541672    -0.6095312096     1.3059811703
| 20>  H        0.2086358558    -0.3569899328     2.1542836215
| 21>  H       -1.6176192622    -2.9315201639    -0.0131749363
| 22>  H       -1.9428333511    -0.4142788851     0.9217393178
| 23>  H       -1.9721112029    -0.3863692476    -0.8575307346
| 24> *
| 25>
| 26>                          ****END OF INPUT****

CARTESIAN COORDINATES (ANGSTROEM)
---------------------------------
  O      0.003824    1.357925    0.027422
  C      0.028472   -0.047484    0.004947
  C      0.629295   -0.700071   -1.269100
  C      0.271821   -2.183890   -1.046494
  O      1.160767   -2.753198   -0.056130
  C      0.305190   -2.215675    0.980332
  C      0.670569   -0.739394    1.237457
  C     -0.897345   -2.116830   -0.012259
  C     -1.381733   -0.670874    0.018386
  H      0.913025    1.674608    0.016276
  H      0.137644   -0.289373   -2.157806
  H      1.710712   -0.567581   -1.369153
  H      0.208933   -2.797602   -1.947194
  H      0.271656   -2.857376    1.862914
  H      1.754754   -0.609531    1.305981
  H      0.208636   -0.356990    2.154284
  H     -1.617619   -2.931520   -0.013175
  H     -1.942833   -0.414279    0.921739
  H     -1.972111   -0.386369   -0.857531

 Total Charge           Charge          ....    0
 Multiplicity           Mult            ....    1
 Number of Electrons    NEL             ....   68
 Basis Dimension        Dim             ....  339

ORBITAL ENERGIES
----------------

  NO   OCC          E(Eh)            E(eV)
   0   2.0000     -20.560833      -559.4887
   1   2.0000     -20.544598      -559.0469
   2   2.0000     -11.288817      -307.1843
   3   2.0000     -11.284247      -307.0600
   4   2.0000     -11.284237      -307.0597
   5   2.0000     -11.234552      -305.7077
   6   2.0000     -11.223614      -305.4101
   7   2.0000     -11.223590      -305.4094
   8   2.0000     -11.222903      -305.3907
   9   2.0000      -1.385839       -37.7106
  10   2.0000      -1.368498       -37.2387
  11   2.0000      -1.138406       -30.9776
  12   2.0000      -1.011950       -27.5366
  13   2.0000      -0.976336       -26.5675
  14   2.0000      -0.926433       -25.2095
  15   2.0000      -0.837513       -22.7899
  16   2.0000      -0.779191       -21.2029
  17   2.0000      -0.735212       -20.0061
  18   2.0000      -0.719245       -19.5716
  19   2.0000      -0.654898       -17.8207
  20   2.0000      -0.644864       -17.5477
  21   2.0000      -0.623945       -16.9784
  22   2.0000      -0.608509       -16.5584
  23   2.0000      -0.588005       -16.0004
  24   2.0000      -0.559485       -15.2244
  25   2.0000      -0.548598       -14.9281
  26   2.0000      -0.525369       -14.2960
  27   2.0000      -0.520174       -14.1546
  28   2.0000      -0.508557       -13.8386
  29   2.0000      -0.462464       -12.5843
  30   2.0000      -0.442536       -12.0420
  31   2.0000      -0.441927       -12.0254
  32   2.0000      -0.413791       -11.2598
  33   2.0000      -0.401361       -10.9216
  34   0.0000       0.131043         3.5659
  35   0.0000       0.146969         3.9992
  36   0.0000       0.171100         4.6559
  37   0.0000       0.179629         4.8879
  38   0.0000       0.184056         5.0084

MULLIKEN ATOMIC CHARGES
-----------------------
   0 O :   -0.453884
   1 C :    0.266668
   2 C :   -0.312567
   3 C :    0.067421
   4 O :   -0.330558
   5 C :    0.067367
   6 C :   -0.312316
   7 C :   -0.151234
   8 C :   -0.245647
   9 H :    0.320069
  10 H :    0.120518
  11 H :    0.119413
  12 H :    0.117976
  13 H :    0.117976
  14 H :    0.119378
  15 H :    0.120490
  16 H :    0.126807
  17 H :    0.121072
  18 H :    0.121051
Sum of atomic charges:    0.0000000

LOEWDIN ATOMIC CHARGES
----------------------
   0 O :    0.016434
   1 C :   -0.370784
   2 C :   -0.200337
   3 C :   -0.234395
   4 O :    0.153018
   5 C :   -0.234388
   6 C :   -0.200315
   7 C :   -0.171993
   8 C :   -0.188900
   9 H :    0.179106
  10 H :    0.143414
  11 H :    0.139427
  12 H :    0.130133
  13 H :    0.130133
  14 H :    0.139426
  15 H :    0.143416
  16 H :    0.141032
  17 H :    0.142788
  18 H :    0.142785

  Mayer bond orders larger than 0.1
B(  0-O ,  1-C ) :   1.0256 B(  0-O ,  9-H ) :   0.8408 B(  1-C ,  2-C ) :   0.9064
B(  1-C ,  6-C ) :   0.9063 B(  1-C ,  8-C ) :   0.8851 B(  2-C ,  3-C ) :   0.9162
B(  2-C , 10-H ) :   0.9167 B(  2-C , 11-H ) :   0.9126 B(  3-C ,  4-O ) :   0.9329
B(  3-C ,  7-C ) :   0.9171 B(  3-C , 12-H ) :   0.9172 B(  4-O ,  5-C ) :   0.9329
B(  5-C ,  6-C ) :   0.9162 B(  5-C ,  7-C ) :   0.9171 B(  5-C , 13-H ) :   0.9172
B(  6-C , 14-H ) :   0.9126 B(  6-C , 15-H ) :   0.9167 B(  7-C ,  8-C ) :   0.9890
B(  7-C , 16-H ) :   0.9248 B(  8-C , 17-H ) :   0.9160 B(  8-C , 18-H ) :   0.9160

MP2 TOTAL ENERGY:     -422.338034458 Eh
FINAL SINGLE POINT ENERGY      -422.338034458425

DIPOLE MOMENT
-------------
                                X             Y             Z
Electronic contribution:      1.20908      -1.08492      -0.03658
Nuclear contribution   :     -1.32026       1.18774       0.03935
                        -----------------------------------------
Total Dipole Moment    :     -0.11119       0.10283       0.00277
                        -----------------------------------------
Magnitude (a.u.)       :      0.15147
Magnitude (Debye)      :      0.38501

                             ****ORCA TERMINATED NORMALLY****
TOTAL RUN TIME: 0 days 0 hours 18 minutes 49 seconds 900 msec
