                         Program Version 3.0.3 - RELEASE   -
|  1> ! RI-MP2 RIJK def2-TZVP def2-TZVP/C def2-TZVP/JK TIGHTSCF
|  2> % maxcore 2000
|  3> % mp2 density relaxed end
|  4> *xyz 0 1
|  5>  C       -0.2656033738     1.3992735937    -0.1713961444
|  6>  O       -0.0103611073     0.0159596032    -0.0637453727
|  7>  C        0.7252728929    -0.6231910826    -1.1236964345
|  8>  C        0.0209705937    -0.4647512406    -2.4773763504
|  9>  C        2.1685548209    -0.1061236113    -1.1841734054
| 10>  C        0.7428736081    -2.0982601090    -0.6782073251
| 11>  N       -0.5914480488    -2.6172158444    -0.4548992003
| 12>  C       -1.0751066079    -3.7321058167    -1.0591479819
| 13>  O       -0.4563307015    -4.4463017632    -1.8214149055
| 14>  H        0.6545652235     1.9947731954    -0.2443298052
| 15>  H       -0.9085517769     1.6459847696    -1.0270462219
| 16>  H       -0.7870168907     1.6887525579     0.7448087679
| 17>  H        0.0249323471     0.5755764806    -2.8140967080
| 18>  H        0.5326581759    -1.0599056207    -3.2391967410
| 19>  H       -1.0149847895    -0.8073344951    -2.4174083621
| 20>  H        2.6346854326    -0.1568941456    -0.1958374234
| 21>  H        2.7599514018    -0.7123194264    -1.8773361102
| 22>  H        2.2141335228     0.9283105793    -1.5354550677
| 23>  H        1.2109902303    -2.7286256692    -1.4363185340
| 24>  H        1.3319347451    -2.1717012058     0.2444598495
| 25>  H       -1.1990859498    -2.0638818805     0.1284247704
| 26>  H       -2.1267223187    -3.9292607888    -0.7689989842
| 27> *
| 28>
| 29>                          ****END OF INPUT****

CARTESIAN COORDINATES (ANGSTROEM)
---------------------------------
  C     -0.265603    1.399274   -0.171396
  O     -0.010361    0.015960   -0.063745
  C      0.725273   -0.623191   -1.123696
  C      0.020971   -0.464751   -2.477376
  C      2.168555   -0.106124   -1.184173
  C      0.742874   -2.098260   -0.678207
  N     -0.591448   -2.617216   -0.454899
  C     -1.075107   -3.732106   -1.059148
  O     -0.456331   -4.446302   -1.821415
  H      0.654565    1.994773   -0.244330
  H     -0.908552    1.645985   -1.027046
  H     -0.787017    1.688753    0.744809
  H      0.024932    0.575576   -2.814097
  H      0.532658   -1.059906   -3.239197
  H     -1.014985   -0.807334   -2.417408
  H      2.634685   -0.156894   -0.195837
  H      2.759951   -0.712319   -1.877336
  H      2.214134    0.928311   -1.535455
  H      1.210990   -2.728626   -1.436319
  H      1.331935   -2.171701    0.244460
  H     -1.199086   -2.063882    0.128425
  H     -2.126722   -3.929261   -0.768999

 Total Charge           Charge          ....    0
 Multiplicity           Mult            ....    1
 Number of Electrons    NEL             ....   72
 Basis Dimension        Dim             ....  357

ORBITAL ENERGIES
----------------

  NO   OCC          E(Eh)            E(eV)
   0   2.0000     -20.561275      -559.5007
   1   2.0000     -20.514903      -558.2389
   2   2.0000     -15.580122      -423.9567
   3   2.0000     -11.342461      -308.6441
   4   2.0000     -11.297035      -307.4079
   5   2.0000     -11.277395      -306.8735
   6   2.0000     -11.259768      -306.3939
   7   2.0000     -11.224080      -305.4227
   8   2.0000     -11.220640      -305.3291
   9   2.0000      -1.381661       -37.5969
  10   2.0000      -1.374117       -37.3916
  11   2.0000      -1.229406       -33.4538
  12   2.0000      -1.077176       -29.3114
  13   2.0000      -0.958486       -26.0817
  14   2.0000      -0.948201       -25.8019
  15   2.0000      -0.927779       -25.2461
  16   2.0000      -0.808027       -21.9875
  17   2.0000      -0.772403       -21.0182
  18   2.0000      -0.728048       -19.8112
  19   2.0000      -0.672191       -18.2913
  20   2.0000      -0.658830       -17.9277
  21   2.0000      -0.646079       -17.5807
  22   2.0000      -0.632327       -17.2065
  23   2.0000      -0.610953       -16.6249
  24   2.0000      -0.586998       -15.9730
  25   2.0000      -0.565537       -15.3890
  26   2.0000      -0.558761       -15.2047
  27   2.0000      -0.555561       -15.1176
  28   2.0000      -0.540633       -14.7114
  29   2.0000      -0.528207       -14.3732
  30   2.0000      -0.504411       -13.7257
  31   2.0000      -0.501615       -13.6496
  32   2.0000      -0.466536       -12.6951
  33   2.0000      -0.428447       -11.6586
  34   2.0000      -0.425092       -11.5673
  35   2.0000      -0.386068       -10.5054
  36   0.0000       0.127000         3.4558
  37   0.0000       0.150498         4.0953
  38   0.0000       0.161777         4.4022
  39   0.0000       0.171580         4.6689
  40   0.0000       0.179189         4.8760

MULLIKEN ATOMIC CHARGES
-----------------------
   0 C :   -0.233443
   1 O :   -0.333510
   2 C :    0.179409
   3 C :   -0.430065
   4 C :   -0.431282
   5 C :   -0.081401
   6 N :   -0.323768
   7 C :    0.190740
   8 O :   -0.376445
   9 H :    0.117242
  10 H :    0.121764
  11 H :    0.143897
  12 H :    0.138979
  13 H :    0.144783
  14 H :    0.140002
  15 H :    0.142884
  16 H :    0.140036
  17 H :    0.137180
  18 H :    0.157286
  19 H :    0.129554
  20 H :    0.248635
  21 H :    0.077522
Sum of atomic charges:   -0.0000000

LOEWDIN ATOMIC CHARGES
----------------------
   0 C :   -0.357727
   1 O :    0.158300
   2 C :   -0.402977
   3 C :   -0.272207
   4 C :   -0.272856
   5 C :   -0.236343
   6 N :    0.093551
   7 C :   -0.444516
   8 O :    0.045684
   9 H :    0.103863
  10 H :    0.103218
  11 H :    0.114936
  12 H :    0.124944
  13 H :    0.135573
  14 H :    0.129425
  15 H :    0.130118
  16 H :    0.133429
  17 H :    0.125335
  18 H :    0.152295
  19 H :    0.139831
  20 H :    0.187583
  21 H :    0.108541

  Mayer bond orders larger than 0.1
B(  0-C ,  1-O ) :   0.9152 B(  0-C ,  9-H ) :   0.9327 B(  0-C , 10-H ) :   0.9344
B(  0-C , 11-H ) :   0.9409 B(  1-O ,  2-C ) :   0.9121 B(  2-C ,  3-C ) :   0.9239
B(  2-C ,  4-C ) :   0.9228 B(  2-C ,  5-C ) :   0.9156 B(  3-C , 12-H ) :   0.9315
B(  3-C , 13-H ) :   0.9266 B(  3-C , 14-H ) :   0.9329 B(  4-C , 15-H ) :   0.9364
B(  4-C , 16-H ) :   0.9281 B(  4-C , 17-H ) :   0.9321 B(  5-C ,  6-N ) :   0.8329
B(  5-C , 18-H ) :   0.9192 B(  5-C , 19-H ) :   0.9272 B(  6-N ,  7-C ) :   1.1655
B(  6-N , 20-H ) :   0.8619 B(  7-C ,  8-O ) :   1.8808 B(  7-C , 21-H ) :   0.9325

MP2 TOTAL ENERGY:     -440.790867785 Eh
FINAL SINGLE POINT ENERGY      -440.790867785006

DIPOLE MOMENT
-------------
                                X             Y             Z
Electronic contribution:     -3.42732      -8.93603       1.76931
Nuclear contribution   :      3.36102      10.51008      -1.31553
                        -----------------------------------------
Total Dipole Moment    :     -0.06630       1.57405       0.45378
                        -----------------------------------------
Magnitude (a.u.)       :      1.63949
Magnitude (Debye)      :      4.16725

                             ****ORCA TERMINATED NORMALLY****
TOTAL RUN TIME: 0 days 0 hours 19 minutes 32 seconds 549 msec
