                         Program Version 3.0.3 - RELEASE   -
|  1> ! RI-MP2 RIJK def2-TZVP def2-TZVP/C def2-TZVP/JK TIGHTSCF
|  2> % maxcore 2000
|  3> % mp2 density relaxed end
|  4> *xyz 0 1
|  5>  N        0.0315079039     1.3330733891     0.4647199359
|  6>  C       -0.0401650822     0.0027499372     0.1246008375
|  7>  N       -1.1816872468    -0.5542757747     0.0280992643
|  8>  C       -1.5058324048    -1.9274665293    -0.2496013796
|  9>  C       -0.4322902810    -2.8921318356    -0.7614317642
| 10>  C        0.7777300479    -2.9753623274     0.1656182698
| 11>  N        1.6765212578    -1.8425655783     0.0093266903
| 12>  C        1.4031091646    -0.5177168224    -0.0643266979
| 13>  O        2.2985372505     0.2951679199    -0.2556397675
| 14>  H        0.8949417482     1.7904937610     0.2133488472
| 15>  H       -0.8290887909     1.8481874817     0.3740679900
| 16>  H       -1.9390983538    -2.3522010243     0.6700316445
| 17>  H       -2.3347794590    -1.9219324625    -0.9707804316
| 18>  H       -0.8882621352    -3.8855815127    -0.8483988675
| 19>  H       -0.0920909309    -2.6038353527    -1.7629882850
| 20>  H        0.4466563312    -3.0726960432     1.2092678926
| 21>  H        1.3689985349    -3.8662925799    -0.0624938394
| 22>  H        2.6602081756    -2.0333176762    -0.1135987894
| 23> *
| 24>
| 25>                          ****END OF INPUT****

CARTESIAN COORDINATES (ANGSTROEM)
---------------------------------
  N      0.031508    1.333073    0.464720
  C     -0.040165    0.002750    0.124601
  N     -1.181687   -0.554276    0.028099
  C     -1.505832   -1.927467   -0.249601
  C     -0.432290   -2.892132   -0.761432
  C      0.777730   -2.975362    0.165618
  N      1.676521   -1.842566    0.009327
  C      1.403109   -0.517717   -0.064327
  O      2.298537    0.295168   -0.255640
  H      0.894942    1.790494    0.213349
  H     -0.829089    1.848187    0.374068
  H     -1.939098   -2.352201    0.670032
  H     -2.334779   -1.921932   -0.970780
  H     -0.888262   -3.885582   -0.848399
  H     -0.092091   -2.603835   -1.762988
  H      0.446656   -3.072696    1.209268
  H      1.368999   -3.866293   -0.062494
  H      2.660208   -2.033318   -0.113599

 Total Charge           Charge          ....    0
 Multiplicity           Mult            ....    1
 Number of Electrons    NEL             ....   68
 Basis Dimension        Dim             ....  333

ORBITAL ENERGIES
----------------

  NO   OCC          E(Eh)            E(eV)
   0   2.0000     -20.530071      -558.6516
   1   2.0000     -15.594942      -424.3599
   2   2.0000     -15.554273      -423.2533
   3   2.0000     -15.540553      -422.8800
   4   2.0000     -11.367768      -309.3327
   5   2.0000     -11.325569      -308.1844
   6   2.0000     -11.283381      -307.0364
   7   2.0000     -11.258968      -306.3721
   8   2.0000     -11.236632      -305.7643
   9   2.0000      -1.398460       -38.0540
  10   2.0000      -1.264218       -34.4011
  11   2.0000      -1.244001       -33.8510
  12   2.0000      -1.160723       -31.5849
  13   2.0000      -1.056384       -28.7457
  14   2.0000      -0.945708       -25.7340
  15   2.0000      -0.910655       -24.7802
  16   2.0000      -0.827768       -22.5247
  17   2.0000      -0.759371       -20.6635
  18   2.0000      -0.717311       -19.5190
  19   2.0000      -0.693116       -18.8606
  20   2.0000      -0.662159       -18.0183
  21   2.0000      -0.637692       -17.3525
  22   2.0000      -0.618603       -16.8331
  23   2.0000      -0.611001       -16.6262
  24   2.0000      -0.595500       -16.2044
  25   2.0000      -0.588875       -16.0241
  26   2.0000      -0.559168       -15.2157
  27   2.0000      -0.515903       -14.0384
  28   2.0000      -0.507064       -13.7979
  29   2.0000      -0.491809       -13.3828
  30   2.0000      -0.461669       -12.5627
  31   2.0000      -0.399586       -10.8733
  32   2.0000      -0.385339       -10.4856
  33   2.0000      -0.351416        -9.5625
  34   0.0000       0.108267         2.9461
  35   0.0000       0.126228         3.4348
  36   0.0000       0.151391         4.1196
  37   0.0000       0.166490         4.5304
  38   0.0000       0.173200         4.7130

MULLIKEN ATOMIC CHARGES
-----------------------
   0 N :   -0.482538
   1 C :    0.137381
   2 N :   -0.269612
   3 C :   -0.130466
   4 C :   -0.236296
   5 C :   -0.129870
   6 N :   -0.290079
   7 C :    0.253697
   8 O :   -0.386391
   9 H :    0.278086
  10 H :    0.246720
  11 H :    0.119552
  12 H :    0.131393
  13 H :    0.123298
  14 H :    0.123890
  15 H :    0.127935
  16 H :    0.140353
  17 H :    0.242948
Sum of atomic charges:    0.0000000

LOEWDIN ATOMIC CHARGES
----------------------
   0 N :   -0.031827
   1 C :   -0.341777
   2 N :    0.095864
   3 C :   -0.320824
   4 C :   -0.275492
   5 C :   -0.279498
   6 N :    0.124524
   7 C :   -0.418899
   8 O :    0.067631
   9 H :    0.175971
  10 H :    0.167314
  11 H :    0.138545
  12 H :    0.139764
  13 H :    0.145104
  14 H :    0.142116
  15 H :    0.137320
  16 H :    0.138895
  17 H :    0.195269

  Mayer bond orders larger than 0.1
B(  0-N ,  1-C ) :   1.1488 B(  0-N ,  9-H ) :   0.8449 B(  0-N , 10-H ) :   0.8650
B(  1-C ,  2-N ) :   1.7938 B(  1-C ,  7-C ) :   0.8755 B(  2-N ,  3-C ) :   0.9691
B(  3-C ,  4-C ) :   0.9204 B(  3-C , 11-H ) :   0.9220 B(  3-C , 12-H ) :   0.9336
B(  4-C ,  5-C ) :   0.8955 B(  4-C , 13-H ) :   0.9190 B(  4-C , 14-H ) :   0.9306
B(  5-C ,  6-N ) :   0.8949 B(  5-C , 15-H ) :   0.9334 B(  5-C , 16-H ) :   0.9284
B(  6-N ,  7-C ) :   1.2385 B(  6-N , 17-H ) :   0.8567 B(  7-C ,  8-O ) :   1.8303

MP2 TOTAL ENERGY:     -434.588089848 Eh
FINAL SINGLE POINT ENERGY      -434.588089848034

DIPOLE MOMENT
-------------
                                X             Y             Z
Electronic contribution:      3.56963       5.48279       0.54826
Nuclear contribution   :     -3.68843      -6.69075      -0.69357
                        -----------------------------------------
Total Dipole Moment    :     -0.11880      -1.20796      -0.14531
                        -----------------------------------------
Magnitude (a.u.)       :      1.22246
Magnitude (Debye)      :      3.10724

                             ****ORCA TERMINATED NORMALLY****
TOTAL RUN TIME: 0 days 0 hours 17 minutes 42 seconds 331 msec
