                         Program Version 3.0.3 - RELEASE   -
|  1> ! RI-MP2 RIJK def2-TZVP def2-TZVP/C def2-TZVP/JK TIGHTSCF
|  2> % maxcore 2000
|  3> % mp2 density relaxed end
|  4> *xyz 0 1
|  5>  C       -0.1233669822     1.6009999571     0.0971290676
|  6>  C        0.1348480100     0.1143674989     0.0357116502
|  7>  C        0.5890297018    -0.4716832082    -1.2987404531
|  8>  C        1.1795876592    -1.8604706371    -0.9678490383
|  9>  C        1.6966469846    -1.7397406112     0.4825843934
| 10>  C        0.8263074710    -0.6771195686     1.1499513942
| 11>  C        1.3402898907    -0.0618561356     2.4303372060
| 12>  C       -0.6592064690    -0.8287321513     0.9269172919
| 13>  O       -1.4849668571    -0.2900685037     1.9243052695
| 14>  H        0.7878902036     2.1699678224    -0.1210777540
| 15>  H       -0.8752779988     1.8990124488    -0.6448466770
| 16>  H       -0.4871606881     1.9084001688     1.0799836799
| 17>  H       -0.2195802361    -0.5281028506    -2.0378663237
| 18>  H        1.3612173390     0.1827905580    -1.7243687072
| 19>  H        0.4013536867    -2.6275966357    -1.0300301433
| 20>  H        1.9646889637    -2.1579091796    -1.6681070235
| 21>  H        1.6773734758    -2.6986659396     1.0138727892
| 22>  H        2.7378520184    -1.3919355874     0.4914176464
| 23>  H        2.2873110987     0.4635213678     2.2597124732
| 24>  H        0.6241714815     0.6410089213     2.8583158844
| 25>  H        1.5259849076    -0.8376017264     3.1826996472
| 26>  H       -1.0362045816    -1.7625905734     0.5059921057
| 27>  H       -2.2731551392     0.0628340452     1.4983373912
| 28> *
| 29>
| 30>                          ****END OF INPUT****

CARTESIAN COORDINATES (ANGSTROEM)
---------------------------------
  C     -0.123367    1.601000    0.097129
  C      0.134848    0.114367    0.035712
  C      0.589030   -0.471683   -1.298740
  C      1.179588   -1.860471   -0.967849
  C      1.696647   -1.739741    0.482584
  C      0.826307   -0.677120    1.149951
  C      1.340290   -0.061856    2.430337
  C     -0.659206   -0.828732    0.926917
  O     -1.484967   -0.290069    1.924305
  H      0.787890    2.169968   -0.121078
  H     -0.875278    1.899012   -0.644847
  H     -0.487161    1.908400    1.079984
  H     -0.219580   -0.528103   -2.037866
  H      1.361217    0.182791   -1.724369
  H      0.401354   -2.627597   -1.030030
  H      1.964689   -2.157909   -1.668107
  H      1.677373   -2.698666    1.013873
  H      2.737852   -1.391936    0.491418
  H      2.287311    0.463521    2.259712
  H      0.624171    0.641009    2.858316
  H      1.525985   -0.837602    3.182700
  H     -1.036205   -1.762591    0.505992
  H     -2.273155    0.062834    1.498337

 Total Charge           Charge          ....    0
 Multiplicity           Mult            ....    1
 Number of Electrons    NEL             ....   70
 Basis Dimension        Dim             ....  363

ORBITAL ENERGIES
----------------

  NO   OCC          E(Eh)            E(eV)
   0   2.0000     -20.558278      -559.4192
   1   2.0000     -11.270130      -306.6758
   2   2.0000     -11.225816      -305.4700
   3   2.0000     -11.224610      -305.4372
   4   2.0000     -11.218781      -305.2786
   5   2.0000     -11.217412      -305.2413
   6   2.0000     -11.216475      -305.2158
   7   2.0000     -11.213744      -305.1415
   8   2.0000     -11.206348      -304.9402
   9   2.0000      -1.366767       -37.1916
  10   2.0000      -1.168795       -31.8045
  11   2.0000      -1.024557       -27.8796
  12   2.0000      -1.003417       -27.3044
  13   2.0000      -0.939842       -25.5744
  14   2.0000      -0.910351       -24.7719
  15   2.0000      -0.826377       -22.4869
  16   2.0000      -0.762029       -20.7359
  17   2.0000      -0.709814       -19.3150
  18   2.0000      -0.686684       -18.6856
  19   2.0000      -0.636384       -17.3169
  20   2.0000      -0.626437       -17.0462
  21   2.0000      -0.605707       -16.4821
  22   2.0000      -0.584932       -15.9168
  23   2.0000      -0.567985       -15.4557
  24   2.0000      -0.556578       -15.1453
  25   2.0000      -0.536673       -14.6036
  26   2.0000      -0.534185       -14.5359
  27   2.0000      -0.528834       -14.3903
  28   2.0000      -0.488303       -13.2874
  29   2.0000      -0.479475       -13.0472
  30   2.0000      -0.469044       -12.7633
  31   2.0000      -0.462894       -12.5960
  32   2.0000      -0.460394       -12.5279
  33   2.0000      -0.379570       -10.3286
  34   2.0000      -0.360943        -9.8218
  35   0.0000       0.127209         3.4615
  36   0.0000       0.148734         4.0472
  37   0.0000       0.160550         4.3688
  38   0.0000       0.169733         4.6187
  39   0.0000       0.186980         5.0880

MULLIKEN ATOMIC CHARGES
-----------------------
   0 C :   -0.464464
   1 C :    0.052173
   2 C :   -0.229866
   3 C :   -0.236386
   4 C :   -0.230634
   5 C :    0.109999
   6 C :   -0.432946
   7 C :   -0.040180
   8 O :   -0.472220
   9 H :    0.132698
  10 H :    0.132849
  11 H :    0.149686
  12 H :    0.110256
  13 H :    0.108537
  14 H :    0.117038
  15 H :    0.124940
  16 H :    0.115213
  17 H :    0.110626
  18 H :    0.126784
  19 H :    0.153971
  20 H :    0.132702
  21 H :    0.105114
  22 H :    0.324110
Sum of atomic charges:   -0.0000000

LOEWDIN ATOMIC CHARGES
----------------------
   0 C :   -0.274183
   1 C :   -0.222808
   2 C :   -0.210736
   3 C :   -0.249635
   4 C :   -0.207921
   5 C :   -0.215675
   6 C :   -0.265179
   7 C :   -0.261430
   8 O :    0.001189
   9 H :    0.128832
  10 H :    0.126654
  11 H :    0.129758
  12 H :    0.134972
  13 H :    0.140907
  14 H :    0.132707
  15 H :    0.132555
  16 H :    0.136809
  17 H :    0.141346
  18 H :    0.126272
  19 H :    0.131878
  20 H :    0.129724
  21 H :    0.133940
  22 H :    0.180023

  Mayer bond orders larger than 0.1
B(  0-C ,  1-C ) :   0.8794 B(  0-C ,  9-H ) :   0.9370 B(  0-C , 10-H ) :   0.9396
B(  0-C , 11-H ) :   0.9402 B(  1-C ,  2-C ) :   0.9098 B(  1-C ,  5-C ) :   0.8106
B(  1-C ,  7-C ) :   0.8737 B(  2-C ,  3-C ) :   0.9344 B(  2-C , 12-H ) :   0.9278
B(  2-C , 13-H ) :   0.9241 B(  3-C ,  4-C ) :   0.9356 B(  3-C , 14-H ) :   0.9395
B(  3-C , 15-H ) :   0.9314 B(  4-C ,  5-C ) :   0.9110 B(  4-C , 16-H ) :   0.9280
B(  4-C , 17-H ) :   0.9323 B(  5-C ,  6-C ) :   0.9079 B(  5-C ,  7-C ) :   0.8410
B(  6-C , 18-H ) :   0.9385 B(  6-C , 19-H ) :   0.9326 B(  6-C , 20-H ) :   0.9380
B(  7-C ,  8-O ) :   1.0215 B(  7-C , 21-H ) :   0.9654 B(  8-O , 22-H ) :   0.8427

MP2 TOTAL ENERGY:     -387.628418154 Eh
FINAL SINGLE POINT ENERGY      -387.628418153914

DIPOLE MOMENT
-------------
                                X             Y             Z
Electronic contribution:     -3.39714      -1.40519       1.50212
Nuclear contribution   :      3.27809       1.49384      -2.03468
                        -----------------------------------------
Total Dipole Moment    :     -0.11905       0.08865      -0.53256
                        -----------------------------------------
Magnitude (a.u.)       :      0.55286
Magnitude (Debye)      :      1.40525

                             ****ORCA TERMINATED NORMALLY****
TOTAL RUN TIME: 0 days 0 hours 21 minutes 34 seconds 360 msec
