                         Program Version 3.0.3 - RELEASE   -
|  1> ! RI-MP2 RIJK def2-TZVP def2-TZVP/C def2-TZVP/JK TIGHTSCF
|  2> % maxcore 2000
|  3> % mp2 density relaxed end
|  4> *xyz 0 1
|  5>  C       -0.0537935158     1.4985870813     0.0319490811
|  6>  C       -0.0456162166    -0.0160827684     0.0309228012
|  7>  O        0.6834477817    -0.4402015488    -1.1437460985
|  8>  C        0.8122466861    -1.7416554802    -1.3399196530
|  9>  C        1.4430178277    -2.4246660766    -2.3502798594
| 10>  O        2.1022844115    -1.9216756934    -3.4161361520
| 11>  N        1.2888043425    -3.7423412508    -2.0906720243
| 12>  N        0.6279963470    -3.9390572611    -1.0245406599
| 13>  O        0.2944618025    -2.6308385541    -0.4982072335
| 14>  H        0.9653256457     1.8922407358     0.0684137580
| 15>  H       -0.5437248501     1.8847040063    -0.8657045093
| 16>  H       -0.5981572791     1.8613794429     0.9084105697
| 17>  H        0.4487738806    -0.4224832560     0.9197665915
| 18>  H       -1.0587203272    -0.4299647104    -0.0131524868
| 19>  H        2.4237987835    -2.6696364065    -3.9331513949
| 20> *
| 21>
| 22>                          ****END OF INPUT****

CARTESIAN COORDINATES (ANGSTROEM)
---------------------------------
  C     -0.053794    1.498587    0.031949
  C     -0.045616   -0.016083    0.030923
  O      0.683448   -0.440202   -1.143746
  C      0.812247   -1.741655   -1.339920
  C      1.443018   -2.424666   -2.350280
  O      2.102284   -1.921676   -3.416136
  N      1.288804   -3.742341   -2.090672
  N      0.627996   -3.939057   -1.024541
  O      0.294462   -2.630839   -0.498207
  H      0.965326    1.892241    0.068414
  H     -0.543725    1.884704   -0.865705
  H     -0.598157    1.861379    0.908411
  H      0.448774   -0.422483    0.919767
  H     -1.058720   -0.429965   -0.013152
  H      2.423799   -2.669636   -3.933151

 Total Charge           Charge          ....    0
 Multiplicity           Mult            ....    1
 Number of Electrons    NEL             ....   68
 Basis Dimension        Dim             ....  315

ORBITAL ENERGIES
----------------

  NO   OCC          E(Eh)            E(eV)
   0   2.0000     -20.661843      -562.2373
   1   2.0000     -20.625027      -561.2355
   2   2.0000     -20.603068      -560.6380
   3   2.0000     -15.680326      -426.6834
   4   2.0000     -15.643091      -425.6701
   5   2.0000     -11.387334      -309.8651
   6   2.0000     -11.323113      -308.1176
   7   2.0000     -11.311613      -307.8047
   8   2.0000     -11.238112      -305.8046
   9   2.0000      -1.537571       -41.8394
  10   2.0000      -1.447078       -39.3770
  11   2.0000      -1.424337       -38.7582
  12   2.0000      -1.308795       -35.6141
  13   2.0000      -1.092487       -29.7281
  14   2.0000      -1.043458       -28.3939
  15   2.0000      -0.915850       -24.9215
  16   2.0000      -0.862779       -23.4774
  17   2.0000      -0.842971       -22.9384
  18   2.0000      -0.775199       -21.0942
  19   2.0000      -0.741593       -20.1798
  20   2.0000      -0.723908       -19.6985
  21   2.0000      -0.668379       -18.1875
  22   2.0000      -0.648297       -17.6410
  23   2.0000      -0.615034       -16.7359
  24   2.0000      -0.601796       -16.3757
  25   2.0000      -0.594785       -16.1849
  26   2.0000      -0.575055       -15.6480
  27   2.0000      -0.561215       -15.2714
  28   2.0000      -0.553028       -15.0487
  29   2.0000      -0.527606       -14.3569
  30   2.0000      -0.508595       -13.8396
  31   2.0000      -0.486196       -13.2301
  32   2.0000      -0.473857       -12.8943
  33   2.0000      -0.327944        -8.9238
  34   0.0000       0.108358         2.9486
  35   0.0000       0.128421         3.4945
  36   0.0000       0.140731         3.8295
  37   0.0000       0.172656         4.6982
  38   0.0000       0.195249         5.3130

MULLIKEN ATOMIC CHARGES
-----------------------
   0 C :   -0.361319
   1 C :   -0.078505
   2 O :   -0.248595
   3 C :    0.292254
   4 C :    0.127613
   5 O :   -0.431592
   6 N :   -0.128656
   7 N :   -0.075236
   8 O :   -0.120344
   9 H :    0.140171
  10 H :    0.140167
  11 H :    0.135640
  12 H :    0.129392
  13 H :    0.129413
  14 H :    0.349596
Sum of atomic charges:   -0.0000000

LOEWDIN ATOMIC CHARGES
----------------------
   0 C :   -0.309560
   1 C :   -0.295252
   2 O :    0.272992
   3 C :   -0.420617
   4 C :   -0.410729
   5 O :    0.074751
   6 N :    0.010476
   7 N :   -0.034759
   8 O :    0.261445
   9 H :    0.128505
  10 H :    0.128507
  11 H :    0.131212
  12 H :    0.129282
  13 H :    0.129280
  14 H :    0.204465

  Mayer bond orders larger than 0.1
B(  0-C ,  1-C ) :   0.9514 B(  0-C ,  9-H ) :   0.9328 B(  0-C , 10-H ) :   0.9328
B(  0-C , 11-H ) :   0.9298 B(  1-C ,  2-O ) :   0.8230 B(  1-C , 12-H ) :   0.9276
B(  1-C , 13-H ) :   0.9276 B(  2-O ,  3-C ) :   1.1472 B(  3-C ,  4-C ) :   1.4056
B(  3-C ,  7-N ) :   0.1005 B(  3-C ,  8-O ) :   1.1425 B(  4-C ,  5-O ) :   1.1268
B(  4-C ,  6-N ) :   1.3283 B(  4-C ,  7-N ) :   0.1200 B(  5-O , 14-H ) :   0.8146
B(  6-N ,  7-N ) :   1.3602 B(  7-N ,  8-O ) :   0.8325

MP2 TOTAL ENERGY:     -490.275267613 Eh
FINAL SINGLE POINT ENERGY      -490.275267613289

DIPOLE MOMENT
-------------
                                X             Y             Z
Electronic contribution:      2.80900     -10.23159      -4.45127
Nuclear contribution   :     -2.93748      11.37548       4.64704
                        -----------------------------------------
Total Dipole Moment    :     -0.12848       1.14389       0.19577
                        -----------------------------------------
Magnitude (a.u.)       :      1.16761
Magnitude (Debye)      :      2.96783

                             ****ORCA TERMINATED NORMALLY****
TOTAL RUN TIME: 0 days 0 hours 14 minutes 26 seconds 286 msec
