                         Program Version 3.0.3 - RELEASE   -
|  1> ! RI-MP2 RIJK def2-TZVP def2-TZVP/C def2-TZVP/JK TIGHTSCF
|  2> % maxcore 2000
|  3> % mp2 density relaxed end
|  4> *xyz 0 1
|  5>  O       -0.1097101720    -0.0446237148    -0.0166232091
|  6>  C       -0.0006401182     1.1627722433    -0.0058506813
|  7>  C       -1.2253369118     2.1401663247     0.0024059481
|  8>  N       -0.6785556509     3.5149151205    -0.1196213651
|  9>  C        0.6911739722     3.3404141549    -0.0228736069
| 10>  C        1.1539982772     2.0368116233    -0.0126162308
| 11>  C        2.5865528526     2.1026868373    -0.0062847559
| 12>  C        2.9173472861     3.4285126968    -0.0030139612
| 13>  N        1.7382155431     4.1950407201    -0.0165606800
| 14>  H       -1.8920248618     1.9089721995    -0.8329656352
| 15>  H       -1.7860375128     2.0113414168     0.9340557846
| 16>  H       -1.0925116975     4.1980238548     0.5023628018
| 17>  H        3.2804125855     1.2773665390     0.0022461213
| 18>  H        3.8759317542     3.9212709349     0.0105962696
| 19>  H        1.6979804939     5.1988021990    -0.0541259699
| 20> *
| 21>
| 22>                          ****END OF INPUT****

CARTESIAN COORDINATES (ANGSTROEM)
---------------------------------
  O     -0.109710   -0.044624   -0.016623
  C     -0.000640    1.162772   -0.005851
  C     -1.225337    2.140166    0.002406
  N     -0.678556    3.514915   -0.119621
  C      0.691174    3.340414   -0.022874
  C      1.153998    2.036812   -0.012616
  C      2.586553    2.102687   -0.006285
  C      2.917347    3.428513   -0.003014
  N      1.738216    4.195041   -0.016561
  H     -1.892025    1.908972   -0.832966
  H     -1.786038    2.011341    0.934056
  H     -1.092512    4.198024    0.502363
  H      3.280413    1.277367    0.002246
  H      3.875932    3.921271    0.010596
  H      1.697980    5.198802   -0.054126

 Total Charge           Charge          ....    0
 Multiplicity           Mult            ....    1
 Number of Electrons    NEL             ....   64
 Basis Dimension        Dim             ....  315

ORBITAL ENERGIES
----------------

  NO   OCC          E(Eh)            E(eV)
   0   2.0000     -20.516520      -558.2829
   1   2.0000     -15.626835      -425.2278
   2   2.0000     -15.594526      -424.3486
   3   2.0000     -11.322862      -308.1107
   4   2.0000     -11.322035      -308.0882
   5   2.0000     -11.274258      -306.7882
   6   2.0000     -11.268746      -306.6382
   7   2.0000     -11.234909      -305.7174
   8   2.0000     -11.210732      -305.0595
   9   2.0000      -1.363503       -37.1028
  10   2.0000      -1.330295       -36.1992
  11   2.0000      -1.246119       -33.9086
  12   2.0000      -1.078837       -29.3567
  13   2.0000      -0.990831       -26.9619
  14   2.0000      -0.970895       -26.4194
  15   2.0000      -0.837099       -22.7786
  16   2.0000      -0.812607       -22.1122
  17   2.0000      -0.760428       -20.6923
  18   2.0000      -0.717211       -19.5163
  19   2.0000      -0.662908       -18.0386
  20   2.0000      -0.639650       -17.4058
  21   2.0000      -0.621849       -16.9214
  22   2.0000      -0.600149       -16.3309
  23   2.0000      -0.593828       -16.1589
  24   2.0000      -0.587212       -15.9789
  25   2.0000      -0.575299       -15.6547
  26   2.0000      -0.534360       -14.5407
  27   2.0000      -0.509862       -13.8741
  28   2.0000      -0.454306       -12.3623
  29   2.0000      -0.395271       -10.7559
  30   2.0000      -0.372763       -10.1434
  31   2.0000      -0.294017        -8.0006
  32   0.0000       0.111919         3.0455
  33   0.0000       0.130084         3.5398
  34   0.0000       0.137410         3.7391
  35   0.0000       0.165741         4.5100
  36   0.0000       0.171908         4.6779

MULLIKEN ATOMIC CHARGES
-----------------------
   0 O :   -0.312007
   1 C :    0.084655
   2 C :   -0.106868
   3 N :   -0.328915
   4 C :    0.160796
   5 C :    0.020360
   6 C :   -0.254306
   7 C :   -0.032602
   8 N :   -0.292960
   9 H :    0.140149
  10 H :    0.138485
  11 H :    0.235527
  12 H :    0.145161
  13 H :    0.152923
  14 H :    0.249602
Sum of atomic charges:   -0.0000000

LOEWDIN ATOMIC CHARGES
----------------------
   0 O :    0.112224
   1 C :   -0.319962
   2 C :   -0.209537
   3 N :    0.059513
   4 C :   -0.262322
   5 C :   -0.148438
   6 C :   -0.149026
   7 C :   -0.207929
   8 N :    0.194545
   9 H :    0.140807
  10 H :    0.139228
  11 H :    0.178033
  12 H :    0.146714
  13 H :    0.133664
  14 H :    0.192485

  Mayer bond orders larger than 0.1
B(  0-O ,  1-C ) :   2.0617 B(  1-C ,  2-C ) :   0.9822 B(  1-C ,  5-C ) :   0.8878
B(  2-C ,  3-N ) :   0.8826 B(  2-C ,  5-C ) :  -0.1508 B(  2-C ,  9-H ) :   0.9085
B(  2-C , 10-H ) :   0.9202 B(  3-N ,  4-C ) :   1.1044 B(  3-N , 11-H ) :   0.8638
B(  4-C ,  5-C ) :   1.3017 B(  4-C ,  8-N ) :   1.1944 B(  5-C ,  6-C ) :   1.1722
B(  6-C ,  7-C ) :   1.5972 B(  6-C , 12-H ) :   0.9336 B(  7-C ,  8-N ) :   1.0176
B(  7-C , 13-H ) :   0.9167 B(  8-N , 14-H ) :   0.8691

MP2 TOTAL ENERGY:     -416.146548341 Eh
FINAL SINGLE POINT ENERGY      -416.146548341065

DIPOLE MOMENT
-------------
                                X             Y             Z
Electronic contribution:      0.48541      -1.38877      -0.24570
Nuclear contribution   :     -0.36644       3.67769       0.62764
                        -----------------------------------------
Total Dipole Moment    :      0.11897       2.28892       0.38194
                        -----------------------------------------
Magnitude (a.u.)       :      2.32361
Magnitude (Debye)      :      5.90615

                             ****ORCA TERMINATED NORMALLY****
TOTAL RUN TIME: 0 days 0 hours 15 minutes 26 seconds 215 msec
