                         Program Version 3.0.3 - RELEASE   -
|  1> ! RI-MP2 RIJK def2-TZVP def2-TZVP/C def2-TZVP/JK TIGHTSCF
|  2> % maxcore 2000
|  3> % mp2 density relaxed end
|  4> *xyz 0 1
|  5>  C       -0.1279450044     1.5913528037    -0.1040659639
|  6>  C        0.0490360441     0.0733756293    -0.0230089567
|  7>  N        0.7636457286    -0.4705478554    -1.1646829381
|  8>  N        0.0870424151    -0.6842612114    -2.3131269587
|  9>  C        1.0113103492    -1.1047539159    -3.1705612286
| 10>  C        2.2960171141    -1.1629962486    -2.5904138960
| 11>  C        3.5751761212    -1.6055722280    -3.2349270716
| 12>  C        2.0962850388    -0.7377626676    -1.2843870948
| 13>  C        3.0684595396    -0.5807096582    -0.1601633670
| 14>  H        0.8390933921     2.1036194360    -0.1093867579
| 15>  H       -0.6619130036     1.8563007870    -1.0200140559
| 16>  H       -0.7034694935     1.9528259092     0.7538068784
| 17>  H        0.5923506291    -0.2083227331     0.8832852196
| 18>  H       -0.9255498589    -0.4204774812     0.0053674595
| 19>  H        0.7282013589    -1.3593581663    -4.1826854016
| 20>  H        4.4112397378    -0.9402612672    -2.9921663434
| 21>  H        3.8694541677    -2.6177611960    -2.9306585815
| 22>  H        3.4738811844    -1.6140281548    -4.3241216786
| 23>  H        3.0693912467     0.4343674507     0.2533906758
| 24>  H        2.8615128977    -1.2706247570     0.6671493351
| 25>  H        4.0796249853    -0.7925367850    -0.5150142842
| 26> *
| 27>
| 28>                          ****END OF INPUT****

CARTESIAN COORDINATES (ANGSTROEM)
---------------------------------
  C     -0.127945    1.591353   -0.104066
  C      0.049036    0.073376   -0.023009
  N      0.763646   -0.470548   -1.164683
  N      0.087042   -0.684261   -2.313127
  C      1.011310   -1.104754   -3.170561
  C      2.296017   -1.162996   -2.590414
  C      3.575176   -1.605572   -3.234927
  C      2.096285   -0.737763   -1.284387
  C      3.068460   -0.580710   -0.160163
  H      0.839093    2.103619   -0.109387
  H     -0.661913    1.856301   -1.020014
  H     -0.703469    1.952826    0.753807
  H      0.592351   -0.208323    0.883285
  H     -0.925550   -0.420477    0.005367
  H      0.728201   -1.359358   -4.182685
  H      4.411240   -0.940261   -2.992166
  H      3.869454   -2.617761   -2.930659
  H      3.473881   -1.614028   -4.324122
  H      3.069391    0.434367    0.253391
  H      2.861513   -1.270625    0.667149
  H      4.079625   -0.792537   -0.515014

 Total Charge           Charge          ....    0
 Multiplicity           Mult            ....    1
 Number of Electrons    NEL             ....   68
 Basis Dimension        Dim             ....  351

ORBITAL ENERGIES
----------------

  NO   OCC          E(Eh)            E(eV)
   0   2.0000     -15.621125      -425.0724
   1   2.0000     -15.567096      -423.6022
   2   2.0000     -11.269443      -306.6571
   3   2.0000     -11.265239      -306.5427
   4   2.0000     -11.239529      -305.8431
   5   2.0000     -11.235233      -305.7262
   6   2.0000     -11.221555      -305.3540
   7   2.0000     -11.220795      -305.3333
   8   2.0000     -11.210466      -305.0523
   9   2.0000      -1.362803       -37.0837
  10   2.0000      -1.121138       -30.5077
  11   2.0000      -1.083824       -29.4923
  12   2.0000      -1.011789       -27.5322
  13   2.0000      -0.968561       -26.3559
  14   2.0000      -0.924611       -25.1599
  15   2.0000      -0.862141       -23.4600
  16   2.0000      -0.776621       -21.1329
  17   2.0000      -0.736980       -20.0543
  18   2.0000      -0.676528       -18.4093
  19   2.0000      -0.638615       -17.3776
  20   2.0000      -0.617177       -16.7942
  21   2.0000      -0.591710       -16.1012
  22   2.0000      -0.581369       -15.8198
  23   2.0000      -0.568036       -15.4570
  24   2.0000      -0.562511       -15.3067
  25   2.0000      -0.554973       -15.1016
  26   2.0000      -0.542069       -14.7504
  27   2.0000      -0.526334       -14.3223
  28   2.0000      -0.511650       -13.9227
  29   2.0000      -0.508276       -13.8309
  30   2.0000      -0.498948       -13.5771
  31   2.0000      -0.438273       -11.9260
  32   2.0000      -0.337186        -9.1753
  33   2.0000      -0.314952        -8.5703
  34   0.0000       0.126058         3.4302
  35   0.0000       0.146471         3.9857
  36   0.0000       0.156446         4.2571
  37   0.0000       0.173088         4.7100
  38   0.0000       0.181414         4.9365

MULLIKEN ATOMIC CHARGES
-----------------------
   0 C :   -0.384513
   1 C :   -0.164252
   2 N :    0.144651
   3 N :   -0.275898
   4 C :   -0.135387
   5 C :    0.020524
   6 C :   -0.428834
   7 C :   -0.003680
   8 C :   -0.451168
   9 H :    0.124762
  10 H :    0.152509
  11 H :    0.129872
  12 H :    0.129381
  13 H :    0.144248
  14 H :    0.125445
  15 H :    0.136095
  16 H :    0.143749
  17 H :    0.142689
  18 H :    0.146661
  19 H :    0.152412
  20 H :    0.150737
Sum of atomic charges:   -0.0000000

LOEWDIN ATOMIC CHARGES
----------------------
   0 C :   -0.310668
   1 C :   -0.273058
   2 N :    0.210783
   3 N :    0.041239
   4 C :   -0.261966
   5 C :   -0.205583
   6 C :   -0.276631
   7 C :   -0.226265
   8 C :   -0.275557
   9 H :    0.120971
  10 H :    0.129576
  11 H :    0.124489
  12 H :    0.137876
  13 H :    0.143146
  14 H :    0.132878
  15 H :    0.127506
  16 H :    0.128739
  17 H :    0.132831
  18 H :    0.130190
  19 H :    0.131943
  20 H :    0.137559

  Mayer bond orders larger than 0.1
B(  0-C ,  1-C ) :   0.9300 B(  0-C ,  9-H ) :   0.9320 B(  0-C , 10-H ) :   0.9349
B(  0-C , 11-H ) :   0.9325 B(  1-C ,  2-N ) :   0.8583 B(  1-C , 12-H ) :   0.9260
B(  1-C , 13-H ) :   0.9274 B(  2-N ,  3-N ) :   1.0010 B(  2-N ,  7-C ) :   1.2350
B(  3-N ,  4-C ) :   1.4875 B(  3-N ,  7-C ) :   0.1103 B(  4-C ,  5-C ) :   1.3002
B(  4-C , 14-H ) :   0.9406 B(  5-C ,  6-C ) :   0.8507 B(  5-C ,  7-C ) :   1.3943
B(  6-C , 15-H ) :   0.9459 B(  6-C , 16-H ) :   0.9294 B(  6-C , 17-H ) :   0.9503
B(  7-C ,  8-C ) :   0.8535 B(  8-C , 18-H ) :   0.9369 B(  8-C , 19-H ) :   0.9394
B(  8-C , 20-H ) :   0.9418

MP2 TOTAL ENERGY:     -382.629991938 Eh
FINAL SINGLE POINT ENERGY      -382.629991937901

DIPOLE MOMENT
-------------
                                X             Y             Z
Electronic contribution:     -3.56583      -2.67462      -3.65419
Nuclear contribution   :      4.19644       2.87031       4.47911
                        -----------------------------------------
Total Dipole Moment    :      0.63061       0.19570       0.82492
                        -----------------------------------------
Magnitude (a.u.)       :      1.05663
Magnitude (Debye)      :      2.68573

                             ****ORCA TERMINATED NORMALLY****
TOTAL RUN TIME: 0 days 0 hours 22 minutes 39 seconds 787 msec
