                         Program Version 3.0.3 - RELEASE   -
|  1> ! RI-MP2 RIJK def2-TZVP def2-TZVP/C def2-TZVP/JK TIGHTSCF
|  2> % maxcore 2000
|  3> % mp2 density relaxed end
|  4> *xyz 0 1
|  5>  C        0.0237802198     1.4088177458     0.0427707825
|  6>  C        0.0682781983    -0.0410207462    -0.0397305807
|  7>  C        0.0940191551    -1.2444654563    -0.1095616975
|  8>  C        0.0758726036    -2.6914751957    -0.1560870779
|  9>  O       -0.9021529322    -3.3551485743     0.1162212307
| 10>  N        1.2708370040    -3.2508317779    -0.6112641902
| 11>  C        2.5413540011    -3.1426891293     0.0820163086
| 12>  C        1.8216606495    -4.4553038596    -0.0361125025
| 13>  H        0.9912656267     1.8558632984    -0.2080215417
| 14>  H       -0.7248348180     1.8127193768    -0.6474339578
| 15>  H       -0.2490757062     1.7332152552     1.0528367303
| 16>  H        3.4066588210    -2.9354321135    -0.5411669470
| 17>  H        2.5450506655    -2.6546860242     1.0534060926
| 18>  H        1.3246428304    -4.8490596629     0.8461940943
| 19>  H        2.1729223913    -5.2011624562    -0.7430982436
| 20> *
| 21>
| 22>                          ****END OF INPUT****

CARTESIAN COORDINATES (ANGSTROEM)
---------------------------------
  C      0.023780    1.408818    0.042771
  C      0.068278   -0.041021   -0.039731
  C      0.094019   -1.244465   -0.109562
  C      0.075873   -2.691475   -0.156087
  O     -0.902153   -3.355149    0.116221
  N      1.270837   -3.250832   -0.611264
  C      2.541354   -3.142689    0.082016
  C      1.821661   -4.455304   -0.036113
  H      0.991266    1.855863   -0.208022
  H     -0.724835    1.812719   -0.647434
  H     -0.249076    1.733215    1.052837
  H      3.406659   -2.935432   -0.541167
  H      2.545051   -2.654686    1.053406
  H      1.324643   -4.849060    0.846194
  H      2.172922   -5.201162   -0.743098

 Total Charge           Charge          ....    0
 Multiplicity           Mult            ....    1
 Number of Electrons    NEL             ....   58
 Basis Dimension        Dim             ....  290

ORBITAL ENERGIES
----------------

  NO   OCC          E(Eh)            E(eV)
   0   2.0000     -20.540381      -558.9322
   1   2.0000     -15.588385      -424.1815
   2   2.0000     -11.375638      -309.5469
   3   2.0000     -11.282548      -307.0137
   4   2.0000     -11.275943      -306.8340
   5   2.0000     -11.263664      -306.4999
   6   2.0000     -11.260094      -306.4027
   7   2.0000     -11.236022      -305.7477
   8   2.0000      -1.400768       -38.1168
   9   2.0000      -1.295098       -35.2414
  10   2.0000      -1.083271       -29.4773
  11   2.0000      -1.015651       -27.6373
  12   2.0000      -0.962240       -26.1839
  13   2.0000      -0.869033       -23.6476
  14   2.0000      -0.821709       -22.3598
  15   2.0000      -0.734382       -19.9836
  16   2.0000      -0.688055       -18.7229
  17   2.0000      -0.660503       -17.9732
  18   2.0000      -0.645793       -17.5729
  19   2.0000      -0.605206       -16.4685
  20   2.0000      -0.604683       -16.4542
  21   2.0000      -0.560362       -15.2482
  22   2.0000      -0.547595       -14.9008
  23   2.0000      -0.520314       -14.1585
  24   2.0000      -0.509691       -13.8694
  25   2.0000      -0.449778       -12.2391
  26   2.0000      -0.402897       -10.9634
  27   2.0000      -0.397247       -10.8096
  28   2.0000      -0.395333       -10.7576
  29   0.0000       0.103047         2.8041
  30   0.0000       0.129725         3.5300
  31   0.0000       0.155628         4.2348
  32   0.0000       0.169762         4.6195
  33   0.0000       0.185802         5.0559

MULLIKEN ATOMIC CHARGES
-----------------------
   0 C :   -0.472122
   1 C :    0.010513
   2 C :    0.015802
   3 C :    0.173719
   4 O :   -0.290761
   5 N :   -0.182112
   6 C :   -0.169870
   7 C :   -0.158500
   8 H :    0.166363
   9 H :    0.171884
  10 H :    0.169480
  11 H :    0.135762
  12 H :    0.143934
  13 H :    0.146301
  14 H :    0.139607
Sum of atomic charges:    0.0000000

LOEWDIN ATOMIC CHARGES
----------------------
   0 C :   -0.285591
   1 C :   -0.063743
   2 C :   -0.033924
   3 C :   -0.427593
   4 O :    0.145028
   5 N :    0.173803
   6 C :   -0.231862
   7 C :   -0.232398
   8 H :    0.143526
   9 H :    0.147376
  10 H :    0.146281
  11 H :    0.127481
  12 H :    0.130198
  13 H :    0.131941
  14 H :    0.129477

  Mayer bond orders larger than 0.1
B(  0-C ,  1-C ) :   0.8798 B(  0-C ,  8-H ) :   0.9442 B(  0-C ,  9-H ) :   0.9394
B(  0-C , 10-H ) :   0.9405 B(  1-C ,  2-C ) :   2.7147 B(  2-C ,  3-C ) :   0.9560
B(  3-C ,  4-O ) :   2.0227 B(  3-C ,  5-N ) :   1.0732 B(  5-N ,  6-C ) :   0.8551
B(  5-N ,  7-C ) :   0.8715 B(  6-C ,  7-C ) :   0.9334 B(  6-C , 11-H ) :   0.9250
B(  6-C , 12-H ) :   0.9212 B(  7-C , 13-H ) :   0.9268 B(  7-C , 14-H ) :   0.9230

MP2 TOTAL ENERGY:     -361.993724304 Eh
FINAL SINGLE POINT ENERGY      -361.993724303613

DIPOLE MOMENT
-------------
                                X             Y             Z
Electronic contribution:     -3.54920      -3.47873      -1.01238
Nuclear contribution   :      4.74243       4.30987       1.27309
                        -----------------------------------------
Total Dipole Moment    :      1.19323       0.83114       0.26072
                        -----------------------------------------
Magnitude (a.u.)       :      1.47735
Magnitude (Debye)      :      3.75513

                             ****ORCA TERMINATED NORMALLY****
TOTAL RUN TIME: 0 days 0 hours 10 minutes 21 seconds 896 msec
