                         Program Version 3.0.3 - RELEASE   -
|  1> ! RI-MP2 RIJK def2-TZVP def2-TZVP/C def2-TZVP/JK TIGHTSCF
|  2> % maxcore 2000
|  3> % mp2 density relaxed end
|  4> *xyz 0 1
|  5>  C        0.1457619369     1.4994079745     0.2008578319
|  6>  C        0.0194762108    -0.0205938572    -0.0346064043
|  7>  N       -1.3367740035    -0.5663967617     0.0118994453
|  8>  C       -1.9873793464    -0.5280488008     1.3118093698
|  9>  C       -3.1764295781    -1.4804979648     1.3356068792
| 10>  O       -4.1707616309    -1.2977700544     1.9851917102
| 11>  C        0.6226353445    -0.3781564888    -1.3308817933
| 12>  N        1.0946192376    -0.6271565327    -2.3552664674
| 13>  H        1.1918880969     1.8143822000     0.1569501516
| 14>  H       -0.4109344559     2.0527112614    -0.5612798501
| 15>  H       -0.2521609950     1.7598534969     1.1848607751
| 16>  H        0.5973699701    -0.5437442722     0.7388323523
| 17>  H       -1.9118702734    -0.1209625092    -0.6959135587
| 18>  H       -1.2761713593    -0.9088668532     2.0605588737
| 19>  H       -2.3246159840     0.4591475653     1.6611596728
| 20>  H       -3.0355461005    -2.3801805431     0.6967253320
| 21> *
| 22>
| 23>                          ****END OF INPUT****

CARTESIAN COORDINATES (ANGSTROEM)
---------------------------------
  C      0.145762    1.499408    0.200858
  C      0.019476   -0.020594   -0.034606
  N     -1.336774   -0.566397    0.011899
  C     -1.987379   -0.528049    1.311809
  C     -3.176430   -1.480498    1.335607
  O     -4.170762   -1.297770    1.985192
  C      0.622635   -0.378156   -1.330882
  N      1.094619   -0.627157   -2.355266
  H      1.191888    1.814382    0.156950
  H     -0.410934    2.052711   -0.561280
  H     -0.252161    1.759853    1.184861
  H      0.597370   -0.543744    0.738832
  H     -1.911870   -0.120963   -0.695914
  H     -1.276171   -0.908867    2.060559
  H     -2.324616    0.459148    1.661160
  H     -3.035546   -2.380181    0.696725

 Total Charge           Charge          ....    0
 Multiplicity           Mult            ....    1
 Number of Electrons    NEL             ....   60
 Basis Dimension        Dim             ....  296

ORBITAL ENERGIES
----------------

  NO   OCC          E(Eh)            E(eV)
   0   2.0000     -20.572350      -559.8021
   1   2.0000     -15.591814      -424.2748
   2   2.0000     -15.579685      -423.9448
   3   2.0000     -11.344807      -308.7079
   4   2.0000     -11.332063      -308.3611
   5   2.0000     -11.292455      -307.2833
   6   2.0000     -11.279583      -306.9331
   7   2.0000     -11.256845      -306.3143
   8   2.0000      -1.411872       -38.4190
   9   2.0000      -1.267227       -34.4830
  10   2.0000      -1.221203       -33.2306
  11   2.0000      -1.075557       -29.2674
  12   2.0000      -0.983140       -26.7526
  13   2.0000      -0.904611       -24.6157
  14   2.0000      -0.820843       -22.3363
  15   2.0000      -0.752899       -20.4874
  16   2.0000      -0.692671       -18.8485
  17   2.0000      -0.669181       -18.2093
  18   2.0000      -0.650191       -17.6926
  19   2.0000      -0.634432       -17.2638
  20   2.0000      -0.611399       -16.6370
  21   2.0000      -0.600008       -16.3271
  22   2.0000      -0.577256       -15.7079
  23   2.0000      -0.558360       -15.1938
  24   2.0000      -0.548335       -14.9210
  25   2.0000      -0.523234       -14.2379
  26   2.0000      -0.476159       -12.9569
  27   2.0000      -0.470251       -12.7962
  28   2.0000      -0.440186       -11.9781
  29   2.0000      -0.416242       -11.3265
  30   0.0000       0.103436         2.8146
  31   0.0000       0.117137         3.1875
  32   0.0000       0.136945         3.7265
  33   0.0000       0.150595         4.0979
  34   0.0000       0.156777         4.2661

MULLIKEN ATOMIC CHARGES
-----------------------
   0 C :   -0.386077
   1 C :    0.071402
   2 N :   -0.339334
   3 C :   -0.102736
   4 C :    0.080624
   5 O :   -0.254653
   6 C :   -0.156373
   7 N :   -0.052526
   8 H :    0.151295
   9 H :    0.136761
  10 H :    0.148603
  11 H :    0.130501
  12 H :    0.218470
  13 H :    0.133297
  14 H :    0.126367
  15 H :    0.094382
Sum of atomic charges:   -0.0000000

LOEWDIN ATOMIC CHARGES
----------------------
   0 C :   -0.274978
   1 C :   -0.320673
   2 N :    0.017838
   3 C :   -0.307669
   4 C :   -0.295017
   5 O :    0.139935
   6 C :   -0.167263
   7 N :    0.068718
   8 H :    0.134428
   9 H :    0.129706
  10 H :    0.127022
  11 H :    0.170831
  12 H :    0.180451
  13 H :    0.151681
  14 H :    0.130313
  15 H :    0.114677

  Mayer bond orders larger than 0.1
B(  0-C ,  1-C ) :   0.9187 B(  0-C ,  8-H ) :   0.9271 B(  0-C ,  9-H ) :   0.9196
B(  0-C , 10-H ) :   0.9346 B(  1-C ,  2-N ) :   0.9705 B(  1-C ,  6-C ) :   0.9140
B(  1-C , 11-H ) :   0.9084 B(  2-N ,  3-C ) :   0.9154 B(  2-N , 12-H ) :   0.8723
B(  3-C ,  4-C ) :   0.8847 B(  3-C , 13-H ) :   0.9013 B(  3-C , 14-H ) :   0.8909
B(  4-C ,  5-O ) :   2.0082 B(  4-C , 15-H ) :   0.9324 B(  6-C ,  7-N ) :   2.8689

MP2 TOTAL ENERGY:     -379.288488451 Eh
FINAL SINGLE POINT ENERGY      -379.288488450876

DIPOLE MOMENT
-------------
                                X             Y             Z
Electronic contribution:     -1.49365      -4.30819      -2.57387
Nuclear contribution   :      1.71589       5.08016       3.45458
                        -----------------------------------------
Total Dipole Moment    :      0.22224       0.77197       0.88071
                        -----------------------------------------
Magnitude (a.u.)       :      1.19205
Magnitude (Debye)      :      3.02994

                             ****ORCA TERMINATED NORMALLY****
TOTAL RUN TIME: 0 days 0 hours 10 minutes 26 seconds 912 msec
