                         Program Version 3.0.3 - RELEASE   -
|  1> ! RI-MP2 RIJK def2-TZVP def2-TZVP/C def2-TZVP/JK TIGHTSCF
|  2> % maxcore 2000
|  3> % mp2 density relaxed end
|  4> *xyz 0 1
|  5>  C       -0.1475908635     1.6005994303    -0.0190988905
|  6>  C        0.0082350958     0.0960356934     0.0278868316
|  7>  C        1.2972074458    -0.6189716551    -0.3291298952
|  8>  C        2.5888227149     0.0889732130    -0.7050526155
|  9>  C        3.8094788114    -0.4250357889     0.0731609329
| 10>  O        3.9094681712     0.0926554129     1.3878184404
| 11>  C        3.0154696484    -0.4360903103     2.3508975847
| 12>  C        1.5740103346     0.0748349290     2.2060791787
| 13>  C        0.7981174031    -0.6259346242     1.1025902989
| 14>  H        0.7519681300     2.1340668682     0.2969534869
| 15>  H       -0.3834219690     1.9343939078    -1.0358292443
| 16>  H       -0.9652060684     1.9262830045     0.6337504905
| 17>  H       -0.8931522372    -0.4239910058    -0.2888646844
| 18>  H        1.1665602380    -1.5607612584    -0.8573150341
| 19>  H        2.7739488714    -0.0480618087    -1.7783452232
| 20>  H        2.5274112321     1.1694907412    -0.5416049535
| 21>  H        3.8086961396    -1.5281043237     0.0943866928
| 22>  H        4.7286650704    -0.1033637751    -0.4290071975
| 23>  H        3.0313855556    -1.5389266382     2.3242443551
| 24>  H        3.4223286980    -0.1215445143     3.3184076221
| 25>  H        1.0522345101    -0.0720454062     3.1606386797
| 26>  H        1.6242419838     1.1569071379     2.0492321551
| 27>  H        0.3702982738    -1.5718710393     1.4269214185
| 28> *
| 29>
| 30>                          ****END OF INPUT****

CARTESIAN COORDINATES (ANGSTROEM)
---------------------------------
  C     -0.147591    1.600599   -0.019099
  C      0.008235    0.096036    0.027887
  C      1.297207   -0.618972   -0.329130
  C      2.588823    0.088973   -0.705053
  C      3.809479   -0.425036    0.073161
  O      3.909468    0.092655    1.387818
  C      3.015470   -0.436090    2.350898
  C      1.574010    0.074835    2.206079
  C      0.798117   -0.625935    1.102590
  H      0.751968    2.134067    0.296953
  H     -0.383422    1.934394   -1.035829
  H     -0.965206    1.926283    0.633750
  H     -0.893152   -0.423991   -0.288865
  H      1.166560   -1.560761   -0.857315
  H      2.773949   -0.048062   -1.778345
  H      2.527411    1.169491   -0.541605
  H      3.808696   -1.528104    0.094387
  H      4.728665   -0.103364   -0.429007
  H      3.031386   -1.538927    2.324244
  H      3.422329   -0.121545    3.318408
  H      1.052235   -0.072045    3.160639
  H      1.624242    1.156907    2.049232
  H      0.370298   -1.571871    1.426921

 Total Charge           Charge          ....    0
 Multiplicity           Mult            ....    1
 Number of Electrons    NEL             ....   70
 Basis Dimension        Dim             ....  363

ORBITAL ENERGIES
----------------

  NO   OCC          E(Eh)            E(eV)
   0   2.0000     -20.543839      -559.0263
   1   2.0000     -11.267628      -306.6077
   2   2.0000     -11.267606      -306.6071
   3   2.0000     -11.228593      -305.5455
   4   2.0000     -11.223688      -305.4121
   5   2.0000     -11.223083      -305.3956
   6   2.0000     -11.219397      -305.2953
   7   2.0000     -11.219395      -305.2953
   8   2.0000     -11.215659      -305.1936
   9   2.0000      -1.363621       -37.1060
  10   2.0000      -1.152587       -31.3635
  11   2.0000      -1.041576       -28.3427
  12   2.0000      -0.996743       -27.1228
  13   2.0000      -0.947364       -25.7791
  14   2.0000      -0.898449       -24.4480
  15   2.0000      -0.807974       -21.9861
  16   2.0000      -0.754537       -20.5320
  17   2.0000      -0.739628       -20.1263
  18   2.0000      -0.680666       -18.5219
  19   2.0000      -0.657699       -17.8969
  20   2.0000      -0.645699       -17.5704
  21   2.0000      -0.632035       -17.1986
  22   2.0000      -0.571722       -15.5573
  23   2.0000      -0.570999       -15.5377
  24   2.0000      -0.564587       -15.3632
  25   2.0000      -0.540984       -14.7209
  26   2.0000      -0.526111       -14.3162
  27   2.0000      -0.514795       -14.0083
  28   2.0000      -0.509850       -13.8737
  29   2.0000      -0.488213       -13.2850
  30   2.0000      -0.459710       -12.5093
  31   2.0000      -0.455727       -12.4010
  32   2.0000      -0.429654       -11.6915
  33   2.0000      -0.388033       -10.5589
  34   2.0000      -0.371941       -10.1210
  35   0.0000       0.136718         3.7203
  36   0.0000       0.153826         4.1858
  37   0.0000       0.163979         4.4621
  38   0.0000       0.165621         4.5068
  39   0.0000       0.191445         5.2095

MULLIKEN ATOMIC CHARGES
-----------------------
   0 C :   -0.409035
   1 C :   -0.115716
   2 C :   -0.108545
   3 C :   -0.215730
   4 C :   -0.067207
   5 O :   -0.310684
   6 C :   -0.067209
   7 C :   -0.215735
   8 C :   -0.108533
   9 H :    0.125817
  10 H :    0.136170
  11 H :    0.136170
  12 H :    0.115303
  13 H :    0.114776
  14 H :    0.116811
  15 H :    0.106724
  16 H :    0.090421
  17 H :    0.123734
  18 H :    0.090420
  19 H :    0.123734
  20 H :    0.116811
  21 H :    0.106728
  22 H :    0.114776
Sum of atomic charges:    0.0000000

LOEWDIN ATOMIC CHARGES
----------------------
   0 C :   -0.296379
   1 C :   -0.213888
   2 C :   -0.195609
   3 C :   -0.250586
   4 C :   -0.317822
   5 O :    0.150396
   6 C :   -0.317822
   7 C :   -0.250586
   8 C :   -0.195610
   9 H :    0.121003
  10 H :    0.126874
  11 H :    0.126874
  12 H :    0.147850
  13 H :    0.147323
  14 H :    0.143589
  15 H :    0.143127
  16 H :    0.120516
  17 H :    0.128099
  18 H :    0.120516
  19 H :    0.128099
  20 H :    0.143589
  21 H :    0.143128
  22 H :    0.147322

  Mayer bond orders larger than 0.1
B(  0-C ,  1-C ) :   0.9074 B(  0-C ,  9-H ) :   0.9395 B(  0-C , 10-H ) :   0.9370
B(  0-C , 11-H ) :   0.9370 B(  1-C ,  2-C ) :   0.8862 B(  1-C ,  8-C ) :   0.8862
B(  1-C , 12-H ) :   0.9264 B(  2-C ,  3-C ) :   0.9264 B(  2-C ,  8-C ) :   0.8523
B(  2-C , 13-H ) :   0.9297 B(  3-C ,  4-C ) :   0.9243 B(  3-C , 14-H ) :   0.9200
B(  3-C , 15-H ) :   0.9216 B(  4-C ,  5-O ) :   0.9391 B(  4-C , 16-H ) :   0.9379
B(  4-C , 17-H ) :   0.9312 B(  5-O ,  6-C ) :   0.9391 B(  6-C ,  7-C ) :   0.9243
B(  6-C , 18-H ) :   0.9379 B(  6-C , 19-H ) :   0.9312 B(  7-C ,  8-C ) :   0.9264
B(  7-C , 20-H ) :   0.9200 B(  7-C , 21-H ) :   0.9216 B(  8-C , 22-H ) :   0.9297

MP2 TOTAL ENERGY:     -387.606629409 Eh
FINAL SINGLE POINT ENERGY      -387.606629408656

DIPOLE MOMENT
-------------
                                X             Y             Z
Electronic contribution:      3.05026      -1.55561       1.05570
Nuclear contribution   :     -3.48247       1.28107      -1.20770
                        -----------------------------------------
Total Dipole Moment    :     -0.43220      -0.27454      -0.15200
                        -----------------------------------------
Magnitude (a.u.)       :      0.53411
Magnitude (Debye)      :      1.35761

                             ****ORCA TERMINATED NORMALLY****
TOTAL RUN TIME: 0 days 0 hours 21 minutes 3 seconds 43 msec
