                         Program Version 3.0.3 - RELEASE   -
|  1> ! RI-MP2 RIJK def2-TZVP def2-TZVP/C def2-TZVP/JK TIGHTSCF
|  2> % maxcore 2000
|  3> % mp2 density relaxed end
|  4> *xyz 0 1
|  5>  C        0.5911946928     1.6096739000    -0.1572090431
|  6>  C        0.1329268727     0.1473255504     0.0221333190
|  7>  C        0.4103142799    -0.6326377898    -1.1871550428
|  8>  N        0.6139234537    -1.2399094736    -2.1488649488
|  9>  C        0.7847636521    -0.4832238237     1.2655018445
| 10>  C        1.3335882052    -1.8551201515     1.2601036827
| 11>  O        2.1929284495    -0.7196553883     1.1552762650
| 12>  C        0.3319098881     0.0905383594     2.5121908696
| 13>  C       -0.0775245369     0.5803885613     3.5303316999
| 14>  H        1.6733829049     1.6486593096    -0.2995201262
| 15>  H        0.1049284907     2.0606476136    -1.0246488389
| 16>  H        0.3306404888     2.1849039725     0.7339778358
| 17>  H       -0.9525896534     0.1281896286     0.1782759655
| 18>  H        1.3885007387    -2.3956537211     2.2025736092
| 19>  H        1.2447356823    -2.4589043613     0.3600775902
| 20>  H       -0.4253928090     1.0048079640     4.4402034883
| 21> *
| 22>
| 23>                          ****END OF INPUT****

CARTESIAN COORDINATES (ANGSTROEM)
---------------------------------
  C      0.591195    1.609674   -0.157209
  C      0.132927    0.147326    0.022133
  C      0.410314   -0.632638   -1.187155
  N      0.613923   -1.239909   -2.148865
  C      0.784764   -0.483224    1.265502
  C      1.333588   -1.855120    1.260104
  O      2.192928   -0.719655    1.155276
  C      0.331910    0.090538    2.512191
  C     -0.077525    0.580389    3.530332
  H      1.673383    1.648659   -0.299520
  H      0.104928    2.060648   -1.024649
  H      0.330640    2.184904    0.733978
  H     -0.952590    0.128190    0.178276
  H      1.388501   -2.395654    2.202574
  H      1.244736   -2.458904    0.360078
  H     -0.425393    1.004808    4.440203

 Total Charge           Charge          ....    0
 Multiplicity           Mult            ....    1
 Number of Electrons    NEL             ....   64
 Basis Dimension        Dim             ....  321

ORBITAL ENERGIES
----------------

  NO   OCC          E(Eh)            E(eV)
   0   2.0000     -20.597786      -560.4942
   1   2.0000     -15.576632      -423.8617
   2   2.0000     -11.347033      -308.7685
   3   2.0000     -11.309907      -307.7582
   4   2.0000     -11.305075      -307.6267
   5   2.0000     -11.279316      -306.9258
   6   2.0000     -11.259941      -306.3986
   7   2.0000     -11.254816      -306.2591
   8   2.0000     -11.247211      -306.0522
   9   2.0000      -1.444877       -39.3171
  10   2.0000      -1.227146       -33.3924
  11   2.0000      -1.119999       -30.4767
  12   2.0000      -1.058270       -28.7970
  13   2.0000      -0.967447       -26.3256
  14   2.0000      -0.913968       -24.8703
  15   2.0000      -0.893455       -24.3121
  16   2.0000      -0.758062       -20.6279
  17   2.0000      -0.724516       -19.7151
  18   2.0000      -0.722436       -19.6585
  19   2.0000      -0.677640       -18.4395
  20   2.0000      -0.625874       -17.0309
  21   2.0000      -0.591127       -16.0854
  22   2.0000      -0.583668       -15.8824
  23   2.0000      -0.574544       -15.6341
  24   2.0000      -0.550122       -14.9696
  25   2.0000      -0.542045       -14.7498
  26   2.0000      -0.501974       -13.6594
  27   2.0000      -0.488553       -13.2942
  28   2.0000      -0.463618       -12.6157
  29   2.0000      -0.462327       -12.5806
  30   2.0000      -0.422322       -11.4920
  31   2.0000      -0.402263       -10.9461
  32   0.0000       0.126576         3.4443
  33   0.0000       0.139312         3.7909
  34   0.0000       0.147332         4.0091
  35   0.0000       0.150399         4.0926
  36   0.0000       0.156982         4.2717

MULLIKEN ATOMIC CHARGES
-----------------------
   0 C :   -0.431579
   1 C :    0.119722
   2 C :   -0.234346
   3 N :   -0.048159
   4 C :   -0.080787
   5 C :   -0.046613
   6 O :   -0.315379
   7 C :    0.011188
   8 C :   -0.074058
   9 H :    0.161790
  10 H :    0.153526
  11 H :    0.157677
  12 H :    0.141259
  13 H :    0.134295
  14 H :    0.148814
  15 H :    0.202650
Sum of atomic charges:   -0.0000000

LOEWDIN ATOMIC CHARGES
----------------------
   0 C :   -0.251584
   1 C :   -0.214091
   2 C :   -0.165068
   3 N :    0.068392
   4 C :   -0.292121
   5 C :   -0.205894
   6 O :    0.197911
   7 C :   -0.062675
   8 C :   -0.060621
   9 H :    0.137761
  10 H :    0.132285
  11 H :    0.134582
  12 H :    0.186571
  13 H :    0.129484
  14 H :    0.133249
  15 H :    0.131820

  Mayer bond orders larger than 0.1
B(  0-C ,  1-C ) :   0.8721 B(  0-C ,  9-H ) :   0.9269 B(  0-C , 10-H ) :   0.9330
B(  0-C , 11-H ) :   0.9301 B(  1-C ,  2-C ) :   0.9060 B(  1-C ,  4-C ) :   0.9229
B(  1-C , 12-H ) :   0.9098 B(  2-C ,  3-N ) :   2.8719 B(  4-C ,  5-C ) :   0.9863
B(  4-C ,  6-O ) :   0.8534 B(  4-C ,  7-C ) :   1.1321 B(  4-C ,  8-C ) :  -0.1495
B(  5-C ,  6-O ) :   0.8940 B(  5-C , 13-H ) :   0.9166 B(  5-C , 14-H ) :   0.8923
B(  7-C ,  8-C ) :   2.6163 B(  8-C , 15-H ) :   0.8716

MP2 TOTAL ENERGY:     -400.005366093 Eh
FINAL SINGLE POINT ENERGY      -400.005366092798

DIPOLE MOMENT
-------------
                                X             Y             Z
Electronic contribution:      0.84237      -3.30144      -0.45988
Nuclear contribution   :     -1.65864       3.82702       1.72639
                        -----------------------------------------
Total Dipole Moment    :     -0.81627       0.52558       1.26652
                        -----------------------------------------
Magnitude (a.u.)       :      1.59581
Magnitude (Debye)      :      4.05623

                             ****ORCA TERMINATED NORMALLY****
TOTAL RUN TIME: 0 days 0 hours 16 minutes 52 seconds 620 msec
