                         Program Version 3.0.3 - RELEASE   -
|  1> ! RI-MP2 RIJK def2-TZVP def2-TZVP/C def2-TZVP/JK TIGHTSCF
|  2> % maxcore 2000
|  3> % mp2 density relaxed end
|  4> *xyz 0 1
|  5>  C       -0.2366462580     1.5794690838     0.1372469221
|  6>  C        0.0627117082     0.0910708374     0.0068012448
|  7>  C        0.6808343665    -0.5063699041    -1.2534087986
|  8>  C        2.1655654917    -0.4256882514    -1.3140183642
|  9>  C        2.9638791794     0.5622402396    -0.4950038324
| 10>  C        2.3940300738     0.3695269236     0.9178779283
| 11>  O        2.7659025156     0.9076352718     1.9268617477
| 12>  C        1.2420115670    -0.6084965462     0.7712839318
| 13>  N        1.5372438443    -1.4676377285    -0.4497411775
| 14>  H        0.6288206798     2.2064420121    -0.0929643920
| 15>  H       -1.0425692620     1.8639386447    -0.5476818149
| 16>  H       -0.5622705565     1.8228023047     1.1538456503
| 17>  H       -0.8409139219    -0.4816921810     0.2368641067
| 18>  H        0.1140928676    -0.8481941537    -2.1153035391
| 19>  H        2.6177243386    -0.8376130750    -2.2107691313
| 20>  H        4.0289723275     0.3048717860    -0.4963861021
| 21>  H        2.8812844510     1.6080994034    -0.8054938241
| 22>  H        1.0034612773    -1.1603179973     1.6776882346
| 23> *
| 24>
| 25>                          ****END OF INPUT****

CARTESIAN COORDINATES (ANGSTROEM)
---------------------------------
  C     -0.236646    1.579469    0.137247
  C      0.062712    0.091071    0.006801
  C      0.680834   -0.506370   -1.253409
  C      2.165565   -0.425688   -1.314018
  C      2.963879    0.562240   -0.495004
  C      2.394030    0.369527    0.917878
  O      2.765903    0.907635    1.926862
  C      1.242012   -0.608497    0.771284
  N      1.537244   -1.467638   -0.449741
  H      0.628821    2.206442   -0.092964
  H     -1.042569    1.863939   -0.547682
  H     -0.562271    1.822802    1.153846
  H     -0.840914   -0.481692    0.236864
  H      0.114093   -0.848194   -2.115304
  H      2.617724   -0.837613   -2.210769
  H      4.028972    0.304872   -0.496386
  H      2.881284    1.608099   -0.805494
  H      1.003461   -1.160318    1.677688

 Total Charge           Charge          ....    0
 Multiplicity           Mult            ....    1
 Number of Electrons    NEL             ....   66
 Basis Dimension        Dim             ....  333

ORBITAL ENERGIES
----------------

  NO   OCC          E(Eh)            E(eV)
   0   2.0000     -20.553750      -559.2960
   1   2.0000     -15.575353      -423.8269
   2   2.0000     -11.335650      -308.4587
   3   2.0000     -11.278523      -306.9042
   4   2.0000     -11.275896      -306.8327
   5   2.0000     -11.273352      -306.7635
   6   2.0000     -11.259430      -306.3847
   7   2.0000     -11.248780      -306.0949
   8   2.0000     -11.230488      -305.5971
   9   2.0000      -1.398348       -38.0510
  10   2.0000      -1.315121       -35.7863
  11   2.0000      -1.062248       -28.9052
  12   2.0000      -1.041059       -28.3286
  13   2.0000      -0.988896       -26.9092
  14   2.0000      -0.899529       -24.4774
  15   2.0000      -0.816217       -22.2104
  16   2.0000      -0.786415       -21.3994
  17   2.0000      -0.728429       -19.8216
  18   2.0000      -0.704766       -19.1776
  19   2.0000      -0.654093       -17.7988
  20   2.0000      -0.622095       -16.9281
  21   2.0000      -0.607167       -16.5219
  22   2.0000      -0.597238       -16.2517
  23   2.0000      -0.594534       -16.1781
  24   2.0000      -0.577372       -15.7111
  25   2.0000      -0.555321       -15.1110
  26   2.0000      -0.532400       -14.4873
  27   2.0000      -0.516271       -14.0484
  28   2.0000      -0.467520       -12.7219
  29   2.0000      -0.466752       -12.7010
  30   2.0000      -0.443493       -12.0681
  31   2.0000      -0.400851       -10.9077
  32   2.0000      -0.384239       -10.4557
  33   0.0000       0.119062         3.2398
  34   0.0000       0.135958         3.6996
  35   0.0000       0.154748         4.2109
  36   0.0000       0.164802         4.4845
  37   0.0000       0.173683         4.7262

MULLIKEN ATOMIC CHARGES
-----------------------
   0 C :   -0.404966
   1 C :   -0.112914
   2 C :   -0.052969
   3 C :   -0.146514
   4 C :   -0.150704
   5 C :    0.009680
   6 O :   -0.256010
   7 C :    0.124639
   8 N :   -0.235818
   9 H :    0.131527
  10 H :    0.138010
  11 H :    0.143385
  12 H :    0.115541
  13 H :    0.132489
  14 H :    0.129807
  15 H :    0.145838
  16 H :    0.141098
  17 H :    0.147879
Sum of atomic charges:   -0.0000000

LOEWDIN ATOMIC CHARGES
----------------------
   0 C :   -0.288973
   1 C :   -0.219514
   2 C :   -0.180291
   3 C :   -0.226472
   4 C :   -0.207763
   5 C :   -0.299458
   6 O :    0.163457
   7 C :   -0.172546
   8 N :    0.143081
   9 H :    0.125447
  10 H :    0.128728
  11 H :    0.131031
  12 H :    0.162644
  13 H :    0.134917
  14 H :    0.149242
  15 H :    0.158012
  16 H :    0.151560
  17 H :    0.146898

  Mayer bond orders larger than 0.1
B(  0-C ,  1-C ) :   0.9247 B(  0-C ,  9-H ) :   0.9311 B(  0-C , 10-H ) :   0.9323
B(  0-C , 11-H ) :   0.9328 B(  1-C ,  2-C ) :   0.9223 B(  1-C ,  7-C ) :   0.9243
B(  1-C , 12-H ) :   0.9228 B(  2-C ,  3-C ) :   0.9271 B(  2-C ,  8-N ) :   0.8645
B(  2-C , 13-H ) :   0.9051 B(  3-C ,  4-C ) :   0.9274 B(  3-C ,  8-N ) :   0.9079
B(  3-C , 14-H ) :   0.9216 B(  4-C ,  5-C ) :   0.9305 B(  4-C ,  7-C ) :  -0.1356
B(  4-C , 15-H ) :   0.8913 B(  4-C , 16-H ) :   0.8935 B(  5-C ,  6-O ) :   2.0531
B(  5-C ,  7-C ) :   0.8400 B(  7-C ,  8-N ) :   0.9638 B(  7-C , 17-H ) :   0.8967

MP2 TOTAL ENERGY:     -401.242765498 Eh
FINAL SINGLE POINT ENERGY      -401.242765498038

DIPOLE MOMENT
-------------
                                X             Y             Z
Electronic contribution:      3.89756      -3.15184       2.52561
Nuclear contribution   :     -4.45447       3.43496      -3.42568
                        -----------------------------------------
Total Dipole Moment    :     -0.55690       0.28312      -0.90008
                        -----------------------------------------
Magnitude (a.u.)       :      1.09565
Magnitude (Debye)      :      2.78491

                             ****ORCA TERMINATED NORMALLY****
TOTAL RUN TIME: 0 days 0 hours 18 minutes 58 seconds 967 msec
