                         Program Version 3.0.3 - RELEASE   -
|  1> ! RI-MP2 RIJK def2-TZVP def2-TZVP/C def2-TZVP/JK TIGHTSCF
|  2> % maxcore 2000
|  3> % mp2 density relaxed end
|  4> *xyz 0 1
|  5>  C        0.0410298007     1.6212124550     0.0036983120
|  6>  C       -0.1094962596     0.0993482489    -0.1002096837
|  7>  C        0.7241265775    -0.4834230293    -1.2382571685
|  8>  C        2.2417650838    -0.6267154908    -0.9436880691
|  9>  N        2.0309907421    -2.0676999594    -0.6683398605
| 10>  C        0.7218848957    -2.0588656586    -1.3691978209
| 11>  C       -0.3693114785    -2.8893583532    -0.6965423834
| 12>  C        0.8410438427    -2.4486813941    -2.7867963653
| 13>  N        0.9661553991    -2.7636427748    -3.8931121734
| 14>  H        1.0830415408     1.9114792340     0.1752098276
| 15>  H       -0.2937372436     2.1150268558    -0.9150029617
| 16>  H       -0.5531019189     2.0178436044     0.8321651784
| 17>  H        0.1858188471    -0.3664889237     0.8472620452
| 18>  H       -1.1661428637    -0.1498012151    -0.2566378612
| 19>  H        0.4865337561     0.0277104117    -2.1735348098
| 20>  H        2.8662226104    -0.4149631988    -1.8204887747
| 21>  H        2.6329749254    -0.0693824406    -0.0861537025
| 22>  H        2.7251932208    -2.7048749951    -1.0448400833
| 23>  H       -0.4533428232    -2.6104783227     0.3547974484
| 24>  H       -1.3352432610    -2.7442676251    -1.1895137038
| 25>  H       -0.1175488637    -3.9527074385    -0.7508342898
| 26> *
| 27>
| 28>                          ****END OF INPUT****

CARTESIAN COORDINATES (ANGSTROEM)
---------------------------------
  C      0.041030    1.621212    0.003698
  C     -0.109496    0.099348   -0.100210
  C      0.724127   -0.483423   -1.238257
  C      2.241765   -0.626715   -0.943688
  N      2.030991   -2.067700   -0.668340
  C      0.721885   -2.058866   -1.369198
  C     -0.369311   -2.889358   -0.696542
  C      0.841044   -2.448681   -2.786796
  N      0.966155   -2.763643   -3.893112
  H      1.083042    1.911479    0.175210
  H     -0.293737    2.115027   -0.915003
  H     -0.553102    2.017844    0.832165
  H      0.185819   -0.366489    0.847262
  H     -1.166143   -0.149801   -0.256638
  H      0.486534    0.027710   -2.173535
  H      2.866223   -0.414963   -1.820489
  H      2.632975   -0.069382   -0.086154
  H      2.725193   -2.704875   -1.044840
  H     -0.453343   -2.610478    0.354797
  H     -1.335243   -2.744268   -1.189514
  H     -0.117549   -3.952707   -0.750834

 Total Charge           Charge          ....    0
 Multiplicity           Mult            ....    1
 Number of Electrons    NEL             ....   68
 Basis Dimension        Dim             ....  351

ORBITAL ENERGIES
----------------

  NO   OCC          E(Eh)            E(eV)
   0   2.0000     -15.569700      -423.6731
   1   2.0000     -15.565362      -423.5550
   2   2.0000     -11.313901      -307.8669
   3   2.0000     -11.268568      -306.6333
   4   2.0000     -11.266133      -306.5671
   5   2.0000     -11.254067      -306.2387
   6   2.0000     -11.236613      -305.7638
   7   2.0000     -11.235442      -305.7319
   8   2.0000     -11.226230      -305.4812
   9   2.0000      -1.268409       -34.5152
  10   2.0000      -1.210678       -32.9442
  11   2.0000      -1.071571       -29.1589
  12   2.0000      -1.036861       -28.2144
  13   2.0000      -0.967055       -26.3149
  14   2.0000      -0.898420       -24.4473
  15   2.0000      -0.866066       -23.5668
  16   2.0000      -0.776742       -21.1362
  17   2.0000      -0.740039       -20.1375
  18   2.0000      -0.653792       -17.7906
  19   2.0000      -0.629746       -17.1363
  20   2.0000      -0.624118       -16.9831
  21   2.0000      -0.607708       -16.5366
  22   2.0000      -0.575703       -15.6657
  23   2.0000      -0.568446       -15.4682
  24   2.0000      -0.548841       -14.9347
  25   2.0000      -0.535824       -14.5805
  26   2.0000      -0.533838       -14.5265
  27   2.0000      -0.518104       -14.0983
  28   2.0000      -0.497193       -13.5293
  29   2.0000      -0.489349       -13.3159
  30   2.0000      -0.473044       -12.8722
  31   2.0000      -0.455692       -12.4000
  32   2.0000      -0.437815       -11.9135
  33   2.0000      -0.398792       -10.8517
  34   0.0000       0.122631         3.3370
  35   0.0000       0.138599         3.7715
  36   0.0000       0.146364         3.9828
  37   0.0000       0.159575         4.3423
  38   0.0000       0.181314         4.9338

MULLIKEN ATOMIC CHARGES
-----------------------
   0 C :   -0.391306
   1 C :   -0.281669
   2 C :   -0.051210
   3 C :   -0.181829
   4 N :   -0.358213
   5 C :    0.308967
   6 C :   -0.393002
   7 C :   -0.275767
   8 N :   -0.048654
   9 H :    0.127624
  10 H :    0.128331
  11 H :    0.140384
  12 H :    0.136554
  13 H :    0.122187
  14 H :    0.129842
  15 H :    0.126196
  16 H :    0.111375
  17 H :    0.216354
  18 H :    0.146917
  19 H :    0.140592
  20 H :    0.146328
Sum of atomic charges:    0.0000000

LOEWDIN ATOMIC CHARGES
----------------------
   0 C :   -0.311780
   1 C :   -0.272004
   2 C :   -0.178779
   3 C :   -0.244281
   4 N :    0.040829
   5 C :   -0.299559
   6 C :   -0.250815
   7 C :   -0.158437
   8 N :    0.060599
   9 H :    0.121709
  10 H :    0.122709
  11 H :    0.123539
  12 H :    0.143959
  13 H :    0.141086
  14 H :    0.152655
  15 H :    0.123965
  16 H :    0.122243
  17 H :    0.162693
  18 H :    0.131718
  19 H :    0.133176
  20 H :    0.134776

  Mayer bond orders larger than 0.1
B(  0-C ,  1-C ) :   0.9186 B(  0-C ,  9-H ) :   0.9402 B(  0-C , 10-H ) :   0.9375
B(  0-C , 11-H ) :   0.9418 B(  1-C ,  2-C ) :   0.8912 B(  1-C , 12-H ) :   0.9377
B(  1-C , 13-H ) :   0.9313 B(  2-C ,  3-C ) :   0.9174 B(  2-C ,  5-C ) :   0.8443
B(  2-C , 14-H ) :   0.9170 B(  3-C ,  4-N ) :   0.9665 B(  3-C , 15-H ) :   0.9178
B(  3-C , 16-H ) :   0.9164 B(  4-N ,  5-C ) :   1.0028 B(  4-N , 17-H ) :   0.8843
B(  5-C ,  6-C ) :   0.8773 B(  5-C ,  7-C ) :   0.9436 B(  6-C , 18-H ) :   0.9379
B(  6-C , 19-H ) :   0.9317 B(  6-C , 20-H ) :   0.9253 B(  7-C ,  8-N ) :   2.8749

MP2 TOTAL ENERGY:     -382.596841234 Eh
FINAL SINGLE POINT ENERGY      -382.596841234405

DIPOLE MOMENT
-------------
                                X             Y             Z
Electronic contribution:      3.00665      -6.98432      -7.37729
Nuclear contribution   :     -3.12028       7.63402       8.44127
                        -----------------------------------------
Total Dipole Moment    :     -0.11363       0.64970       1.06398
                        -----------------------------------------
Magnitude (a.u.)       :      1.25183
Magnitude (Debye)      :      3.18190

                             ****ORCA TERMINATED NORMALLY****
TOTAL RUN TIME: 0 days 0 hours 34 minutes 6 seconds 689 msec
