                         Program Version 3.0.3 - RELEASE   -
|  1> ! RI-MP2 RIJK def2-TZVP def2-TZVP/C def2-TZVP/JK TIGHTSCF
|  2> % maxcore 2000
|  3> % mp2 density relaxed end
|  4> *xyz 0 1
|  5>  C        0.1097975403     1.4501136557    -0.3472471316
|  6>  C       -0.0641439225     0.0352678397     0.2130369156
|  7>  C       -1.4890397625    -0.5487688691     0.0794521315
|  8>  C       -2.5294074864     0.3072419685     0.8046977004
|  9>  O       -1.8866685704    -0.5498177659    -1.2997190874
| 10>  C       -1.4733462159    -2.0055657445     0.6318707849
| 11>  C       -2.8308110021    -2.7040448748     0.5806171343
| 12>  C       -3.2037603802    -3.3922597336    -0.7167234015
| 13>  O       -3.5742416638    -2.6858488673     1.5363367662
| 14>  H        1.1666479597     1.7329664530    -0.3513739754
| 15>  H       -0.2654376399     1.5107401518    -1.3725437022
| 16>  H       -0.4269168709     2.1929042380     0.2495002999
| 17>  H        0.6261601759    -0.6461743748    -0.3057483555
| 18>  H        0.2291422203     0.0095388310     1.2692629393
| 19>  H       -2.5642688584     1.3082021874     0.3700330791
| 20>  H       -3.5239284391    -0.1347817443     0.7227551979
| 21>  H       -2.2856920307     0.3904283393     1.8673726584
| 22>  H       -1.1856589229    -0.9722830636    -1.8090110175
| 23>  H       -0.7320644344    -2.5796601755     0.0611777698
| 24>  H       -1.1571515932    -1.9839641021     1.6786664450
| 25>  H       -2.4679839422    -4.1664143184    -0.9642359926
| 26>  H       -4.1949598370    -3.8394394506    -0.6328589876
| 27>  H       -3.1830381938    -2.6542992699    -1.5252302810
| 28> *
| 29>
| 30>                          ****END OF INPUT****

CARTESIAN COORDINATES (ANGSTROEM)
---------------------------------
  C      0.109798    1.450114   -0.347247
  C     -0.064144    0.035268    0.213037
  C     -1.489040   -0.548769    0.079452
  C     -2.529407    0.307242    0.804698
  O     -1.886669   -0.549818   -1.299719
  C     -1.473346   -2.005566    0.631871
  C     -2.830811   -2.704045    0.580617
  C     -3.203760   -3.392260   -0.716723
  O     -3.574242   -2.685849    1.536337
  H      1.166648    1.732966   -0.351374
  H     -0.265438    1.510740   -1.372544
  H     -0.426917    2.192904    0.249500
  H      0.626160   -0.646174   -0.305748
  H      0.229142    0.009539    1.269263
  H     -2.564269    1.308202    0.370033
  H     -3.523928   -0.134782    0.722755
  H     -2.285692    0.390428    1.867373
  H     -1.185659   -0.972283   -1.809011
  H     -0.732064   -2.579660    0.061178
  H     -1.157152   -1.983964    1.678666
  H     -2.467984   -4.166414   -0.964236
  H     -4.194960   -3.839439   -0.632859
  H     -3.183038   -2.654299   -1.525230

 Total Charge           Charge          ....    0
 Multiplicity           Mult            ....    1
 Number of Electrons    NEL             ....   72
 Basis Dimension        Dim             ....  363

ORBITAL ENERGIES
----------------

  NO   OCC          E(Eh)            E(eV)
   0   2.0000     -20.563677      -559.5661
   1   2.0000     -20.539222      -558.9007
   2   2.0000     -11.326663      -308.2142
   3   2.0000     -11.302009      -307.5433
   4   2.0000     -11.236840      -305.7700
   5   2.0000     -11.233566      -305.6809
   6   2.0000     -11.226429      -305.4867
   7   2.0000     -11.219049      -305.2859
   8   2.0000     -11.212107      -305.0970
   9   2.0000      -1.383810       -37.6554
  10   2.0000      -1.371552       -37.3218
  11   2.0000      -1.088905       -29.6306
  12   2.0000      -1.030657       -28.0456
  13   2.0000      -0.992490       -27.0070
  14   2.0000      -0.950859       -25.8742
  15   2.0000      -0.875548       -23.8249
  16   2.0000      -0.781819       -21.2744
  17   2.0000      -0.739101       -20.1120
  18   2.0000      -0.673255       -18.3202
  19   2.0000      -0.654873       -17.8200
  20   2.0000      -0.654444       -17.8083
  21   2.0000      -0.631717       -17.1899
  22   2.0000      -0.624311       -16.9884
  23   2.0000      -0.587576       -15.9887
  24   2.0000      -0.582404       -15.8480
  25   2.0000      -0.555435       -15.1141
  26   2.0000      -0.543727       -14.7956
  27   2.0000      -0.533983       -14.5304
  28   2.0000      -0.525166       -14.2905
  29   2.0000      -0.524900       -14.2832
  30   2.0000      -0.515021       -14.0144
  31   2.0000      -0.495622       -13.4866
  32   2.0000      -0.490999       -13.3608
  33   2.0000      -0.464123       -12.6294
  34   2.0000      -0.441908       -12.0249
  35   2.0000      -0.401383       -10.9222
  36   0.0000       0.113122         3.0782
  37   0.0000       0.147704         4.0192
  38   0.0000       0.150318         4.0904
  39   0.0000       0.164099         4.4654
  40   0.0000       0.172132         4.6839

MULLIKEN ATOMIC CHARGES
-----------------------
   0 C :   -0.400992
   1 C :   -0.227247
   2 C :    0.158919
   3 C :   -0.423954
   4 O :   -0.477566
   5 C :   -0.201310
   6 C :    0.234517
   7 C :   -0.439393
   8 O :   -0.288405
   9 H :    0.137157
  10 H :    0.134274
  11 H :    0.135177
  12 H :    0.107176
  13 H :    0.118448
  14 H :    0.142269
  15 H :    0.153429
  16 H :    0.129128
  17 H :    0.313487
  18 H :    0.118758
  19 H :    0.130912
  20 H :    0.135638
  21 H :    0.145576
  22 H :    0.164004
Sum of atomic charges:   -0.0000000

LOEWDIN ATOMIC CHARGES
----------------------
   0 C :   -0.317151
   1 C :   -0.265236
   2 C :   -0.393125
   3 C :   -0.260086
   4 O :    0.007698
   5 C :   -0.204482
   6 C :   -0.348470
   7 C :   -0.286097
   8 O :    0.145772
   9 H :    0.122285
  10 H :    0.124150
  11 H :    0.122038
  12 H :    0.136733
  13 H :    0.143507
  14 H :    0.128952
  15 H :    0.132984
  16 H :    0.132651
  17 H :    0.173857
  18 H :    0.144433
  19 H :    0.155569
  20 H :    0.133695
  21 H :    0.131031
  22 H :    0.139293

  Mayer bond orders larger than 0.1
B(  0-C ,  1-C ) :   0.9258 B(  0-C ,  9-H ) :   0.9395 B(  0-C , 10-H ) :   0.9336
B(  0-C , 11-H ) :   0.9408 B(  1-C ,  2-C ) :   0.9297 B(  1-C , 12-H ) :   0.9198
B(  1-C , 13-H ) :   0.9286 B(  2-C ,  3-C ) :   0.9085 B(  2-C ,  4-O ) :   0.8896
B(  2-C ,  5-C ) :   0.9151 B(  3-C , 14-H ) :   0.9403 B(  3-C , 15-H ) :   0.9267
B(  3-C , 16-H ) :   0.9302 B(  4-O , 17-H ) :   0.8396 B(  5-C ,  6-C ) :   0.8672
B(  5-C , 18-H ) :   0.9088 B(  5-C , 19-H ) :   0.9108 B(  6-C ,  7-C ) :   0.9176
B(  6-C ,  8-O ) :   2.0032 B(  7-C , 20-H ) :   0.9116 B(  7-C , 21-H ) :   0.9364
B(  7-C , 22-H ) :   0.9115

MP2 TOTAL ENERGY:     -424.753087213 Eh
FINAL SINGLE POINT ENERGY      -424.753087213147

DIPOLE MOMENT
-------------
                                X             Y             Z
Electronic contribution:     -4.81466      -5.31650       1.89600
Nuclear contribution   :      6.00125       5.29360      -2.51291
                        -----------------------------------------
Total Dipole Moment    :      1.18659      -0.02290      -0.61691
                        -----------------------------------------
Magnitude (a.u.)       :      1.33757
Magnitude (Debye)      :      3.39983

                             ****ORCA TERMINATED NORMALLY****
TOTAL RUN TIME: 0 days 0 hours 20 minutes 50 seconds 316 msec
