                         Program Version 3.0.3 - RELEASE   -
|  1> ! RI-MP2 RIJK def2-TZVP def2-TZVP/C def2-TZVP/JK TIGHTSCF
|  2> % maxcore 2000
|  3> % mp2 density relaxed end
|  4> *xyz 0 1
|  5>  C        0.0532056100    -1.1285451944     0.2383353677
|  6>  C       -0.0374195352     0.0673534307     0.1186185155
|  7>  C       -0.0785460556     1.4753033843    -0.0265944160
|  8>  C       -1.1786049538     2.2470485749    -0.0624204266
|  9>  C       -0.8702347962     3.7117956346    -0.2363815973
| 10>  C        0.6616455288     3.7617968145    -0.1437361996
| 11>  O        1.1375621425     3.9642312813     1.2066658873
| 12>  C        1.8319627994     2.6980208953     1.2087664066
| 13>  C        1.1861530420     2.3025840126    -0.1384097379
| 14>  H        0.1141577476    -2.1831670363     0.3449967818
| 15>  H       -2.1890047096     1.8629922357     0.0175263086
| 16>  H       -1.2443144759     4.0928646875    -1.1965611231
| 17>  H       -1.3140609411     4.3362859693     0.5484255187
| 18>  H        1.1252379683     4.4699197363    -0.8389543383
| 19>  H        2.9208398096     2.8319672474     1.1651670291
| 20>  H        1.5754227226     2.0836120727     2.0786534331
| 21>  H        1.8629240266     1.9624961138    -0.9241377698
| 22> *
| 23>
| 24>                          ****END OF INPUT****

CARTESIAN COORDINATES (ANGSTROEM)
---------------------------------
  C      0.053206   -1.128545    0.238335
  C     -0.037420    0.067353    0.118619
  C     -0.078546    1.475303   -0.026594
  C     -1.178605    2.247049   -0.062420
  C     -0.870235    3.711796   -0.236382
  C      0.661646    3.761797   -0.143736
  O      1.137562    3.964231    1.206666
  C      1.831963    2.698021    1.208766
  C      1.186153    2.302584   -0.138410
  H      0.114158   -2.183167    0.344997
  H     -2.189005    1.862992    0.017526
  H     -1.244314    4.092865   -1.196561
  H     -1.314061    4.336286    0.548426
  H      1.125238    4.469920   -0.838954
  H      2.920840    2.831967    1.165167
  H      1.575423    2.083612    2.078653
  H      1.862924    1.962496   -0.924138

 Total Charge           Charge          ....    0
 Multiplicity           Mult            ....    1
 Number of Electrons    NEL             ....   64
 Basis Dimension        Dim             ....  327

ORBITAL ENERGIES
----------------

  NO   OCC          E(Eh)            E(eV)
   0   2.0000     -20.548909      -559.1642
   1   2.0000     -11.287558      -307.1501
   2   2.0000     -11.280131      -306.9480
   3   2.0000     -11.257216      -306.3244
   4   2.0000     -11.248812      -306.0957
   5   2.0000     -11.244613      -305.9815
   6   2.0000     -11.241145      -305.8871
   7   2.0000     -11.235872      -305.7436
   8   2.0000     -11.231615      -305.6278
   9   2.0000      -1.381391       -37.5896
  10   2.0000      -1.144942       -31.1555
  11   2.0000      -1.044181       -28.4136
  12   2.0000      -1.003690       -27.3118
  13   2.0000      -0.960785       -26.1443
  14   2.0000      -0.896641       -24.3988
  15   2.0000      -0.800724       -21.7888
  16   2.0000      -0.760728       -20.7005
  17   2.0000      -0.719627       -19.5821
  18   2.0000      -0.703215       -19.1354
  19   2.0000      -0.670037       -18.2326
  20   2.0000      -0.633485       -17.2380
  21   2.0000      -0.609857       -16.5951
  22   2.0000      -0.565042       -15.3756
  23   2.0000      -0.560482       -15.2515
  24   2.0000      -0.544542       -14.8177
  25   2.0000      -0.508509       -13.8372
  26   2.0000      -0.490595       -13.3498
  27   2.0000      -0.458462       -12.4754
  28   2.0000      -0.439389       -11.9564
  29   2.0000      -0.420649       -11.4464
  30   2.0000      -0.392501       -10.6805
  31   2.0000      -0.331558        -9.0222
  32   0.0000       0.107898         2.9361
  33   0.0000       0.144939         3.9440
  34   0.0000       0.156787         4.2664
  35   0.0000       0.165886         4.5140
  36   0.0000       0.176827         4.8117

MULLIKEN ATOMIC CHARGES
-----------------------
   0 C :   -0.114364
   1 C :    0.017177
   2 C :   -0.166065
   3 C :   -0.234753
   4 C :   -0.142348
   5 C :    0.060819
   6 O :   -0.337030
   7 C :   -0.040303
   8 C :   -0.067781
   9 H :    0.193840
  10 H :    0.138964
  11 H :    0.120231
  12 H :    0.134419
  13 H :    0.095729
  14 H :    0.097059
  15 H :    0.111631
  16 H :    0.132773
Sum of atomic charges:   -0.0000000

LOEWDIN ATOMIC CHARGES
----------------------
   0 C :   -0.076809
   1 C :   -0.070806
   2 C :   -0.145976
   3 C :   -0.086286
   4 C :   -0.221710
   5 C :   -0.228877
   6 O :    0.135200
   7 C :   -0.240115
   8 C :   -0.153714
   9 H :    0.128034
  10 H :    0.143797
  11 H :    0.143237
  12 H :    0.151658
  13 H :    0.132433
  14 H :    0.117983
  15 H :    0.122746
  16 H :    0.149206

  Mayer bond orders larger than 0.1
B(  0-C ,  1-C ) :   2.5754 B(  0-C ,  2-C ) :  -0.1603 B(  0-C ,  9-H ) :   0.8795
B(  1-C ,  2-C ) :   1.1857 B(  2-C ,  3-C ) :   1.6716 B(  2-C ,  8-C ) :   0.9246
B(  3-C ,  4-C ) :   0.9578 B(  3-C , 10-H ) :   0.9220 B(  4-C ,  5-C ) :   0.9122
B(  4-C , 11-H ) :   0.9004 B(  4-C , 12-H ) :   0.9083 B(  5-C ,  6-O ) :   0.9895
B(  5-C ,  8-C ) :   0.9330 B(  5-C , 13-H ) :   0.9319 B(  6-O ,  7-C ) :   0.9422
B(  7-C ,  8-C ) :   0.9380 B(  7-C , 14-H ) :   0.9175 B(  7-C , 15-H ) :   0.9067
B(  8-C , 16-H ) :   0.9056

MP2 TOTAL ENERGY:     -383.961521177 Eh
FINAL SINGLE POINT ENERGY      -383.961521176571

DIPOLE MOMENT
-------------
                                X             Y             Z
Electronic contribution:     -0.18863      -2.01236       0.39191
Nuclear contribution   :      0.19386       1.73728      -0.86497
                        -----------------------------------------
Total Dipole Moment    :      0.00524      -0.27508      -0.47306
                        -----------------------------------------
Magnitude (a.u.)       :      0.54725
Magnitude (Debye)      :      1.39100

                             ****ORCA TERMINATED NORMALLY****
TOTAL RUN TIME: 0 days 0 hours 17 minutes 28 seconds 406 msec
