                         Program Version 3.0.3 - RELEASE   -
|  1> ! RI-MP2 RIJK def2-TZVP def2-TZVP/C def2-TZVP/JK TIGHTSCF
|  2> % maxcore 2000
|  3> % mp2 density relaxed end
|  4> *xyz 0 1
|  5>  C       -0.0219005297     1.5386847056    -0.1442056575
|  6>  C        1.3942743931     2.1404478638    -0.0400753855
|  7>  C        2.2637761276     1.5240185213     1.0760677431
|  8>  C        1.7825027957     1.7953034699     2.5176030778
|  9>  C        0.4998499060     1.0316853091     2.8877400271
| 10>  O        0.4790872795    -0.3169361406     2.4384699278
| 11>  C        0.9068054478    -0.5497228288     1.0943860110
| 12>  C       -0.0458613999     0.0034655775     0.0153021840
| 13>  C        2.3215212369    -0.0000190264     0.8881385163
| 14>  H       -0.6715777249     1.9969995470     0.6058645471
| 15>  H       -0.4598865584     1.8084040800    -1.1121466242
| 16>  H        1.9215896452     1.9813055001    -0.9903235690
| 17>  H        1.3238977677     3.2270708895     0.0907488084
| 18>  H        3.2712356084     1.9457380433     0.9786716540
| 19>  H        2.5847057248     1.4859873482     3.1988987633
| 20>  H        1.6191119059     2.8669431752     2.6848695792
| 21>  H        0.4024412425     0.9738971473     3.9770895669
| 22>  H       -0.3850593442     1.5701157828     2.5232912858
| 23>  H        0.9093083798    -1.6420234249     1.0151879875
| 24>  H       -1.0649491020    -0.3402734912     0.2223337280
| 25>  H        0.2541667759    -0.4626950319    -0.9329603631
| 26>  H        2.6842809492    -0.2593133245    -0.1135998688
| 27>  H        3.0001620231    -0.4572534420     1.6164792609
| 28> *
| 29>
| 30>                          ****END OF INPUT****

CARTESIAN COORDINATES (ANGSTROEM)
---------------------------------
  C     -0.021901    1.538685   -0.144206
  C      1.394274    2.140448   -0.040075
  C      2.263776    1.524019    1.076068
  C      1.782503    1.795303    2.517603
  C      0.499850    1.031685    2.887740
  O      0.479087   -0.316936    2.438470
  C      0.906805   -0.549723    1.094386
  C     -0.045861    0.003466    0.015302
  C      2.321521   -0.000019    0.888139
  H     -0.671578    1.997000    0.605865
  H     -0.459887    1.808404   -1.112147
  H      1.921590    1.981306   -0.990324
  H      1.323898    3.227071    0.090749
  H      3.271236    1.945738    0.978672
  H      2.584706    1.485987    3.198899
  H      1.619112    2.866943    2.684870
  H      0.402441    0.973897    3.977090
  H     -0.385059    1.570116    2.523291
  H      0.909308   -1.642023    1.015188
  H     -1.064949   -0.340273    0.222334
  H      0.254167   -0.462695   -0.932960
  H      2.684281   -0.259313   -0.113600
  H      3.000162   -0.457253    1.616479

 Total Charge           Charge          ....    0
 Multiplicity           Mult            ....    1
 Number of Electrons    NEL             ....   70
 Basis Dimension        Dim             ....  363

ORBITAL ENERGIES
----------------

  NO   OCC          E(Eh)            E(eV)
   0   2.0000     -20.540089      -558.9242
   1   2.0000     -11.269306      -306.6534
   2   2.0000     -11.264811      -306.5311
   3   2.0000     -11.225327      -305.4567
   4   2.0000     -11.218704      -305.2765
   5   2.0000     -11.218613      -305.2740
   6   2.0000     -11.218036      -305.2583
   7   2.0000     -11.216400      -305.2138
   8   2.0000     -11.213028      -305.1220
   9   2.0000      -1.359447       -36.9924
  10   2.0000      -1.112307       -30.2674
  11   2.0000      -1.046937       -28.4886
  12   2.0000      -1.004587       -27.3362
  13   2.0000      -0.955836       -26.0096
  14   2.0000      -0.864412       -23.5218
  15   2.0000      -0.814527       -22.1644
  16   2.0000      -0.812255       -22.1026
  17   2.0000      -0.713600       -19.4180
  18   2.0000      -0.676342       -18.4042
  19   2.0000      -0.638619       -17.3777
  20   2.0000      -0.621193       -16.9035
  21   2.0000      -0.611656       -16.6440
  22   2.0000      -0.589994       -16.0546
  23   2.0000      -0.587037       -15.9741
  24   2.0000      -0.558146       -15.1879
  25   2.0000      -0.546129       -14.8609
  26   2.0000      -0.522383       -14.2148
  27   2.0000      -0.517240       -14.0748
  28   2.0000      -0.494930       -13.4677
  29   2.0000      -0.479832       -13.0569
  30   2.0000      -0.467156       -12.7120
  31   2.0000      -0.452415       -12.3108
  32   2.0000      -0.432405       -11.7663
  33   2.0000      -0.412456       -11.2235
  34   2.0000      -0.388364       -10.5679
  35   0.0000       0.125414         3.4127
  36   0.0000       0.157096         4.2748
  37   0.0000       0.159426         4.3382
  38   0.0000       0.171669         4.6713
  39   0.0000       0.191208         5.2030

MULLIKEN ATOMIC CHARGES
-----------------------
   0 C :   -0.225436
   1 C :   -0.284470
   2 C :    0.051876
   3 C :   -0.272834
   4 C :   -0.080541
   5 O :   -0.323992
   6 C :    0.144791
   7 C :   -0.283766
   8 C :   -0.294429
   9 H :    0.113074
  10 H :    0.121492
  11 H :    0.112268
  12 H :    0.116778
  13 H :    0.100183
  14 H :    0.113420
  15 H :    0.116375
  16 H :    0.119096
  17 H :    0.086195
  18 H :    0.104351
  19 H :    0.123162
  20 H :    0.110091
  21 H :    0.115134
  22 H :    0.117183
Sum of atomic charges:   -0.0000000

LOEWDIN ATOMIC CHARGES
----------------------
   0 C :   -0.264799
   1 C :   -0.241446
   2 C :   -0.254471
   3 C :   -0.244642
   4 C :   -0.314404
   5 O :    0.165624
   6 C :   -0.314121
   7 C :   -0.242928
   8 C :   -0.222380
   9 H :    0.132140
  10 H :    0.135803
  11 H :    0.140131
  12 H :    0.137189
  13 H :    0.150787
  14 H :    0.141299
  15 H :    0.140391
  16 H :    0.128318
  17 H :    0.115627
  18 H :    0.145115
  19 H :    0.140761
  20 H :    0.143091
  21 H :    0.141470
  22 H :    0.141444

  Mayer bond orders larger than 0.1
B(  0-C ,  1-C ) :   0.9373 B(  0-C ,  7-C ) :   0.9348 B(  0-C ,  9-H ) :   0.9349
B(  0-C , 10-H ) :   0.9328 B(  1-C ,  2-C ) :   0.9090 B(  1-C , 11-H ) :   0.9322
B(  1-C , 12-H ) :   0.9295 B(  2-C ,  3-C ) :   0.8969 B(  2-C ,  8-C ) :   0.9120
B(  2-C , 13-H ) :   0.9318 B(  3-C ,  4-C ) :   0.9562 B(  3-C , 14-H ) :   0.9243
B(  3-C , 15-H ) :   0.9221 B(  4-C ,  5-O ) :   0.9499 B(  4-C , 16-H ) :   0.9319
B(  4-C , 17-H ) :   0.9312 B(  5-O ,  6-C ) :   0.9129 B(  6-C ,  7-C ) :   0.9160
B(  6-C ,  8-C ) :   0.9354 B(  6-C , 18-H ) :   0.9313 B(  7-C , 19-H ) :   0.9234
B(  7-C , 20-H ) :   0.9278 B(  8-C , 21-H ) :   0.9256 B(  8-C , 22-H ) :   0.9207

MP2 TOTAL ENERGY:     -387.647280679 Eh
FINAL SINGLE POINT ENERGY      -387.647280678675

DIPOLE MOMENT
-------------
                                X             Y             Z
Electronic contribution:     -0.42230      -2.97103       2.57437
Nuclear contribution   :      0.64042       3.40076      -2.94209
                        -----------------------------------------
Total Dipole Moment    :      0.21812       0.42973      -0.36772
                        -----------------------------------------
Magnitude (a.u.)       :      0.60619
Magnitude (Debye)      :      1.54081

                             ****ORCA TERMINATED NORMALLY****
TOTAL RUN TIME: 0 days 0 hours 23 minutes 43 seconds 25 msec
