                         Program Version 3.0.3 - RELEASE   -
|  1> ! RI-MP2 RIJK def2-TZVP def2-TZVP/C def2-TZVP/JK TIGHTSCF
|  2> % maxcore 2000
|  3> % mp2 density relaxed end
|  4> *xyz 0 1
|  5>  C        0.5607698628     1.4915208021    -0.4025699149
|  6>  N        0.1660436504     0.1356028446    -0.0348278159
|  7>  C        1.2150920748    -0.8106030200     0.3335129581
|  8>  C        0.2576382581    -0.2987583565     1.3547290046
|  9>  C        0.6967722656     0.5786567568     2.5123096464
| 10>  C        0.8346733080    -0.2042991975     3.8525102699
| 11>  N        2.2282613300    -0.0014141195     4.2799176330
| 12>  C        2.7607655096     0.7174812576     3.3863355091
| 13>  O        2.0292729580     1.1349191646     2.3220069401
| 14>  H        1.4323996502     1.8766607870     0.1422670402
| 15>  H        0.7857248593     1.5043583721    -1.4735299013
| 16>  H       -0.2840200209     2.1674391219    -0.2322786531
| 17>  H        1.1152085708    -1.8171448200    -0.0645669955
| 18>  H        2.2345000699    -0.4366703456     0.3967595401
| 19>  H       -0.5729032015    -0.9403916515     1.6523801542
| 20>  H        0.0187483972     1.4333663329     2.6112248451
| 21>  H        0.1510078401     0.1621838437     4.6242636571
| 22>  H        0.6404954264    -1.2747602060     3.7225088812
| 23>  H        3.7914115213     1.0544572632     3.3769792416
| 24> *
| 25>
| 26>                          ****END OF INPUT****

CARTESIAN COORDINATES (ANGSTROEM)
---------------------------------
  C      0.560770    1.491521   -0.402570
  N      0.166044    0.135603   -0.034828
  C      1.215092   -0.810603    0.333513
  C      0.257638   -0.298758    1.354729
  C      0.696772    0.578657    2.512310
  C      0.834673   -0.204299    3.852510
  N      2.228261   -0.001414    4.279918
  C      2.760766    0.717481    3.386336
  O      2.029273    1.134919    2.322007
  H      1.432400    1.876661    0.142267
  H      0.785725    1.504358   -1.473530
  H     -0.284020    2.167439   -0.232279
  H      1.115209   -1.817145   -0.064567
  H      2.234500   -0.436670    0.396760
  H     -0.572903   -0.940392    1.652380
  H      0.018748    1.433366    2.611225
  H      0.151008    0.162184    4.624264
  H      0.640495   -1.274760    3.722509
  H      3.791412    1.054457    3.376979

 Total Charge           Charge          ....    0
 Multiplicity           Mult            ....    1
 Number of Electrons    NEL             ....   68
 Basis Dimension        Dim             ....  339

ORBITAL ENERGIES
----------------

  NO   OCC          E(Eh)            E(eV)
   0   2.0000     -20.599862      -560.5507
   1   2.0000     -15.560233      -423.4155
   2   2.0000     -15.553920      -423.2437
   3   2.0000     -11.335104      -308.4439
   4   2.0000     -11.306161      -307.6563
   5   2.0000     -11.267102      -306.5934
   6   2.0000     -11.267055      -306.5922
   7   2.0000     -11.255246      -306.2708
   8   2.0000     -11.243101      -305.9403
   9   2.0000      -1.442359       -39.2486
  10   2.0000      -1.274780       -34.6885
  11   2.0000      -1.217786       -33.1376
  12   2.0000      -1.050834       -28.5946
  13   2.0000      -0.988372       -26.8950
  14   2.0000      -0.891006       -24.2455
  15   2.0000      -0.837833       -22.7986
  16   2.0000      -0.822804       -22.3896
  17   2.0000      -0.772929       -21.0325
  18   2.0000      -0.719264       -19.5722
  19   2.0000      -0.697349       -18.9758
  20   2.0000      -0.654587       -17.8122
  21   2.0000      -0.636385       -17.3169
  22   2.0000      -0.592131       -16.1127
  23   2.0000      -0.588219       -16.0063
  24   2.0000      -0.575779       -15.6677
  25   2.0000      -0.566563       -15.4170
  26   2.0000      -0.548660       -14.9298
  27   2.0000      -0.526039       -14.3142
  28   2.0000      -0.520629       -14.1670
  29   2.0000      -0.462002       -12.5717
  30   2.0000      -0.460784       -12.5386
  31   2.0000      -0.432311       -11.7638
  32   2.0000      -0.389008       -10.5855
  33   2.0000      -0.370638       -10.0856
  34   0.0000       0.137111         3.7310
  35   0.0000       0.152174         4.1409
  36   0.0000       0.160689         4.3726
  37   0.0000       0.175287         4.7698
  38   0.0000       0.181216         4.9311

MULLIKEN ATOMIC CHARGES
-----------------------
   0 C :   -0.312023
   1 N :   -0.209254
   2 C :   -0.174432
   3 C :   -0.128683
   4 C :    0.096588
   5 C :   -0.122322
   6 N :   -0.262975
   7 C :    0.094253
   8 O :   -0.287756
   9 H :    0.136741
  10 H :    0.140427
  11 H :    0.129722
  12 H :    0.128376
  13 H :    0.130483
  14 H :    0.127917
  15 H :    0.112430
  16 H :    0.125692
  17 H :    0.126583
  18 H :    0.148232
Sum of atomic charges:    0.0000000

LOEWDIN ATOMIC CHARGES
----------------------
   0 C :   -0.331532
   1 N :    0.089377
   2 C :   -0.239246
   3 C :   -0.257427
   4 C :   -0.247740
   5 C :   -0.249467
   6 N :    0.064031
   7 C :   -0.353444
   8 O :    0.223799
   9 H :    0.110856
  10 H :    0.119349
  11 H :    0.117364
  12 H :    0.123815
  13 H :    0.128250
  14 H :    0.150315
  15 H :    0.146952
  16 H :    0.132945
  17 H :    0.137194
  18 H :    0.134606

  Mayer bond orders larger than 0.1
B(  0-C ,  1-N ) :   0.8729 B(  0-C ,  9-H ) :   0.9253 B(  0-C , 10-H ) :   0.9357
B(  0-C , 11-H ) :   0.9386 B(  1-N ,  2-C ) :   0.9008 B(  1-N ,  3-C ) :   0.9468
B(  2-C ,  3-C ) :   0.9410 B(  2-C , 12-H ) :   0.9162 B(  2-C , 13-H ) :   0.9158
B(  3-C ,  4-C ) :   0.9241 B(  3-C , 14-H ) :   0.9118 B(  4-C ,  5-C ) :   0.9149
B(  4-C ,  8-O ) :   0.8260 B(  4-C , 15-H ) :   0.9270 B(  5-C ,  6-N ) :   0.9398
B(  5-C , 16-H ) :   0.9203 B(  5-C , 17-H ) :   0.9215 B(  6-N ,  7-C ) :   1.8306
B(  7-C ,  8-O ) :   1.0555 B(  7-C , 18-H ) :   0.9220

MP2 TOTAL ENERGY:     -418.470687461 Eh
FINAL SINGLE POINT ENERGY      -418.470687461348

DIPOLE MOMENT
-------------
                                X             Y             Z
Electronic contribution:      2.40771      -0.18139       4.14973
Nuclear contribution   :     -2.50739       0.42178      -4.29700
                        -----------------------------------------
Total Dipole Moment    :     -0.09968       0.24039      -0.14728
                        -----------------------------------------
Magnitude (a.u.)       :      0.29902
Magnitude (Debye)      :      0.76006

                             ****ORCA TERMINATED NORMALLY****
TOTAL RUN TIME: 0 days 0 hours 17 minutes 11 seconds 585 msec
