                         Program Version 3.0.3 - RELEASE   -
|  1> ! RI-MP2 RIJK def2-TZVP def2-TZVP/C def2-TZVP/JK TIGHTSCF
|  2> % maxcore 2000
|  3> % mp2 density relaxed end
|  4> *xyz 0 1
|  5>  C       -0.2116786228     1.5493262227    -0.0701706738
|  6>  C        0.0316580458     0.0458800643     0.0391640211
|  7>  N        0.7322107539    -0.5376194627    -1.1073955621
|  8>  C        1.9075540698    -1.1740142516    -0.7958490365
|  9>  N        2.9028266470    -1.5409504976    -1.4994052208
| 10>  C        1.9094892923    -1.4144616181     0.7057703803
| 11>  O        3.1776459387    -1.4500940602     1.2709627893
| 12>  C        0.9812284284    -0.3053674451     1.2088036272
| 13>  O        0.9767925978     0.2261840129     2.2823288014
| 14>  H        0.7252714425     2.0829329765    -0.2549975021
| 15>  H       -0.9119637230     1.7773751215    -0.8796478386
| 16>  H       -0.6349835403     1.9142720866     0.8686646953
| 17>  H       -0.9278150810    -0.4648372018     0.2106723428
| 18>  H        0.5609113974    -0.1967542273    -2.0408156438
| 19>  H        2.8187409653    -1.2894157861    -2.4839611352
| 20>  H        1.3537987011    -2.3578067210     0.8845958865
| 21>  H        3.7757554069    -1.6201335931     0.5250660588
| 22> *
| 23>
| 24>                          ****END OF INPUT****

CARTESIAN COORDINATES (ANGSTROEM)
---------------------------------
  C     -0.211679    1.549326   -0.070171
  C      0.031658    0.045880    0.039164
  N      0.732211   -0.537619   -1.107396
  C      1.907554   -1.174014   -0.795849
  N      2.902827   -1.540950   -1.499405
  C      1.909489   -1.414462    0.705770
  O      3.177646   -1.450094    1.270963
  C      0.981228   -0.305367    1.208804
  O      0.976793    0.226184    2.282329
  H      0.725271    2.082933   -0.254998
  H     -0.911964    1.777375   -0.879648
  H     -0.634984    1.914272    0.868665
  H     -0.927815   -0.464837    0.210672
  H      0.560911   -0.196754   -2.040816
  H      2.818741   -1.289416   -2.483961
  H      1.353799   -2.357807    0.884596
  H      3.775755   -1.620134    0.525066

 Total Charge           Charge          ....    0
 Multiplicity           Mult            ....    1
 Number of Electrons    NEL             ....   68
 Basis Dimension        Dim             ....  327

ORBITAL ENERGIES
----------------

  NO   OCC          E(Eh)            E(eV)
   0   2.0000     -20.568347      -559.6932
   1   2.0000     -20.566160      -559.6337
   2   2.0000     -15.604781      -424.6277
   3   2.0000     -15.544399      -422.9846
   4   2.0000     -11.347725      -308.7873
   5   2.0000     -11.337919      -308.5205
   6   2.0000     -11.310829      -307.7833
   7   2.0000     -11.303266      -307.5775
   8   2.0000     -11.243980      -305.9642
   9   2.0000      -1.417081       -38.5607
  10   2.0000      -1.381351       -37.5885
  11   2.0000      -1.304316       -35.4923
  12   2.0000      -1.188829       -32.3497
  13   2.0000      -1.045689       -28.4546
  14   2.0000      -1.026736       -27.9389
  15   2.0000      -0.898274       -24.4433
  16   2.0000      -0.821148       -22.3446
  17   2.0000      -0.776785       -21.1374
  18   2.0000      -0.721012       -19.6197
  19   2.0000      -0.706582       -19.2271
  20   2.0000      -0.688846       -18.7445
  21   2.0000      -0.665655       -18.1134
  22   2.0000      -0.640627       -17.4323
  23   2.0000      -0.630545       -17.1580
  24   2.0000      -0.593751       -16.1568
  25   2.0000      -0.566246       -15.4083
  26   2.0000      -0.554897       -15.0995
  27   2.0000      -0.548769       -14.9328
  28   2.0000      -0.526346       -14.3226
  29   2.0000      -0.500691       -13.6245
  30   2.0000      -0.482962       -13.1421
  31   2.0000      -0.444249       -12.0886
  32   2.0000      -0.415564       -11.3081
  33   2.0000      -0.380119       -10.3436
  34   0.0000       0.101164         2.7528
  35   0.0000       0.122308         3.3282
  36   0.0000       0.149296         4.0626
  37   0.0000       0.152403         4.1471
  38   0.0000       0.175426         4.7736

MULLIKEN ATOMIC CHARGES
-----------------------
   0 C :   -0.430390
   1 C :    0.070286
   2 N :   -0.317461
   3 C :    0.018841
   4 N :   -0.443119
   5 C :    0.242762
   6 O :   -0.468290
   7 C :    0.112917
   8 O :   -0.245753
   9 H :    0.142162
  10 H :    0.140409
  11 H :    0.155619
  12 H :    0.127963
  13 H :    0.233586
  14 H :    0.205888
  15 H :    0.113163
  16 H :    0.341417
Sum of atomic charges:    0.0000000

LOEWDIN ATOMIC CHARGES
----------------------
   0 C :   -0.286434
   1 C :   -0.262736
   2 N :    0.124985
   3 C :   -0.378930
   4 N :   -0.093895
   5 C :   -0.294145
   6 O :    0.016969
   7 C :   -0.268423
   8 O :    0.192607
   9 H :    0.130117
  10 H :    0.124676
  11 H :    0.138856
  12 H :    0.155653
  13 H :    0.181890
  14 H :    0.159324
  15 H :    0.166551
  16 H :    0.192935

  Mayer bond orders larger than 0.1
B(  0-C ,  1-C ) :   0.9266 B(  0-C ,  9-H ) :   0.9297 B(  0-C , 10-H ) :   0.9375
B(  0-C , 11-H ) :   0.9273 B(  1-C ,  2-N ) :   0.8430 B(  1-C ,  7-C ) :   0.8586
B(  1-C , 12-H ) :   0.8966 B(  2-N ,  3-C ) :   1.1573 B(  2-N , 13-H ) :   0.8660
B(  3-C ,  4-N ) :   1.9579 B(  3-C ,  5-C ) :   0.8555 B(  4-N , 14-H ) :   0.8588
B(  5-C ,  6-O ) :   1.1099 B(  5-C ,  7-C ) :   0.8617 B(  5-C , 15-H ) :   0.9097
B(  6-O , 16-H ) :   0.8028 B(  7-C ,  8-O ) :   2.0388

MP2 TOTAL ENERGY:     -454.438063791 Eh
FINAL SINGLE POINT ENERGY      -454.438063790919

DIPOLE MOMENT
-------------
                                X             Y             Z
Electronic contribution:      2.91762      -3.22241       3.12720
Nuclear contribution   :     -4.15781       3.62124      -4.71505
                        -----------------------------------------
Total Dipole Moment    :     -1.24019       0.39883      -1.58785
                        -----------------------------------------
Magnitude (a.u.)       :      2.05387
Magnitude (Debye)      :      5.22053

                             ****ORCA TERMINATED NORMALLY****
TOTAL RUN TIME: 0 days 0 hours 15 minutes 44 seconds 575 msec
