                         Program Version 3.0.3 - RELEASE   -
|  1> ! RI-MP2 RIJK def2-TZVP def2-TZVP/C def2-TZVP/JK TIGHTSCF
|  2> % maxcore 2000
|  3> % mp2 density relaxed end
|  4> *xyz 0 1
|  5>  C       -0.0275506693     1.4034449844     0.1414670301
|  6>  C        0.0443770327    -0.0282420142    -0.3938209513
|  7>  N       -1.2559225825    -0.6770767829    -0.4484313008
|  8>  C       -1.6065703892    -1.7127790731     0.3693686179
|  9>  O       -0.8426434664    -2.2010969690     1.1861688350
| 10>  C       -3.0355326391    -2.2367695257     0.1932158321
| 11>  C       -2.9819580124    -3.7119474712    -0.2336329978
| 12>  C       -3.8004464413    -2.0656049680     1.5150094402
| 13>  H        0.9690953459     1.8558452453     0.1580489266
| 14>  H       -0.6690250064     2.0332523793    -0.4852730271
| 15>  H       -0.4285628257     1.4159709560     1.1590294980
| 16>  H        0.4961791142    -0.0358745436    -1.3937647660
| 17>  H        0.6611809912    -0.6526333799     0.2558303307
| 18>  H       -1.9501006477    -0.3064197794    -1.0764897502
| 19>  H       -3.5445072450    -1.6586626966    -0.5894623488
| 20>  H       -2.4187655503    -4.2897164742     0.5040503459
| 21>  H       -3.9912565470    -4.1282437623    -0.3100951068
| 22>  H       -2.4899696788    -3.8312178729    -1.2042997281
| 23>  H       -3.2713581247    -2.5851452382     2.3183055219
| 24>  H       -3.8884449982    -1.0107244580     1.7946270362
| 25>  H       -4.8096386101    -2.4808563656     1.4327412724
| 26> *
| 27>
| 28>                          ****END OF INPUT****

CARTESIAN COORDINATES (ANGSTROEM)
---------------------------------
  C     -0.027551    1.403445    0.141467
  C      0.044377   -0.028242   -0.393821
  N     -1.255923   -0.677077   -0.448431
  C     -1.606570   -1.712779    0.369369
  O     -0.842643   -2.201097    1.186169
  C     -3.035533   -2.236770    0.193216
  C     -2.981958   -3.711947   -0.233633
  C     -3.800446   -2.065605    1.515009
  H      0.969095    1.855845    0.158049
  H     -0.669025    2.033252   -0.485273
  H     -0.428563    1.415971    1.159029
  H      0.496179   -0.035875   -1.393765
  H      0.661181   -0.652633    0.255830
  H     -1.950101   -0.306420   -1.076490
  H     -3.544507   -1.658663   -0.589462
  H     -2.418766   -4.289716    0.504050
  H     -3.991257   -4.128244   -0.310095
  H     -2.489970   -3.831218   -1.204300
  H     -3.271358   -2.585145    2.318306
  H     -3.888445   -1.010724    1.794627
  H     -4.809639   -2.480856    1.432741

 Total Charge           Charge          ....    0
 Multiplicity           Mult            ....    1
 Number of Electrons    NEL             ....   64
 Basis Dimension        Dim             ....  326

ORBITAL ENERGIES
----------------

  NO   OCC          E(Eh)            E(eV)
   0   2.0000     -20.505817      -557.9916
   1   2.0000     -15.579534      -423.9407
   2   2.0000     -11.338627      -308.5397
   3   2.0000     -11.260298      -306.4083
   4   2.0000     -11.242643      -305.9279
   5   2.0000     -11.221200      -305.3444
   6   2.0000     -11.217896      -305.2545
   7   2.0000     -11.217509      -305.2439
   8   2.0000      -1.372385       -37.3445
   9   2.0000      -1.226160       -33.3655
  10   2.0000      -1.079023       -29.3617
  11   2.0000      -1.014931       -27.6177
  12   2.0000      -0.933348       -25.3977
  13   2.0000      -0.883753       -24.0482
  14   2.0000      -0.820342       -22.3226
  15   2.0000      -0.775905       -21.1135
  16   2.0000      -0.691010       -18.8033
  17   2.0000      -0.654985       -17.8230
  18   2.0000      -0.620550       -16.8860
  19   2.0000      -0.606966       -16.5164
  20   2.0000      -0.594727       -16.1834
  21   2.0000      -0.585654       -15.9365
  22   2.0000      -0.559596       -15.2274
  23   2.0000      -0.542423       -14.7601
  24   2.0000      -0.532916       -14.5014
  25   2.0000      -0.516320       -14.0498
  26   2.0000      -0.509511       -13.8645
  27   2.0000      -0.496769       -13.5178
  28   2.0000      -0.481313       -13.0972
  29   2.0000      -0.475976       -12.9520
  30   2.0000      -0.409361       -11.1393
  31   2.0000      -0.386907       -10.5283
  32   0.0000       0.120989         3.2923
  33   0.0000       0.150264         4.0889
  34   0.0000       0.160604         4.3702
  35   0.0000       0.169912         4.6235
  36   0.0000       0.187580         5.1043

MULLIKEN ATOMIC CHARGES
-----------------------
   0 C :   -0.384023
   1 C :   -0.106118
   2 N :   -0.325204
   3 C :    0.290957
   4 O :   -0.392871
   5 C :   -0.037058
   6 C :   -0.412158
   7 C :   -0.408447
   8 H :    0.129328
   9 H :    0.113440
  10 H :    0.140475
  11 H :    0.120475
  12 H :    0.158410
  13 H :    0.233137
  14 H :    0.068851
  15 H :    0.151010
  16 H :    0.128893
  17 H :    0.126498
  18 H :    0.150825
  19 H :    0.124707
  20 H :    0.128874
Sum of atomic charges:    0.0000000

LOEWDIN ATOMIC CHARGES
----------------------
   0 C :   -0.320977
   1 C :   -0.302982
   2 N :    0.108250
   3 C :   -0.436618
   4 O :    0.074635
   5 C :   -0.278335
   6 C :   -0.285386
   7 C :   -0.285767
   8 H :    0.124366
   9 H :    0.116873
  10 H :    0.125079
  11 H :    0.129188
  12 H :    0.147119
  13 H :    0.183404
  14 H :    0.143654
  15 H :    0.132799
  16 H :    0.122594
  17 H :    0.123571
  18 H :    0.132743
  19 H :    0.123129
  20 H :    0.122661

  Mayer bond orders larger than 0.1
B(  0-C ,  1-C ) :   0.9211 B(  0-C ,  8-H ) :   0.9353 B(  0-C ,  9-H ) :   0.9358
B(  0-C , 10-H ) :   0.9381 B(  1-C ,  2-N ) :   0.8267 B(  1-C , 11-H ) :   0.9343
B(  1-C , 12-H ) :   0.9229 B(  2-N ,  3-C ) :   1.1737 B(  2-N , 13-H ) :   0.8742
B(  3-C ,  4-O ) :   1.9002 B(  3-C ,  5-C ) :   0.8869 B(  5-C ,  6-C ) :   0.9129
B(  5-C ,  7-C ) :   0.9132 B(  5-C , 14-H ) :   0.9267 B(  6-C , 15-H ) :   0.9312
B(  6-C , 16-H ) :   0.9376 B(  6-C , 17-H ) :   0.9342 B(  7-C , 18-H ) :   0.9311
B(  7-C , 19-H ) :   0.9339 B(  7-C , 20-H ) :   0.9377

MP2 TOTAL ENERGY:     -365.688360098 Eh
FINAL SINGLE POINT ENERGY      -365.688360098215

DIPOLE MOMENT
-------------
                                X             Y             Z
Electronic contribution:      2.71116      -1.49180       0.27918
Nuclear contribution   :     -3.25026       2.31566      -1.22859
                        -----------------------------------------
Total Dipole Moment    :     -0.53910       0.82386      -0.94941
                        -----------------------------------------
Magnitude (a.u.)       :      1.36776
Magnitude (Debye)      :      3.47656

                             ****ORCA TERMINATED NORMALLY****
TOTAL RUN TIME: 0 days 0 hours 13 minutes 48 seconds 259 msec
