                         Program Version 3.0.3 - RELEASE   -
|  1> ! RI-MP2 RIJK def2-TZVP def2-TZVP/C def2-TZVP/JK TIGHTSCF
|  2> % maxcore 2000
|  3> % mp2 density relaxed end
|  4> *xyz 0 1
|  5>  C       -0.6308768439     1.7889484298    -0.6487983390
|  6>  C       -0.2728808521     0.3340267335    -0.3308511767
|  7>  C       -1.4560553383    -0.5911611583    -0.0059661764
|  8>  C       -0.9439685636    -2.0357066085     0.1066846411
|  9>  O       -1.9550819472    -2.9927547570     0.3718128769
| 10>  N       -2.0861518444    -0.2079924265     1.2603568367
| 11>  C       -3.1332231086     0.8095666460     1.2097753585
| 12>  C       -3.4833813556    -0.6114707983     1.4525778757
| 13>  H        0.2625151763     2.3453387281    -0.9495541949
| 14>  H       -1.3517088224     1.8533813313    -1.4717354470
| 15>  H       -1.0598430147     2.3001592745     0.2166890000
| 16>  H        0.2591662176    -0.0962109122    -1.1890514645
| 17>  H        0.4245550309     0.3059670513     0.5151301730
| 18>  H       -2.1873987944    -0.5531756248    -0.8361532979
| 19>  H       -0.4964707469    -2.3266731820    -0.8494804000
| 20>  H       -0.1530565696    -2.0723948054     0.8710531926
| 21>  H       -2.2356228507    -2.8657538136     1.2828256882
| 22>  H       -3.1332299030     1.5288091002     2.0239519213
| 23>  H       -3.3990207157     1.2219156673     0.2386150124
| 24>  H       -3.9724274048    -1.1510451138     0.6453766223
| 25>  H       -3.7431797389    -0.9490006016     2.4528711079
| 26> *
| 27>
| 28>                          ****END OF INPUT****

CARTESIAN COORDINATES (ANGSTROEM)
---------------------------------
  C     -0.630877    1.788948   -0.648798
  C     -0.272881    0.334027   -0.330851
  C     -1.456055   -0.591161   -0.005966
  C     -0.943969   -2.035707    0.106685
  O     -1.955082   -2.992755    0.371813
  N     -2.086152   -0.207992    1.260357
  C     -3.133223    0.809567    1.209775
  C     -3.483381   -0.611471    1.452578
  H      0.262515    2.345339   -0.949554
  H     -1.351709    1.853381   -1.471735
  H     -1.059843    2.300159    0.216689
  H      0.259166   -0.096211   -1.189051
  H      0.424555    0.305967    0.515130
  H     -2.187399   -0.553176   -0.836153
  H     -0.496471   -2.326673   -0.849480
  H     -0.153057   -2.072395    0.871053
  H     -2.235623   -2.865754    1.282826
  H     -3.133230    1.528809    2.023952
  H     -3.399021    1.221916    0.238615
  H     -3.972427   -1.151045    0.645377
  H     -3.743180   -0.949001    2.452871

 Total Charge           Charge          ....    0
 Multiplicity           Mult            ....    1
 Number of Electrons    NEL             ....   64
 Basis Dimension        Dim             ....  326

ORBITAL ENERGIES
----------------

  NO   OCC          E(Eh)            E(eV)
   0   2.0000     -20.550943      -559.2196
   1   2.0000     -15.561015      -423.4367
   2   2.0000     -11.269196      -306.6504
   3   2.0000     -11.255988      -306.2910
   4   2.0000     -11.255643      -306.2816
   5   2.0000     -11.254721      -306.2565
   6   2.0000     -11.222299      -305.3743
   7   2.0000     -11.215317      -305.1843
   8   2.0000      -1.357468       -36.9386
   9   2.0000      -1.273072       -34.6420
  10   2.0000      -1.075627       -29.2693
  11   2.0000      -0.984454       -26.7884
  12   2.0000      -0.895511       -24.3681
  13   2.0000      -0.846960       -23.0470
  14   2.0000      -0.844927       -22.9916
  15   2.0000      -0.779406       -21.2087
  16   2.0000      -0.700948       -19.0738
  17   2.0000      -0.667948       -18.1758
  18   2.0000      -0.656035       -17.8516
  19   2.0000      -0.619501       -16.8575
  20   2.0000      -0.595194       -16.1961
  21   2.0000      -0.584286       -15.8992
  22   2.0000      -0.552844       -15.0437
  23   2.0000      -0.537985       -14.6393
  24   2.0000      -0.528554       -14.3827
  25   2.0000      -0.504432       -13.7263
  26   2.0000      -0.500648       -13.6233
  27   2.0000      -0.482899       -13.1403
  28   2.0000      -0.467789       -12.7292
  29   2.0000      -0.447619       -12.1803
  30   2.0000      -0.420488       -11.4421
  31   2.0000      -0.378151       -10.2900
  32   0.0000       0.140729         3.8294
  33   0.0000       0.148102         4.0301
  34   0.0000       0.154306         4.1989
  35   0.0000       0.169553         4.6138
  36   0.0000       0.187029         5.0893

MULLIKEN ATOMIC CHARGES
-----------------------
   0 C :   -0.412020
   1 C :   -0.207524
   2 C :    0.055301
   3 C :   -0.057261
   4 O :   -0.474442
   5 N :   -0.267621
   6 C :   -0.196477
   7 C :   -0.233847
   8 H :    0.137144
   9 H :    0.122693
  10 H :    0.138906
  11 H :    0.109694
  12 H :    0.113559
  13 H :    0.078734
  14 H :    0.110373
  15 H :    0.108517
  16 H :    0.326771
  17 H :    0.132081
  18 H :    0.130152
  19 H :    0.150675
  20 H :    0.134592
Sum of atomic charges:   -0.0000000

LOEWDIN ATOMIC CHARGES
----------------------
   0 C :   -0.318937
   1 C :   -0.268750
   2 C :   -0.310417
   3 C :   -0.328075
   4 O :   -0.040261
   5 N :    0.107474
   6 C :   -0.272568
   7 C :   -0.282080
   8 H :    0.122225
   9 H :    0.119695
  10 H :    0.122953
  11 H :    0.141397
  12 H :    0.141732
  13 H :    0.140203
  14 H :    0.130862
  15 H :    0.122191
  16 H :    0.173738
  17 H :    0.124562
  18 H :    0.124531
  19 H :    0.126537
  20 H :    0.122987

  Mayer bond orders larger than 0.1
B(  0-C ,  1-C ) :   0.9148 B(  0-C ,  8-H ) :   0.9395 B(  0-C ,  9-H ) :   0.9404
B(  0-C , 10-H ) :   0.9400 B(  1-C ,  2-C ) :   0.9097 B(  1-C , 11-H ) :   0.9374
B(  1-C , 12-H ) :   0.9207 B(  2-C ,  3-C ) :   0.8991 B(  2-C ,  5-N ) :   0.8033
B(  2-C , 13-H ) :   0.9062 B(  3-C ,  4-O ) :   0.9624 B(  3-C , 14-H ) :   0.9344
B(  3-C , 15-H ) :   0.9441 B(  4-O , 16-H ) :   0.8432 B(  5-N ,  6-C ) :   0.8974
B(  5-N ,  7-C ) :   0.8820 B(  6-C ,  7-C ) :   0.9458 B(  6-C , 17-H ) :   0.9276
B(  6-C , 18-H ) :   0.9242 B(  7-C , 19-H ) :   0.9200 B(  7-C , 20-H ) :   0.9277

MP2 TOTAL ENERGY:     -365.612663313 Eh
FINAL SINGLE POINT ENERGY      -365.612663312994

DIPOLE MOMENT
-------------
                                X             Y             Z
Electronic contribution:     -1.82482      -4.82205       2.35249
Nuclear contribution   :      1.73696       5.35060      -2.31045
                        -----------------------------------------
Total Dipole Moment    :     -0.08786       0.52855       0.04204
                        -----------------------------------------
Magnitude (a.u.)       :      0.53745
Magnitude (Debye)      :      1.36610

                             ****ORCA TERMINATED NORMALLY****
TOTAL RUN TIME: 0 days 0 hours 13 minutes 40 seconds 315 msec
