                         Program Version 3.0.3 - RELEASE   -
|  1> ! RI-MP2 RIJK def2-TZVP def2-TZVP/C def2-TZVP/JK TIGHTSCF
|  2> % maxcore 2000
|  3> % mp2 density relaxed end
|  4> *xyz 0 1
|  5>  C       -0.0227862377     1.5151564006    -0.3455064349
|  6>  C        1.4523307150     1.6286731307     0.1817284734
|  7>  C        1.3725461946     0.1442072555     0.6356295156
|  8>  C        1.3584277760    -0.3325240409     2.0789175429
|  9>  C        0.0950449076    -1.2381934523     2.1253495985
| 10>  C       -0.9294371083    -0.5672033721     1.1621735685
| 11>  C       -0.0450164082     0.0123692344     0.0603613136
| 12>  C        0.6165608794    -0.9554098755    -0.9439662108
| 13>  O        1.9190943349    -0.8006801861    -0.3157514815
| 14>  H       -0.7343911183     2.1209150334     0.2216760309
| 15>  H       -0.1682407761     1.7243215160    -1.4086979029
| 16>  H        2.2091169845     1.7978896493    -0.5865345797
| 17>  H        1.5962890250     2.3540889400     0.9864638476
| 18>  H        2.2722580545    -0.8612854937     2.3635350662
| 19>  H        1.2404890302     0.5233480437     2.7539352926
| 20>  H        0.3534428712    -2.2350828128     1.7512908215
| 21>  H       -0.2997280036    -1.3679897745     3.1369846932
| 22>  H       -1.6875000678    -1.2731105704     0.8070438412
| 23>  H       -1.4585449532     0.2409730195     1.6811940153
| 24>  H        0.2697002047    -1.9960634421    -0.8983790483
| 25>  H        0.6238014955    -0.6294303027    -1.9922076227
| 26> *
| 27>
| 28>                          ****END OF INPUT****

CARTESIAN COORDINATES (ANGSTROEM)
---------------------------------
  C     -0.022786    1.515156   -0.345506
  C      1.452331    1.628673    0.181728
  C      1.372546    0.144207    0.635630
  C      1.358428   -0.332524    2.078918
  C      0.095045   -1.238193    2.125350
  C     -0.929437   -0.567203    1.162174
  C     -0.045016    0.012369    0.060361
  C      0.616561   -0.955410   -0.943966
  O      1.919094   -0.800680   -0.315751
  H     -0.734391    2.120915    0.221676
  H     -0.168241    1.724322   -1.408698
  H      2.209117    1.797890   -0.586535
  H      1.596289    2.354089    0.986464
  H      2.272258   -0.861285    2.363535
  H      1.240489    0.523348    2.753935
  H      0.353443   -2.235083    1.751291
  H     -0.299728   -1.367990    3.136985
  H     -1.687500   -1.273111    0.807044
  H     -1.458545    0.240973    1.681194
  H      0.269700   -1.996063   -0.898379
  H      0.623801   -0.629430   -1.992208

 Total Charge           Charge          ....    0
 Multiplicity           Mult            ....    1
 Number of Electrons    NEL             ....   68
 Basis Dimension        Dim             ....  351

ORBITAL ENERGIES
----------------

  NO   OCC          E(Eh)            E(eV)
   0   2.0000     -20.540835      -558.9445
   1   2.0000     -11.275230      -306.8146
   2   2.0000     -11.269295      -306.6531
   3   2.0000     -11.227717      -305.5217
   4   2.0000     -11.224863      -305.4440
   5   2.0000     -11.222865      -305.3897
   6   2.0000     -11.222773      -305.3872
   7   2.0000     -11.221667      -305.3571
   8   2.0000     -11.220218      -305.3177
   9   2.0000      -1.372495       -37.3475
  10   2.0000      -1.134073       -30.8597
  11   2.0000      -1.049461       -28.5573
  12   2.0000      -0.993561       -27.0362
  13   2.0000      -0.908595       -24.7241
  14   2.0000      -0.874412       -23.7940
  15   2.0000      -0.844429       -22.9781
  16   2.0000      -0.792120       -21.5547
  17   2.0000      -0.678131       -18.4529
  18   2.0000      -0.666500       -18.1364
  19   2.0000      -0.657197       -17.8833
  20   2.0000      -0.616589       -16.7783
  21   2.0000      -0.604340       -16.4449
  22   2.0000      -0.584164       -15.8959
  23   2.0000      -0.577293       -15.7090
  24   2.0000      -0.565619       -15.3913
  25   2.0000      -0.530602       -14.4384
  26   2.0000      -0.513995       -13.9865
  27   2.0000      -0.483798       -13.1648
  28   2.0000      -0.478367       -13.0170
  29   2.0000      -0.468801       -12.7567
  30   2.0000      -0.447624       -12.1805
  31   2.0000      -0.429621       -11.6906
  32   2.0000      -0.397219       -10.8089
  33   2.0000      -0.380594       -10.3565
  34   0.0000       0.136077         3.7028
  35   0.0000       0.152356         4.1458
  36   0.0000       0.159662         4.3446
  37   0.0000       0.171852         4.6763
  38   0.0000       0.186854         5.0846

MULLIKEN ATOMIC CHARGES
-----------------------
   0 C :   -0.258921
   1 C :   -0.254936
   2 C :    0.227705
   3 C :   -0.277106
   4 C :   -0.220756
   5 C :   -0.302341
   6 C :    0.098156
   7 C :   -0.052036
   8 O :   -0.335504
   9 H :    0.113021
  10 H :    0.115534
  11 H :    0.123945
  12 H :    0.113536
  13 H :    0.129966
  14 H :    0.111759
  15 H :    0.122235
  16 H :    0.124136
  17 H :    0.125102
  18 H :    0.112160
  19 H :    0.091575
  20 H :    0.092769
Sum of atomic charges:    0.0000000

LOEWDIN ATOMIC CHARGES
----------------------
   0 C :   -0.195941
   1 C :   -0.191513
   2 C :   -0.264680
   3 C :   -0.215068
   4 C :   -0.239511
   5 C :   -0.219512
   6 C :   -0.201004
   7 C :   -0.216721
   8 O :    0.149062
   9 H :    0.131830
  10 H :    0.128097
  11 H :    0.136101
  12 H :    0.129792
  13 H :    0.142515
  14 H :    0.142156
  15 H :    0.138946
  16 H :    0.130837
  17 H :    0.136032
  18 H :    0.140081
  19 H :    0.119619
  20 H :    0.118882

  Mayer bond orders larger than 0.1
B(  0-C ,  1-C ) :   0.9840 B(  0-C ,  6-C ) :   0.9418 B(  0-C ,  9-H ) :   0.9047
B(  0-C , 10-H ) :   0.9197 B(  1-C ,  2-C ) :   0.9157 B(  1-C , 11-H ) :   0.9111
B(  1-C , 12-H ) :   0.9076 B(  2-C ,  3-C ) :   0.9352 B(  2-C ,  6-C ) :   0.8892
B(  2-C ,  8-O ) :   0.9595 B(  3-C ,  4-C ) :   0.9307 B(  3-C , 13-H ) :   0.9206
B(  3-C , 14-H ) :   0.9215 B(  4-C ,  5-C ) :   0.9314 B(  4-C , 15-H ) :   0.9278
B(  4-C , 16-H ) :   0.9287 B(  5-C ,  6-C ) :   0.9147 B(  5-C , 17-H ) :   0.9247
B(  5-C , 18-H ) :   0.9266 B(  6-C ,  7-C ) :   0.9703 B(  7-C ,  8-O ) :   0.9502
B(  7-C , 19-H ) :   0.8992 B(  7-C , 20-H ) :   0.9032

MP2 TOTAL ENERGY:     -386.391782943 Eh
FINAL SINGLE POINT ENERGY      -386.391782942914

DIPOLE MOMENT
-------------
                                X             Y             Z
Electronic contribution:      2.79718      -0.99693      -2.28339
Nuclear contribution   :     -3.43832       1.26270       2.51626
                        -----------------------------------------
Total Dipole Moment    :     -0.64114       0.26577       0.23287
                        -----------------------------------------
Magnitude (a.u.)       :      0.73207
Magnitude (Debye)      :      1.86077

                             ****ORCA TERMINATED NORMALLY****
TOTAL RUN TIME: 0 days 0 hours 21 minutes 55 seconds 427 msec
