                         Program Version 3.0.3 - RELEASE   -
|  1> ! RI-MP2 RIJK def2-TZVP def2-TZVP/C def2-TZVP/JK TIGHTSCF
|  2> % maxcore 2000
|  3> % mp2 density relaxed end
|  4> *xyz 0 1
|  5>  N        0.0026490129    -1.1317119995     0.0174715760
|  6>  C        0.0027014974     0.0243069560     0.0230176659
|  7>  C       -0.0277308355     1.4678644030     0.0632227964
|  8>  C       -0.9379741865     2.1649686802     1.0776241440
|  9>  C       -0.6313024544     3.6568779287     0.7435948694
| 10>  C        0.3803257645     3.4872259488    -0.3811780737
| 11>  C        1.3123421413     2.2747863969    -0.0900868247
| 12>  O        1.3938168565     1.9473442581    -1.5140794034
| 13>  C       -0.0123097451     2.2800812247    -1.2823127309
| 14>  H       -1.9871308364     1.8997908795     0.9240513000
| 15>  H       -0.6764664226     1.8945011811     2.1038246121
| 16>  H       -1.5217063425     4.2013154548     0.4172136999
| 17>  H       -0.2108004688     4.1959786379     1.5970052138
| 18>  H        0.8228292760     4.3535955205    -0.8689896627
| 19>  H        2.2175904922     2.2005374174     0.5120348283
| 20>  H       -0.7064119790     2.2122255517    -2.1196633703
| 21> *
| 22>
| 23>                          ****END OF INPUT****

CARTESIAN COORDINATES (ANGSTROEM)
---------------------------------
  N      0.002649   -1.131712    0.017472
  C      0.002701    0.024307    0.023018
  C     -0.027731    1.467864    0.063223
  C     -0.937974    2.164969    1.077624
  C     -0.631302    3.656878    0.743595
  C      0.380326    3.487226   -0.381178
  C      1.312342    2.274786   -0.090087
  O      1.393817    1.947344   -1.514079
  C     -0.012310    2.280081   -1.282313
  H     -1.987131    1.899791    0.924051
  H     -0.676466    1.894501    2.103825
  H     -1.521706    4.201315    0.417214
  H     -0.210800    4.195979    1.597005
  H      0.822829    4.353596   -0.868990
  H      2.217590    2.200537    0.512035
  H     -0.706412    2.212226   -2.119663

 Total Charge           Charge          ....    0
 Multiplicity           Mult            ....    1
 Number of Electrons    NEL             ....   64
 Basis Dimension        Dim             ....  321

ORBITAL ENERGIES
----------------

  NO   OCC          E(Eh)            E(eV)
   0   2.0000     -20.572543      -559.8074
   1   2.0000     -15.570997      -423.7084
   2   2.0000     -11.328257      -308.2575
   3   2.0000     -11.328171      -308.2552
   4   2.0000     -11.299002      -307.4615
   5   2.0000     -11.272849      -306.7498
   6   2.0000     -11.268012      -306.6182
   7   2.0000     -11.259498      -306.3865
   8   2.0000     -11.253724      -306.2294
   9   2.0000      -1.428243       -38.8645
  10   2.0000      -1.219143       -33.1746
  11   2.0000      -1.172440       -31.9037
  12   2.0000      -1.011907       -27.5354
  13   2.0000      -0.997614       -27.1464
  14   2.0000      -0.914158       -24.8755
  15   2.0000      -0.847373       -23.0582
  16   2.0000      -0.790420       -21.5084
  17   2.0000      -0.735500       -20.0140
  18   2.0000      -0.685690       -18.6586
  19   2.0000      -0.663127       -18.0446
  20   2.0000      -0.615668       -16.7532
  21   2.0000      -0.575987       -15.6734
  22   2.0000      -0.575104       -15.6494
  23   2.0000      -0.568724       -15.4758
  24   2.0000      -0.539189       -14.6721
  25   2.0000      -0.519876       -14.1465
  26   2.0000      -0.514037       -13.9876
  27   2.0000      -0.504959       -13.7406
  28   2.0000      -0.469459       -12.7746
  29   2.0000      -0.462619       -12.5885
  30   2.0000      -0.429693       -11.6925
  31   2.0000      -0.420150       -11.4329
  32   0.0000       0.117361         3.1935
  33   0.0000       0.144353         3.9280
  34   0.0000       0.145343         3.9550
  35   0.0000       0.160469         4.3666
  36   0.0000       0.176956         4.8152

MULLIKEN ATOMIC CHARGES
-----------------------
   0 N :   -0.032592
   1 C :   -0.297789
   2 C :    0.262149
   3 C :   -0.231216
   4 C :   -0.246878
   5 C :   -0.036038
   6 C :   -0.037781
   7 O :   -0.313476
   8 C :   -0.037785
   9 H :    0.137482
  10 H :    0.137486
  11 H :    0.129079
  12 H :    0.129073
  13 H :    0.142955
  14 H :    0.147664
  15 H :    0.147666
Sum of atomic charges:   -0.0000000

LOEWDIN ATOMIC CHARGES
----------------------
   0 N :    0.075719
   1 C :   -0.146240
   2 C :   -0.194717
   3 C :   -0.181930
   4 C :   -0.220941
   5 C :   -0.164727
   6 C :   -0.151965
   7 O :    0.153247
   8 C :   -0.151957
   9 H :    0.144532
  10 H :    0.144529
  11 H :    0.140168
  12 H :    0.140170
  13 H :    0.147433
  14 H :    0.133339
  15 H :    0.133341

  Mayer bond orders larger than 0.1
B(  0-N ,  1-C ) :   2.8889 B(  1-C ,  2-C ) :   0.8772 B(  2-C ,  3-C ) :   0.8968
B(  2-C ,  5-C ) :  -0.1140 B(  2-C ,  6-C ) :   0.8663 B(  2-C ,  8-C ) :   0.8663
B(  3-C ,  4-C ) :   0.9610 B(  3-C ,  9-H ) :   0.9159 B(  3-C , 10-H ) :   0.9159
B(  4-C ,  5-C ) :   0.9188 B(  4-C , 11-H ) :   0.9198 B(  4-C , 12-H ) :   0.9198
B(  5-C ,  6-C ) :   0.9004 B(  5-C ,  8-C ) :   0.9004 B(  5-C , 13-H ) :   0.9217
B(  6-C ,  7-O ) :   0.9331 B(  6-C , 14-H ) :   0.8866 B(  7-O ,  8-C ) :   0.9331
B(  8-C , 15-H ) :   0.8866

MP2 TOTAL ENERGY:     -400.016453949 Eh
FINAL SINGLE POINT ENERGY      -400.016453949385

DIPOLE MOMENT
-------------
                                X             Y             Z
Electronic contribution:      2.52775      -5.76132      -2.83416
Nuclear contribution   :     -3.07183       7.67384       3.44742
                        -----------------------------------------
Total Dipole Moment    :     -0.54408       1.91252       0.61326
                        -----------------------------------------
Magnitude (a.u.)       :      2.08082
Magnitude (Debye)      :      5.28904

                             ****ORCA TERMINATED NORMALLY****
TOTAL RUN TIME: 0 days 0 hours 16 minutes 22 seconds 532 msec
