                         Program Version 3.0.3 - RELEASE   -
|  1> ! RI-MP2 RIJK def2-TZVP def2-TZVP/C def2-TZVP/JK TIGHTSCF
|  2> % maxcore 2000
|  3> % mp2 density relaxed end
|  4> *xyz 0 1
|  5>  C        0.0627347396     1.5279865215    -0.2477562036
|  6>  C        0.0459704479     0.0342428181    -0.0387529038
|  7>  N        1.3600550851    -0.6478976385    -0.0134390531
|  8>  C        0.5450105986    -0.6103672710     1.1969501086
|  9>  C        1.0088745036     0.0458518380     2.5103933377
| 10>  C        0.2939388970    -1.0980996501     3.2534259210
| 11>  O        0.0769663838    -1.3330170352     4.4052029753
| 12>  C       -0.0708354639    -1.8147897787     1.9350568935
| 13>  H        0.9083953397     1.9803036688     0.2769918934
| 14>  H        0.1593273682     1.7702262596    -1.3113045798
| 15>  H       -0.8621841972     1.9855868691     0.1201911658
| 16>  H       -0.7649717328    -0.4903035093    -0.5443949066
| 17>  H        1.2963058597    -1.5622482121    -0.4553065684
| 18>  H        2.0943858025     0.0438509532     2.6543035850
| 19>  H        0.6280216933     1.0474422175     2.7319650621
| 20>  H       -1.1378248760    -2.0079903825     1.7878806952
| 21>  H        0.4759925108    -2.7569858784     1.8092510878
| 22> *
| 23>
| 24>                          ****END OF INPUT****

CARTESIAN COORDINATES (ANGSTROEM)
---------------------------------
  C      0.062735    1.527987   -0.247756
  C      0.045970    0.034243   -0.038753
  N      1.360055   -0.647898   -0.013439
  C      0.545011   -0.610367    1.196950
  C      1.008875    0.045852    2.510393
  C      0.293939   -1.098100    3.253426
  O      0.076966   -1.333017    4.405203
  C     -0.070835   -1.814790    1.935057
  H      0.908395    1.980304    0.276992
  H      0.159327    1.770226   -1.311305
  H     -0.862184    1.985587    0.120191
  H     -0.764972   -0.490304   -0.544395
  H      1.296306   -1.562248   -0.455307
  H      2.094386    0.043851    2.654304
  H      0.628022    1.047442    2.731965
  H     -1.137825   -2.007990    1.787881
  H      0.475993   -2.756986    1.809251

 Total Charge           Charge          ....    0
 Multiplicity           Mult            ....    1
 Number of Electrons    NEL             ....   60
 Basis Dimension        Dim             ....  302

ORBITAL ENERGIES
----------------

  NO   OCC          E(Eh)            E(eV)
   0   2.0000     -20.556117      -559.3604
   1   2.0000     -15.565868      -423.5688
   2   2.0000     -11.337720      -308.5150
   3   2.0000     -11.280235      -306.9508
   4   2.0000     -11.271990      -306.7264
   5   2.0000     -11.248958      -306.0997
   6   2.0000     -11.242701      -305.9295
   7   2.0000     -11.226734      -305.4950
   8   2.0000      -1.399320       -38.0774
   9   2.0000      -1.278852       -34.7993
  10   2.0000      -1.114157       -30.3178
  11   2.0000      -1.000597       -27.2276
  12   2.0000      -0.943106       -25.6632
  13   2.0000      -0.853212       -23.2171
  14   2.0000      -0.777698       -21.1622
  15   2.0000      -0.732243       -19.9253
  16   2.0000      -0.702320       -19.1111
  17   2.0000      -0.652356       -17.7515
  18   2.0000      -0.645593       -17.5675
  19   2.0000      -0.617785       -16.8108
  20   2.0000      -0.582651       -15.8547
  21   2.0000      -0.575215       -15.6524
  22   2.0000      -0.567248       -15.4356
  23   2.0000      -0.555433       -15.1141
  24   2.0000      -0.512274       -13.9397
  25   2.0000      -0.490012       -13.3339
  26   2.0000      -0.464421       -12.6375
  27   2.0000      -0.456359       -12.4181
  28   2.0000      -0.405259       -11.0277
  29   2.0000      -0.390179       -10.6173
  30   0.0000       0.122489         3.3331
  31   0.0000       0.123149         3.3510
  32   0.0000       0.148541         4.0420
  33   0.0000       0.159818         4.3489
  34   0.0000       0.175263         4.7692

MULLIKEN ATOMIC CHARGES
-----------------------
   0 C :   -0.407807
   1 C :   -0.039134
   2 N :   -0.393615
   3 C :    0.051962
   4 C :   -0.196898
   5 C :    0.111120
   6 O :   -0.246293
   7 C :   -0.195106
   8 H :    0.144036
   9 H :    0.135812
  10 H :    0.127725
  11 H :    0.124570
  12 H :    0.219882
  13 H :    0.141847
  14 H :    0.144156
  15 H :    0.141970
  16 H :    0.135773
Sum of atomic charges:    0.0000000

LOEWDIN ATOMIC CHARGES
----------------------
   0 C :   -0.292938
   1 C :   -0.262953
   2 N :    0.022032
   3 C :   -0.270989
   4 C :   -0.169707
   5 C :   -0.299288
   6 O :    0.164547
   7 C :   -0.178493
   8 H :    0.131378
   9 H :    0.128259
  10 H :    0.126609
  11 H :    0.139215
  12 H :    0.167317
  13 H :    0.153293
  14 H :    0.147186
  15 H :    0.145259
  16 H :    0.149271

  Mayer bond orders larger than 0.1
B(  0-C ,  1-C ) :   0.8882 B(  0-C ,  8-H ) :   0.9433 B(  0-C ,  9-H ) :   0.9344
B(  0-C , 10-H ) :   0.9351 B(  1-C ,  2-N ) :   0.9517 B(  1-C ,  3-C ) :   0.8818
B(  1-C , 11-H ) :   0.9280 B(  2-N ,  3-C ) :   0.9087 B(  2-N , 12-H ) :   0.8688
B(  3-C ,  4-C ) :   0.9247 B(  3-C ,  7-C ) :   0.9273 B(  4-C ,  5-C ) :   0.9004
B(  4-C ,  7-C ) :  -0.1422 B(  4-C , 13-H ) :   0.8879 B(  4-C , 14-H ) :   0.8995
B(  5-C ,  6-O ) :   2.0447 B(  5-C ,  7-C ) :   0.8946 B(  7-C , 15-H ) :   0.8940
B(  7-C , 16-H ) :   0.8934

MP2 TOTAL ENERGY:     -363.217152791 Eh
FINAL SINGLE POINT ENERGY      -363.217152791441

DIPOLE MOMENT
-------------
                                X             Y             Z
Electronic contribution:      0.48649      -4.07608       6.06021
Nuclear contribution   :     -0.85089       4.05217      -7.07254
                        -----------------------------------------
Total Dipole Moment    :     -0.36440      -0.02392      -1.01233
                        -----------------------------------------
Magnitude (a.u.)       :      1.07618
Magnitude (Debye)      :      2.73544

                             ****ORCA TERMINATED NORMALLY****
TOTAL RUN TIME: 0 days 0 hours 12 minutes 1 seconds 113 msec
