                         Program Version 3.0.3 - RELEASE   -
|  1> ! RI-MP2 RIJK def2-TZVP def2-TZVP/C def2-TZVP/JK TIGHTSCF
|  2> % maxcore 2000
|  3> % mp2 density relaxed end
|  4> *xyz 0 1
|  5>  C        0.8308073347     1.4887263751    -0.3105927053
|  6>  C        0.1855067292     0.1484773201     0.0338605365
|  7>  O        0.3524920329    -0.7441335964    -1.0794788338
|  8>  C        1.0888979551    -1.9045658983    -0.7009749926
|  9>  C        1.9763696416    -2.3290890035    -1.8611294704
| 10>  C        1.8132342781    -1.5295700297     0.6057434070
| 11>  O        3.0137080600    -0.7957310387     0.4021972263
| 12>  C        0.7764171330    -0.6033634607     1.2563597344
| 13>  C        1.2872197514     0.2539773747     2.4119314082
| 14>  H        1.9116157710     1.3777620120    -0.4214359673
| 15>  H        0.4171704736     1.8547935528    -1.2547103807
| 16>  H        0.6265254866     2.2370900814     0.4620053846
| 17>  H       -0.8927585571     0.3018960416     0.1813013266
| 18>  H        0.3888844040    -2.7260248138    -0.4664180741
| 19>  H        2.6981316896    -1.5426931208    -2.0990033686
| 20>  H        2.5118259058    -3.2562785820    -1.6265195949
| 21>  H        1.3684066947    -2.5071627054    -2.7518058549
| 22>  H        2.0082517559    -2.4209849992     1.2197948457
| 23>  H        3.6473137083    -1.3695351443    -0.0386419693
| 24>  H       -0.0143212664    -1.2626423525     1.6363062542
| 25>  H        2.1342865308     0.8708846592     2.1079986724
| 26>  H        0.4965625688     0.9106522437     2.7896704861
| 27>  H        1.6160550187    -0.3784212653     3.2430374899
| 28> *
| 29>
| 30>                          ****END OF INPUT****

CARTESIAN COORDINATES (ANGSTROEM)
---------------------------------
  C      0.830807    1.488726   -0.310593
  C      0.185507    0.148477    0.033861
  O      0.352492   -0.744134   -1.079479
  C      1.088898   -1.904566   -0.700975
  C      1.976370   -2.329089   -1.861129
  C      1.813234   -1.529570    0.605743
  O      3.013708   -0.795731    0.402197
  C      0.776417   -0.603363    1.256360
  C      1.287220    0.253977    2.411931
  H      1.911616    1.377762   -0.421436
  H      0.417170    1.854794   -1.254710
  H      0.626525    2.237090    0.462005
  H     -0.892759    0.301896    0.181301
  H      0.388884   -2.726025   -0.466418
  H      2.698132   -1.542693   -2.099003
  H      2.511826   -3.256279   -1.626520
  H      1.368407   -2.507163   -2.751806
  H      2.008252   -2.420985    1.219795
  H      3.647314   -1.369535   -0.038642
  H     -0.014321   -1.262642    1.636306
  H      2.134287    0.870885    2.107999
  H      0.496563    0.910652    2.789670
  H      1.616055   -0.378421    3.243037

 Total Charge           Charge          ....    0
 Multiplicity           Mult            ....    1
 Number of Electrons    NEL             ....   72
 Basis Dimension        Dim             ....  363

ORBITAL ENERGIES
----------------

  NO   OCC          E(Eh)            E(eV)
   0   2.0000     -20.558914      -559.4365
   1   2.0000     -20.539663      -558.9126
   2   2.0000     -11.280083      -306.9467
   3   2.0000     -11.275949      -306.8342
   4   2.0000     -11.270334      -306.6814
   5   2.0000     -11.228429      -305.5411
   6   2.0000     -11.217480      -305.2431
   7   2.0000     -11.212000      -305.0940
   8   2.0000     -11.199415      -304.7516
   9   2.0000      -1.379433       -37.5363
  10   2.0000      -1.352785       -36.8111
  11   2.0000      -1.073370       -29.2079
  12   2.0000      -1.043898       -28.4059
  13   2.0000      -0.968432       -26.3524
  14   2.0000      -0.934532       -25.4299
  15   2.0000      -0.860482       -23.4149
  16   2.0000      -0.788361       -21.4524
  17   2.0000      -0.754383       -20.5278
  18   2.0000      -0.713878       -19.4256
  19   2.0000      -0.678866       -18.4729
  20   2.0000      -0.639292       -17.3960
  21   2.0000      -0.606563       -16.5054
  22   2.0000      -0.602883       -16.4053
  23   2.0000      -0.579790       -15.7769
  24   2.0000      -0.560847       -15.2614
  25   2.0000      -0.545778       -14.8514
  26   2.0000      -0.536831       -14.6079
  27   2.0000      -0.532486       -14.4897
  28   2.0000      -0.525046       -14.2872
  29   2.0000      -0.517099       -14.0710
  30   2.0000      -0.504124       -13.7179
  31   2.0000      -0.477419       -12.9912
  32   2.0000      -0.468572       -12.7505
  33   2.0000      -0.438163       -11.9230
  34   2.0000      -0.432603       -11.7717
  35   2.0000      -0.398974       -10.8566
  36   0.0000       0.124056         3.3757
  37   0.0000       0.146854         3.9961
  38   0.0000       0.155979         4.2444
  39   0.0000       0.178257         4.8506
  40   0.0000       0.189220         5.1489

MULLIKEN ATOMIC CHARGES
-----------------------
   0 C :   -0.445116
   1 C :    0.116959
   2 O :   -0.317429
   3 C :    0.141100
   4 C :   -0.472337
   5 C :    0.008087
   6 O :   -0.480097
   7 C :   -0.038985
   8 C :   -0.424591
   9 H :    0.153532
  10 H :    0.135877
  11 H :    0.118330
  12 H :    0.081262
  13 H :    0.067917
  14 H :    0.137549
  15 H :    0.127726
  16 H :    0.147092
  17 H :    0.102476
  18 H :    0.318011
  19 H :    0.102107
  20 H :    0.156398
  21 H :    0.134338
  22 H :    0.129791
Sum of atomic charges:   -0.0000000

LOEWDIN ATOMIC CHARGES
----------------------
   0 C :   -0.298652
   1 C :   -0.297783
   2 O :    0.187441
   3 C :   -0.328947
   4 C :   -0.302865
   5 C :   -0.306367
   6 O :   -0.003456
   7 C :   -0.241097
   8 C :   -0.288843
   9 H :    0.127384
  10 H :    0.125720
  11 H :    0.122644
  12 H :    0.136828
  13 H :    0.138772
  14 H :    0.123948
  15 H :    0.124169
  16 H :    0.131003
  17 H :    0.135226
  18 H :    0.174016
  19 H :    0.160149
  20 H :    0.130236
  21 H :    0.124879
  22 H :    0.125594

  Mayer bond orders larger than 0.1
B(  0-C ,  1-C ) :   0.9000 B(  0-C ,  9-H ) :   0.9391 B(  0-C , 10-H ) :   0.9354
B(  0-C , 11-H ) :   0.9275 B(  1-C ,  2-O ) :   0.9356 B(  1-C ,  7-C ) :   0.9304
B(  1-C , 12-H ) :   0.9139 B(  2-O ,  3-C ) :   0.9680 B(  3-C ,  4-C ) :   0.8520
B(  3-C ,  5-C ) :   0.9213 B(  3-C , 13-H ) :   0.9221 B(  4-C , 14-H ) :   0.9469
B(  4-C , 15-H ) :   0.9348 B(  4-C , 16-H ) :   0.9349 B(  5-C ,  6-O ) :   0.9910
B(  5-C ,  7-C ) :   0.8943 B(  5-C , 17-H ) :   0.9221 B(  6-O , 18-H ) :   0.8432
B(  7-C ,  8-C ) :   0.8885 B(  7-C , 19-H ) :   0.9229 B(  8-C , 20-H ) :   0.9334
B(  8-C , 21-H ) :   0.9439 B(  8-C , 22-H ) :   0.9350

MP2 TOTAL ENERGY:     -424.745086570 Eh
FINAL SINGLE POINT ENERGY      -424.745086569851

DIPOLE MOMENT
-------------
                                X             Y             Z
Electronic contribution:     -0.54203      -1.91166      -1.48291
Nuclear contribution   :      0.75861       1.28849       1.83595
                        -----------------------------------------
Total Dipole Moment    :      0.21658      -0.62317       0.35304
                        -----------------------------------------
Magnitude (a.u.)       :      0.74826
Magnitude (Debye)      :      1.90192

                             ****ORCA TERMINATED NORMALLY****
TOTAL RUN TIME: 0 days 0 hours 20 minutes 55 seconds 296 msec
