                         Program Version 3.0.3 - RELEASE   -
|  1> ! RI-MP2 RIJK def2-TZVP def2-TZVP/C def2-TZVP/JK TIGHTSCF
|  2> % maxcore 2000
|  3> % mp2 density relaxed end
|  4> *xyz 0 1
|  5>  C        0.2806900328     1.4292210765     0.2355866582
|  6>  C        0.0497694478    -0.0433985098    -0.1117327814
|  7>  C       -1.4040790094    -0.4915156187     0.0095490888
|  8>  C       -1.6678677943    -2.0211664795    -0.1431015948
|  9>  C       -2.2183210443    -2.0301450824     1.3098279910
| 10>  N       -1.9349319969    -0.5927090743     1.3877716952
| 11>  C       -2.5600557527     0.3099580008     2.1816618272
| 12>  O       -3.2398446510     0.0196860756     3.1452700326
| 13>  H        1.3316934926     1.7027128995     0.1037210509
| 14>  H       -0.3176210278     2.0881351917    -0.4035479607
| 15>  H        0.0136234731     1.6372029712     1.2764069145
| 16>  H        0.3679179159    -0.2363199741    -1.1448292151
| 17>  H        0.6681360561    -0.6812850991     0.5319724867
| 18>  H       -2.0401194155     0.1312377321    -0.6333805222
| 19>  H       -2.3975830199    -2.2846776138    -0.9091188702
| 20>  H       -0.7623921051    -2.6113734187    -0.2945715709
| 21>  H       -3.2830179939    -2.2573728550     1.4184068401
| 22>  H       -1.6576992327    -2.6311744240     2.0320324942
| 23>  H       -2.3738766448     1.3546334021     1.8587729859
| 24> *
| 25>
| 26>                          ****END OF INPUT****

CARTESIAN COORDINATES (ANGSTROEM)
---------------------------------
  C      0.280690    1.429221    0.235587
  C      0.049769   -0.043399   -0.111733
  C     -1.404079   -0.491516    0.009549
  C     -1.667868   -2.021166   -0.143102
  C     -2.218321   -2.030145    1.309828
  N     -1.934932   -0.592709    1.387772
  C     -2.560056    0.309958    2.181662
  O     -3.239845    0.019686    3.145270
  H      1.331693    1.702713    0.103721
  H     -0.317621    2.088135   -0.403548
  H      0.013623    1.637203    1.276407
  H      0.367918   -0.236320   -1.144829
  H      0.668136   -0.681285    0.531972
  H     -2.040119    0.131238   -0.633381
  H     -2.397583   -2.284678   -0.909119
  H     -0.762392   -2.611373   -0.294572
  H     -3.283018   -2.257373    1.418407
  H     -1.657699   -2.631174    2.032032
  H     -2.373877    1.354633    1.858773

 Total Charge           Charge          ....    0
 Multiplicity           Mult            ....    1
 Number of Electrons    NEL             ....   62
 Basis Dimension        Dim             ....  314

ORBITAL ENERGIES
----------------

  NO   OCC          E(Eh)            E(eV)
   0   2.0000     -20.516300      -558.2769
   1   2.0000     -15.578424      -423.9105
   2   2.0000     -11.339311      -308.5583
   3   2.0000     -11.283484      -307.0392
   4   2.0000     -11.268109      -306.6208
   5   2.0000     -11.242071      -305.9123
   6   2.0000     -11.236000      -305.7471
   7   2.0000     -11.226892      -305.4993
   8   2.0000      -1.375634       -37.4329
   9   2.0000      -1.267933       -34.5022
  10   2.0000      -1.067195       -29.0399
  11   2.0000      -1.030205       -28.0333
  12   2.0000      -0.937190       -25.5022
  13   2.0000      -0.856224       -23.2990
  14   2.0000      -0.833120       -22.6704
  15   2.0000      -0.749666       -20.3995
  16   2.0000      -0.713981       -19.4284
  17   2.0000      -0.666248       -18.1295
  18   2.0000      -0.642064       -17.4715
  19   2.0000      -0.615409       -16.7461
  20   2.0000      -0.585784       -15.9400
  21   2.0000      -0.570198       -15.5159
  22   2.0000      -0.559242       -15.2177
  23   2.0000      -0.545132       -14.8338
  24   2.0000      -0.525948       -14.3118
  25   2.0000      -0.511003       -13.9051
  26   2.0000      -0.496432       -13.5086
  27   2.0000      -0.492606       -13.4045
  28   2.0000      -0.463360       -12.6087
  29   2.0000      -0.419969       -11.4279
  30   2.0000      -0.373834       -10.1725
  31   0.0000       0.128750         3.5035
  32   0.0000       0.141843         3.8598
  33   0.0000       0.143244         3.8979
  34   0.0000       0.161591         4.3971
  35   0.0000       0.179348         4.8803

MULLIKEN ATOMIC CHARGES
-----------------------
   0 C :   -0.415871
   1 C :   -0.203381
   2 C :   -0.015533
   3 C :   -0.221417
   4 C :   -0.144790
   5 N :   -0.087453
   6 C :    0.119626
   7 O :   -0.357553
   8 H :    0.140354
   9 H :    0.126224
  10 H :    0.137232
  11 H :    0.114396
  12 H :    0.112977
  13 H :    0.108601
  14 H :    0.127638
  15 H :    0.127608
  16 H :    0.128787
  17 H :    0.121106
  18 H :    0.081449
Sum of atomic charges:    0.0000000

LOEWDIN ATOMIC CHARGES
----------------------
   0 C :   -0.318621
   1 C :   -0.277436
   2 C :   -0.227277
   3 C :   -0.208466
   4 C :   -0.216685
   5 N :    0.188268
   6 C :   -0.428340
   7 O :    0.058812
   8 H :    0.124135
   9 H :    0.121665
  10 H :    0.122611
  11 H :    0.142476
  12 H :    0.140923
  13 H :    0.142859
  14 H :    0.131780
  15 H :    0.133788
  16 H :    0.130807
  17 H :    0.127840
  18 H :    0.110861

  Mayer bond orders larger than 0.1
B(  0-C ,  1-C ) :   0.9176 B(  0-C ,  8-H ) :   0.9380 B(  0-C ,  9-H ) :   0.9360
B(  0-C , 10-H ) :   0.9394 B(  1-C ,  2-C ) :   0.9117 B(  1-C , 11-H ) :   0.9294
B(  1-C , 12-H ) :   0.9261 B(  2-C ,  3-C ) :   0.9182 B(  2-C ,  5-N ) :   0.8752
B(  2-C , 13-H ) :   0.9204 B(  3-C ,  4-C ) :   0.9449 B(  3-C , 14-H ) :   0.9257
B(  3-C , 15-H ) :   0.9256 B(  4-C ,  5-N ) :   0.8882 B(  4-C , 16-H ) :   0.9226
B(  4-C , 17-H ) :   0.9221 B(  5-N ,  6-C ) :   1.1289 B(  6-C ,  7-O ) :   1.9145
B(  6-C , 18-H ) :   0.9290

MP2 TOTAL ENERGY:     -364.453614691 Eh
FINAL SINGLE POINT ENERGY      -364.453614690916

DIPOLE MOMENT
-------------
                                X             Y             Z
Electronic contribution:     -5.73790      -0.92822       5.40827
Nuclear contribution   :      6.56553       0.64644      -6.89625
                        -----------------------------------------
Total Dipole Moment    :      0.82763      -0.28178      -1.48798
                        -----------------------------------------
Magnitude (a.u.)       :      1.72582
Magnitude (Debye)      :      4.38668

                             ****ORCA TERMINATED NORMALLY****
TOTAL RUN TIME: 0 days 0 hours 14 minutes 9 seconds 171 msec
