                         Program Version 3.0.3 - RELEASE   -
|  1> ! RI-MP2 RIJK def2-TZVP def2-TZVP/C def2-TZVP/JK TIGHTSCF
|  2> % maxcore 2000
|  3> % mp2 density relaxed end
|  4> *xyz 0 1
|  5>  C        0.0531310317     1.4789552813    -0.0943723151
|  6>  C        1.5644133708     1.8538411553     0.0045412596
|  7>  C        2.1380931071     0.6562570648     0.7069497810
|  8>  C        1.2872335496    -0.3747091611     0.7428408946
|  9>  C       -0.0313848270    -0.0677855648     0.0917089629
| 10>  C        1.9412448925    -1.5898375256     1.2954108677
| 11>  N        3.0919974652    -2.0345234390     0.4509744387
| 12>  C        3.3367780794    -1.1659637756     1.6225582706
| 13>  C        3.4949600017     0.3204379792     1.2792312524
| 14>  H       -0.4907061052     1.9682547861     0.7196448015
| 15>  H       -0.4017373922     1.8139870010    -1.0299973697
| 16>  H        2.0181519099     1.9831195326    -0.9887425261
| 17>  H        1.7229900259     2.7987935785     0.5381321131
| 18>  H       -0.9024801272    -0.3642169663     0.6879563480
| 19>  H       -0.1245494770    -0.5914822220    -0.8703513990
| 20>  H        1.4027424881    -2.3339639266     1.8733679350
| 21>  H        3.3350077799    -2.9893015428     0.7130588839
| 22>  H        3.8755586875    -1.5820679164     2.4674106585
| 23>  H        4.3065651482     0.4796868950     0.5585552108
| 24>  H        3.7359203510     0.9165438664     2.1698732615
| 25> *
| 26>
| 27>                          ****END OF INPUT****

CARTESIAN COORDINATES (ANGSTROEM)
---------------------------------
  C      0.053131    1.478955   -0.094372
  C      1.564413    1.853841    0.004541
  C      2.138093    0.656257    0.706950
  C      1.287234   -0.374709    0.742841
  C     -0.031385   -0.067786    0.091709
  C      1.941245   -1.589838    1.295411
  N      3.091997   -2.034523    0.450974
  C      3.336778   -1.165964    1.622558
  C      3.494960    0.320438    1.279231
  H     -0.490706    1.968255    0.719645
  H     -0.401737    1.813987   -1.029997
  H      2.018152    1.983120   -0.988743
  H      1.722990    2.798794    0.538132
  H     -0.902480   -0.364217    0.687956
  H     -0.124549   -0.591482   -0.870351
  H      1.402742   -2.333964    1.873368
  H      3.335008   -2.989302    0.713059
  H      3.875559   -1.582068    2.467411
  H      4.306565    0.479687    0.558555
  H      3.735920    0.916544    2.169873

 Total Charge           Charge          ....    0
 Multiplicity           Mult            ....    1
 Number of Electrons    NEL             ....   66
 Basis Dimension        Dim             ....  345

ORBITAL ENERGIES
----------------

  NO   OCC          E(Eh)            E(eV)
   0   2.0000     -15.553907      -423.2433
   1   2.0000     -11.256418      -306.3027
   2   2.0000     -11.255510      -306.2780
   3   2.0000     -11.225794      -305.4694
   4   2.0000     -11.221028      -305.3397
   5   2.0000     -11.220788      -305.3332
   6   2.0000     -11.218890      -305.2815
   7   2.0000     -11.213098      -305.1239
   8   2.0000     -11.209447      -305.0246
   9   2.0000      -1.262933       -34.3662
  10   2.0000      -1.130487       -30.7621
  11   2.0000      -1.024107       -27.8674
  12   2.0000      -0.969251       -26.3747
  13   2.0000      -0.921459       -25.0742
  14   2.0000      -0.867044       -23.5935
  15   2.0000      -0.790588       -21.5130
  16   2.0000      -0.777305       -21.1515
  17   2.0000      -0.704586       -19.1728
  18   2.0000      -0.674231       -18.3468
  19   2.0000      -0.632030       -17.1984
  20   2.0000      -0.626780       -17.0555
  21   2.0000      -0.576533       -15.6883
  22   2.0000      -0.547558       -14.8998
  23   2.0000      -0.541305       -14.7297
  24   2.0000      -0.520078       -14.1520
  25   2.0000      -0.493592       -13.4313
  26   2.0000      -0.488417       -13.2905
  27   2.0000      -0.482666       -13.1340
  28   2.0000      -0.474817       -12.9204
  29   2.0000      -0.461830       -12.5670
  30   2.0000      -0.447490       -12.1768
  31   2.0000      -0.375521       -10.2185
  32   2.0000      -0.314421        -8.5558
  33   0.0000       0.138458         3.7676
  34   0.0000       0.147392         4.0107
  35   0.0000       0.160537         4.3684
  36   0.0000       0.162428         4.4199
  37   0.0000       0.179925         4.8960

MULLIKEN ATOMIC CHARGES
-----------------------
   0 C :   -0.223564
   1 C :   -0.215079
   2 C :   -0.072232
   3 C :    0.006919
   4 C :   -0.205184
   5 C :   -0.125816
   6 N :   -0.378513
   7 C :   -0.056553
   8 C :   -0.134020
   9 H :    0.107981
  10 H :    0.121380
  11 H :    0.115843
  12 H :    0.119018
  13 H :    0.120662
  14 H :    0.117411
  15 H :    0.131942
  16 H :    0.211970
  17 H :    0.128276
  18 H :    0.116149
  19 H :    0.113410
Sum of atomic charges:    0.0000000

LOEWDIN ATOMIC CHARGES
----------------------
   0 C :   -0.227025
   1 C :   -0.218119
   2 C :   -0.117762
   3 C :   -0.122581
   4 C :   -0.215257
   5 C :   -0.209068
   6 N :   -0.000818
   7 C :   -0.230335
   8 C :   -0.197257
   9 H :    0.135489
  10 H :    0.129018
  11 H :    0.140409
  12 H :    0.135334
  13 H :    0.135168
  14 H :    0.141218
  15 H :    0.134974
  16 H :    0.165642
  17 H :    0.131644
  18 H :    0.147953
  19 H :    0.141374

  Mayer bond orders larger than 0.1
B(  0-C ,  1-C ) :   0.9531 B(  0-C ,  4-C ) :   0.9600 B(  0-C ,  9-H ) :   0.9271
B(  0-C , 10-H ) :   0.9382 B(  1-C ,  2-C ) :   0.9150 B(  1-C , 11-H ) :   0.9059
B(  1-C , 12-H ) :   0.9267 B(  2-C ,  3-C ) :   1.6866 B(  2-C ,  8-C ) :   0.9826
B(  3-C ,  4-C ) :   0.9268 B(  3-C ,  5-C ) :   0.9085 B(  4-C , 13-H ) :   0.9332
B(  4-C , 14-H ) :   0.9008 B(  5-C ,  6-N ) :   0.9847 B(  5-C ,  7-C ) :   0.9304
B(  5-C , 15-H ) :   0.9204 B(  6-N ,  7-C ) :   0.9512 B(  6-N , 16-H ) :   0.8704
B(  7-C ,  8-C ) :   0.9511 B(  7-C , 17-H ) :   0.9249 B(  8-C , 18-H ) :   0.8825
B(  8-C , 19-H ) :   0.9148

MP2 TOTAL ENERGY:     -365.345943287 Eh
FINAL SINGLE POINT ENERGY      -365.345943287464

DIPOLE MOMENT
-------------
                                X             Y             Z
Electronic contribution:      1.97523      -3.16725       1.01759
Nuclear contribution   :     -2.03210       3.06900      -0.48808
                        -----------------------------------------
Total Dipole Moment    :     -0.05687      -0.09825       0.52951
                        -----------------------------------------
Magnitude (a.u.)       :      0.54155
Magnitude (Debye)      :      1.37650

                             ****ORCA TERMINATED NORMALLY****
TOTAL RUN TIME: 0 days 0 hours 19 minutes 33 seconds 107 msec
