                         Program Version 3.0.3 - RELEASE   -
|  1> ! RI-MP2 RIJK def2-TZVP def2-TZVP/C def2-TZVP/JK TIGHTSCF
|  2> % maxcore 2000
|  3> % mp2 density relaxed end
|  4> *xyz 0 1
|  5>  O        0.1785452838     0.1684325715    -0.6177132555
|  6>  C        0.1813531155     1.2877386513    -0.1821023763
|  7>  C        1.4426200453     2.1053347039     0.1552604757
|  8>  C        2.7333805720     1.2238380613     0.1095504233
|  9>  C        3.5812894953     1.7588728056    -1.0646754820
| 10>  C        2.5613270998     2.4314930777    -1.9955025186
| 11>  C        1.6177562183     3.1396512218    -1.0172641032
| 12>  C        1.2037458315     2.7644305668     1.4319010555
| 13>  C        0.9668241692     3.3006872429     2.4822750492
| 14>  H       -0.7621449166     1.8515402124    -0.0168416115
| 15>  H        3.2642867377     1.2576772064     1.0617365603
| 16>  H        2.4268115210     0.1907402913    -0.0715993861
| 17>  H        4.2980689065     2.5066667290    -0.7055501835
| 18>  H        4.1555232872     0.9687828442    -1.5557517328
| 19>  H        3.0140992615     3.1217025897    -2.7125938752
| 20>  H        2.0127173176     1.6724647107    -2.5652957625
| 21>  H        0.6584724787     3.4370397357    -1.4531713088
| 22>  H        2.0845225137     4.0428299606    -0.6129135873
| 23>  H        0.7771384019     3.7750659771     3.4133150891
| 24> *
| 25>
| 26>                          ****END OF INPUT****

CARTESIAN COORDINATES (ANGSTROEM)
---------------------------------
  O      0.178545    0.168433   -0.617713
  C      0.181353    1.287739   -0.182102
  C      1.442620    2.105335    0.155260
  C      2.733381    1.223838    0.109550
  C      3.581289    1.758873   -1.064675
  C      2.561327    2.431493   -1.995503
  C      1.617756    3.139651   -1.017264
  C      1.203746    2.764431    1.431901
  C      0.966824    3.300687    2.482275
  H     -0.762145    1.851540   -0.016842
  H      3.264287    1.257677    1.061737
  H      2.426812    0.190740   -0.071599
  H      4.298069    2.506667   -0.705550
  H      4.155523    0.968783   -1.555752
  H      3.014099    3.121703   -2.712594
  H      2.012717    1.672465   -2.565296
  H      0.658472    3.437040   -1.453171
  H      2.084523    4.042830   -0.612914
  H      0.777138    3.775066    3.413315

 Total Charge           Charge          ....    0
 Multiplicity           Mult            ....    1
 Number of Electrons    NEL             ....   66
 Basis Dimension        Dim             ....  339

ORBITAL ENERGIES
----------------

  NO   OCC          E(Eh)            E(eV)
   0   2.0000     -20.564070      -559.5768
   1   2.0000     -11.338565      -308.5381
   2   2.0000     -11.276553      -306.8506
   3   2.0000     -11.244801      -305.9866
   4   2.0000     -11.244137      -305.9685
   5   2.0000     -11.234027      -305.6934
   6   2.0000     -11.228847      -305.5525
   7   2.0000     -11.228726      -305.5492
   8   2.0000     -11.226337      -305.4842
   9   2.0000      -1.405670       -38.2502
  10   2.0000      -1.153656       -31.3926
  11   2.0000      -1.056302       -28.7434
  12   2.0000      -0.987790       -26.8791
  13   2.0000      -0.978231       -26.6190
  14   2.0000      -0.860909       -23.4265
  15   2.0000      -0.799239       -21.7484
  16   2.0000      -0.789155       -21.4740
  17   2.0000      -0.726564       -19.7708
  18   2.0000      -0.692361       -18.8401
  19   2.0000      -0.671440       -18.2708
  20   2.0000      -0.658473       -17.9180
  21   2.0000      -0.619999       -16.8710
  22   2.0000      -0.591889       -16.1061
  23   2.0000      -0.550799       -14.9880
  24   2.0000      -0.526246       -14.3199
  25   2.0000      -0.510686       -13.8965
  26   2.0000      -0.499203       -13.5840
  27   2.0000      -0.494164       -13.4469
  28   2.0000      -0.481994       -13.1157
  29   2.0000      -0.473798       -12.8927
  30   2.0000      -0.437996       -11.9185
  31   2.0000      -0.392556       -10.6820
  32   2.0000      -0.388034       -10.5589
  33   0.0000       0.122948         3.3456
  34   0.0000       0.135801         3.6953
  35   0.0000       0.150401         4.0926
  36   0.0000       0.166508         4.5309
  37   0.0000       0.168095         4.5741

MULLIKEN ATOMIC CHARGES
-----------------------
   0 O :   -0.257785
   1 C :    0.046485
   2 C :    0.115536
   3 C :   -0.298671
   4 C :   -0.231499
   5 C :   -0.209373
   6 C :   -0.264318
   7 C :   -0.103542
   8 C :   -0.138529
   9 H :    0.101589
  10 H :    0.137329
  11 H :    0.149702
  12 H :    0.114344
  13 H :    0.125565
  14 H :    0.129008
  15 H :    0.121487
  16 H :    0.132530
  17 H :    0.135206
  18 H :    0.194935
Sum of atomic charges:    0.0000000

LOEWDIN ATOMIC CHARGES
----------------------
   0 O :    0.147555
   1 C :   -0.239106
   2 C :   -0.244586
   3 C :   -0.185922
   4 C :   -0.251534
   5 C :   -0.255145
   6 C :   -0.188568
   7 C :   -0.075337
   8 C :   -0.088591
   9 H :    0.124156
  10 H :    0.141776
  11 H :    0.147982
  12 H :    0.137478
  13 H :    0.135021
  14 H :    0.135501
  15 H :    0.142000
  16 H :    0.140899
  17 H :    0.148102
  18 H :    0.128317

  Mayer bond orders larger than 0.1
B(  0-O ,  1-C ) :   1.9816 B(  1-C ,  2-C ) :   0.8298 B(  1-C ,  9-H ) :   0.9346
B(  2-C ,  3-C ) :   0.8393 B(  2-C ,  6-C ) :   0.8655 B(  2-C ,  7-C ) :   1.1645
B(  3-C ,  4-C ) :   0.9428 B(  3-C , 10-H ) :   0.9318 B(  3-C , 11-H ) :   0.9109
B(  4-C ,  5-C ) :   0.9387 B(  4-C , 12-H ) :   0.9297 B(  4-C , 13-H ) :   0.9282
B(  5-C ,  6-C ) :   0.9325 B(  5-C , 14-H ) :   0.9290 B(  5-C , 15-H ) :   0.9211
B(  6-C , 16-H ) :   0.9119 B(  6-C , 17-H ) :   0.9291 B(  7-C ,  8-C ) :   2.5989
B(  8-C , 18-H ) :   0.8751

MP2 TOTAL ENERGY:     -385.198390075 Eh
FINAL SINGLE POINT ENERGY      -385.198390074852

DIPOLE MOMENT
-------------
                                X             Y             Z
Electronic contribution:     -5.14336      -2.00065       3.70359
Nuclear contribution   :      5.45644       2.79890      -3.66599
                        -----------------------------------------
Total Dipole Moment    :      0.31308       0.79824       0.03759
                        -----------------------------------------
Magnitude (a.u.)       :      0.85827
Magnitude (Debye)      :      2.18154

                             ****ORCA TERMINATED NORMALLY****
TOTAL RUN TIME: 0 days 0 hours 19 minutes 32 seconds 956 msec
