                         Program Version 3.0.3 - RELEASE   -
|  1> ! RI-MP2 RIJK def2-TZVP def2-TZVP/C def2-TZVP/JK TIGHTSCF
|  2> % maxcore 2000
|  3> % mp2 density relaxed end
|  4> *xyz 0 1
|  5>  C        0.0411136945     1.5578782284     0.0925206606
|  6>  C       -0.0280263196     0.0321102808     0.0070405640
|  7>  C        0.8639267526    -0.5780396379    -1.1448661702
|  8>  N        2.0307047021    -1.2345472771    -0.5149881935
|  9>  C        1.7871842136    -1.2303619672     0.7337400784
| 10>  C        2.4677322407    -1.6670256032     2.0114558432
| 11>  N        1.6106079055    -1.1406837595     3.0994191706
| 12>  C        0.6144601315    -0.5680456161     2.5290438475
| 13>  N        0.5995623906    -0.6315349715     1.1486159835
| 14>  H        1.0799725797     1.8937302308     0.1712576111
| 15>  H       -0.3965807656     2.0028461822    -0.8067500236
| 16>  H       -0.5109257192     1.9376557591     0.9582722739
| 17>  H       -1.0708668740    -0.2854311623    -0.0933913221
| 18>  H        0.3039398127    -1.3160957691    -1.7308938926
| 19>  H        1.1970832540     0.2005075603    -1.8396456286
| 20>  H        2.5387609269    -2.7584373136     2.0832348917
| 21>  H        3.4856009151    -1.2736562034     2.0964606170
| 22>  H       -0.1921003711    -0.0834687708     3.0689484694
| 23> *
| 24>
| 25>                          ****END OF INPUT****

CARTESIAN COORDINATES (ANGSTROEM)
---------------------------------
  C      0.041114    1.557878    0.092521
  C     -0.028026    0.032110    0.007041
  C      0.863927   -0.578040   -1.144866
  N      2.030705   -1.234547   -0.514988
  C      1.787184   -1.230362    0.733740
  C      2.467732   -1.667026    2.011456
  N      1.610608   -1.140684    3.099419
  C      0.614460   -0.568046    2.529044
  N      0.599562   -0.631535    1.148616
  H      1.079973    1.893730    0.171258
  H     -0.396581    2.002846   -0.806750
  H     -0.510926    1.937656    0.958272
  H     -1.070867   -0.285431   -0.093391
  H      0.303940   -1.316096   -1.730894
  H      1.197083    0.200508   -1.839646
  H      2.538761   -2.758437    2.083235
  H      3.485601   -1.273656    2.096461
  H     -0.192100   -0.083469    3.068948

 Total Charge           Charge          ....    0
 Multiplicity           Mult            ....    1
 Number of Electrons    NEL             ....   66
 Basis Dimension        Dim             ....  333

ORBITAL ENERGIES
----------------

  NO   OCC          E(Eh)            E(eV)
   0   2.0000     -15.594765      -424.3551
   1   2.0000     -15.549784      -423.1311
   2   2.0000     -15.539223      -422.8438
   3   2.0000     -11.323386      -308.1250
   4   2.0000     -11.311110      -307.7909
   5   2.0000     -11.290790      -307.2380
   6   2.0000     -11.268579      -306.6336
   7   2.0000     -11.262210      -306.4603
   8   2.0000     -11.235501      -305.7335
   9   2.0000      -1.355420       -36.8829
  10   2.0000      -1.237229       -33.6667
  11   2.0000      -1.157134       -31.4872
  12   2.0000      -1.052313       -28.6349
  13   2.0000      -0.991197       -26.9719
  14   2.0000      -0.929232       -25.2857
  15   2.0000      -0.851096       -23.1595
  16   2.0000      -0.818567       -22.2743
  17   2.0000      -0.746642       -20.3172
  18   2.0000      -0.702171       -19.1070
  19   2.0000      -0.671083       -18.2611
  20   2.0000      -0.620992       -16.8981
  21   2.0000      -0.607367       -16.5273
  22   2.0000      -0.594565       -16.1789
  23   2.0000      -0.577713       -15.7204
  24   2.0000      -0.566952       -15.4276
  25   2.0000      -0.554459       -15.0876
  26   2.0000      -0.534748       -14.5512
  27   2.0000      -0.516068       -14.0429
  28   2.0000      -0.497065       -13.5258
  29   2.0000      -0.438865       -11.9421
  30   2.0000      -0.436118       -11.8674
  31   2.0000      -0.415273       -11.3002
  32   2.0000      -0.326809        -8.8929
  33   0.0000       0.124119         3.3775
  34   0.0000       0.134059         3.6479
  35   0.0000       0.157574         4.2878
  36   0.0000       0.160045         4.3551
  37   0.0000       0.165058         4.4915

MULLIKEN ATOMIC CHARGES
-----------------------
   0 C :   -0.434201
   1 C :   -0.020118
   2 C :   -0.088922
   3 N :   -0.231775
   4 C :    0.005726
   5 C :   -0.095076
   6 N :   -0.275415
   7 C :    0.023089
   8 N :   -0.107706
   9 H :    0.148173
  10 H :    0.139252
  11 H :    0.134263
  12 H :    0.119184
  13 H :    0.114165
  14 H :    0.125198
  15 H :    0.148109
  16 H :    0.149296
  17 H :    0.146758
Sum of atomic charges:   -0.0000000

LOEWDIN ATOMIC CHARGES
----------------------
   0 C :   -0.293166
   1 C :   -0.260516
   2 C :   -0.236515
   3 N :    0.075644
   4 C :   -0.297155
   5 C :   -0.225188
   6 N :    0.057239
   7 C :   -0.282694
   8 N :    0.233414
   9 H :    0.131040
  10 H :    0.129109
  11 H :    0.123938
  12 H :    0.145068
  13 H :    0.130593
  14 H :    0.132765
  15 H :    0.150733
  16 H :    0.149599
  17 H :    0.136092

  Mayer bond orders larger than 0.1
B(  0-C ,  1-C ) :   0.8987 B(  0-C ,  9-H ) :   0.9345 B(  0-C , 10-H ) :   0.9327
B(  0-C , 11-H ) :   0.9353 B(  1-C ,  2-C ) :   0.9020 B(  1-C ,  8-N ) :   0.8854
B(  1-C , 12-H ) :   0.9226 B(  2-C ,  3-N ) :   0.9178 B(  2-C , 13-H ) :   0.9149
B(  2-C , 14-H ) :   0.9275 B(  3-N ,  4-C ) :   1.8886 B(  4-C ,  5-C ) :   0.9526
B(  4-C ,  8-N ) :   1.0291 B(  5-C ,  6-N ) :   0.9578 B(  5-C , 15-H ) :   0.9076
B(  5-C , 16-H ) :   0.9141 B(  6-N ,  7-C ) :   1.7999 B(  7-C ,  8-N ) :   1.0610
B(  7-C , 17-H ) :   0.9160

MP2 TOTAL ENERGY:     -397.458178996 Eh
FINAL SINGLE POINT ENERGY      -397.458178995534

DIPOLE MOMENT
-------------
                                X             Y             Z
Electronic contribution:      2.20911      -4.51328       3.25634
Nuclear contribution   :     -3.20678       5.17679      -3.66509
                        -----------------------------------------
Total Dipole Moment    :     -0.99767       0.66351      -0.40875
                        -----------------------------------------
Magnitude (a.u.)       :      1.26596
Magnitude (Debye)      :      3.21782

                             ****ORCA TERMINATED NORMALLY****
TOTAL RUN TIME: 0 days 0 hours 18 minutes 20 seconds 122 msec
