                         Program Version 3.0.3 - RELEASE   -
|  1> ! RI-MP2 RIJK def2-TZVP def2-TZVP/C def2-TZVP/JK TIGHTSCF
|  2> % maxcore 2000
|  3> % mp2 density relaxed end
|  4> *xyz 0 1
|  5>  C        0.0518802044     1.5541996879    -0.0270658367
|  6>  C       -0.0138591506     0.0229657102     0.0448871886
|  7>  C        0.7395204784    -0.5040709368     1.2709065891
|  8>  O        2.0962679678    -0.1149355270     1.1433920815
|  9>  C       -1.4809460636    -0.4906347150     0.0520982458
| 10>  C       -2.2044835652     0.0130433021    -1.1915783546
| 11>  O       -3.2043112569     0.6787621251    -1.1759778329
| 12>  C       -1.5131960443    -2.0141309880     0.0400957536
| 13>  O       -2.0611270572    -2.6925394132     0.8676638666
| 14>  H        1.0921724705     1.8809721001     0.0191022945
| 15>  H       -0.3919598549     1.9390863914    -0.9497874767
| 16>  H       -0.4878077846     2.0057055592     0.8130714510
| 17>  H        0.4893323315    -0.3924414153    -0.8400432775
| 18>  H        0.2831046281    -0.0885096703     2.1840900310
| 19>  H        0.6489798403    -1.5996913653     1.3318842911
| 20>  H        2.5635833568    -0.3761581968     1.9420065169
| 21>  H       -2.0256427122    -0.1378901687     0.9320787082
| 22>  H       -1.7231805466    -0.2853968338    -2.1516689687
| 23>  H       -0.9731875016    -2.4757180260    -0.8192711309
| 24> *
| 25>
| 26>                          ****END OF INPUT****

CARTESIAN COORDINATES (ANGSTROEM)
---------------------------------
  C      0.051880    1.554200   -0.027066
  C     -0.013859    0.022966    0.044887
  C      0.739520   -0.504071    1.270907
  O      2.096268   -0.114936    1.143392
  C     -1.480946   -0.490635    0.052098
  C     -2.204484    0.013043   -1.191578
  O     -3.204311    0.678762   -1.175978
  C     -1.513196   -2.014131    0.040096
  O     -2.061127   -2.692539    0.867664
  H      1.092172    1.880972    0.019102
  H     -0.391960    1.939086   -0.949787
  H     -0.487808    2.005706    0.813071
  H      0.489332   -0.392441   -0.840043
  H      0.283105   -0.088510    2.184090
  H      0.648980   -1.599691    1.331884
  H      2.563583   -0.376158    1.942007
  H     -2.025643   -0.137890    0.932079
  H     -1.723181   -0.285397   -2.151669
  H     -0.973188   -2.475718   -0.819271

 Total Charge           Charge          ....    0
 Multiplicity           Mult            ....    1
 Number of Electrons    NEL             ....   70
 Basis Dimension        Dim             ....  339

ORBITAL ENERGIES
----------------

  NO   OCC          E(Eh)            E(eV)
   0   2.0000     -20.577633      -559.9459
   1   2.0000     -20.575961      -559.9004
   2   2.0000     -20.574569      -559.8625
   3   2.0000     -11.353329      -308.9398
   4   2.0000     -11.351968      -308.9028
   5   2.0000     -11.297507      -307.4208
   6   2.0000     -11.267473      -306.6035
   7   2.0000     -11.265371      -306.5463
   8   2.0000     -11.229567      -305.5720
   9   2.0000      -1.418247       -38.5925
  10   2.0000      -1.413488       -38.4630
  11   2.0000      -1.380569       -37.5672
  12   2.0000      -1.130461       -30.7614
  13   2.0000      -1.015334       -27.6286
  14   2.0000      -0.944871       -25.7113
  15   2.0000      -0.847837       -23.0708
  16   2.0000      -0.822045       -22.3690
  17   2.0000      -0.805827       -21.9277
  18   2.0000      -0.724727       -19.7208
  19   2.0000      -0.693932       -18.8829
  20   2.0000      -0.681161       -18.5353
  21   2.0000      -0.667398       -18.1608
  22   2.0000      -0.650816       -17.7096
  23   2.0000      -0.634638       -17.2694
  24   2.0000      -0.602132       -16.3848
  25   2.0000      -0.571676       -15.5561
  26   2.0000      -0.570360       -15.5203
  27   2.0000      -0.549010       -14.9393
  28   2.0000      -0.534994       -14.5579
  29   2.0000      -0.523969       -14.2579
  30   2.0000      -0.506235       -13.7753
  31   2.0000      -0.493951       -13.4411
  32   2.0000      -0.463997       -12.6260
  33   2.0000      -0.447229       -12.1697
  34   2.0000      -0.421668       -11.4742
  35   0.0000       0.089610         2.4384
  36   0.0000       0.124515         3.3882
  37   0.0000       0.129972         3.5367
  38   0.0000       0.146590         3.9889
  39   0.0000       0.154080         4.1927

MULLIKEN ATOMIC CHARGES
-----------------------
   0 C :   -0.398623
   1 C :   -0.131047
   2 C :   -0.072846
   3 O :   -0.465584
   4 C :    0.074061
   5 C :    0.061550
   6 O :   -0.238889
   7 C :    0.051646
   8 O :   -0.242114
   9 H :    0.165372
  10 H :    0.142444
  11 H :    0.127874
  12 H :    0.101795
  13 H :    0.107404
  14 H :    0.117836
  15 H :    0.322235
  16 H :    0.101445
  17 H :    0.086687
  18 H :    0.088754
Sum of atomic charges:    0.0000000

LOEWDIN ATOMIC CHARGES
----------------------
   0 C :   -0.281395
   1 C :   -0.258704
   2 C :   -0.324918
   3 O :   -0.038960
   4 C :   -0.226879
   5 C :   -0.270755
   6 O :    0.153920
   7 C :   -0.275792
   8 O :    0.149888
   9 H :    0.133583
  10 H :    0.126942
  11 H :    0.128961
  12 H :    0.159329
  13 H :    0.123494
  14 H :    0.123493
  15 H :    0.176388
  16 H :    0.168016
  17 H :    0.116704
  18 H :    0.116683

  Mayer bond orders larger than 0.1
B(  0-C ,  1-C ) :   0.9266 B(  0-C ,  9-H ) :   0.9316 B(  0-C , 10-H ) :   0.9319
B(  0-C , 11-H ) :   0.9271 B(  1-C ,  2-C ) :   0.9262 B(  1-C ,  4-C ) :   0.8918
B(  1-C , 12-H ) :   0.9078 B(  2-C ,  3-O ) :   1.0168 B(  2-C , 13-H ) :   0.9179
B(  2-C , 14-H ) :   0.9281 B(  3-O , 15-H ) :   0.8445 B(  4-C ,  5-C ) :   0.8335
B(  4-C ,  7-C ) :   0.8363 B(  4-C , 16-H ) :   0.8730 B(  5-C ,  6-O ) :   2.0072
B(  5-C , 17-H ) :   0.9276 B(  7-C ,  8-O ) :   1.9991 B(  7-C , 18-H ) :   0.9255

MP2 TOTAL ENERGY:     -459.435231009 Eh
FINAL SINGLE POINT ENERGY      -459.435231009288

DIPOLE MOMENT
-------------
                                X             Y             Z
Electronic contribution:     -5.81999      -4.10417      -0.87954
Nuclear contribution   :      7.01777       4.07597       1.00953
                        -----------------------------------------
Total Dipole Moment    :      1.19778      -0.02820       0.12999
                        -----------------------------------------
Magnitude (a.u.)       :      1.20514
Magnitude (Debye)      :      3.06323

                             ****ORCA TERMINATED NORMALLY****
TOTAL RUN TIME: 0 days 0 hours 15 minutes 59 seconds 251 msec
