                         Program Version 3.0.3 - RELEASE   -
|  1> ! RI-MP2 RIJK def2-TZVP def2-TZVP/C def2-TZVP/JK TIGHTSCF
|  2> % maxcore 2000
|  3> % mp2 density relaxed end
|  4> *xyz 0 1
|  5>  C        0.0478462396     1.4777729804     0.1988937703
|  6>  C        0.0127281683    -0.0272873224    -0.0053172733
|  7>  C        0.6612414803    -0.6089667978    -1.2231157399
|  8>  N        1.2791523008    -0.7995918266     0.0922469464
|  9>  C       -1.1425106495    -0.6893661370     0.5468521574
| 10>  C       -2.1331185780    -1.2042719655     1.0031065598
| 11>  C       -3.3484658776    -1.7824907704     1.5555632202
| 12>  N       -3.2327930190    -3.1081639793     1.8661514880
| 13>  O       -4.3726086008    -1.1449982762     1.7103647626
| 14>  H        0.9271283618     1.9102770452    -0.2893797915
| 15>  H       -0.8456505054     1.9478202275    -0.2219553482
| 16>  H        0.0853488682     1.7229467850     1.2647467132
| 17>  H        0.2508670647    -1.5085913637    -1.6706417352
| 18>  H        1.1060177328     0.0922281521    -1.9249905099
| 19>  H        2.0484821240    -0.1439858703     0.2132583763
| 20>  H       -2.3430943205    -3.5749385212     1.8332277559
| 21>  H       -4.0076754396    -3.5526066397     2.3310636181
| 22> *
| 23>
| 24>                          ****END OF INPUT****

CARTESIAN COORDINATES (ANGSTROEM)
---------------------------------
  C      0.047846    1.477773    0.198894
  C      0.012728   -0.027287   -0.005317
  C      0.661241   -0.608967   -1.223116
  N      1.279152   -0.799592    0.092247
  C     -1.142511   -0.689366    0.546852
  C     -2.133119   -1.204272    1.003107
  C     -3.348466   -1.782491    1.555563
  N     -3.232793   -3.108164    1.866151
  O     -4.372609   -1.144998    1.710365
  H      0.927128    1.910277   -0.289380
  H     -0.845651    1.947820   -0.221955
  H      0.085349    1.722947    1.264747
  H      0.250867   -1.508591   -1.670642
  H      1.106018    0.092228   -1.924991
  H      2.048482   -0.143986    0.213258
  H     -2.343094   -3.574939    1.833228
  H     -4.007675   -3.552607    2.331064

 Total Charge           Charge          ....    0
 Multiplicity           Mult            ....    1
 Number of Electrons    NEL             ....   66
 Basis Dimension        Dim             ....  327

ORBITAL ENERGIES
----------------

  NO   OCC          E(Eh)            E(eV)
   0   2.0000     -20.525096      -558.5163
   1   2.0000     -15.588047      -424.1723
   2   2.0000     -15.580046      -423.9546
   3   2.0000     -11.376076      -309.5588
   4   2.0000     -11.305612      -307.6413
   5   2.0000     -11.277882      -306.8868
   6   2.0000     -11.257111      -306.3216
   7   2.0000     -11.243518      -305.9517
   8   2.0000     -11.239958      -305.8548
   9   2.0000      -1.388805       -37.7913
  10   2.0000      -1.287862       -35.0445
  11   2.0000      -1.217643       -33.1338
  12   2.0000      -1.066259       -29.0144
  13   2.0000      -1.007843       -27.4248
  14   2.0000      -0.915211       -24.9042
  15   2.0000      -0.890849       -24.2412
  16   2.0000      -0.837179       -22.7808
  17   2.0000      -0.754526       -20.5317
  18   2.0000      -0.698616       -19.0103
  19   2.0000      -0.691095       -18.8057
  20   2.0000      -0.685746       -18.6601
  21   2.0000      -0.619169       -16.8484
  22   2.0000      -0.599269       -16.3069
  23   2.0000      -0.586021       -15.9464
  24   2.0000      -0.573793       -15.6137
  25   2.0000      -0.557745       -15.1770
  26   2.0000      -0.508109       -13.8264
  27   2.0000      -0.503798       -13.7090
  28   2.0000      -0.452442       -12.3116
  29   2.0000      -0.429798       -11.6954
  30   2.0000      -0.419915       -11.4265
  31   2.0000      -0.401743       -10.9320
  32   2.0000      -0.379109       -10.3161
  33   0.0000       0.114171         3.1068
  34   0.0000       0.125891         3.4257
  35   0.0000       0.134788         3.6678
  36   0.0000       0.162003         4.4083
  37   0.0000       0.174369         4.7448

MULLIKEN ATOMIC CHARGES
-----------------------
   0 C :   -0.388283
   1 C :   -0.140533
   2 C :   -0.166817
   3 N :   -0.349607
   4 C :    0.043187
   5 C :    0.122984
   6 C :    0.220253
   7 N :   -0.467694
   8 O :   -0.321794
   9 H :    0.126353
  10 H :    0.152224
  11 H :    0.149408
  12 H :    0.134306
  13 H :    0.133027
  14 H :    0.222206
  15 H :    0.269010
  16 H :    0.261769
Sum of atomic charges:    0.0000000

LOEWDIN ATOMIC CHARGES
----------------------
   0 C :   -0.253761
   1 C :   -0.316764
   2 C :   -0.226526
   3 N :    0.017759
   4 C :    0.002003
   5 C :   -0.015938
   6 C :   -0.481340
   7 N :   -0.006067
   8 O :    0.104060
   9 H :    0.127676
  10 H :    0.137769
  11 H :    0.133932
  12 H :    0.131476
  13 H :    0.124702
  14 H :    0.168837
  15 H :    0.176964
  16 H :    0.175219

  Mayer bond orders larger than 0.1
B(  0-C ,  1-C ) :   0.9843 B(  0-C ,  9-H ) :   0.9214 B(  0-C , 10-H ) :   0.9292
B(  0-C , 11-H ) :   0.9343 B(  1-C ,  2-C ) :   0.9167 B(  1-C ,  3-N ) :   0.9784
B(  1-C ,  4-C ) :   1.1177 B(  1-C ,  5-C ) :  -0.2371 B(  2-C ,  3-N ) :   0.9351
B(  2-C , 12-H ) :   0.9203 B(  2-C , 13-H ) :   0.9163 B(  3-N , 14-H ) :   0.8679
B(  4-C ,  5-C ) :   2.7362 B(  5-C ,  6-C ) :   0.8463 B(  5-C ,  7-N ) :  -0.1112
B(  6-C ,  7-N ) :   1.2348 B(  6-C ,  8-O ) :   2.0409 B(  7-N , 15-H ) :   0.8650
B(  7-N , 16-H ) :   0.8600

MP2 TOTAL ENERGY:     -417.269870561 Eh
FINAL SINGLE POINT ENERGY      -417.269870561462

DIPOLE MOMENT
-------------
                                X             Y             Z
Electronic contribution:     -6.41214      -3.94659       3.07006
Nuclear contribution   :      7.69252       3.73413      -3.45427
                        -----------------------------------------
Total Dipole Moment    :      1.28038      -0.21246      -0.38421
                        -----------------------------------------
Magnitude (a.u.)       :      1.35356
Magnitude (Debye)      :      3.44048

                             ****ORCA TERMINATED NORMALLY****
TOTAL RUN TIME: 0 days 0 hours 14 minutes 38 seconds 342 msec
