                         Program Version 3.0.3 - RELEASE   -
|  1> ! RI-MP2 RIJK def2-TZVP def2-TZVP/C def2-TZVP/JK TIGHTSCF
|  2> % maxcore 2000
|  3> % mp2 density relaxed end
|  4> *xyz 0 1
|  5>  O       -0.0012974852     0.0124669362    -0.0234396443
|  6>  C       -0.0429128296     1.1983500411     0.0483618032
|  7>  C       -1.1423406389     2.2909421619     0.0524498056
|  8>  O       -1.4991266636     2.6270005033     1.3828994078
|  9>  C       -0.2819579666     2.9924604426     2.0426106282
| 10>  C        0.7122791403     3.2815801576     0.9251080069
| 11>  C        0.0125888951     3.2316620127    -0.3535454288
| 12>  N        1.0636335027     2.1484633358    -0.0130121649
| 13>  H       -2.0368514164     2.1651184461    -0.5538572029
| 14>  H       -0.4663456930     3.8826773358     2.6528716001
| 15>  H        0.0631584604     2.1800369608     2.6952603111
| 16>  H        1.5537300374     3.9401785104     1.1035716858
| 17>  H        0.1235592775     3.8636089056    -1.2225195779
| 18> *
| 19>
| 20>                          ****END OF INPUT****

CARTESIAN COORDINATES (ANGSTROEM)
---------------------------------
  O     -0.001297    0.012467   -0.023440
  C     -0.042913    1.198350    0.048362
  C     -1.142341    2.290942    0.052450
  O     -1.499127    2.627001    1.382899
  C     -0.281958    2.992460    2.042611
  C      0.712279    3.281580    0.925108
  C      0.012589    3.231662   -0.353545
  N      1.063634    2.148463   -0.013012
  H     -2.036851    2.165118   -0.553857
  H     -0.466346    3.882677    2.652872
  H      0.063158    2.180037    2.695260
  H      1.553730    3.940179    1.103572
  H      0.123559    3.863609   -1.222520

 Total Charge           Charge          ....    0
 Multiplicity           Mult            ....    1
 Number of Electrons    NEL             ....   58
 Basis Dimension        Dim             ....  278

ORBITAL ENERGIES
----------------

  NO   OCC          E(Eh)            E(eV)
   0   2.0000     -20.590997      -560.3095
   1   2.0000     -20.563063      -559.5494
   2   2.0000     -15.599800      -424.4921
   3   2.0000     -11.366596      -309.3008
   4   2.0000     -11.325317      -308.1775
   5   2.0000     -11.309153      -307.7377
   6   2.0000     -11.306253      -307.6588
   7   2.0000     -11.299716      -307.4809
   8   2.0000      -1.437793       -39.1243
   9   2.0000      -1.406991       -38.2862
  10   2.0000      -1.306434       -35.5499
  11   2.0000      -1.047221       -28.4963
  12   2.0000      -0.969699       -26.3869
  13   2.0000      -0.919777       -25.0284
  14   2.0000      -0.832637       -22.6572
  15   2.0000      -0.754786       -20.5388
  16   2.0000      -0.717001       -19.5106
  17   2.0000      -0.705765       -19.2048
  18   2.0000      -0.668903       -18.2018
  19   2.0000      -0.643209       -17.5026
  20   2.0000      -0.602540       -16.3960
  21   2.0000      -0.585161       -15.9230
  22   2.0000      -0.565911       -15.3992
  23   2.0000      -0.552320       -15.0294
  24   2.0000      -0.539464       -14.6796
  25   2.0000      -0.464573       -12.6417
  26   2.0000      -0.459792       -12.5116
  27   2.0000      -0.447300       -12.1717
  28   2.0000      -0.397619       -10.8198
  29   0.0000       0.131450         3.5769
  30   0.0000       0.153531         4.1778
  31   0.0000       0.156814         4.2671
  32   0.0000       0.165443         4.5019
  33   0.0000       0.178439         4.8556

MULLIKEN ATOMIC CHARGES
-----------------------
   0 O :   -0.223057
   1 C :    0.155953
   2 C :    0.050773
   3 O :   -0.299271
   4 C :   -0.028517
   5 C :   -0.099047
   6 C :   -0.095919
   7 N :   -0.183747
   8 H :    0.146249
   9 H :    0.131105
  10 H :    0.120995
  11 H :    0.154315
  12 H :    0.170170
Sum of atomic charges:    0.0000000

LOEWDIN ATOMIC CHARGES
----------------------
   0 O :    0.183416
   1 C :   -0.370768
   2 C :   -0.242914
   3 O :    0.182539
   4 C :   -0.265956
   5 C :   -0.216493
   6 C :   -0.144103
   7 N :    0.162950
   8 H :    0.146545
   9 H :    0.135823
  10 H :    0.133810
  11 H :    0.154076
  12 H :    0.141074

  Mayer bond orders larger than 0.1
B(  0-O ,  1-C ) :   2.0712 B(  1-C ,  2-C ) :   0.8633 B(  1-C ,  7-N ) :   0.9623
B(  2-C ,  3-O ) :   0.9481 B(  2-C ,  6-C ) :   0.8889 B(  2-C ,  8-H ) :   0.9130
B(  3-O ,  4-C ) :   0.9338 B(  4-C ,  5-C ) :   0.9497 B(  4-C ,  9-H ) :   0.9182
B(  4-C , 10-H ) :   0.9092 B(  5-C ,  6-C ) :   0.9408 B(  5-C ,  7-N ) :   0.8628
B(  5-C , 11-H ) :   0.9173 B(  6-C ,  7-N ) :   0.8256 B(  6-C , 12-H ) :   0.8921

MP2 TOTAL ENERGY:     -397.916412637 Eh
FINAL SINGLE POINT ENERGY      -397.916412636685

DIPOLE MOMENT
-------------
                                X             Y             Z
Electronic contribution:     -0.17897      -3.17012      -1.75598
Nuclear contribution   :      0.06745       4.68805       1.90125
                        -----------------------------------------
Total Dipole Moment    :     -0.11152       1.51793       0.14527
                        -----------------------------------------
Magnitude (a.u.)       :      1.52894
Magnitude (Debye)      :      3.88626

                             ****ORCA TERMINATED NORMALLY****
TOTAL RUN TIME: 0 days 0 hours 11 minutes 9 seconds 890 msec
