                         Program Version 3.0.3 - RELEASE   -
|  1> ! RI-MP2 RIJK def2-TZVP def2-TZVP/C def2-TZVP/JK TIGHTSCF
|  2> % maxcore 2000
|  3> % mp2 density relaxed end
|  4> *xyz 0 1
|  5>  C       -0.3599707556    -1.1477698564    -0.4022998153
|  6>  C       -0.2029969047     0.0277330007    -0.2007919082
|  7>  C       -0.0724840691     1.4418578120    -0.0071574234
|  8>  C        0.4810568341     2.0484453176     1.2467511479
|  9>  C        1.0305883569     1.2746409595     2.4258967595
| 10>  C        2.0645142182     0.2024167109     2.0264148280
| 11>  N        2.8680964568     0.4875550368     0.8445773634
| 12>  C        2.4250729276     1.2896077001    -0.0282432698
| 13>  N        1.2680033360     2.1223160798     0.0177960452
| 14>  H       -0.4863667794    -2.1878064575    -0.5772471598
| 15>  H       -0.8126407212     2.0294995203    -0.5459889794
| 16>  H        0.0428579096     3.0099038982     1.5112277321
| 17>  H        1.5108623975     2.0080675991     3.0836744083
| 18>  H        0.2166151804     0.8240813656     3.0043230821
| 19>  H        2.7473052180     0.0202850352     2.8627935657
| 20>  H        1.5587359257    -0.7493175500     1.8312679726
| 21>  H        2.9952253192     1.4329789582    -0.9463405689
| 22> *
| 23>
| 24>                          ****END OF INPUT****

CARTESIAN COORDINATES (ANGSTROEM)
---------------------------------
  C     -0.359971   -1.147770   -0.402300
  C     -0.202997    0.027733   -0.200792
  C     -0.072484    1.441858   -0.007157
  C      0.481057    2.048445    1.246751
  C      1.030588    1.274641    2.425897
  C      2.064514    0.202417    2.026415
  N      2.868096    0.487555    0.844577
  C      2.425073    1.289608   -0.028243
  N      1.268003    2.122316    0.017796
  H     -0.486367   -2.187806   -0.577247
  H     -0.812641    2.029500   -0.545989
  H      0.042858    3.009904    1.511228
  H      1.510862    2.008068    3.083674
  H      0.216615    0.824081    3.004323
  H      2.747305    0.020285    2.862794
  H      1.558736   -0.749318    1.831268
  H      2.995225    1.432979   -0.946341

 Total Charge           Charge          ....    0
 Multiplicity           Mult            ....    1
 Number of Electrons    NEL             ....   64
 Basis Dimension        Dim             ....  327

ORBITAL ENERGIES
----------------

  NO   OCC          E(Eh)            E(eV)
   0   2.0000     -15.584243      -424.0688
   1   2.0000     -15.549444      -423.1219
   2   2.0000     -11.303679      -307.5887
   3   2.0000     -11.299512      -307.4754
   4   2.0000     -11.284870      -307.0769
   5   2.0000     -11.253210      -306.2154
   6   2.0000     -11.248115      -306.0768
   7   2.0000     -11.239933      -305.8541
   8   2.0000     -11.239478      -305.8418
   9   2.0000      -1.315189       -35.7881
  10   2.0000      -1.208041       -32.8725
  11   2.0000      -1.059745       -28.8371
  12   2.0000      -1.049206       -28.5503
  13   2.0000      -0.949070       -25.8255
  14   2.0000      -0.904138       -24.6029
  15   2.0000      -0.864119       -23.5139
  16   2.0000      -0.738508       -20.0958
  17   2.0000      -0.719455       -19.5774
  18   2.0000      -0.696183       -18.9441
  19   2.0000      -0.683058       -18.5870
  20   2.0000      -0.623372       -16.9628
  21   2.0000      -0.619964       -16.8701
  22   2.0000      -0.585557       -15.9338
  23   2.0000      -0.559241       -15.2177
  24   2.0000      -0.540613       -14.7108
  25   2.0000      -0.514947       -14.0124
  26   2.0000      -0.499995       -13.6056
  27   2.0000      -0.442778       -12.0486
  28   2.0000      -0.410631       -11.1738
  29   2.0000      -0.396658       -10.7936
  30   2.0000      -0.392110       -10.6698
  31   2.0000      -0.362778        -9.8717
  32   0.0000       0.131874         3.5885
  33   0.0000       0.136700         3.7198
  34   0.0000       0.152225         4.1423
  35   0.0000       0.162795         4.4299
  36   0.0000       0.167774         4.5654

MULLIKEN ATOMIC CHARGES
-----------------------
   0 C :   -0.116077
   1 C :    0.028514
   2 C :   -0.264123
   3 C :    0.010326
   4 C :   -0.239454
   5 C :   -0.143417
   6 N :   -0.215977
   7 C :    0.001511
   8 N :   -0.197916
   9 H :    0.196121
  10 H :    0.140393
  11 H :    0.130966
  12 H :    0.129329
  13 H :    0.130695
  14 H :    0.135530
  15 H :    0.141561
  16 H :    0.132020
Sum of atomic charges:   -0.0000000

LOEWDIN ATOMIC CHARGES
----------------------
   0 C :   -0.074817
   1 C :   -0.093724
   2 C :   -0.195751
   3 C :   -0.212889
   4 C :   -0.244169
   5 C :   -0.287589
   6 N :    0.099251
   7 C :   -0.293965
   8 N :    0.150152
   9 H :    0.129943
  10 H :    0.163678
  11 H :    0.149848
  12 H :    0.148535
  13 H :    0.148564
  14 H :    0.134999
  15 H :    0.142484
  16 H :    0.135448

  Mayer bond orders larger than 0.1
B(  0-C ,  1-C ) :   2.5489 B(  0-C ,  2-C ) :  -0.1240 B(  0-C ,  9-H ) :   0.8971
B(  1-C ,  2-C ) :   1.1454 B(  2-C ,  3-C ) :   0.9156 B(  2-C ,  8-N ) :   0.8635
B(  2-C , 10-H ) :   0.9282 B(  3-C ,  4-C ) :   0.9406 B(  3-C ,  8-N ) :   0.8636
B(  3-C , 11-H ) :   0.9163 B(  4-C ,  5-C ) :   0.9215 B(  4-C , 12-H ) :   0.9257
B(  4-C , 13-H ) :   0.9159 B(  5-C ,  6-N ) :   0.9186 B(  5-C , 14-H ) :   0.9349
B(  5-C , 15-H ) :   0.9217 B(  6-N ,  7-C ) :   1.8646 B(  7-C ,  8-N ) :   1.0032
B(  7-C , 16-H ) :   0.9279

MP2 TOTAL ENERGY:     -380.123612049 Eh
FINAL SINGLE POINT ENERGY      -380.123612049076

DIPOLE MOMENT
-------------
                                X             Y             Z
Electronic contribution:      0.01396       0.49203      -3.92780
Nuclear contribution   :     -0.83106      -0.54215       4.39377
                        -----------------------------------------
Total Dipole Moment    :     -0.81710      -0.05012       0.46598
                        -----------------------------------------
Magnitude (a.u.)       :      0.94197
Magnitude (Debye)      :      2.39429

                             ****ORCA TERMINATED NORMALLY****
TOTAL RUN TIME: 0 days 0 hours 18 minutes 6 seconds 579 msec
