                         Program Version 3.0.3 - RELEASE   -
|  1> ! RI-MP2 RIJK def2-TZVP def2-TZVP/C def2-TZVP/JK TIGHTSCF
|  2> % maxcore 2000
|  3> % mp2 density relaxed end
|  4> *xyz 0 1
|  5>  C       -0.0256430456     1.5794775701     0.0134592064
|  6>  C        0.0498780944     0.0531144186     0.1499413485
|  7>  C       -1.2991046141    -0.6038428469     0.0312347083
|  8>  C       -2.3871754911    -0.4626329206     1.1221311118
|  9>  N       -2.7793919705    -1.8910436689     0.9331530984
| 10>  C       -1.6410879880    -2.1142928677    -0.0011774847
| 11>  C       -2.1033118519    -1.8204359867    -1.4356060683
| 12>  O       -2.5313704439    -2.4010611284    -2.3776907960
| 13>  O       -1.8701701230    -0.4628447268    -1.3198215485
| 14>  H        0.9700572644     2.0253775472     0.0857074921
| 15>  H       -0.4569036234     1.8584039607    -0.9517231721
| 16>  H       -0.6466813749     2.0201499971     0.8006502971
| 17>  H        0.7084911290    -0.3602528809    -0.6227479187
| 18>  H        0.4850037452    -0.2210309369     1.1186621331
| 19>  H       -1.9583399152    -0.2432680013     2.1070449916
| 20>  H       -3.1883737824     0.2503013245     0.9088549078
| 21>  H       -2.7051849908    -2.4438072050     1.7778252133
| 22>  H       -0.9649737981    -2.9482888482     0.1855821796
| 23> *
| 24>
| 25>                          ****END OF INPUT****

CARTESIAN COORDINATES (ANGSTROEM)
---------------------------------
  C     -0.025643    1.579478    0.013459
  C      0.049878    0.053114    0.149941
  C     -1.299105   -0.603843    0.031235
  C     -2.387175   -0.462633    1.122131
  N     -2.779392   -1.891044    0.933153
  C     -1.641088   -2.114293   -0.001177
  C     -2.103312   -1.820436   -1.435606
  O     -2.531370   -2.401061   -2.377691
  O     -1.870170   -0.462845   -1.319822
  H      0.970057    2.025378    0.085707
  H     -0.456904    1.858404   -0.951723
  H     -0.646681    2.020150    0.800650
  H      0.708491   -0.360253   -0.622748
  H      0.485004   -0.221031    1.118662
  H     -1.958340   -0.243268    2.107045
  H     -3.188374    0.250301    0.908855
  H     -2.705185   -2.443807    1.777825
  H     -0.964974   -2.948289    0.185582

 Total Charge           Charge          ....    0
 Multiplicity           Mult            ....    1
 Number of Electrons    NEL             ....   68
 Basis Dimension        Dim             ....  333

ORBITAL ENERGIES
----------------

  NO   OCC          E(Eh)            E(eV)
   0   2.0000     -20.597548      -560.4878
   1   2.0000     -20.550936      -559.2194
   2   2.0000     -15.573662      -423.7809
   3   2.0000     -11.379303      -309.6466
   4   2.0000     -11.316031      -307.9249
   5   2.0000     -11.293568      -307.3136
   6   2.0000     -11.276836      -306.8583
   7   2.0000     -11.248452      -306.0859
   8   2.0000     -11.230927      -305.6091
   9   2.0000      -1.461827       -39.7783
  10   2.0000      -1.379353       -37.5341
  11   2.0000      -1.247885       -33.9567
  12   2.0000      -1.076199       -29.2849
  13   2.0000      -0.987086       -26.8600
  14   2.0000      -0.963968       -26.2309
  15   2.0000      -0.883511       -24.0416
  16   2.0000      -0.808494       -22.0002
  17   2.0000      -0.741297       -20.1717
  18   2.0000      -0.710589       -19.3361
  19   2.0000      -0.697666       -18.9845
  20   2.0000      -0.677842       -18.4450
  21   2.0000      -0.643549       -17.5119
  22   2.0000      -0.610505       -16.6127
  23   2.0000      -0.601252       -16.3609
  24   2.0000      -0.593554       -16.1514
  25   2.0000      -0.554543       -15.0899
  26   2.0000      -0.547340       -14.8939
  27   2.0000      -0.535309       -14.5665
  28   2.0000      -0.520577       -14.1656
  29   2.0000      -0.500573       -13.6213
  30   2.0000      -0.475430       -12.9371
  31   2.0000      -0.458352       -12.4724
  32   2.0000      -0.438869       -11.9422
  33   2.0000      -0.393489       -10.7074
  34   0.0000       0.113643         3.0924
  35   0.0000       0.126459         3.4411
  36   0.0000       0.149659         4.0724
  37   0.0000       0.173340         4.7168
  38   0.0000       0.180621         4.9149

MULLIKEN ATOMIC CHARGES
-----------------------
   0 C :   -0.410929
   1 C :   -0.200111
   2 C :    0.168196
   3 C :   -0.168677
   4 N :   -0.347930
   5 C :   -0.045332
   6 C :    0.246600
   7 O :   -0.250961
   8 O :   -0.250627
   9 H :    0.140965
  10 H :    0.154807
  11 H :    0.126551
  12 H :    0.121302
  13 H :    0.116513
  14 H :    0.122983
  15 H :    0.122388
  16 H :    0.215207
  17 H :    0.139055
Sum of atomic charges:   -0.0000000

LOEWDIN ATOMIC CHARGES
----------------------
   0 C :   -0.305055
   1 C :   -0.257083
   2 C :   -0.264984
   3 C :   -0.220117
   4 N :   -0.002117
   5 C :   -0.184586
   6 C :   -0.425951
   7 O :    0.164105
   8 O :    0.264166
   9 H :    0.124070
  10 H :    0.130098
  11 H :    0.122792
  12 H :    0.148080
  13 H :    0.145823
  14 H :    0.128272
  15 H :    0.130855
  16 H :    0.162921
  17 H :    0.138710

  Mayer bond orders larger than 0.1
B(  0-C ,  1-C ) :   0.9251 B(  0-C ,  9-H ) :   0.9375 B(  0-C , 10-H ) :   0.9350
B(  0-C , 11-H ) :   0.9347 B(  1-C ,  2-C ) :   0.9313 B(  1-C , 12-H ) :   0.9181
B(  1-C , 13-H ) :   0.9249 B(  2-C ,  3-C ) :   0.9200 B(  2-C ,  5-C ) :   0.8711
B(  2-C ,  8-O ) :   0.8869 B(  3-C ,  4-N ) :   0.9571 B(  3-C , 14-H ) :   0.9144
B(  3-C , 15-H ) :   0.9007 B(  4-N ,  5-C ) :   0.9573 B(  4-N , 16-H ) :   0.8725
B(  5-C ,  6-C ) :   0.9019 B(  5-C , 17-H ) :   0.8908 B(  6-C ,  7-O ) :   2.0707
B(  6-C ,  8-O ) :   1.0750

MP2 TOTAL ENERGY:     -438.359028099 Eh
FINAL SINGLE POINT ENERGY      -438.359028099317

DIPOLE MOMENT
-------------
                                X             Y             Z
Electronic contribution:     -5.25315      -7.04835      -6.06266
Nuclear contribution   :      6.38819       7.41292       7.83162
                        -----------------------------------------
Total Dipole Moment    :      1.13505       0.36457       1.76897
                        -----------------------------------------
Magnitude (a.u.)       :      2.13319
Magnitude (Debye)      :      5.42213

                             ****ORCA TERMINATED NORMALLY****
TOTAL RUN TIME: 0 days 0 hours 18 minutes 7 seconds 861 msec
