                         Program Version 3.0.3 - RELEASE   -
|  1> ! RI-MP2 RIJK def2-TZVP def2-TZVP/C def2-TZVP/JK TIGHTSCF
|  2> % maxcore 2000
|  3> % mp2 density relaxed end
|  4> *xyz 0 1
|  5>  C        0.1852804151    -3.7156508985     0.1136462865
|  6>  C        0.1090198375    -2.5107745783     0.0860774789
|  7>  C        0.0219366730    -1.1532897993     0.0548037204
|  8>  C       -0.0548774688     0.0548424473     0.0322994561
|  9>  C       -0.1478621363     1.5183101008    -0.0044082890
| 10>  C       -0.7295849892     2.1065293673     1.2979318388
| 11>  C        0.5289710793     2.2094539218     2.1709537694
| 12>  C        1.6168585212     2.5578476069     1.1416387510
| 13>  O        1.1396893461     2.1204883619    -0.1389248983
| 14>  H        0.2532610551    -4.7748452760     0.1371024160
| 15>  H       -0.7347368002     1.8118304754    -0.8826099133
| 16>  H       -1.1397259712     3.0981944440     1.0830287987
| 17>  H       -1.5172745818     1.4872783699     1.7295862203
| 18>  H        0.4437278156     2.9592974859     2.9603023317
| 19>  H        0.7388741104     1.2443474590     2.6411444466
| 20>  H        1.7930565448     3.6396178794     1.0851470951
| 21>  H        2.5722774093     2.0680811626     1.3597188110
| 22> *
| 23>
| 24>                          ****END OF INPUT****

CARTESIAN COORDINATES (ANGSTROEM)
---------------------------------
  C      0.185280   -3.715651    0.113646
  C      0.109020   -2.510775    0.086077
  C      0.021937   -1.153290    0.054804
  C     -0.054877    0.054842    0.032299
  C     -0.147862    1.518310   -0.004408
  C     -0.729585    2.106529    1.297932
  C      0.528971    2.209454    2.170954
  C      1.616859    2.557848    1.141639
  O      1.139689    2.120488   -0.138925
  H      0.253261   -4.774845    0.137102
  H     -0.734737    1.811830   -0.882610
  H     -1.139726    3.098194    1.083029
  H     -1.517275    1.487278    1.729586
  H      0.443728    2.959297    2.960302
  H      0.738874    1.244347    2.641144
  H      1.793057    3.639618    1.085147
  H      2.572277    2.068081    1.359719

 Total Charge           Charge          ....    0
 Multiplicity           Mult            ....    1
 Number of Electrons    NEL             ....   64
 Basis Dimension        Dim             ....  327

ORBITAL ENERGIES
----------------

  NO   OCC          E(Eh)            E(eV)
   0   2.0000     -20.560611      -559.4827
   1   2.0000     -11.314246      -307.8763
   2   2.0000     -11.278953      -306.9159
   3   2.0000     -11.258548      -306.3607
   4   2.0000     -11.252790      -306.2040
   5   2.0000     -11.249176      -306.1056
   6   2.0000     -11.248267      -306.0809
   7   2.0000     -11.241566      -305.8986
   8   2.0000     -11.234888      -305.7168
   9   2.0000      -1.384155       -37.6648
  10   2.0000      -1.095324       -29.8053
  11   2.0000      -1.070463       -29.1288
  12   2.0000      -1.037524       -28.2325
  13   2.0000      -0.988865       -26.9084
  14   2.0000      -0.867131       -23.5958
  15   2.0000      -0.820321       -22.3221
  16   2.0000      -0.812385       -22.1061
  17   2.0000      -0.716522       -19.4976
  18   2.0000      -0.703823       -19.1520
  19   2.0000      -0.689388       -18.7592
  20   2.0000      -0.628247       -17.0955
  21   2.0000      -0.614888       -16.7320
  22   2.0000      -0.579971       -15.7818
  23   2.0000      -0.522779       -14.2255
  24   2.0000      -0.515263       -14.0210
  25   2.0000      -0.497968       -13.5504
  26   2.0000      -0.490223       -13.3397
  27   2.0000      -0.478586       -13.0230
  28   2.0000      -0.470393       -12.8000
  29   2.0000      -0.435170       -11.8416
  30   2.0000      -0.356815        -9.7094
  31   2.0000      -0.352813        -9.6005
  32   0.0000       0.110832         3.0159
  33   0.0000       0.112721         3.0673
  34   0.0000       0.136627         3.7178
  35   0.0000       0.155773         4.2388
  36   0.0000       0.164717         4.4822

MULLIKEN ATOMIC CHARGES
-----------------------
   0 C :   -0.148434
   1 C :   -0.003575
   2 C :    0.048050
   3 C :   -0.205154
   4 C :    0.120502
   5 C :   -0.242286
   6 C :   -0.271313
   7 C :   -0.045515
   8 O :   -0.320822
   9 H :    0.194075
  10 H :    0.132277
  11 H :    0.124946
  12 H :    0.138393
  13 H :    0.130219
  14 H :    0.133367
  15 H :    0.104818
  16 H :    0.110452
Sum of atomic charges:   -0.0000000

LOEWDIN ATOMIC CHARGES
----------------------
   0 C :   -0.046782
   1 C :   -0.098080
   2 C :   -0.055008
   3 C :    0.006167
   4 C :   -0.303157
   5 C :   -0.224104
   6 C :   -0.261145
   7 C :   -0.289759
   8 O :    0.170292
   9 H :    0.130179
  10 H :    0.160595
  11 H :    0.141881
  12 H :    0.143730
  13 H :    0.137744
  14 H :    0.141684
  15 H :    0.121906
  16 H :    0.123855

  Mayer bond orders larger than 0.1
B(  0-C ,  1-C ) :   2.5477 B(  0-C ,  3-C ) :   0.1220 B(  0-C ,  9-H ) :   0.8868
B(  1-C ,  2-C ) :   1.2914 B(  2-C ,  3-C ) :   2.5620 B(  3-C ,  4-C ) :   1.0234
B(  4-C ,  5-C ) :   0.9198 B(  4-C ,  8-O ) :   0.9274 B(  4-C , 10-H ) :   0.9168
B(  5-C ,  6-C ) :   0.9347 B(  5-C , 11-H ) :   0.9276 B(  5-C , 12-H ) :   0.9263
B(  6-C ,  7-C ) :   0.9489 B(  6-C , 13-H ) :   0.9254 B(  6-C , 14-H ) :   0.9274
B(  7-C ,  8-O ) :   0.9260 B(  7-C , 15-H ) :   0.9313 B(  7-C , 16-H ) :   0.9260

MP2 TOTAL ENERGY:     -383.941280220 Eh
FINAL SINGLE POINT ENERGY      -383.941280219688

DIPOLE MOMENT
-------------
                                X             Y             Z
Electronic contribution:     -0.15716      -6.95304      -4.63003
Nuclear contribution   :     -0.16592       7.19870       5.30884
                        -----------------------------------------
Total Dipole Moment    :     -0.32308       0.24566       0.67881
                        -----------------------------------------
Magnitude (a.u.)       :      0.79089
Magnitude (Debye)      :      2.01029

                             ****ORCA TERMINATED NORMALLY****
TOTAL RUN TIME: 0 days 0 hours 16 minutes 25 seconds 833 msec
