                         Program Version 3.0.3 - RELEASE   -
|  1> ! RI-MP2 RIJK def2-TZVP def2-TZVP/C def2-TZVP/JK TIGHTSCF
|  2> % maxcore 2000
|  3> % mp2 density relaxed end
|  4> *xyz 0 1
|  5>  C       -0.2495480793     1.5218325742    -0.0655166675
|  6>  C        0.0552713759     0.0341237808    -0.0072063648
|  7>  O        0.8113160399    -0.3840765633    -1.1620328014
|  8>  C        1.8933731201    -1.1758705970    -0.6413449724
|  9>  C        2.3071305957    -2.2244570873    -1.6395410548
| 10>  C        2.9652437182    -0.1958076368    -0.1077666802
| 11>  C        2.2842164781     0.2813884818     1.2087136723
| 12>  C        0.9524434777    -0.4943997082     1.1342605170
| 13>  O        1.3632024669    -1.7418207975     0.5509479363
| 14>  H        0.6618139633     2.1200294532    -0.1412169648
| 15>  H       -0.8666215378     1.7407556576    -0.9414804344
| 16>  H       -0.8046339347     1.8370456769     0.8249259778
| 17>  H       -0.8893782620    -0.5280409565     0.0107582573
| 18>  H        2.6762033247    -1.7461388214    -2.5502700510
| 19>  H        3.1003914847    -2.8507883367    -1.2241097690
| 20>  H        1.4500402396    -2.8512976428    -1.8949015718
| 21>  H        3.9108691167    -0.7098079088     0.0834303233
| 22>  H        3.1437634566     0.6097757567    -0.8224830048
| 23>  H        2.8470759053    -0.0374670532     2.0886365934
| 24>  H        2.1543511662     1.3633679817     1.2687420021
| 25>  H        0.4406640641    -0.6681884935     2.0803590577
| 26> *
| 27>
| 28>                          ****END OF INPUT****

CARTESIAN COORDINATES (ANGSTROEM)
---------------------------------
  C     -0.249548    1.521833   -0.065517
  C      0.055271    0.034124   -0.007206
  O      0.811316   -0.384077   -1.162033
  C      1.893373   -1.175871   -0.641345
  C      2.307131   -2.224457   -1.639541
  C      2.965244   -0.195808   -0.107767
  C      2.284216    0.281388    1.208714
  C      0.952443   -0.494400    1.134261
  O      1.363202   -1.741821    0.550948
  H      0.661814    2.120029   -0.141217
  H     -0.866622    1.740756   -0.941480
  H     -0.804634    1.837046    0.824926
  H     -0.889378   -0.528041    0.010758
  H      2.676203   -1.746139   -2.550270
  H      3.100391   -2.850788   -1.224110
  H      1.450040   -2.851298   -1.894902
  H      3.910869   -0.709808    0.083430
  H      3.143763    0.609776   -0.822483
  H      2.847076   -0.037467    2.088637
  H      2.154351    1.363368    1.268742
  H      0.440664   -0.668188    2.080359

 Total Charge           Charge          ....    0
 Multiplicity           Mult            ....    1
 Number of Electrons    NEL             ....   70
 Basis Dimension        Dim             ....  351

ORBITAL ENERGIES
----------------

  NO   OCC          E(Eh)            E(eV)
   0   2.0000     -20.556743      -559.3774
   1   2.0000     -20.547487      -559.1255
   2   2.0000     -11.330166      -308.3095
   3   2.0000     -11.282915      -307.0237
   4   2.0000     -11.279336      -306.9263
   5   2.0000     -11.227957      -305.5282
   6   2.0000     -11.223171      -305.3980
   7   2.0000     -11.219795      -305.3062
   8   2.0000     -11.214997      -305.1756
   9   2.0000      -1.437596       -39.1190
  10   2.0000      -1.319743       -35.9120
  11   2.0000      -1.070302       -29.1244
  12   2.0000      -1.053486       -28.6668
  13   2.0000      -0.985966       -26.8295
  14   2.0000      -0.920472       -25.0473
  15   2.0000      -0.846267       -23.0281
  16   2.0000      -0.795025       -21.6337
  17   2.0000      -0.770663       -20.9708
  18   2.0000      -0.701476       -19.0881
  19   2.0000      -0.676093       -18.3974
  20   2.0000      -0.643332       -17.5060
  21   2.0000      -0.615802       -16.7568
  22   2.0000      -0.579105       -15.7582
  23   2.0000      -0.573210       -15.5978
  24   2.0000      -0.562826       -15.3153
  25   2.0000      -0.549953       -14.9650
  26   2.0000      -0.527932       -14.3658
  27   2.0000      -0.519950       -14.1486
  28   2.0000      -0.510950       -13.9036
  29   2.0000      -0.506153       -13.7731
  30   2.0000      -0.494899       -13.4669
  31   2.0000      -0.483458       -13.1556
  32   2.0000      -0.466414       -12.6918
  33   2.0000      -0.436234       -11.8705
  34   2.0000      -0.403545       -10.9810
  35   0.0000       0.136610         3.7174
  36   0.0000       0.152009         4.1364
  37   0.0000       0.166262         4.5242
  38   0.0000       0.170846         4.6490
  39   0.0000       0.196457         5.3459

MULLIKEN ATOMIC CHARGES
-----------------------
   0 C :   -0.418511
   1 C :    0.068313
   2 O :   -0.321290
   3 C :    0.282357
   4 C :   -0.415037
   5 C :   -0.201683
   6 C :   -0.293022
   7 C :    0.093150
   8 O :   -0.306205
   9 H :    0.128471
  10 H :    0.145028
  11 H :    0.128253
  12 H :    0.083902
  13 H :    0.139023
  14 H :    0.134866
  15 H :    0.141840
  16 H :    0.114358
  17 H :    0.117367
  18 H :    0.123414
  19 H :    0.123230
  20 H :    0.132176
Sum of atomic charges:   -0.0000000

LOEWDIN ATOMIC CHARGES
----------------------
   0 C :   -0.293707
   1 C :   -0.303994
   2 O :    0.190446
   3 C :   -0.442624
   4 C :   -0.261405
   5 C :   -0.210338
   6 C :   -0.229597
   7 C :   -0.276933
   8 O :    0.216820
   9 H :    0.123323
  10 H :    0.129720
  11 H :    0.127902
  12 H :    0.140239
  13 H :    0.134654
  14 H :    0.132538
  15 H :    0.134244
  16 H :    0.136561
  17 H :    0.138663
  18 H :    0.137751
  19 H :    0.133997
  20 H :    0.141740

  Mayer bond orders larger than 0.1
B(  0-C ,  1-C ) :   0.9041 B(  0-C ,  9-H ) :   0.9347 B(  0-C , 10-H ) :   0.9351
B(  0-C , 11-H ) :   0.9319 B(  1-C ,  2-O ) :   0.9145 B(  1-C ,  7-C ) :   0.9329
B(  1-C , 12-H ) :   0.9280 B(  2-O ,  3-C ) :   0.9448 B(  3-C ,  4-C ) :   0.8486
B(  3-C ,  5-C ) :   0.9492 B(  3-C ,  8-O ) :   0.9788 B(  4-C , 13-H ) :   0.9386
B(  4-C , 14-H ) :   0.9431 B(  4-C , 15-H ) :   0.9464 B(  5-C ,  6-C ) :   0.9865
B(  5-C , 16-H ) :   0.9178 B(  5-C , 17-H ) :   0.9136 B(  6-C ,  7-C ) :   0.9444
B(  6-C , 18-H ) :   0.9187 B(  6-C , 19-H ) :   0.9285 B(  7-C ,  8-O ) :   0.9280
B(  7-C , 20-H ) :   0.9070

MP2 TOTAL ENERGY:     -423.556241143 Eh
FINAL SINGLE POINT ENERGY      -423.556241143406

DIPOLE MOMENT
-------------
                                X             Y             Z
Electronic contribution:     -1.13783      -3.41466       0.42585
Nuclear contribution   :      1.31058       3.88569      -0.05702
                        -----------------------------------------
Total Dipole Moment    :      0.17275       0.47103       0.36883
                        -----------------------------------------
Magnitude (a.u.)       :      0.62269
Magnitude (Debye)      :      1.58275

                             ****ORCA TERMINATED NORMALLY****
TOTAL RUN TIME: 0 days 0 hours 21 minutes 12 seconds 938 msec
