                         Program Version 3.0.3 - RELEASE   -
|  1> ! RI-MP2 RIJK def2-TZVP def2-TZVP/C def2-TZVP/JK TIGHTSCF
|  2> % maxcore 2000
|  3> % mp2 density relaxed end
|  4> *xyz 0 1
|  5>  O        0.0769674006     1.1345947005    -0.5198863493
|  6>  C        0.0538800630    -0.2250237956    -0.1306699793
|  7>  C       -1.3683717166    -0.6544267069     0.1777214405
|  8>  O       -2.2470180727    -0.4825121095    -0.9842177243
|  9>  C       -2.7164826069    -1.8421981436    -0.8843928633
| 10>  C       -1.7437591582    -2.1428969915     0.2660102231
| 11>  O       -0.9515823752    -2.9974772594    -0.6115516091
| 12>  C       -1.8155668818    -2.8082909228    -1.6812189678
| 13>  O       -1.7380996090    -3.2750557688    -2.7666690242
| 14>  H       -0.4831736590     1.2090896701    -1.3015179635
| 15>  H        0.4846602284    -0.8810619131    -0.8980744632
| 16>  H        0.6687343397    -0.3109053340     0.7718995035
| 17>  H       -1.7729383580    -0.0758563874     1.0170071453
| 18>  H       -3.8003694643    -1.9482681654    -0.9142071175
| 19>  H       -1.9604816399    -2.6231704729     1.2160864592
| 20> *
| 21>
| 22>                          ****END OF INPUT****

CARTESIAN COORDINATES (ANGSTROEM)
---------------------------------
  O      0.076967    1.134595   -0.519886
  C      0.053880   -0.225024   -0.130670
  C     -1.368372   -0.654427    0.177721
  O     -2.247018   -0.482512   -0.984218
  C     -2.716483   -1.842198   -0.884393
  C     -1.743759   -2.142897    0.266010
  O     -0.951582   -2.997477   -0.611552
  C     -1.815567   -2.808291   -1.681219
  O     -1.738100   -3.275056   -2.766669
  H     -0.483174    1.209090   -1.301518
  H      0.484660   -0.881062   -0.898074
  H      0.668734   -0.310905    0.771900
  H     -1.772938   -0.075856    1.017007
  H     -3.800369   -1.948268   -0.914207
  H     -1.960482   -2.623170    1.216086

 Total Charge           Charge          ....    0
 Multiplicity           Mult            ....    1
 Number of Electrons    NEL             ....   68
 Basis Dimension        Dim             ....  315

ORBITAL ENERGIES
----------------

  NO   OCC          E(Eh)            E(eV)
   0   2.0000     -20.622551      -561.1681
   1   2.0000     -20.597872      -560.4966
   2   2.0000     -20.576135      -559.9051
   3   2.0000     -20.568230      -559.6900
   4   2.0000     -11.402575      -310.2799
   5   2.0000     -11.338236      -308.5291
   6   2.0000     -11.334726      -308.4336
   7   2.0000     -11.319707      -308.0249
   8   2.0000     -11.294569      -307.3408
   9   2.0000      -1.492353       -40.6090
  10   2.0000      -1.423506       -38.7356
  11   2.0000      -1.393255       -37.9124
  12   2.0000      -1.371578       -37.3225
  13   2.0000      -1.049580       -28.5605
  14   2.0000      -1.030910       -28.0525
  15   2.0000      -0.930959       -25.3327
  16   2.0000      -0.842540       -22.9267
  17   2.0000      -0.774327       -21.0705
  18   2.0000      -0.742222       -20.1969
  19   2.0000      -0.733806       -19.9679
  20   2.0000      -0.708584       -19.2816
  21   2.0000      -0.692534       -18.8448
  22   2.0000      -0.656584       -17.8666
  23   2.0000      -0.623298       -16.9608
  24   2.0000      -0.612442       -16.6654
  25   2.0000      -0.600780       -16.3480
  26   2.0000      -0.588606       -16.0168
  27   2.0000      -0.563087       -15.3224
  28   2.0000      -0.528942       -14.3932
  29   2.0000      -0.508748       -13.8437
  30   2.0000      -0.490976       -13.3601
  31   2.0000      -0.481905       -13.1133
  32   2.0000      -0.451183       -12.2773
  33   2.0000      -0.439152       -11.9499
  34   0.0000       0.120202         3.2709
  35   0.0000       0.133179         3.6240
  36   0.0000       0.151742         4.1291
  37   0.0000       0.159673         4.3449
  38   0.0000       0.175449         4.7742

MULLIKEN ATOMIC CHARGES
-----------------------
   0 O :   -0.470285
   1 C :   -0.039915
   2 C :    0.021542
   3 O :   -0.336951
   4 C :    0.012593
   5 C :    0.062295
   6 O :   -0.253977
   7 C :    0.250217
   8 O :   -0.236535
   9 H :    0.331618
  10 H :    0.132648
  11 H :    0.118478
  12 H :    0.109526
  13 H :    0.143869
  14 H :    0.154877
Sum of atomic charges:    0.0000000

LOEWDIN ATOMIC CHARGES
----------------------
   0 O :   -0.035728
   1 C :   -0.327696
   2 C :   -0.258862
   3 O :    0.157616
   4 C :   -0.206999
   5 C :   -0.203789
   6 O :    0.248125
   7 C :   -0.424964
   8 O :    0.180055
   9 H :    0.181364
  10 H :    0.127562
  11 H :    0.137026
  12 H :    0.148563
  13 H :    0.140210
  14 H :    0.137519

  Mayer bond orders larger than 0.1
B(  0-O ,  1-C ) :   0.9168 B(  0-O ,  9-H ) :   0.8341 B(  1-C ,  2-C ) :   0.9510
B(  1-C , 10-H ) :   0.9134 B(  1-C , 11-H ) :   0.9216 B(  2-C ,  3-O ) :   0.8844
B(  2-C ,  5-C ) :   0.9226 B(  2-C , 12-H ) :   0.9071 B(  3-O ,  4-C ) :   0.9283
B(  4-C ,  5-C ) :   0.9279 B(  4-C ,  7-C ) :   0.8902 B(  4-C , 13-H ) :   0.9067
B(  5-C ,  6-O ) :   0.8926 B(  5-C , 14-H ) :   0.9130 B(  6-O ,  7-C ) :   1.0401
B(  7-C ,  8-O ) :   2.0600

MP2 TOTAL ENERGY:     -494.117993570 Eh
FINAL SINGLE POINT ENERGY      -494.117993569635

DIPOLE MOMENT
-------------
                                X             Y             Z
Electronic contribution:     -1.89872      -3.78192      -3.23487
Nuclear contribution   :      1.17685       3.73796       4.42867
                        -----------------------------------------
Total Dipole Moment    :     -0.72187      -0.04395       1.19380
                        -----------------------------------------
Magnitude (a.u.)       :      1.39578
Magnitude (Debye)      :      3.54779

                             ****ORCA TERMINATED NORMALLY****
TOTAL RUN TIME: 0 days 0 hours 23 minutes 28 seconds 395 msec
