                         Program Version 3.0.3 - RELEASE   -
|  1> ! RI-MP2 RIJK def2-TZVP def2-TZVP/C def2-TZVP/JK TIGHTSCF
|  2> % maxcore 2000
|  3> % mp2 density relaxed end
|  4> *xyz 0 1
|  5>  O       -0.0580291108     1.5027999812     0.0269082941
|  6>  C        1.3799793394     1.2060262460    -0.0152043715
|  7>  C        1.1375150819     0.1190824382     1.0660328266
|  8>  O        2.0576730420    -0.9574722872     1.1617454071
|  9>  C        2.4449377931    -1.4310777341    -0.0478207744
| 10>  N        2.0572396152    -0.9952823547    -1.1719659762
| 11>  C        1.1189237239     0.1055035562    -1.0870124207
| 12>  C        0.0085932997     0.0355711187     0.0040216477
| 13>  H        2.0852281068     2.0350545154    -0.0262734597
| 14>  H        0.8699283575     0.4490540400     2.0672406600
| 15>  H        3.1477596042    -2.2528774338     0.0536785965
| 16>  H        0.7963847563     0.4673943663    -2.0621570417
| 17>  H       -0.9209389991    -0.5306580435     0.0158674221
| 18> *
| 19>
| 20>                          ****END OF INPUT****

CARTESIAN COORDINATES (ANGSTROEM)
---------------------------------
  O     -0.058029    1.502800    0.026908
  C      1.379979    1.206026   -0.015204
  C      1.137515    0.119082    1.066033
  O      2.057673   -0.957472    1.161745
  C      2.444938   -1.431078   -0.047821
  N      2.057240   -0.995282   -1.171966
  C      1.118924    0.105504   -1.087012
  C      0.008593    0.035571    0.004022
  H      2.085228    2.035055   -0.026273
  H      0.869928    0.449054    2.067241
  H      3.147760   -2.252877    0.053679
  H      0.796385    0.467394   -2.062157
  H     -0.920939   -0.530658    0.015867

 Total Charge           Charge          ....    0
 Multiplicity           Mult            ....    1
 Number of Electrons    NEL             ....   58
 Basis Dimension        Dim             ....  278

ORBITAL ENERGIES
----------------

  NO   OCC          E(Eh)            E(eV)
   0   2.0000     -20.618440      -561.0563
   1   2.0000     -20.572426      -559.8042
   2   2.0000     -15.561352      -423.4459
   3   2.0000     -11.348682      -308.8133
   4   2.0000     -11.318709      -307.9977
   5   2.0000     -11.313149      -307.8464
   6   2.0000     -11.313112      -307.8454
   7   2.0000     -11.283370      -307.0361
   8   2.0000      -1.462922       -39.8081
   9   2.0000      -1.413520       -38.4638
  10   2.0000      -1.234287       -33.5867
  11   2.0000      -1.083793       -29.4915
  12   2.0000      -0.931929       -25.3591
  13   2.0000      -0.908573       -24.7235
  14   2.0000      -0.888372       -24.1738
  15   2.0000      -0.743943       -20.2437
  16   2.0000      -0.722363       -19.6565
  17   2.0000      -0.716312       -19.4919
  18   2.0000      -0.655627       -17.8405
  19   2.0000      -0.652561       -17.7571
  20   2.0000      -0.601009       -16.3543
  21   2.0000      -0.567377       -15.4391
  22   2.0000      -0.564656       -15.3651
  23   2.0000      -0.529385       -14.4053
  24   2.0000      -0.521924       -14.2023
  25   2.0000      -0.470986       -12.8162
  26   2.0000      -0.464901       -12.6506
  27   2.0000      -0.402373       -10.9491
  28   2.0000      -0.392203       -10.6724
  29   0.0000       0.137568         3.7434
  30   0.0000       0.161300         4.3892
  31   0.0000       0.169055         4.6002
  32   0.0000       0.174382         4.7452
  33   0.0000       0.178238         4.8501

MULLIKEN ATOMIC CHARGES
-----------------------
   0 O :   -0.303856
   1 C :   -0.049020
   2 C :    0.088078
   3 O :   -0.258985
   4 C :    0.102480
   5 N :   -0.279579
   6 C :    0.033972
   7 C :   -0.049021
   8 H :    0.148250
   9 H :    0.140759
  10 H :    0.146680
  11 H :    0.131993
  12 H :    0.148250
Sum of atomic charges:    0.0000000

LOEWDIN ATOMIC CHARGES
----------------------
   0 O :    0.157356
   1 C :   -0.199274
   2 C :   -0.225840
   3 O :    0.251850
   4 C :   -0.338141
   5 N :    0.088432
   6 C :   -0.221481
   7 C :   -0.199272
   8 H :    0.129223
   9 H :    0.145823
  10 H :    0.136117
  11 H :    0.145984
  12 H :    0.129223

  Mayer bond orders larger than 0.1
B(  0-O ,  1-C ) :   0.9185 B(  0-O ,  7-C ) :   0.9185 B(  1-C ,  2-C ) :   0.9048
B(  1-C ,  6-C ) :   0.8887 B(  1-C ,  8-H ) :   0.8909 B(  2-C ,  3-O ) :   0.8890
B(  2-C ,  7-C ) :   0.9048 B(  2-C ,  9-H ) :   0.9248 B(  3-O ,  4-C ) :   1.0654
B(  4-C ,  5-N ) :   1.8264 B(  4-C , 10-H ) :   0.9240 B(  5-N ,  6-C ) :   0.9266
B(  6-C ,  7-C ) :   0.8887 B(  6-C , 11-H ) :   0.9342 B(  7-C , 12-H ) :   0.8909

MP2 TOTAL ENERGY:     -397.884620894 Eh
FINAL SINGLE POINT ENERGY      -397.884620893882

DIPOLE MOMENT
-------------
                                X             Y             Z
Electronic contribution:      0.43252      -0.49951       0.44291
Nuclear contribution   :     -0.30483       0.35692      -0.01538
                        -----------------------------------------
Total Dipole Moment    :      0.12769      -0.14259       0.42753
                        -----------------------------------------
Magnitude (a.u.)       :      0.46843
Magnitude (Debye)      :      1.19064

                             ****ORCA TERMINATED NORMALLY****
TOTAL RUN TIME: 0 days 0 hours 10 minutes 17 seconds 248 msec
