                         Program Version 3.0.3 - RELEASE   -
|  1> ! RI-MP2 RIJK def2-TZVP def2-TZVP/C def2-TZVP/JK TIGHTSCF
|  2> % maxcore 2000
|  3> % mp2 density relaxed end
|  4> *xyz 0 1
|  5>  C        0.0999818722     1.4609207057    -0.1152548961
|  6>  C        0.0260246629    -0.0273414789    -0.0646232267
|  7>  N        0.1438154951    -0.8601324228    -1.0853410595
|  8>  C        0.0192142550    -2.0940171991    -0.5088517484
|  9>  C        0.1122916515    -3.3621175736    -1.2926121604
| 10>  C        1.4860863795    -3.5527106157    -1.9267574250
| 11>  O        2.0411503022    -4.6149740293    -2.0202667740
| 12>  N       -0.1661334881    -2.0752852534     0.8013656245
| 13>  N       -0.1620898819    -0.7440396625     1.0651311320
| 14>  H        1.0710204612     1.8239195974     0.2394099268
| 15>  H       -0.0281255204     1.7876782179    -1.1477601974
| 16>  H       -0.6764313811     1.9245395882     0.5009232448
| 17>  H       -0.1225331904    -4.2282061658    -0.6722417109
| 18>  H       -0.6069908523    -3.3230466409    -2.1229393273
| 19>  H        1.9387273419    -2.6172994709    -2.3213678104
| 20>  H       -0.2982512573    -0.4232643863     2.0098253479
| 21> *
| 22>
| 23>                          ****END OF INPUT****

CARTESIAN COORDINATES (ANGSTROEM)
---------------------------------
  C      0.099982    1.460921   -0.115255
  C      0.026025   -0.027341   -0.064623
  N      0.143815   -0.860132   -1.085341
  C      0.019214   -2.094017   -0.508852
  C      0.112292   -3.362118   -1.292612
  C      1.486086   -3.552711   -1.926757
  O      2.041150   -4.614974   -2.020267
  N     -0.166133   -2.075285    0.801366
  N     -0.162090   -0.744040    1.065131
  H      1.071020    1.823920    0.239410
  H     -0.028126    1.787678   -1.147760
  H     -0.676431    1.924540    0.500923
  H     -0.122533   -4.228206   -0.672242
  H     -0.606991   -3.323047   -2.122939
  H      1.938727   -2.617299   -2.321368
  H     -0.298251   -0.423264    2.009825

 Total Charge           Charge          ....    0
 Multiplicity           Mult            ....    1
 Number of Electrons    NEL             ....   66
 Basis Dimension        Dim             ....  321

ORBITAL ENERGIES
----------------

  NO   OCC          E(Eh)            E(eV)
   0   2.0000     -20.554291      -559.3107
   1   2.0000     -15.652296      -425.9206
   2   2.0000     -15.597579      -424.4317
   3   2.0000     -15.560305      -423.4174
   4   2.0000     -11.333627      -308.4037
   5   2.0000     -11.331104      -308.3350
   6   2.0000     -11.302083      -307.5453
   7   2.0000     -11.260559      -306.4154
   8   2.0000     -11.248819      -306.0959
   9   2.0000      -1.417973       -38.5850
  10   2.0000      -1.394064       -37.9344
  11   2.0000      -1.205497       -32.8032
  12   2.0000      -1.145581       -31.1729
  13   2.0000      -1.031882       -28.0789
  14   2.0000      -1.001459       -27.2511
  15   2.0000      -0.844756       -22.9870
  16   2.0000      -0.828363       -22.5409
  17   2.0000      -0.787226       -21.4215
  18   2.0000      -0.733092       -19.9485
  19   2.0000      -0.669007       -18.2046
  20   2.0000      -0.661473       -17.9996
  21   2.0000      -0.624627       -16.9970
  22   2.0000      -0.617756       -16.8100
  23   2.0000      -0.601997       -16.3812
  24   2.0000      -0.590192       -16.0600
  25   2.0000      -0.581488       -15.8231
  26   2.0000      -0.547274       -14.8921
  27   2.0000      -0.512265       -13.9394
  28   2.0000      -0.502178       -13.6650
  29   2.0000      -0.455293       -12.3891
  30   2.0000      -0.430772       -11.7219
  31   2.0000      -0.417750       -11.3676
  32   2.0000      -0.366328        -9.9683
  33   0.0000       0.113450         3.0871
  34   0.0000       0.129907         3.5350
  35   0.0000       0.142867         3.8876
  36   0.0000       0.153680         4.1818
  37   0.0000       0.163948         4.4613

MULLIKEN ATOMIC CHARGES
-----------------------
   0 C :   -0.458179
   1 C :    0.222493
   2 N :   -0.331198
   3 C :    0.140913
   4 C :   -0.182177
   5 C :    0.083875
   6 O :   -0.263064
   7 N :   -0.203013
   8 N :   -0.136342
   9 H :    0.156588
  10 H :    0.172098
  11 H :    0.146633
  12 H :    0.146854
  13 H :    0.143668
  14 H :    0.097739
  15 H :    0.263111
Sum of atomic charges:   -0.0000000

LOEWDIN ATOMIC CHARGES
----------------------
   0 C :   -0.270754
   1 C :   -0.349070
   2 N :    0.116860
   3 C :   -0.363342
   4 C :   -0.224923
   5 C :   -0.281843
   6 O :    0.134003
   7 N :    0.046215
   8 N :    0.142996
   9 H :    0.137637
  10 H :    0.145835
  11 H :    0.133747
  12 H :    0.158009
  13 H :    0.166438
  14 H :    0.115671
  15 H :    0.192522

  Mayer bond orders larger than 0.1
B(  0-C ,  1-C ) :   0.8396 B(  0-C ,  9-H ) :   0.9269 B(  0-C , 10-H ) :   0.9505
B(  0-C , 11-H ) :   0.9447 B(  1-C ,  2-N ) :   1.5231 B(  1-C ,  8-N ) :   1.2336
B(  2-N ,  3-C ) :   1.2610 B(  3-C ,  4-C ) :   0.8547 B(  3-C ,  7-N ) :   1.6066
B(  4-C ,  5-C ) :   0.8806 B(  4-C , 12-H ) :   0.9168 B(  4-C , 13-H ) :   0.9139
B(  5-C ,  6-O ) :   1.9929 B(  5-C , 14-H ) :   0.9301 B(  7-N ,  8-N ) :   1.0647
B(  8-N , 15-H ) :   0.8624

MP2 TOTAL ENERGY:     -433.388313307 Eh
FINAL SINGLE POINT ENERGY      -433.388313307265

DIPOLE MOMENT
-------------
                                X             Y             Z
Electronic contribution:      0.86046      -5.02575       0.44310
Nuclear contribution   :     -1.53050       6.84641       0.46709
                        -----------------------------------------
Total Dipole Moment    :     -0.67005       1.82066       0.91019
                        -----------------------------------------
Magnitude (a.u.)       :      2.14295
Magnitude (Debye)      :      5.44694

                             ****ORCA TERMINATED NORMALLY****
TOTAL RUN TIME: 0 days 0 hours 14 minutes 30 seconds 71 msec
