                         Program Version 3.0.3 - RELEASE   -
|  1> ! RI-MP2 RIJK def2-TZVP def2-TZVP/C def2-TZVP/JK TIGHTSCF
|  2> % maxcore 2000
|  3> % mp2 density relaxed end
|  4> *xyz 0 1
|  5>  C        0.0724916865     1.6251369109     0.0735772342
|  6>  C       -0.0496104797     0.0974499720    -0.0736933886
|  7>  C       -1.5473114338    -0.2944125254    -0.0308203967
|  8>  C       -2.1331621625    -0.1020722919     1.3487575803
|  9>  O       -3.0897444812     0.5795161436     1.6138463528
| 10>  C        0.7130557856    -0.4940496064    -1.3071390861
| 11>  C        2.1680022449     0.0189374149    -1.3122886597
| 12>  C        0.7638041942    -2.0319676392    -1.1993815724
| 13>  C        0.0423962058    -0.1068629499    -2.6388906665
| 14>  H        1.1051002422     1.9407762910     0.2361354901
| 15>  H       -0.3069926675     2.1474551670    -0.8111509884
| 16>  H       -0.5155867231     1.9774960667     0.9268989181
| 17>  H        0.4253297720    -0.3530690554     0.8114270090
| 18>  H       -2.1400269482     0.2881296416    -0.7417118462
| 19>  H       -1.6697305184    -1.3578696084    -0.2726594948
| 20>  H       -1.5924796616    -0.6615682279     2.1504280529
| 21>  H        2.6633732994    -0.1756384633    -0.3540719258
| 22>  H        2.7451459767    -0.4889743133    -2.0921002696
| 23>  H        2.2259868511     1.0924742724    -1.5103159202
| 24>  H       -0.2284399716    -2.4904164286    -1.2467456359
| 25>  H        1.3490492832    -2.4520125575    -2.0240679309
| 26>  H        1.2368084381    -2.3483665245    -0.2627999856
| 27>  H       -0.0216261508     0.9784645103    -2.7641324726
| 28>  H        0.6214231313    -0.4994847866    -3.4816165187
| 29>  H       -0.9695836327    -0.5153075121    -2.7199041088
| 30> *
| 31>
| 32>                          ****END OF INPUT****

CARTESIAN COORDINATES (ANGSTROEM)
---------------------------------
  C      0.072492    1.625137    0.073577
  C     -0.049610    0.097450   -0.073693
  C     -1.547311   -0.294413   -0.030820
  C     -2.133162   -0.102072    1.348758
  O     -3.089744    0.579516    1.613846
  C      0.713056   -0.494050   -1.307139
  C      2.168002    0.018937   -1.312289
  C      0.763804   -2.031968   -1.199382
  C      0.042396   -0.106863   -2.638891
  H      1.105100    1.940776    0.236135
  H     -0.306993    2.147455   -0.811151
  H     -0.515587    1.977496    0.926899
  H      0.425330   -0.353069    0.811427
  H     -2.140027    0.288130   -0.741712
  H     -1.669731   -1.357870   -0.272659
  H     -1.592480   -0.661568    2.150428
  H      2.663373   -0.175638   -0.354072
  H      2.745146   -0.488974   -2.092100
  H      2.225987    1.092474   -1.510316
  H     -0.228440   -2.490416   -1.246746
  H      1.349049   -2.452013   -2.024068
  H      1.236808   -2.348367   -0.262800
  H     -0.021626    0.978465   -2.764132
  H      0.621423   -0.499485   -3.481617
  H     -0.969584   -0.515308   -2.719904

 Total Charge           Charge          ....    0
 Multiplicity           Mult            ....    1
 Number of Electrons    NEL             ....   72
 Basis Dimension        Dim             ....  375

ORBITAL ENERGIES
----------------

  NO   OCC          E(Eh)            E(eV)
   0   2.0000     -20.553634      -559.2928
   1   2.0000     -11.328722      -308.2702
   2   2.0000     -11.245952      -306.0179
   3   2.0000     -11.244639      -305.9822
   4   2.0000     -11.236207      -305.7527
   5   2.0000     -11.219357      -305.2942
   6   2.0000     -11.218938      -305.2828
   7   2.0000     -11.217638      -305.2474
   8   2.0000     -11.217486      -305.2433
   9   2.0000      -1.392600       -37.8946
  10   2.0000      -1.129959       -30.7477
  11   2.0000      -1.049397       -28.5555
  12   2.0000      -0.970868       -26.4187
  13   2.0000      -0.938309       -25.5327
  14   2.0000      -0.931787       -25.3552
  15   2.0000      -0.853379       -23.2216
  16   2.0000      -0.790672       -21.5153
  17   2.0000      -0.731064       -19.8933
  18   2.0000      -0.666194       -18.1281
  19   2.0000      -0.651393       -17.7253
  20   2.0000      -0.637953       -17.3596
  21   2.0000      -0.615866       -16.7586
  22   2.0000      -0.599769       -16.3206
  23   2.0000      -0.589633       -16.0447
  24   2.0000      -0.570328       -15.5194
  25   2.0000      -0.554101       -15.0779
  26   2.0000      -0.536450       -14.5975
  27   2.0000      -0.530092       -14.4245
  28   2.0000      -0.526681       -14.3317
  29   2.0000      -0.516359       -14.0508
  30   2.0000      -0.496995       -13.5239
  31   2.0000      -0.493385       -13.4257
  32   2.0000      -0.459153       -12.4942
  33   2.0000      -0.455380       -12.3915
  34   2.0000      -0.449425       -12.2295
  35   2.0000      -0.412135       -11.2148
  36   0.0000       0.122324         3.3286
  37   0.0000       0.140818         3.8319
  38   0.0000       0.151630         4.1261
  39   0.0000       0.160952         4.3797
  40   0.0000       0.168113         4.5746

MULLIKEN ATOMIC CHARGES
-----------------------
   0 C :   -0.445603
   1 C :   -0.091972
   2 C :   -0.152634
   3 C :    0.068288
   4 O :   -0.261047
   5 C :    0.123513
   6 C :   -0.429329
   7 C :   -0.418016
   8 C :   -0.442575
   9 H :    0.144683
  10 H :    0.131462
  11 H :    0.149922
  12 H :    0.093275
  13 H :    0.124071
  14 H :    0.127409
  15 H :    0.069731
  16 H :    0.133025
  17 H :    0.133929
  18 H :    0.140763
  19 H :    0.126447
  20 H :    0.134418
  21 H :    0.132446
  22 H :    0.133397
  23 H :    0.135420
  24 H :    0.138977
Sum of atomic charges:    0.0000000

LOEWDIN ATOMIC CHARGES
----------------------
   0 C :   -0.285029
   1 C :   -0.237167
   2 C :   -0.240510
   3 C :   -0.301151
   4 O :    0.129946
   5 C :   -0.325737
   6 C :   -0.271414
   7 C :   -0.273159
   8 C :   -0.269317
   9 H :    0.124379
  10 H :    0.125253
  11 H :    0.129439
  12 H :    0.156462
  13 H :    0.148302
  14 H :    0.152243
  15 H :    0.109173
  16 H :    0.126268
  17 H :    0.126208
  18 H :    0.124949
  19 H :    0.120188
  20 H :    0.126971
  21 H :    0.125603
  22 H :    0.124634
  23 H :    0.127848
  24 H :    0.125616

  Mayer bond orders larger than 0.1
B(  0-C ,  1-C ) :   0.9132 B(  0-C ,  9-H ) :   0.9418 B(  0-C , 10-H ) :   0.9323
B(  0-C , 11-H ) :   0.9331 B(  1-C ,  2-C ) :   0.8756 B(  1-C ,  5-C ) :   0.8657
B(  1-C , 12-H ) :   0.9338 B(  2-C ,  3-C ) :   0.8670 B(  2-C , 13-H ) :   0.8979
B(  2-C , 14-H ) :   0.9179 B(  3-C ,  4-O ) :   2.0174 B(  3-C , 15-H ) :   0.9482
B(  5-C ,  6-C ) :   0.8952 B(  5-C ,  7-C ) :   0.9136 B(  5-C ,  8-C ) :   0.9126
B(  6-C , 16-H ) :   0.9347 B(  6-C , 17-H ) :   0.9357 B(  6-C , 18-H ) :   0.9374
B(  7-C , 19-H ) :   0.9339 B(  7-C , 20-H ) :   0.9369 B(  7-C , 21-H ) :   0.9341
B(  8-C , 22-H ) :   0.9345 B(  8-C , 23-H ) :   0.9360 B(  8-C , 24-H ) :   0.9343

MP2 TOTAL ENERGY:     -388.837649890 Eh
FINAL SINGLE POINT ENERGY      -388.837649889876

DIPOLE MOMENT
-------------
                                X             Y             Z
Electronic contribution:     -8.82502       1.17424       6.89654
Nuclear contribution   :      9.74661      -1.65808      -7.37613
                        -----------------------------------------
Total Dipole Moment    :      0.92159      -0.48383      -0.47959
                        -----------------------------------------
Magnitude (a.u.)       :      1.14605
Magnitude (Debye)      :      2.91303

                             ****ORCA TERMINATED NORMALLY****
TOTAL RUN TIME: 0 days 0 hours 25 minutes 57 seconds 546 msec
