                         Program Version 3.0.3 - RELEASE   -
|  1> ! RI-MP2 RIJK def2-TZVP def2-TZVP/C def2-TZVP/JK TIGHTSCF
|  2> % maxcore 2000
|  3> % mp2 density relaxed end
|  4> *xyz 0 1
|  5>  C        0.0289032985    -1.1702013115    -0.0653258064
|  6>  C        0.0104713062     0.0325386824    -0.0237122817
|  7>  C       -0.0341450307     1.4650861549     0.0140272581
|  8>  C       -0.8834215733     2.2501279915     1.0627811214
|  9>  C       -0.8553356714     3.3832899986     0.0295190937
| 10>  C        0.6216814498     3.5579354899    -0.5089134754
| 11>  C        1.2851367917     2.2817026768     0.0360575496
| 12>  O        0.2041390493     3.1113055814    -1.8372492101
| 13>  C       -0.7759393840     2.3681220742    -1.1259949582
| 14>  H        0.0513270314    -2.2310215225    -0.0993445452
| 15>  H       -1.8903775831     1.8386277116     1.1678025185
| 16>  H       -0.4369799576     2.3994220706     2.0494110496
| 17>  H       -1.5134003056     4.2492108955     0.0301971891
| 18>  H        1.1621095662     4.5028598039    -0.5110278553
| 19>  H        1.6994572934     2.3676193399     1.0434339359
| 20>  H        2.0455169211     1.9136527635    -0.6538463673
| 21>  H       -1.5862655018     1.9367222993    -1.7103919065
| 22> *
| 23>
| 24>                          ****END OF INPUT****

CARTESIAN COORDINATES (ANGSTROEM)
---------------------------------
  C      0.028903   -1.170201   -0.065326
  C      0.010471    0.032539   -0.023712
  C     -0.034145    1.465086    0.014027
  C     -0.883422    2.250128    1.062781
  C     -0.855336    3.383290    0.029519
  C      0.621681    3.557935   -0.508913
  C      1.285137    2.281703    0.036058
  O      0.204139    3.111306   -1.837249
  C     -0.775939    2.368122   -1.125995
  H      0.051327   -2.231022   -0.099345
  H     -1.890378    1.838628    1.167803
  H     -0.436980    2.399422    2.049411
  H     -1.513400    4.249211    0.030197
  H      1.162110    4.502860   -0.511028
  H      1.699457    2.367619    1.043434
  H      2.045517    1.913653   -0.653846
  H     -1.586266    1.936722   -1.710392

 Total Charge           Charge          ....    0
 Multiplicity           Mult            ....    1
 Number of Electrons    NEL             ....   64
 Basis Dimension        Dim             ....  327

ORBITAL ENERGIES
----------------

  NO   OCC          E(Eh)            E(eV)
   0   2.0000     -20.556407      -559.3683
   1   2.0000     -11.298350      -307.4437
   2   2.0000     -11.297354      -307.4166
   3   2.0000     -11.268611      -306.6345
   4   2.0000     -11.245000      -305.9920
   5   2.0000     -11.240670      -305.8742
   6   2.0000     -11.235709      -305.7392
   7   2.0000     -11.234410      -305.7038
   8   2.0000     -11.224033      -305.4215
   9   2.0000      -1.405141       -38.2358
  10   2.0000      -1.165490       -31.7146
  11   2.0000      -1.037241       -28.2248
  12   2.0000      -0.996346       -27.1120
  13   2.0000      -0.942455       -25.6455
  14   2.0000      -0.891794       -24.2670
  15   2.0000      -0.811291       -22.0764
  16   2.0000      -0.751612       -20.4524
  17   2.0000      -0.733141       -19.9498
  18   2.0000      -0.697920       -18.9914
  19   2.0000      -0.662209       -18.0196
  20   2.0000      -0.639568       -17.4035
  21   2.0000      -0.619136       -16.8475
  22   2.0000      -0.561196       -15.2709
  23   2.0000      -0.532707       -14.4957
  24   2.0000      -0.525860       -14.3094
  25   2.0000      -0.504096       -13.7171
  26   2.0000      -0.490473       -13.3464
  27   2.0000      -0.466470       -12.6933
  28   2.0000      -0.438211       -11.9243
  29   2.0000      -0.431404       -11.7391
  30   2.0000      -0.379015       -10.3135
  31   2.0000      -0.363623        -9.8947
  32   0.0000       0.138326         3.7640
  33   0.0000       0.155032         4.2186
  34   0.0000       0.162229         4.4145
  35   0.0000       0.165514         4.5039
  36   0.0000       0.172383         4.6908

MULLIKEN ATOMIC CHARGES
-----------------------
   0 C :   -0.119761
   1 C :    0.044271
   2 C :   -0.149243
   3 C :   -0.237771
   4 C :   -0.122567
   5 C :    0.028119
   6 C :   -0.225983
   7 O :   -0.306150
   8 C :   -0.012928
   9 H :    0.189755
  10 H :    0.127677
  11 H :    0.122571
  12 H :    0.137211
  13 H :    0.136137
  14 H :    0.124190
  15 H :    0.130873
  16 H :    0.133599
Sum of atomic charges:    0.0000000

LOEWDIN ATOMIC CHARGES
----------------------
   0 C :   -0.091212
   1 C :   -0.076781
   2 C :   -0.199757
   3 C :   -0.168539
   4 C :   -0.162177
   5 C :   -0.211055
   6 C :   -0.170223
   7 O :    0.174401
   8 C :   -0.188092
   9 H :    0.126642
  10 H :    0.145812
  11 H :    0.130194
  12 H :    0.136057
  13 H :    0.131508
  14 H :    0.141538
  15 H :    0.146480
  16 H :    0.135205

  Mayer bond orders larger than 0.1
B(  0-C ,  1-C ) :   2.6258 B(  0-C ,  2-C ) :  -0.1689 B(  0-C ,  9-H ) :   0.8719
B(  1-C ,  2-C ) :   1.1844 B(  2-C ,  3-C ) :   0.9276 B(  2-C ,  6-C ) :   0.9117
B(  2-C ,  8-C ) :   0.7849 B(  3-C ,  4-C ) :   0.9290 B(  3-C , 10-H ) :   0.9206
B(  3-C , 11-H ) :   0.9152 B(  4-C ,  5-C ) :   0.8843 B(  4-C ,  8-C ) :   0.9339
B(  4-C , 12-H ) :   0.9206 B(  5-C ,  6-C ) :   0.9559 B(  5-C ,  7-O ) :   0.8681
B(  5-C , 13-H ) :   0.9134 B(  6-C , 14-H ) :   0.9178 B(  6-C , 15-H ) :   0.9173
B(  7-O ,  8-C ) :   0.9996 B(  8-C , 16-H ) :   0.9128

MP2 TOTAL ENERGY:     -383.934335085 Eh
FINAL SINGLE POINT ENERGY      -383.934335084940

DIPOLE MOMENT
-------------
                                X             Y             Z
Electronic contribution:     -0.02195      -0.94783      -2.75189
Nuclear contribution   :     -0.15843       1.13543       3.40161
                        -----------------------------------------
Total Dipole Moment    :     -0.18037       0.18759       0.64972
                        -----------------------------------------
Magnitude (a.u.)       :      0.69991
Magnitude (Debye)      :      1.77902

                             ****ORCA TERMINATED NORMALLY****
TOTAL RUN TIME: 0 days 0 hours 19 minutes 12 seconds 683 msec
