                         Program Version 3.0.3 - RELEASE   -
|  1> ! RI-MP2 RIJK def2-TZVP def2-TZVP/C def2-TZVP/JK TIGHTSCF
|  2> % maxcore 2000
|  3> % mp2 density relaxed end
|  4> *xyz 0 1
|  5>  N       -0.1841329603     1.3354940575    -0.1298007844
|  6>  C        0.0028528109     0.0234023598     0.2314686317
|  7>  N        1.1031565322    -0.5819670842     0.4661362906
|  8>  C        2.3373251707     0.1553825829     0.3265681019
|  9>  C        3.5307699205    -0.7496841390     0.6061799354
| 10>  O        4.6767434055    -0.3959434315     0.5176087968
| 11>  C       -1.2678092472    -0.7462652113     0.4202788584
| 12>  C       -2.3776718647    -0.2106272635     1.2274557383
| 13>  O       -2.4391061196    -0.2023833044    -0.2007955456
| 14>  H        0.6048984403     1.8538120316    -0.4793889742
| 15>  H       -1.0735652439     1.5368556703    -0.5645889857
| 16>  H        2.4815124082     0.5776563413    -0.6840586690
| 17>  H        2.4059036325     1.0097261429     1.0216944381
| 18>  H        3.2423330150    -1.7812423466     0.9058688123
| 19>  H       -1.1431075760    -1.8225735997     0.3423308915
| 20>  H       -3.0592378322    -0.9022626577     1.7185315637
| 21>  H       -2.2711985418     0.7656929716     1.6952016804
| 22> *
| 23>
| 24>                          ****END OF INPUT****

CARTESIAN COORDINATES (ANGSTROEM)
---------------------------------
  N     -0.184133    1.335494   -0.129801
  C      0.002853    0.023402    0.231469
  N      1.103157   -0.581967    0.466136
  C      2.337325    0.155383    0.326568
  C      3.530770   -0.749684    0.606180
  O      4.676743   -0.395943    0.517609
  C     -1.267809   -0.746265    0.420279
  C     -2.377672   -0.210627    1.227456
  O     -2.439106   -0.202383   -0.200796
  H      0.604898    1.853812   -0.479389
  H     -1.073565    1.536856   -0.564589
  H      2.481512    0.577656   -0.684059
  H      2.405904    1.009726    1.021694
  H      3.242333   -1.781242    0.905869
  H     -1.143108   -1.822574    0.342331
  H     -3.059238   -0.902263    1.718532
  H     -2.271199    0.765693    1.695202

 Total Charge           Charge          ....    0
 Multiplicity           Mult            ....    1
 Number of Electrons    NEL             ....   68
 Basis Dimension        Dim             ....  327

ORBITAL ENERGIES
----------------

  NO   OCC          E(Eh)            E(eV)
   0   2.0000     -20.596661      -560.4636
   1   2.0000     -20.551275      -559.2286
   2   2.0000     -15.593076      -424.3092
   3   2.0000     -15.547597      -423.0716
   4   2.0000     -11.334940      -308.4394
   5   2.0000     -11.325465      -308.1816
   6   2.0000     -11.311687      -307.8066
   7   2.0000     -11.307732      -307.6990
   8   2.0000     -11.270269      -306.6796
   9   2.0000      -1.439918       -39.1822
  10   2.0000      -1.391792       -37.8726
  11   2.0000      -1.287965       -35.0473
  12   2.0000      -1.183287       -32.1989
  13   2.0000      -1.020465       -27.7683
  14   2.0000      -0.953441       -25.9444
  15   2.0000      -0.902130       -24.5482
  16   2.0000      -0.802361       -21.8334
  17   2.0000      -0.790491       -21.5103
  18   2.0000      -0.745448       -20.2847
  19   2.0000      -0.713292       -19.4097
  20   2.0000      -0.690687       -18.7945
  21   2.0000      -0.657378       -17.8882
  22   2.0000      -0.634611       -17.2686
  23   2.0000      -0.627254       -17.0684
  24   2.0000      -0.617910       -16.8142
  25   2.0000      -0.574858       -15.6427
  26   2.0000      -0.559961       -15.2373
  27   2.0000      -0.547476       -14.8976
  28   2.0000      -0.502121       -13.6634
  29   2.0000      -0.486209       -13.2304
  30   2.0000      -0.464696       -12.6450
  31   2.0000      -0.432731       -11.7752
  32   2.0000      -0.411514       -11.1979
  33   2.0000      -0.375729       -10.2241
  34   0.0000       0.121554         3.3077
  35   0.0000       0.124887         3.3984
  36   0.0000       0.151793         4.1305
  37   0.0000       0.168297         4.5796
  38   0.0000       0.170584         4.6418

MULLIKEN ATOMIC CHARGES
-----------------------
   0 N :   -0.529580
   1 C :    0.173221
   2 N :   -0.287190
   3 C :   -0.112968
   4 C :    0.080898
   5 O :   -0.271071
   6 C :    0.041584
   7 C :   -0.068191
   8 O :   -0.343782
   9 H :    0.257177
  10 H :    0.278152
  11 H :    0.125750
  12 H :    0.142605
  13 H :    0.096221
  14 H :    0.149087
  15 H :    0.132383
  16 H :    0.135704
Sum of atomic charges:   -0.0000000

LOEWDIN ATOMIC CHARGES
----------------------
   0 N :   -0.026846
   1 C :   -0.369912
   2 N :    0.078030
   3 C :   -0.312179
   4 C :   -0.291217
   5 O :    0.128519
   6 C :   -0.244169
   7 C :   -0.250661
   8 O :    0.141811
   9 H :    0.170268
  10 H :    0.181294
  11 H :    0.139256
  12 H :    0.144126
  13 H :    0.112357
  14 H :    0.150787
  15 H :    0.123826
  16 H :    0.124708

  Mayer bond orders larger than 0.1
B(  0-N ,  1-C ) :   1.1073 B(  0-N ,  9-H ) :   0.8710 B(  0-N , 10-H ) :   0.8470
B(  1-C ,  2-N ) :   1.8581 B(  1-C ,  6-C ) :   0.9397 B(  2-N ,  3-C ) :   0.8798
B(  3-C ,  4-C ) :   0.8941 B(  3-C , 11-H ) :   0.8865 B(  3-C , 12-H ) :   0.8878
B(  4-C ,  5-O ) :   2.0020 B(  4-C , 13-H ) :   0.9412 B(  6-C ,  7-C ) :   0.9542
B(  6-C ,  8-O ) :   0.9056 B(  6-C , 14-H ) :   0.9171 B(  7-C ,  8-O ) :   0.8711
B(  7-C , 15-H ) :   0.9268 B(  7-C , 16-H ) :   0.9075

MP2 TOTAL ENERGY:     -454.388120468 Eh
FINAL SINGLE POINT ENERGY      -454.388120468314

DIPOLE MOMENT
-------------
                                X             Y             Z
Electronic contribution:      2.11745      -1.46017      -0.84915
Nuclear contribution   :     -3.35891       2.10584       0.91773
                        -----------------------------------------
Total Dipole Moment    :     -1.24146       0.64567       0.06858
                        -----------------------------------------
Magnitude (a.u.)       :      1.40100
Magnitude (Debye)      :      3.56107

                             ****ORCA TERMINATED NORMALLY****
TOTAL RUN TIME: 0 days 0 hours 14 minutes 40 seconds 523 msec
