                         Program Version 3.0.3 - RELEASE   -
|  1> ! RI-MP2 RIJK def2-TZVP def2-TZVP/C def2-TZVP/JK TIGHTSCF
|  2> % maxcore 2000
|  3> % mp2 density relaxed end
|  4> *xyz 0 1
|  5>  C        0.1877806308     1.5679690764    -0.0629101618
|  6>  C        0.0125416054     0.0464294169     0.0795509793
|  7>  C        0.6548929747    -0.5104931241     1.3018375495
|  8>  N        0.1097205831    -1.1123269039     2.3075864167
|  9>  C        1.1653137731    -1.4388861989     3.1567352104
| 10>  C        2.3166164611    -0.9902908238     2.6056795092
| 11>  O        3.5785913886    -0.9640567926     3.0335775374
| 12>  C        4.5738405460    -1.3516064931     2.0788785795
| 13>  O        2.0171284415    -0.3879713451     1.4116766518
| 14>  H        1.2468438337     1.8371687735    -0.1031525915
| 15>  H       -0.2898465736     1.9237755126    -0.9802612252
| 16>  H       -0.2633253786     2.0934109378     0.7838824070
| 17>  H       -1.0463123196    -0.2176061717     0.1354953150
| 18>  H        0.4259333399    -0.4525353926    -0.8063105781
| 19>  H        1.0238842531    -1.9584075275     4.0892571628
| 20>  H        4.5917723064    -0.6632617506     1.2290276705
| 21>  H        5.5275746132    -1.3117059374     2.6059467332
| 22>  H        4.3895167114    -2.3712397058     1.7214238942
| 23> *
| 24>
| 25>                          ****END OF INPUT****

CARTESIAN COORDINATES (ANGSTROEM)
---------------------------------
  C      0.187781    1.567969   -0.062910
  C      0.012542    0.046429    0.079551
  C      0.654893   -0.510493    1.301838
  N      0.109721   -1.112327    2.307586
  C      1.165314   -1.438886    3.156735
  C      2.316616   -0.990291    2.605680
  O      3.578591   -0.964057    3.033578
  C      4.573841   -1.351606    2.078879
  O      2.017128   -0.387971    1.411677
  H      1.246844    1.837169   -0.103153
  H     -0.289847    1.923776   -0.980261
  H     -0.263325    2.093411    0.783882
  H     -1.046312   -0.217606    0.135495
  H      0.425933   -0.452535   -0.806311
  H      1.023884   -1.958408    4.089257
  H      4.591772   -0.663262    1.229028
  H      5.527575   -1.311706    2.605947
  H      4.389517   -2.371240    1.721424

 Total Charge           Charge          ....    0
 Multiplicity           Mult            ....    1
 Number of Electrons    NEL             ....   68
 Basis Dimension        Dim             ....  333

ORBITAL ENERGIES
----------------

  NO   OCC          E(Eh)            E(eV)
   0   2.0000     -20.631002      -561.3981
   1   2.0000     -20.600316      -560.5631
   2   2.0000     -15.555337      -423.2822
   3   2.0000     -11.346057      -308.7419
   4   2.0000     -11.326824      -308.2185
   5   2.0000     -11.293855      -307.3214
   6   2.0000     -11.244906      -305.9895
   7   2.0000     -11.243337      -305.9468
   8   2.0000     -11.226736      -305.4950
   9   2.0000      -1.493611       -40.6432
  10   2.0000      -1.413784       -38.4710
  11   2.0000      -1.224048       -33.3080
  12   2.0000      -1.078756       -29.3544
  13   2.0000      -1.009083       -27.4585
  14   2.0000      -0.946625       -25.7590
  15   2.0000      -0.877240       -23.8709
  16   2.0000      -0.832638       -22.6572
  17   2.0000      -0.781648       -21.2697
  18   2.0000      -0.732470       -19.9315
  19   2.0000      -0.689223       -18.7547
  20   2.0000      -0.656484       -17.8638
  21   2.0000      -0.644161       -17.5285
  22   2.0000      -0.631599       -17.1867
  23   2.0000      -0.610791       -16.6205
  24   2.0000      -0.591973       -16.1084
  25   2.0000      -0.579614       -15.7721
  26   2.0000      -0.538034       -14.6406
  27   2.0000      -0.533154       -14.5079
  28   2.0000      -0.516821       -14.0634
  29   2.0000      -0.505373       -13.7519
  30   2.0000      -0.491485       -13.3740
  31   2.0000      -0.448564       -12.2061
  32   2.0000      -0.446558       -12.1515
  33   2.0000      -0.313546        -8.5320
  34   0.0000       0.132562         3.6072
  35   0.0000       0.142158         3.8683
  36   0.0000       0.175578         4.7777
  37   0.0000       0.180370         4.9081
  38   0.0000       0.189073         5.1449

MULLIKEN ATOMIC CHARGES
-----------------------
   0 C :   -0.395248
   1 C :   -0.210172
   2 C :    0.243996
   3 N :   -0.267848
   4 C :   -0.151750
   5 C :    0.275265
   6 O :   -0.292799
   7 C :   -0.206810
   8 O :   -0.231745
   9 H :    0.133862
  10 H :    0.134412
  11 H :    0.136799
  12 H :    0.145885
  13 H :    0.123793
  14 H :    0.141892
  15 H :    0.142788
  16 H :    0.148785
  17 H :    0.128895
Sum of atomic charges:    0.0000000

LOEWDIN ATOMIC CHARGES
----------------------
   0 C :   -0.306586
   1 C :   -0.256781
   2 C :   -0.341316
   3 N :    0.119509
   4 C :   -0.240568
   5 C :   -0.394869
   6 O :    0.228886
   7 C :   -0.307226
   8 O :    0.347012
   9 H :    0.123322
  10 H :    0.122285
  11 H :    0.125327
  12 H :    0.156004
  13 H :    0.148157
  14 H :    0.138255
  15 H :    0.110883
  16 H :    0.117229
  17 H :    0.110477

  Mayer bond orders larger than 0.1
B(  0-C ,  1-C ) :   0.9130 B(  0-C ,  9-H ) :   0.9355 B(  0-C , 10-H ) :   0.9367
B(  0-C , 11-H ) :   0.9358 B(  1-C ,  2-C ) :   0.8971 B(  1-C , 12-H ) :   0.9426
B(  1-C , 13-H ) :   0.9266 B(  2-C ,  3-N ) :   1.7090 B(  2-C ,  8-O ) :   1.0215
B(  3-N ,  4-C ) :   1.1512 B(  4-C ,  5-C ) :   1.5690 B(  4-C , 14-H ) :   0.9376
B(  5-C ,  6-O ) :   1.1130 B(  5-C ,  8-O ) :   1.0205 B(  6-O ,  7-C ) :   0.8411
B(  7-C , 15-H ) :   0.9366 B(  7-C , 16-H ) :   0.9373 B(  7-C , 17-H ) :   0.9291

MP2 TOTAL ENERGY:     -438.384083407 Eh
FINAL SINGLE POINT ENERGY      -438.384083407096

DIPOLE MOMENT
-------------
                                X             Y             Z
Electronic contribution:      0.36225      -3.59449       5.91070
Nuclear contribution   :      0.46552       3.62364      -6.60055
                        -----------------------------------------
Total Dipole Moment    :      0.82777       0.02915      -0.68985
                        -----------------------------------------
Magnitude (a.u.)       :      1.07793
Magnitude (Debye)      :      2.73989

                             ****ORCA TERMINATED NORMALLY****
TOTAL RUN TIME: 0 days 0 hours 15 minutes 27 seconds 496 msec
