                         Program Version 3.0.3 - RELEASE   -
|  1> ! RI-MP2 RIJK def2-TZVP def2-TZVP/C def2-TZVP/JK TIGHTSCF
|  2> % maxcore 2000
|  3> % mp2 density relaxed end
|  4> *xyz 0 1
|  5>  C        0.0023655480     1.3283157050    -0.1278168298
|  6>  O       -0.0560648029    -0.0783686956    -0.0020673974
|  7>  C       -1.3777026896    -0.6288225468    -0.0046437389
|  8>  C       -1.8384237381    -0.8065975562    -1.4582710497
|  9>  O       -0.9125408041    -1.5789047878    -2.1959346205
| 10>  C       -1.3216978687    -1.9570475826     0.7488633201
| 11>  C       -0.8004102191    -1.8037261685     2.1905392776
| 12>  C       -0.7666524081    -3.0677797112     2.9149489032
| 13>  C       -0.7481479690    -4.1226529255     3.4911261279
| 14>  H        1.0567390494     1.6108117049    -0.0776767546
| 15>  H       -0.4105107195     1.6853425584    -1.0816641258
| 16>  H       -0.5384569636     1.8260446138     0.6904703297
| 17>  H       -2.0632981534     0.0633393024     0.5117665855
| 18>  H       -2.7998194438    -1.3305760367    -1.4864239173
| 19>  H       -1.9919979717     0.1818362337    -1.9213819788
| 20>  H       -0.0419482970    -1.2319139321    -1.9625524917
| 21>  H       -2.3271966954    -2.3910010998     0.7646469433
| 22>  H       -0.6854993251    -2.6526748814     0.1946151038
| 23>  H        0.2018599318    -1.3638173658     2.1580075238
| 24>  H       -1.4315701621    -1.0888922557     2.7364806075
| 25>  H       -0.7252331581    -5.0488040724     4.0094076018
| 26> *
| 27>
| 28>                          ****END OF INPUT****

CARTESIAN COORDINATES (ANGSTROEM)
---------------------------------
  C      0.002366    1.328316   -0.127817
  O     -0.056065   -0.078369   -0.002067
  C     -1.377703   -0.628823   -0.004644
  C     -1.838424   -0.806598   -1.458271
  O     -0.912541   -1.578905   -2.195935
  C     -1.321698   -1.957048    0.748863
  C     -0.800410   -1.803726    2.190539
  C     -0.766652   -3.067780    2.914949
  C     -0.748148   -4.122653    3.491126
  H      1.056739    1.610812   -0.077677
  H     -0.410511    1.685343   -1.081664
  H     -0.538457    1.826045    0.690470
  H     -2.063298    0.063339    0.511767
  H     -2.799819   -1.330576   -1.486424
  H     -1.991998    0.181836   -1.921382
  H     -0.041948   -1.231914   -1.962552
  H     -2.327197   -2.391001    0.764647
  H     -0.685499   -2.652675    0.194615
  H      0.201860   -1.363817    2.158008
  H     -1.431570   -1.088892    2.736481
  H     -0.725233   -5.048804    4.009408

 Total Charge           Charge          ....    0
 Multiplicity           Mult            ....    1
 Number of Electrons    NEL             ....   70
 Basis Dimension        Dim             ....  351

ORBITAL ENERGIES
----------------

  NO   OCC          E(Eh)            E(eV)
   0   2.0000     -20.570034      -559.7391
   1   2.0000     -20.552874      -559.2721
   2   2.0000     -11.291072      -307.2457
   3   2.0000     -11.284294      -307.0612
   4   2.0000     -11.278234      -306.8964
   5   2.0000     -11.248534      -306.0882
   6   2.0000     -11.230458      -305.5963
   7   2.0000     -11.229381      -305.5670
   8   2.0000     -11.215099      -305.1784
   9   2.0000      -1.393151       -37.9096
  10   2.0000      -1.354973       -36.8707
  11   2.0000      -1.093477       -29.7550
  12   2.0000      -1.034256       -28.1435
  13   2.0000      -0.973443       -26.4887
  14   2.0000      -0.934782       -25.4367
  15   2.0000      -0.881081       -23.9754
  16   2.0000      -0.801911       -21.8211
  17   2.0000      -0.719666       -19.5831
  18   2.0000      -0.702428       -19.1140
  19   2.0000      -0.683334       -18.5945
  20   2.0000      -0.660541       -17.9742
  21   2.0000      -0.644246       -17.5308
  22   2.0000      -0.627650       -17.0792
  23   2.0000      -0.605795       -16.4845
  24   2.0000      -0.596486       -16.2312
  25   2.0000      -0.586185       -15.9509
  26   2.0000      -0.537446       -14.6246
  27   2.0000      -0.527106       -14.3433
  28   2.0000      -0.509751       -13.8710
  29   2.0000      -0.489941       -13.3320
  30   2.0000      -0.486373       -13.2349
  31   2.0000      -0.460471       -12.5300
  32   2.0000      -0.425811       -11.5869
  33   2.0000      -0.381201       -10.3730
  34   2.0000      -0.378844       -10.3089
  35   0.0000       0.127261         3.4629
  36   0.0000       0.154223         4.1966
  37   0.0000       0.161493         4.3945
  38   0.0000       0.165027         4.4906
  39   0.0000       0.172129         4.6839

MULLIKEN ATOMIC CHARGES
-----------------------
   0 C :   -0.219853
   1 O :   -0.342204
   2 C :   -0.030606
   3 C :    0.010997
   4 O :   -0.476025
   5 C :   -0.160377
   6 C :   -0.399405
   7 C :   -0.004044
   8 C :   -0.119944
   9 H :    0.145180
  10 H :    0.119831
  11 H :    0.121387
  12 H :    0.083264
  13 H :    0.111384
  14 H :    0.103750
  15 H :    0.325787
  16 H :    0.119288
  17 H :    0.132264
  18 H :    0.160271
  19 H :    0.130600
  20 H :    0.188454
Sum of atomic charges:   -0.0000000

LOEWDIN ATOMIC CHARGES
----------------------
   0 C :   -0.358056
   1 O :    0.143563
   2 C :   -0.336340
   3 C :   -0.333873
   4 O :   -0.042297
   5 C :   -0.227663
   6 C :   -0.248646
   7 C :   -0.112271
   8 C :   -0.111478
   9 H :    0.115592
  10 H :    0.103589
  11 H :    0.104793
  12 H :    0.139928
  13 H :    0.132286
  14 H :    0.116223
  15 H :    0.176468
  16 H :    0.148052
  17 H :    0.150230
  18 H :    0.159998
  19 H :    0.154632
  20 H :    0.125271

  Mayer bond orders larger than 0.1
B(  0-C ,  1-O ) :   0.8973 B(  0-C ,  9-H ) :   0.9392 B(  0-C , 10-H ) :   0.9319
B(  0-C , 11-H ) :   0.9356 B(  1-O ,  2-C ) :   0.8766 B(  2-C ,  3-C ) :   0.9531
B(  2-C ,  5-C ) :   0.9302 B(  2-C , 12-H ) :   0.9255 B(  3-C ,  4-O ) :   0.9237
B(  3-C , 13-H ) :   0.9329 B(  3-C , 14-H ) :   0.9198 B(  4-O , 15-H ) :   0.8259
B(  5-C ,  6-C ) :   0.9168 B(  5-C , 16-H ) :   0.9270 B(  5-C , 17-H ) :   0.9098
B(  6-C ,  7-C ) :   1.1139 B(  6-C ,  8-C ) :  -0.1247 B(  6-C , 18-H ) :   0.9264
B(  6-C , 19-H ) :   0.9221 B(  7-C ,  8-C ) :   2.6112 B(  8-C , 20-H ) :   0.8957

MP2 TOTAL ENERGY:     -423.469386705 Eh
FINAL SINGLE POINT ENERGY      -423.469386705384

DIPOLE MOMENT
-------------
                                X             Y             Z
Electronic contribution:      1.18489      -4.70479       1.49675
Nuclear contribution   :     -1.38947       5.73436      -1.28570
                        -----------------------------------------
Total Dipole Moment    :     -0.20458       1.02957       0.21105
                        -----------------------------------------
Magnitude (a.u.)       :      1.07070
Magnitude (Debye)      :      2.72150

                             ****ORCA TERMINATED NORMALLY****
TOTAL RUN TIME: 0 days 0 hours 16 minutes 18 seconds 696 msec
