                         Program Version 3.0.3 - RELEASE   -
|  1> ! RI-MP2 RIJK def2-TZVP def2-TZVP/C def2-TZVP/JK TIGHTSCF
|  2> % maxcore 2000
|  3> % mp2 density relaxed end
|  4> *xyz 0 1
|  5>  C       -0.1047145258     1.5927406178    -0.1339836123
|  6>  C       -0.2713629143     0.0738731083    -0.2407895631
|  7>  C        0.7212319142    -0.5495235877    -1.2242741286
|  8>  C        2.2007549661    -0.5892988300    -0.7079311314
|  9>  C        2.1007638201    -2.1139024454    -0.6118665877
| 10>  O        2.7693832241    -2.9759946950    -0.1249743487
| 11>  C        0.7317053451    -2.1126066787    -1.3410790163
| 12>  C       -0.3433136954    -3.0179687286    -0.7971344637
| 13>  O       -1.4724744162    -2.6923734016    -0.5328177896
| 14>  H        0.9000213284     1.8707337237     0.2032508056
| 15>  H       -0.2724927550     2.0770517453    -1.1026060283
| 16>  H       -0.8203674964     2.0155917815     0.5771685841
| 17>  H       -0.1426886987    -0.3838410980     0.7490043985
| 18>  H       -1.2891057608    -0.1740446496    -0.5513872343
| 19>  H        0.6217517013    -0.0637129599    -2.1983900056
| 20>  H        2.9545205589    -0.2750836175    -1.4367515432
| 21>  H        2.4047011627    -0.0816734504     0.2393979730
| 22>  H        0.9184379569    -2.4455351796    -2.3731461756
| 23>  H        0.0055618249    -4.0643279046    -0.6518756130
| 24> *
| 25>
| 26>                          ****END OF INPUT****

CARTESIAN COORDINATES (ANGSTROEM)
---------------------------------
  C     -0.104715    1.592741   -0.133984
  C     -0.271363    0.073873   -0.240790
  C      0.721232   -0.549524   -1.224274
  C      2.200755   -0.589299   -0.707931
  C      2.100764   -2.113902   -0.611867
  O      2.769383   -2.975995   -0.124974
  C      0.731705   -2.112607   -1.341079
  C     -0.343314   -3.017969   -0.797134
  O     -1.472474   -2.692373   -0.532818
  H      0.900021    1.870734    0.203251
  H     -0.272493    2.077052   -1.102606
  H     -0.820367    2.015592    0.577169
  H     -0.142689   -0.383841    0.749004
  H     -1.289106   -0.174045   -0.551387
  H      0.621752   -0.063713   -2.198390
  H      2.954521   -0.275084   -1.436752
  H      2.404701   -0.081673    0.239398
  H      0.918438   -2.445535   -2.373146
  H      0.005562   -4.064328   -0.651876

 Total Charge           Charge          ....    0
 Multiplicity           Mult            ....    1
 Number of Electrons    NEL             ....   68
 Basis Dimension        Dim             ....  339

ORBITAL ENERGIES
----------------

  NO   OCC          E(Eh)            E(eV)
   0   2.0000     -20.569670      -559.7292
   1   2.0000     -20.567020      -559.6571
   2   2.0000     -11.350735      -308.8692
   3   2.0000     -11.345604      -308.7296
   4   2.0000     -11.265187      -306.5413
   5   2.0000     -11.258521      -306.3599
   6   2.0000     -11.251497      -306.1688
   7   2.0000     -11.229678      -305.5751
   8   2.0000     -11.222608      -305.3827
   9   2.0000      -1.414235       -38.4833
  10   2.0000      -1.405949       -38.2578
  11   2.0000      -1.161608       -31.6090
  12   2.0000      -1.040857       -28.3232
  13   2.0000      -0.985080       -26.8054
  14   2.0000      -0.901151       -24.5216
  15   2.0000      -0.829538       -22.5729
  16   2.0000      -0.803122       -21.8541
  17   2.0000      -0.732102       -19.9215
  18   2.0000      -0.691455       -18.8154
  19   2.0000      -0.685921       -18.6649
  20   2.0000      -0.662324       -18.0228
  21   2.0000      -0.631765       -17.1912
  22   2.0000      -0.622888       -16.9497
  23   2.0000      -0.594416       -16.1749
  24   2.0000      -0.580979       -15.8092
  25   2.0000      -0.550239       -14.9728
  26   2.0000      -0.539436       -14.6788
  27   2.0000      -0.524444       -14.2708
  28   2.0000      -0.518182       -14.1005
  29   2.0000      -0.494193       -13.4477
  30   2.0000      -0.477003       -12.9799
  31   2.0000      -0.469264       -12.7693
  32   2.0000      -0.431131       -11.7317
  33   2.0000      -0.404885       -11.0175
  34   0.0000       0.101493         2.7618
  35   0.0000       0.126671         3.4469
  36   0.0000       0.132972         3.6184
  37   0.0000       0.154032         4.1914
  38   0.0000       0.162300         4.4164

MULLIKEN ATOMIC CHARGES
-----------------------
   0 C :   -0.380146
   1 C :   -0.254854
   2 C :   -0.087872
   3 C :   -0.206554
   4 C :    0.058455
   5 O :   -0.238969
   6 C :    0.001770
   7 C :    0.075452
   8 O :   -0.266303
   9 H :    0.121311
  10 H :    0.124192
  11 H :    0.141409
  12 H :    0.108737
  13 H :    0.145858
  14 H :    0.112112
  15 H :    0.146715
  16 H :    0.142456
  17 H :    0.150362
  18 H :    0.105871
Sum of atomic charges:    0.0000000

LOEWDIN ATOMIC CHARGES
----------------------
   0 C :   -0.314570
   1 C :   -0.274425
   2 C :   -0.193819
   3 C :   -0.184889
   4 C :   -0.288915
   5 O :    0.171608
   6 C :   -0.186348
   7 C :   -0.269990
   8 O :    0.140997
   9 H :    0.119022
  10 H :    0.121742
  11 H :    0.123841
  12 H :    0.140868
  13 H :    0.145193
  14 H :    0.147472
  15 H :    0.149109
  16 H :    0.146637
  17 H :    0.183464
  18 H :    0.123002

  Mayer bond orders larger than 0.1
B(  0-C ,  1-C ) :   0.9079 B(  0-C ,  9-H ) :   0.9381 B(  0-C , 10-H ) :   0.9372
B(  0-C , 11-H ) :   0.9428 B(  1-C ,  2-C ) :   0.9427 B(  1-C , 12-H ) :   0.9238
B(  1-C , 13-H ) :   0.9363 B(  2-C ,  3-C ) :   0.9193 B(  2-C ,  6-C ) :   0.9015
B(  2-C , 14-H ) :   0.9199 B(  3-C ,  4-C ) :   0.9109 B(  3-C ,  6-C ) :  -0.1280
B(  3-C , 15-H ) :   0.8994 B(  3-C , 16-H ) :   0.8981 B(  4-C ,  5-O ) :   2.0464
B(  4-C ,  6-C ) :   0.8237 B(  6-C ,  7-C ) :   0.8383 B(  6-C , 17-H ) :   0.8713
B(  7-C ,  8-O ) :   1.9746 B(  7-C , 18-H ) :   0.9400

MP2 TOTAL ENERGY:     -422.327438025 Eh
FINAL SINGLE POINT ENERGY      -422.327438025220

DIPOLE MOMENT
-------------
                                X             Y             Z
Electronic contribution:      1.77298     -10.63216      -0.32003
Nuclear contribution   :     -1.48353      11.38414      -0.34179
                        -----------------------------------------
Total Dipole Moment    :      0.28945       0.75198      -0.66182
                        -----------------------------------------
Magnitude (a.u.)       :      1.04271
Magnitude (Debye)      :      2.65036

                             ****ORCA TERMINATED NORMALLY****
TOTAL RUN TIME: 0 days 0 hours 29 minutes 50 seconds 843 msec
