                         Program Version 3.0.3 - RELEASE   -
|  1> ! RI-MP2 RIJK def2-TZVP def2-TZVP/C def2-TZVP/JK TIGHTSCF
|  2> % maxcore 2000
|  3> % mp2 density relaxed end
|  4> *xyz 0 1
|  5>  O        0.0667437854     1.3166617856    -0.0966409716
|  6>  C        0.0479953683    -0.0076284105    -0.0454893059
|  7>  N        0.0352001844    -0.6449041757    -1.2145661908
|  8>  C        0.0162799258    -1.9756134574    -1.1893882257
|  9>  C        0.0088357135    -2.7546308034    -0.0279854653
| 10>  C        0.0221609640    -2.0899601062     1.1853228187
| 11>  C        0.0421740712    -0.6924802202     1.2047489051
| 12>  C        0.0566998385     0.0480353039     2.4542864907
| 13>  O        0.0743510204     1.2710945517     2.5324772986
| 14>  H        0.0743854245     1.6454721168     0.8337609146
| 15>  H        0.0062746157    -2.4608839166    -2.1632573755
| 16>  H       -0.0067870457    -3.8354443864    -0.0896184816
| 17>  H        0.0173738121    -2.6337432486     2.1263135547
| 18>  H        0.0508216720    -0.5649139729     3.3771258141
| 19> *
| 20>
| 21>                          ****END OF INPUT****

CARTESIAN COORDINATES (ANGSTROEM)
---------------------------------
  O      0.066744    1.316662   -0.096641
  C      0.047995   -0.007628   -0.045489
  N      0.035200   -0.644904   -1.214566
  C      0.016280   -1.975613   -1.189388
  C      0.008836   -2.754631   -0.027985
  C      0.022161   -2.089960    1.185323
  C      0.042174   -0.692480    1.204749
  C      0.056700    0.048035    2.454286
  O      0.074351    1.271095    2.532477
  H      0.074385    1.645472    0.833761
  H      0.006275   -2.460884   -2.163257
  H     -0.006787   -3.835444   -0.089618
  H      0.017374   -2.633743    2.126314
  H      0.050822   -0.564914    3.377126

 Total Charge           Charge          ....    0
 Multiplicity           Mult            ....    1
 Number of Electrons    NEL             ....   64
 Basis Dimension        Dim             ....  309

ORBITAL ENERGIES
----------------

  NO   OCC          E(Eh)            E(eV)
   0   2.0000     -20.593328      -560.3729
   1   2.0000     -20.575693      -559.8931
   2   2.0000     -15.571870      -423.7321
   3   2.0000     -11.367663      -309.3298
   4   2.0000     -11.360838      -309.1441
   5   2.0000     -11.307979      -307.7057
   6   2.0000     -11.293717      -307.3177
   7   2.0000     -11.260553      -306.4152
   8   2.0000     -11.249685      -306.1195
   9   2.0000      -1.441055       -39.2131
  10   2.0000      -1.406034       -38.2601
  11   2.0000      -1.270849       -34.5816
  12   2.0000      -1.127258       -30.6743
  13   2.0000      -1.053940       -28.6792
  14   2.0000      -0.929682       -25.2979
  15   2.0000      -0.877672       -23.8827
  16   2.0000      -0.847691       -23.0668
  17   2.0000      -0.754639       -20.5348
  18   2.0000      -0.731018       -19.8920
  19   2.0000      -0.700836       -19.0707
  20   2.0000      -0.667156       -18.1542
  21   2.0000      -0.646864       -17.6021
  22   2.0000      -0.629151       -17.1201
  23   2.0000      -0.619679       -16.8623
  24   2.0000      -0.580104       -15.7854
  25   2.0000      -0.565467       -15.3871
  26   2.0000      -0.559568       -15.2266
  27   2.0000      -0.519411       -14.1339
  28   2.0000      -0.465293       -12.6613
  29   2.0000      -0.432339       -11.7645
  30   2.0000      -0.411192       -11.1891
  31   2.0000      -0.346784        -9.4365
  32   0.0000       0.048741         1.3263
  33   0.0000       0.107452         2.9239
  34   0.0000       0.137727         3.7477
  35   0.0000       0.161323         4.3898
  36   0.0000       0.168924         4.5966

MULLIKEN ATOMIC CHARGES
-----------------------
   0 O :   -0.361658
   1 C :    0.231955
   2 N :   -0.213435
   3 C :   -0.029667
   4 C :   -0.113937
   5 C :   -0.181096
   6 C :   -0.001679
   7 C :    0.120144
   8 O :   -0.338078
   9 H :    0.354589
  10 H :    0.138775
  11 H :    0.142937
  12 H :    0.139841
  13 H :    0.111310
Sum of atomic charges:    0.0000000

LOEWDIN ATOMIC CHARGES
----------------------
   0 O :    0.134204
   1 C :   -0.323366
   2 N :    0.167964
   3 C :   -0.191667
   4 C :   -0.153232
   5 C :   -0.095996
   6 C :   -0.160852
   7 C :   -0.250899
   8 O :    0.104342
   9 H :    0.191901
  10 H :    0.143319
  11 H :    0.151421
  12 H :    0.154213
  13 H :    0.128648

  Mayer bond orders larger than 0.1
B(  0-O ,  1-C ) :   1.2584 B(  0-O ,  9-H ) :   0.7430 B(  1-C ,  2-N ) :   1.4179
B(  1-C ,  6-C ) :   1.1915 B(  2-N ,  3-C ) :   1.3898 B(  3-C ,  4-C ) :   1.2873
B(  3-C , 10-H ) :   0.9444 B(  4-C ,  5-C ) :   1.3868 B(  4-C , 11-H ) :   0.9196
B(  5-C ,  6-C ) :   1.2596 B(  5-C , 12-H ) :   0.9242 B(  6-C ,  7-C ) :   0.9383
B(  7-C ,  8-O ) :   1.7958 B(  7-C , 13-H ) :   0.9664 B(  8-O ,  9-H ) :   0.1128

MP2 TOTAL ENERGY:     -436.036024583 Eh
FINAL SINGLE POINT ENERGY      -436.036024582945

DIPOLE MOMENT
-------------
                                X             Y             Z
Electronic contribution:      0.04591       3.31003      -0.43268
Nuclear contribution   :     -0.06503      -4.82303       1.20883
                        -----------------------------------------
Total Dipole Moment    :     -0.01912      -1.51301       0.77615
                        -----------------------------------------
Magnitude (a.u.)       :      1.70058
Magnitude (Debye)      :      4.32252

                             ****ORCA TERMINATED NORMALLY****
TOTAL RUN TIME: 0 days 0 hours 14 minutes 58 seconds 10 msec
