                         Program Version 3.0.3 - RELEASE   -
|  1> ! RI-MP2 RIJK def2-TZVP def2-TZVP/C def2-TZVP/JK TIGHTSCF
|  2> % maxcore 2000
|  3> % mp2 density relaxed end
|  4> *xyz 0 1
|  5>  O       -0.1766968975     0.2549979344     0.8213113273
|  6>  C       -0.1165120717     1.3190174189     0.2760483986
|  7>  O       -1.2243683962     2.0655077908    -0.0320870983
|  8>  C       -0.8596035659     3.3882013255    -0.4437593740
|  9>  C        0.6774204031     3.4142785188    -0.3754560149
| 10>  C        1.4421204450     3.8345854423     0.9107212137
| 11>  C        1.9987579651     2.3813357170     0.9479589958
| 12>  N        1.0349891655     1.9993411650    -0.1297393776
| 13>  H       -1.2289546742     3.5511471378    -1.4604319541
| 14>  H       -1.3348718180     4.1130932833     0.2255790088
| 15>  H        1.1212505687     3.8106571216    -1.2926384989
| 16>  H        2.1687215532     4.6418093055     0.8054288074
| 17>  H        0.7760366132     4.0565258622     1.7490885750
| 18>  H        3.0323056249     2.2877958964     0.6068282832
| 19>  H        1.8648940747     1.8046767707     1.8652534678
| 20> *
| 21>
| 22>                          ****END OF INPUT****

CARTESIAN COORDINATES (ANGSTROEM)
---------------------------------
  O     -0.176697    0.254998    0.821311
  C     -0.116512    1.319017    0.276048
  O     -1.224368    2.065508   -0.032087
  C     -0.859604    3.388201   -0.443759
  C      0.677420    3.414279   -0.375456
  C      1.442120    3.834585    0.910721
  C      1.998758    2.381336    0.947959
  N      1.034989    1.999341   -0.129739
  H     -1.228955    3.551147   -1.460432
  H     -1.334872    4.113093    0.225579
  H      1.121251    3.810657   -1.292638
  H      2.168722    4.641809    0.805429
  H      0.776037    4.056526    1.749089
  H      3.032306    2.287796    0.606828
  H      1.864894    1.804677    1.865253

 Total Charge           Charge          ....    0
 Multiplicity           Mult            ....    1
 Number of Electrons    NEL             ....   60
 Basis Dimension        Dim             ....  290

ORBITAL ENERGIES
----------------

  NO   OCC          E(Eh)            E(eV)
   0   2.0000     -20.603620      -560.6530
   1   2.0000     -20.530229      -558.6559
   2   2.0000     -15.587361      -424.1537
   3   2.0000     -11.397491      -310.1415
   4   2.0000     -11.308892      -307.7306
   5   2.0000     -11.291967      -307.2700
   6   2.0000     -11.284520      -307.0674
   7   2.0000     -11.255467      -306.2768
   8   2.0000      -1.467420       -39.9305
   9   2.0000      -1.366002       -37.1708
  10   2.0000      -1.278913       -34.8010
  11   2.0000      -1.045370       -28.4460
  12   2.0000      -1.004614       -27.3369
  13   2.0000      -0.912478       -24.8298
  14   2.0000      -0.830330       -22.5944
  15   2.0000      -0.775088       -21.0912
  16   2.0000      -0.720097       -19.5948
  17   2.0000      -0.694751       -18.9051
  18   2.0000      -0.663309       -18.0496
  19   2.0000      -0.644387       -17.5347
  20   2.0000      -0.624707       -16.9992
  21   2.0000      -0.595165       -16.1953
  22   2.0000      -0.579280       -15.7630
  23   2.0000      -0.555145       -15.1063
  24   2.0000      -0.529511       -14.4087
  25   2.0000      -0.519452       -14.1350
  26   2.0000      -0.487640       -13.2694
  27   2.0000      -0.456846       -12.4314
  28   2.0000      -0.448948       -12.2165
  29   2.0000      -0.400308       -10.8929
  30   0.0000       0.129121         3.5136
  31   0.0000       0.147374         4.0103
  32   0.0000       0.153678         4.1818
  33   0.0000       0.160917         4.3788
  34   0.0000       0.185582         5.0499

MULLIKEN ATOMIC CHARGES
-----------------------
   0 O :   -0.308668
   1 C :    0.291426
   2 O :   -0.238601
   3 C :   -0.046038
   4 C :   -0.063617
   5 C :   -0.242958
   6 C :   -0.161888
   7 N :   -0.129599
   8 H :    0.124447
   9 H :    0.116050
  10 H :    0.121727
  11 H :    0.133237
  12 H :    0.125303
  13 H :    0.131934
  14 H :    0.147245
Sum of atomic charges:   -0.0000000

LOEWDIN ATOMIC CHARGES
----------------------
   0 O :    0.120738
   1 C :   -0.551270
   2 O :    0.240479
   3 C :   -0.253046
   4 C :   -0.229759
   5 C :   -0.218185
   6 C :   -0.210851
   7 N :    0.168773
   8 H :    0.129294
   9 H :    0.129399
  10 H :    0.144115
  11 H :    0.129442
  12 H :    0.138121
  13 H :    0.129985
  14 H :    0.132766

  Mayer bond orders larger than 0.1
B(  0-O ,  1-C ) :   2.0312 B(  1-C ,  2-O ) :   1.0824 B(  1-C ,  7-N ) :   1.0605
B(  2-O ,  3-C ) :   0.9124 B(  3-C ,  4-C ) :   0.9607 B(  3-C ,  8-H ) :   0.9336
B(  3-C ,  9-H ) :   0.9091 B(  4-C ,  5-C ) :   0.9351 B(  4-C ,  7-N ) :   0.9177
B(  4-C , 10-H ) :   0.9108 B(  5-C ,  6-C ) :   0.9435 B(  5-C , 11-H ) :   0.9283
B(  5-C , 12-H ) :   0.9161 B(  6-C ,  7-N ) :   0.8705 B(  6-C , 13-H ) :   0.9252
B(  6-C , 14-H ) :   0.9277

MP2 TOTAL ENERGY:     -399.172640278 Eh
FINAL SINGLE POINT ENERGY      -399.172640277602

DIPOLE MOMENT
-------------
                                X             Y             Z
Electronic contribution:     -3.17466      -5.56321      -0.85416
Nuclear contribution   :      3.87157       7.53035       0.65535
                        -----------------------------------------
Total Dipole Moment    :      0.69691       1.96713      -0.19880
                        -----------------------------------------
Magnitude (a.u.)       :      2.09638
Magnitude (Debye)      :      5.32858

                             ****ORCA TERMINATED NORMALLY****
TOTAL RUN TIME: 0 days 0 hours 11 minutes 19 seconds 374 msec
