                         Program Version 3.0.3 - RELEASE   -
|  1> ! RI-MP2 RIJK def2-TZVP def2-TZVP/C def2-TZVP/JK TIGHTSCF
|  2> % maxcore 2000
|  3> % mp2 density relaxed end
|  4> *xyz 0 1
|  5>  C       -0.2356030725     1.4861862155     0.0427309976
|  6>  O       -0.0181119717     0.0827402668    -0.0237044295
|  7>  C        0.6753188544    -0.5227081667     1.0493628595
|  8>  C        0.0957514127    -0.2149895089     2.4347419450
|  9>  C        0.7198106710    -2.0358846573     0.7730224762
| 10>  O        1.9364509966    -2.4974788060     1.3565743643
| 11>  C        2.9290438775    -1.5295640204     1.0705258766
| 12>  C        2.1919367697    -0.1922901300     1.0301501721
| 13>  O        2.6892640451     0.9023487308     0.9739447895
| 14>  H        0.7022803263     2.0390776195     0.1469992928
| 15>  H       -0.7153729148     1.7576904381    -0.9004533588
| 16>  H       -0.9089346982     1.7584202501     0.8661460686
| 17>  H       -0.9827273135    -0.4028183360     2.4358538770
| 18>  H        0.5624747135    -0.8664783736     3.1796681747
| 19>  H        0.2786811326     0.8216161261     2.7286643267
| 20>  H       -0.1002753953    -2.5906081436     1.2326237931
| 21>  H        0.7043799276    -2.1993064874    -0.3146268415
| 22>  H        3.7018533455    -1.5534486640     1.8435021340
| 23>  H        3.4110811133    -1.7032246431     0.0931114322
| 24> *
| 25>
| 26>                          ****END OF INPUT****

CARTESIAN COORDINATES (ANGSTROEM)
---------------------------------
  C     -0.235603    1.486186    0.042731
  O     -0.018112    0.082740   -0.023704
  C      0.675319   -0.522708    1.049363
  C      0.095751   -0.214990    2.434742
  C      0.719811   -2.035885    0.773022
  O      1.936451   -2.497479    1.356574
  C      2.929044   -1.529564    1.070526
  C      2.191937   -0.192290    1.030150
  O      2.689264    0.902349    0.973945
  H      0.702280    2.039078    0.146999
  H     -0.715373    1.757690   -0.900453
  H     -0.908935    1.758420    0.866146
  H     -0.982727   -0.402818    2.435854
  H      0.562475   -0.866478    3.179668
  H      0.278681    0.821616    2.728664
  H     -0.100275   -2.590608    1.232624
  H      0.704380   -2.199306   -0.314627
  H      3.701853   -1.553449    1.843502
  H      3.411081   -1.703225    0.093111

 Total Charge           Charge          ....    0
 Multiplicity           Mult            ....    1
 Number of Electrons    NEL             ....   70
 Basis Dimension        Dim             ....  339

ORBITAL ENERGIES
----------------

  NO   OCC          E(Eh)            E(eV)
   0   2.0000     -20.575898      -559.8987
   1   2.0000     -20.568989      -559.7106
   2   2.0000     -20.562974      -559.5470
   3   2.0000     -11.339334      -308.5590
   4   2.0000     -11.306808      -307.6739
   5   2.0000     -11.296355      -307.3894
   6   2.0000     -11.288061      -307.1637
   7   2.0000     -11.270570      -306.6878
   8   2.0000     -11.235335      -305.7290
   9   2.0000      -1.419251       -38.6198
  10   2.0000      -1.394006       -37.9328
  11   2.0000      -1.380877       -37.5756
  12   2.0000      -1.074395       -29.2358
  13   2.0000      -1.002706       -27.2850
  14   2.0000      -0.959281       -26.1034
  15   2.0000      -0.914525       -24.8855
  16   2.0000      -0.833537       -22.6817
  17   2.0000      -0.752995       -20.4900
  18   2.0000      -0.701743       -19.0954
  19   2.0000      -0.695001       -18.9120
  20   2.0000      -0.663871       -18.0649
  21   2.0000      -0.652426       -17.7534
  22   2.0000      -0.635038       -17.2803
  23   2.0000      -0.620803       -16.8929
  24   2.0000      -0.595269       -16.1981
  25   2.0000      -0.568732       -15.4760
  26   2.0000      -0.564952       -15.3731
  27   2.0000      -0.560297       -15.2465
  28   2.0000      -0.547533       -14.8991
  29   2.0000      -0.528440       -14.3796
  30   2.0000      -0.503246       -13.6940
  31   2.0000      -0.491386       -13.3713
  32   2.0000      -0.463098       -12.6015
  33   2.0000      -0.441220       -12.0062
  34   2.0000      -0.383964       -10.4482
  35   0.0000       0.122816         3.3420
  36   0.0000       0.135751         3.6940
  37   0.0000       0.159191         4.3318
  38   0.0000       0.176332         4.7982
  39   0.0000       0.185876         5.0580

MULLIKEN ATOMIC CHARGES
-----------------------
   0 C :   -0.244095
   1 O :   -0.317177
   2 C :    0.277453
   3 C :   -0.495040
   4 C :   -0.044054
   5 O :   -0.321338
   6 C :   -0.037608
   7 C :    0.086666
   8 O :   -0.281113
   9 H :    0.151770
  10 H :    0.141573
  11 H :    0.119143
  12 H :    0.148730
  13 H :    0.156531
  14 H :    0.155975
  15 H :    0.124977
  16 H :    0.113651
  17 H :    0.144550
  18 H :    0.119404
Sum of atomic charges:    0.0000000

LOEWDIN ATOMIC CHARGES
----------------------
   0 C :   -0.340506
   1 O :    0.180816
   2 C :   -0.366760
   3 C :   -0.265572
   4 C :   -0.251778
   5 O :    0.154269
   6 C :   -0.277363
   7 C :   -0.275510
   8 O :    0.165978
   9 H :    0.110977
  10 H :    0.114473
  11 H :    0.103506
  12 H :    0.133130
  13 H :    0.139248
  14 H :    0.131779
  15 H :    0.133391
  16 H :    0.130650
  17 H :    0.140901
  18 H :    0.138370

  Mayer bond orders larger than 0.1
B(  0-C ,  1-O ) :   0.8870 B(  0-C ,  9-H ) :   0.9281 B(  0-C , 10-H ) :   0.9382
B(  0-C , 11-H ) :   0.9357 B(  1-O ,  2-C ) :   0.9822 B(  2-C ,  3-C ) :   0.8743
B(  2-C ,  4-C ) :   0.8952 B(  2-C ,  7-C ) :   0.8209 B(  3-C , 12-H ) :   0.9341
B(  3-C , 13-H ) :   0.9176 B(  3-C , 14-H ) :   0.9290 B(  4-C ,  5-O ) :   0.8998
B(  4-C , 15-H ) :   0.9193 B(  4-C , 16-H ) :   0.9267 B(  5-O ,  6-C ) :   0.9492
B(  6-C ,  7-C ) :   0.9430 B(  6-C , 17-H ) :   0.9081 B(  6-C , 18-H ) :   0.9097
B(  7-C ,  8-O ) :   1.9712

MP2 TOTAL ENERGY:     -459.428434386 Eh
FINAL SINGLE POINT ENERGY      -459.428434386369

DIPOLE MOMENT
-------------
                                X             Y             Z
Electronic contribution:      4.64942      -1.84152      -1.39338
Nuclear contribution   :     -5.06176       1.80526       1.57922
                        -----------------------------------------
Total Dipole Moment    :     -0.41234      -0.03626       0.18584
                        -----------------------------------------
Magnitude (a.u.)       :      0.45374
Magnitude (Debye)      :      1.15331

                             ****ORCA TERMINATED NORMALLY****
TOTAL RUN TIME: 0 days 0 hours 20 minutes 1 seconds 59 msec
