                         Program Version 3.0.3 - RELEASE   -
|  1> ! RI-MP2 RIJK def2-TZVP def2-TZVP/C def2-TZVP/JK TIGHTSCF
|  2> % maxcore 2000
|  3> % mp2 density relaxed end
|  4> *xyz 0 1
|  5>  C       -0.0140784047     1.5872302209    -0.0342126154
|  6>  C        1.4601274044     1.9046072079     0.1402072392
|  7>  C        2.0309662317     0.8913943999     1.0507836592
|  8>  C        1.1292825731    -0.3485467409     1.0269053960
|  9>  C        2.0614535523    -1.2985153579     0.2388336664
| 10>  C        2.1270152092    -0.3493925271    -0.9769544115
| 11>  C        0.6554652450    -0.3493544737    -1.3918495348
| 12>  C        0.0144047365     0.0527867558    -0.0339452729
| 13>  N        2.5182033919     0.9663864614    -0.3471504100
| 14>  H       -0.5614775590     2.0067426417     0.8197766359
| 15>  H       -0.4633907150     1.9915488033    -0.9467869352
| 16>  H        1.7867931722     2.9408005064     0.1522736045
| 17>  H        2.7256959318     1.0873303308     1.8632171536
| 18>  H        0.7549058730    -0.6924347169     1.9913448386
| 19>  H        3.0266541168    -1.4433889540     0.7315141308
| 20>  H        1.6312297699    -2.2751282070    -0.0025941799
| 21>  H        2.8446366979    -0.6005605943    -1.7594089502
| 22>  H        0.4198930135     0.3659075618    -2.1845504500
| 23>  H        0.3554162841    -1.3438859081    -1.7371239581
| 24>  H       -0.9551153745    -0.4093663801     0.1541935840
| 25> *
| 26>
| 27>                          ****END OF INPUT****

CARTESIAN COORDINATES (ANGSTROEM)
---------------------------------
  C     -0.014078    1.587230   -0.034213
  C      1.460127    1.904607    0.140207
  C      2.030966    0.891394    1.050784
  C      1.129283   -0.348547    1.026905
  C      2.061454   -1.298515    0.238834
  C      2.127015   -0.349393   -0.976954
  C      0.655465   -0.349354   -1.391850
  C      0.014405    0.052787   -0.033945
  N      2.518203    0.966386   -0.347150
  H     -0.561478    2.006743    0.819777
  H     -0.463391    1.991549   -0.946787
  H      1.786793    2.940801    0.152274
  H      2.725696    1.087330    1.863217
  H      0.754906   -0.692435    1.991345
  H      3.026654   -1.443389    0.731514
  H      1.631230   -2.275128   -0.002594
  H      2.844637   -0.600561   -1.759409
  H      0.419893    0.365908   -2.184550
  H      0.355416   -1.343886   -1.737124
  H     -0.955115   -0.409366    0.154194

 Total Charge           Charge          ....    0
 Multiplicity           Mult            ....    1
 Number of Electrons    NEL             ....   66
 Basis Dimension        Dim             ....  345

ORBITAL ENERGIES
----------------

  NO   OCC          E(Eh)            E(eV)
   0   2.0000     -15.547042      -423.0565
   1   2.0000     -11.252899      -306.2069
   2   2.0000     -11.249654      -306.1186
   3   2.0000     -11.242862      -305.9338
   4   2.0000     -11.230915      -305.6087
   5   2.0000     -11.229521      -305.5708
   6   2.0000     -11.222654      -305.3839
   7   2.0000     -11.218089      -305.2597
   8   2.0000     -11.215929      -305.2009
   9   2.0000      -1.284828       -34.9620
  10   2.0000      -1.099210       -29.9110
  11   2.0000      -1.049034       -28.5457
  12   2.0000      -0.990377       -26.9495
  13   2.0000      -0.898251       -24.4426
  14   2.0000      -0.846931       -23.0462
  15   2.0000      -0.791523       -21.5384
  16   2.0000      -0.756283       -20.5795
  17   2.0000      -0.718447       -19.5499
  18   2.0000      -0.703124       -19.1330
  19   2.0000      -0.637225       -17.3398
  20   2.0000      -0.629211       -17.1217
  21   2.0000      -0.596151       -16.2221
  22   2.0000      -0.560607       -15.2549
  23   2.0000      -0.538053       -14.6412
  24   2.0000      -0.506933       -13.7943
  25   2.0000      -0.502555       -13.6752
  26   2.0000      -0.482158       -13.1202
  27   2.0000      -0.473826       -12.8935
  28   2.0000      -0.465551       -12.6683
  29   2.0000      -0.447182       -12.1684
  30   2.0000      -0.416480       -11.3330
  31   2.0000      -0.410106       -11.1595
  32   2.0000      -0.359752        -9.7893
  33   0.0000       0.138367         3.7651
  34   0.0000       0.160397         4.3646
  35   0.0000       0.168253         4.5784
  36   0.0000       0.172704         4.6995
  37   0.0000       0.188494         5.1292

MULLIKEN ATOMIC CHARGES
-----------------------
   0 C :   -0.231629
   1 C :   -0.131024
   2 C :   -0.093594
   3 C :   -0.043313
   4 C :   -0.305862
   5 C :    0.078293
   6 C :   -0.313685
   7 C :   -0.039348
   8 N :   -0.243594
   9 H :    0.114621
  10 H :    0.117386
  11 H :    0.119202
  12 H :    0.126698
  13 H :    0.127647
  14 H :    0.122047
  15 H :    0.116028
  16 H :    0.122633
  17 H :    0.119815
  18 H :    0.118160
  19 H :    0.119518
Sum of atomic charges:   -0.0000000

LOEWDIN ATOMIC CHARGES
----------------------
   0 C :   -0.224575
   1 C :   -0.218310
   2 C :   -0.202006
   3 C :   -0.177368
   4 C :   -0.206667
   5 C :   -0.248775
   6 C :   -0.212884
   7 C :   -0.185110
   8 N :    0.151018
   9 H :    0.142775
  10 H :    0.135546
  11 H :    0.140041
  12 H :    0.133238
  13 H :    0.142245
  14 H :    0.139117
  15 H :    0.135415
  16 H :    0.139149
  17 H :    0.138155
  18 H :    0.137239
  19 H :    0.141757

  Mayer bond orders larger than 0.1
B(  0-C ,  1-C ) :   0.9390 B(  0-C ,  7-C ) :   0.9315 B(  0-C ,  9-H ) :   0.9140
B(  0-C , 10-H ) :   0.9188 B(  1-C ,  2-C ) :   0.9174 B(  1-C ,  8-N ) :   0.9519
B(  1-C , 11-H ) :   0.9343 B(  2-C ,  3-C ) :   0.9125 B(  2-C ,  8-N ) :   0.8948
B(  2-C , 12-H ) :   0.9041 B(  3-C ,  4-C ) :   0.9309 B(  3-C ,  7-C ) :   0.9092
B(  3-C , 13-H ) :   0.9070 B(  4-C ,  5-C ) :   0.9304 B(  4-C , 14-H ) :   0.9148
B(  4-C , 15-H ) :   0.9242 B(  5-C ,  6-C ) :   0.9450 B(  5-C ,  8-N ) :   0.8865
B(  5-C , 16-H ) :   0.9181 B(  6-C ,  7-C ) :   0.9434 B(  6-C , 17-H ) :   0.9235
B(  6-C , 18-H ) :   0.9279 B(  7-C , 19-H ) :   0.9194

MP2 TOTAL ENERGY:     -365.358695488 Eh
FINAL SINGLE POINT ENERGY      -365.358695488232

DIPOLE MOMENT
-------------
                                X             Y             Z
Electronic contribution:      2.23084       1.61170       0.60510
Nuclear contribution   :     -2.82074      -1.90000      -0.39035
                        -----------------------------------------
Total Dipole Moment    :     -0.58989      -0.28830       0.21475
                        -----------------------------------------
Magnitude (a.u.)       :      0.69080
Magnitude (Debye)      :      1.75588

                             ****ORCA TERMINATED NORMALLY****
TOTAL RUN TIME: 0 days 0 hours 21 minutes 32 seconds 840 msec
