                         Program Version 3.0.3 - RELEASE   -
|  1> ! RI-MP2 RIJK def2-TZVP def2-TZVP/C def2-TZVP/JK TIGHTSCF
|  2> % maxcore 2000
|  3> % mp2 density relaxed end
|  4> *xyz 0 1
|  5>  O       -0.1312538068     0.0072625992    -0.0005046106
|  6>  C       -0.0198603212     1.2117276655     0.0077522931
|  7>  C        1.2424779452     1.9048931082    -0.0009343631
|  8>  C        2.2902748158     2.5107035168    -0.0080735715
|  9>  C        3.5171249370     3.1878455942    -0.0164066046
| 10>  C        4.8135980921     2.7492338733    -0.0344047116
| 11>  C        5.5668447768     3.9464086430    -0.0333751612
| 12>  N        4.7977729206     5.0112350766    -0.0162628511
| 13>  O        3.5013245636     4.5454973256    -0.0054282072
| 14>  H       -0.9014808719     1.8824420048     0.0230183139
| 15>  H        5.1584299083     1.7295542287    -0.0463678272
| 16>  H        6.6398896805     4.0726145040    -0.0444237689
| 17> *
| 18>
| 19>                          ****END OF INPUT****

CARTESIAN COORDINATES (ANGSTROEM)
---------------------------------
  O     -0.131254    0.007263   -0.000505
  C     -0.019860    1.211728    0.007752
  C      1.242478    1.904893   -0.000934
  C      2.290275    2.510704   -0.008074
  C      3.517125    3.187846   -0.016407
  C      4.813598    2.749234   -0.034405
  C      5.566845    3.946409   -0.033375
  N      4.797773    5.011235   -0.016263
  O      3.501325    4.545497   -0.005428
  H     -0.901481    1.882442    0.023018
  H      5.158430    1.729554   -0.046368
  H      6.639890    4.072615   -0.044424

 Total Charge           Charge          ....    0
 Multiplicity           Mult            ....    1
 Number of Electrons    NEL             ....   62
 Basis Dimension        Dim             ....  297

ORBITAL ENERGIES
----------------

  NO   OCC          E(Eh)            E(eV)
   0   2.0000     -20.671100      -562.4892
   1   2.0000     -20.586166      -560.1780
   2   2.0000     -15.651469      -425.8981
   3   2.0000     -11.375185      -309.5345
   4   2.0000     -11.356789      -309.0339
   5   2.0000     -11.301310      -307.5243
   6   2.0000     -11.292921      -307.2960
   7   2.0000     -11.280371      -306.9545
   8   2.0000     -11.274826      -306.8036
   9   2.0000      -1.521980       -41.4152
  10   2.0000      -1.420461       -38.6527
  11   2.0000      -1.189696       -32.3733
  12   2.0000      -1.132711       -30.8226
  13   2.0000      -1.071991       -29.1704
  14   2.0000      -0.945297       -25.7228
  15   2.0000      -0.871367       -23.7111
  16   2.0000      -0.850966       -23.1560
  17   2.0000      -0.788470       -21.4554
  18   2.0000      -0.736521       -20.0418
  19   2.0000      -0.685746       -18.6601
  20   2.0000      -0.675449       -18.3799
  21   2.0000      -0.659411       -17.9435
  22   2.0000      -0.629881       -17.1399
  23   2.0000      -0.593454       -16.1487
  24   2.0000      -0.572843       -15.5879
  25   2.0000      -0.511469       -13.9178
  26   2.0000      -0.475531       -12.9398
  27   2.0000      -0.472339       -12.8530
  28   2.0000      -0.448277       -12.1982
  29   2.0000      -0.440080       -11.9752
  30   2.0000      -0.365719        -9.9517
  31   0.0000       0.024698         0.6721
  32   0.0000       0.126054         3.4301
  33   0.0000       0.133429         3.6308
  34   0.0000       0.153636         4.1806
  35   0.0000       0.158656         4.3172

MULLIKEN ATOMIC CHARGES
-----------------------
   0 O :   -0.246498
   1 C :    0.050378
   2 C :    0.099584
   3 C :    0.114541
   4 C :    0.014493
   5 C :   -0.194539
   6 C :   -0.081324
   7 N :   -0.108907
   8 O :   -0.091310
   9 H :    0.117257
  10 H :    0.168420
  11 H :    0.157906
Sum of atomic charges:    0.0000000

LOEWDIN ATOMIC CHARGES
----------------------
   0 O :    0.155910
   1 C :   -0.288217
   2 C :   -0.015496
   3 C :    0.004209
   4 C :   -0.262062
   5 C :   -0.132080
   6 C :   -0.251122
   7 N :    0.044987
   8 O :    0.312897
   9 H :    0.129047
  10 H :    0.155425
  11 H :    0.146502

  Mayer bond orders larger than 0.1
B(  0-O ,  1-C ) :   1.9933 B(  1-C ,  2-C ) :   0.8506 B(  1-C ,  9-H ) :   0.9943
B(  2-C ,  3-C ) :   2.6291 B(  2-C ,  4-C ) :  -0.1582 B(  3-C ,  4-C ) :   1.1059
B(  4-C ,  5-C ) :   1.4456 B(  4-C ,  8-O ) :   1.1170 B(  5-C ,  6-C ) :   1.2688
B(  5-C , 10-H ) :   0.9109 B(  6-C ,  7-N ) :   1.5590 B(  6-C , 11-H ) :   0.9235
B(  7-N ,  8-O ) :   0.9119

MP2 TOTAL ENERGY:     -434.708525237 Eh
FINAL SINGLE POINT ENERGY      -434.708525236852

DIPOLE MOMENT
-------------
                                X             Y             Z
Electronic contribution:     -1.61998       0.58984       0.02277
Nuclear contribution   :      2.26978      -0.62770      -0.03041
                        -----------------------------------------
Total Dipole Moment    :      0.64980      -0.03786      -0.00764
                        -----------------------------------------
Magnitude (a.u.)       :      0.65095
Magnitude (Debye)      :      1.65458

                             ****ORCA TERMINATED NORMALLY****
TOTAL RUN TIME: 0 days 0 hours 12 minutes 12 seconds 892 msec
