                         Program Version 3.0.3 - RELEASE   -
|  1> ! RI-MP2 RIJK def2-TZVP def2-TZVP/C def2-TZVP/JK TIGHTSCF
|  2> % maxcore 2000
|  3> % mp2 density relaxed end
|  4> *xyz 0 1
|  5>  C       -0.0591767348     1.4046577825     0.0550200054
|  6>  N       -0.0135233154    -0.0402956085    -0.0223688986
|  7>  C        0.5865584992    -0.5975089971    -0.9884135572
|  8>  C        1.3438802704    -0.0128264937    -2.1867091185
|  9>  N        1.8783832331    -1.2021395539    -2.8177219444
| 10>  C        1.3843565505    -2.3620188431    -2.2597703940
| 11>  O        1.5506172362    -3.4955689503    -2.6466741299
| 12>  N        0.6552859634    -1.9723189806    -1.1315918242
| 13>  C        0.0527378943    -2.9160346967    -0.2168782628
| 14>  H        0.4731273556     1.9376029335    -0.7469337783
| 15>  H       -1.1037231790     1.7389247493     0.0416182678
| 16>  H        0.3617788589     1.7328625962     1.0128359700
| 17>  H        0.6593569303     0.5458672861    -2.8388529009
| 18>  H        2.1323454559     0.6744042838    -1.8600639960
| 19>  H        2.1951318296    -1.2247572700    -3.7718702241
| 20>  H        0.2524868032    -3.9155768423    -0.6043509172
| 21>  H        0.4784738814    -2.8070683178     0.7850757960
| 22>  H       -1.0253629325    -2.7454210573    -0.1486202031
| 23> *
| 24>
| 25>                          ****END OF INPUT****

CARTESIAN COORDINATES (ANGSTROEM)
---------------------------------
  C     -0.059177    1.404658    0.055020
  N     -0.013523   -0.040296   -0.022369
  C      0.586558   -0.597509   -0.988414
  C      1.343880   -0.012826   -2.186709
  N      1.878383   -1.202140   -2.817722
  C      1.384357   -2.362019   -2.259770
  O      1.550617   -3.495569   -2.646674
  N      0.655286   -1.972319   -1.131592
  C      0.052738   -2.916035   -0.216878
  H      0.473127    1.937603   -0.746934
  H     -1.103723    1.738925    0.041618
  H      0.361779    1.732863    1.012836
  H      0.659357    0.545867   -2.838853
  H      2.132345    0.674404   -1.860064
  H      2.195132   -1.224757   -3.771870
  H      0.252487   -3.915577   -0.604351
  H      0.478474   -2.807068    0.785076
  H     -1.025363   -2.745421   -0.148620

 Total Charge           Charge          ....    0
 Multiplicity           Mult            ....    1
 Number of Electrons    NEL             ....   68
 Basis Dimension        Dim             ....  333

ORBITAL ENERGIES
----------------

  NO   OCC          E(Eh)            E(eV)
   0   2.0000     -20.523495      -558.4727
   1   2.0000     -15.602328      -424.5609
   2   2.0000     -15.593950      -424.3329
   3   2.0000     -15.545124      -423.0043
   4   2.0000     -11.384884      -309.7984
   5   2.0000     -11.330178      -308.3098
   6   2.0000     -11.299794      -307.4830
   7   2.0000     -11.257727      -306.3383
   8   2.0000     -11.253257      -306.2167
   9   2.0000      -1.411360       -38.4051
  10   2.0000      -1.318987       -35.8915
  11   2.0000      -1.235804       -33.6279
  12   2.0000      -1.196934       -32.5702
  13   2.0000      -1.003290       -27.3009
  14   2.0000      -0.964689       -26.2505
  15   2.0000      -0.941389       -25.6165
  16   2.0000      -0.820635       -22.3306
  17   2.0000      -0.779349       -21.2072
  18   2.0000      -0.706372       -19.2214
  19   2.0000      -0.688203       -18.7270
  20   2.0000      -0.663552       -18.0562
  21   2.0000      -0.632697       -17.2166
  22   2.0000      -0.627212       -17.0673
  23   2.0000      -0.613950       -16.7064
  24   2.0000      -0.599583       -16.3155
  25   2.0000      -0.590814       -16.0769
  26   2.0000      -0.566919       -15.4267
  27   2.0000      -0.556797       -15.1512
  28   2.0000      -0.536133       -14.5889
  29   2.0000      -0.475712       -12.9448
  30   2.0000      -0.453299       -12.3349
  31   2.0000      -0.418015       -11.3748
  32   2.0000      -0.408339       -11.1115
  33   2.0000      -0.355880        -9.6840
  34   0.0000       0.119379         3.2485
  35   0.0000       0.146330         3.9819
  36   0.0000       0.154330         4.1995
  37   0.0000       0.157576         4.2879
  38   0.0000       0.184456         5.0193

MULLIKEN ATOMIC CHARGES
-----------------------
   0 C :   -0.273788
   1 N :   -0.254590
   2 C :    0.095407
   3 C :   -0.127544
   4 N :   -0.350833
   5 C :    0.287112
   6 O :   -0.358981
   7 N :   -0.085941
   8 C :   -0.305807
   9 H :    0.094281
  10 H :    0.141682
  11 H :    0.142026
  12 H :    0.143301
  13 H :    0.143348
  14 H :    0.249507
  15 H :    0.176620
  16 H :    0.141888
  17 H :    0.142312
Sum of atomic charges:   -0.0000000

LOEWDIN ATOMIC CHARGES
----------------------
   0 C :   -0.334953
   1 N :    0.071544
   2 C :   -0.306765
   3 C :   -0.238333
   4 N :    0.094279
   5 C :   -0.501328
   6 O :    0.077492
   7 N :    0.216189
   8 C :   -0.272300
   9 H :    0.104347
  10 H :    0.119628
  11 H :    0.119672
  12 H :    0.140958
  13 H :    0.140843
  14 H :    0.186433
  15 H :    0.134906
  16 H :    0.123440
  17 H :    0.123946

  Mayer bond orders larger than 0.1
B(  0-C ,  1-N ) :   0.8873 B(  0-C ,  9-H ) :   0.9241 B(  0-C , 10-H ) :   0.9331
B(  0-C , 11-H ) :   0.9343 B(  1-N ,  2-C ) :   1.8687 B(  2-C ,  3-C ) :   0.9339
B(  2-C ,  7-N ) :   1.0677 B(  3-C ,  4-N ) :   0.9192 B(  3-C , 12-H ) :   0.9183
B(  3-C , 13-H ) :   0.9150 B(  4-N ,  5-C ) :   1.1265 B(  4-N , 14-H ) :   0.8667
B(  5-C ,  6-O ) :   1.9870 B(  5-C ,  7-N ) :   1.0437 B(  7-N ,  8-C ) :   0.8640
B(  8-C , 15-H ) :   0.9196 B(  8-C , 16-H ) :   0.9323 B(  8-C , 17-H ) :   0.9302

MP2 TOTAL ENERGY:     -434.602080339 Eh
FINAL SINGLE POINT ENERGY      -434.602080338768

DIPOLE MOMENT
-------------
                                X             Y             Z
Electronic contribution:      2.74522      -5.31675      -4.11189
Nuclear contribution   :     -2.76535       6.71031       3.86800
                        -----------------------------------------
Total Dipole Moment    :     -0.02013       1.39355      -0.24389
                        -----------------------------------------
Magnitude (a.u.)       :      1.41488
Magnitude (Debye)      :      3.59633

                             ****ORCA TERMINATED NORMALLY****
TOTAL RUN TIME: 0 days 0 hours 15 minutes 52 seconds 324 msec
