                         Program Version 3.0.3 - RELEASE   -
|  1> ! RI-MP2 RIJK def2-TZVP def2-TZVP/C def2-TZVP/JK TIGHTSCF
|  2> % maxcore 2000
|  3> % mp2 density relaxed end
|  4> *xyz 0 1
|  5>  C       -0.3113628962     1.5432217494    -0.0911999129
|  6>  C       -0.0097491749     0.0498834498    -0.0282678544
|  7>  C        0.9447107343    -0.4822827644    -1.1116526259
|  8>  C        1.4743207752    -1.7935068820    -0.5004254248
|  9>  O        1.1653703863    -1.7590793087     0.9012745790
| 10>  C        0.7021848409    -0.4581724293     1.2501386582
| 11>  C        1.8049413090     0.4076713796     1.6907518749
| 12>  C        2.7154447730     1.1062177964     2.0502135555
| 13>  H        0.6066235018     2.1328747336    -0.0157994552
| 14>  H       -0.8051484388     1.7970570634    -1.0345224720
| 15>  H       -0.9757619852     1.8499102415     0.7235475776
| 16>  H       -0.9493378600    -0.5133841786    -0.0834429710
| 17>  H        0.4473316826    -0.6376479051    -2.0721282149
| 18>  H        1.7603655476     0.2310585275    -1.2681612318
| 19>  H        0.9840302437    -2.6784412657    -0.9220280668
| 20>  H        2.5562579302    -1.9058330963    -0.6398300271
| 21>  H       -0.0022164728    -0.5841951996     2.0800693652
| 22>  H        3.5206672534     1.7159243784     2.3788099264
| 23> *
| 24>
| 25>                          ****END OF INPUT****

CARTESIAN COORDINATES (ANGSTROEM)
---------------------------------
  C     -0.311363    1.543222   -0.091200
  C     -0.009749    0.049883   -0.028268
  C      0.944711   -0.482283   -1.111653
  C      1.474321   -1.793507   -0.500425
  O      1.165370   -1.759079    0.901275
  C      0.702185   -0.458172    1.250139
  C      1.804941    0.407671    1.690752
  C      2.715445    1.106218    2.050214
  H      0.606624    2.132875   -0.015799
  H     -0.805148    1.797057   -1.034522
  H     -0.975762    1.849910    0.723548
  H     -0.949338   -0.513384   -0.083443
  H      0.447332   -0.637648   -2.072128
  H      1.760366    0.231059   -1.268161
  H      0.984030   -2.678441   -0.922028
  H      2.556258   -1.905833   -0.639830
  H     -0.002216   -0.584195    2.080069
  H      3.520667    1.715924    2.378810

 Total Charge           Charge          ....    0
 Multiplicity           Mult            ....    1
 Number of Electrons    NEL             ....   60
 Basis Dimension        Dim             ....  308

ORBITAL ENERGIES
----------------

  NO   OCC          E(Eh)            E(eV)
   0   2.0000     -20.554334      -559.3119
   1   2.0000     -11.303640      -307.5877
   2   2.0000     -11.273388      -306.7645
   3   2.0000     -11.240390      -305.8666
   4   2.0000     -11.231888      -305.6352
   5   2.0000     -11.227069      -305.5041
   6   2.0000     -11.225258      -305.4548
   7   2.0000     -11.219677      -305.3029
   8   2.0000      -1.378808       -37.5193
   9   2.0000      -1.092770       -29.7358
  10   2.0000      -1.044191       -28.4139
  11   2.0000      -0.992987       -27.0206
  12   2.0000      -0.935413       -25.4539
  13   2.0000      -0.833670       -22.6853
  14   2.0000      -0.798638       -21.7320
  15   2.0000      -0.721888       -19.6436
  16   2.0000      -0.694836       -18.9074
  17   2.0000      -0.661190       -17.9919
  18   2.0000      -0.627102       -17.0643
  19   2.0000      -0.617890       -16.8136
  20   2.0000      -0.581157       -15.8141
  21   2.0000      -0.564274       -15.3547
  22   2.0000      -0.531348       -14.4587
  23   2.0000      -0.503414       -13.6986
  24   2.0000      -0.494546       -13.4573
  25   2.0000      -0.474114       -12.9013
  26   2.0000      -0.464749       -12.6465
  27   2.0000      -0.429780       -11.6949
  28   2.0000      -0.393547       -10.7090
  29   2.0000      -0.386701       -10.5227
  30   0.0000       0.131295         3.5727
  31   0.0000       0.155502         4.2314
  32   0.0000       0.161391         4.3917
  33   0.0000       0.164875         4.4865
  34   0.0000       0.173040         4.7087

MULLIKEN ATOMIC CHARGES
-----------------------
   0 C :   -0.403485
   1 C :   -0.074000
   2 C :   -0.286755
   3 C :   -0.026570
   4 O :   -0.319495
   5 C :    0.081304
   6 C :   -0.094743
   7 C :   -0.161841
   8 H :    0.142081
   9 H :    0.135089
  10 H :    0.134558
  11 H :    0.099552
  12 H :    0.128245
  13 H :    0.124564
  14 H :    0.105949
  15 H :    0.101441
  16 H :    0.125178
  17 H :    0.188929
Sum of atomic charges:    0.0000000

LOEWDIN ATOMIC CHARGES
----------------------
   0 C :   -0.287870
   1 C :   -0.248079
   2 C :   -0.238632
   3 C :   -0.286966
   4 O :    0.171579
   5 C :   -0.287930
   6 C :   -0.080522
   7 C :   -0.093225
   8 H :    0.129867
   9 H :    0.126034
  10 H :    0.126910
  11 H :    0.157179
  12 H :    0.137478
  13 H :    0.142241
  14 H :    0.122321
  15 H :    0.121933
  16 H :    0.160540
  17 H :    0.127142

  Mayer bond orders larger than 0.1
B(  0-C ,  1-C ) :   0.9084 B(  0-C ,  8-H ) :   0.9268 B(  0-C ,  9-H ) :   0.9366
B(  0-C , 10-H ) :   0.9403 B(  1-C ,  2-C ) :   0.9289 B(  1-C ,  5-C ) :   0.9267
B(  1-C , 11-H ) :   0.9261 B(  2-C ,  3-C ) :   0.9559 B(  2-C , 12-H ) :   0.9264
B(  2-C , 13-H ) :   0.9206 B(  3-C ,  4-O ) :   0.9302 B(  3-C , 14-H ) :   0.9293
B(  3-C , 15-H ) :   0.9256 B(  4-O ,  5-C ) :   0.9181 B(  5-C ,  6-C ) :   1.0855
B(  5-C , 16-H ) :   0.9207 B(  6-C ,  7-C ) :   2.5961 B(  7-C , 17-H ) :   0.9035

MP2 TOTAL ENERGY:     -347.165359049 Eh
FINAL SINGLE POINT ENERGY      -347.165359049466

DIPOLE MOMENT
-------------
                                X             Y             Z
Electronic contribution:      2.77143      -2.73820       4.74297
Nuclear contribution   :     -2.98648       3.19180      -5.28365
                        -----------------------------------------
Total Dipole Moment    :     -0.21505       0.45360      -0.54068
                        -----------------------------------------
Magnitude (a.u.)       :      0.73779
Magnitude (Debye)      :      1.87532

                             ****ORCA TERMINATED NORMALLY****
TOTAL RUN TIME: 0 days 0 hours 14 minutes 29 seconds 247 msec
