                         Program Version 3.0.3 - RELEASE   -
|  1> ! RI-MP2 RIJK def2-TZVP def2-TZVP/C def2-TZVP/JK TIGHTSCF
|  2> % maxcore 2000
|  3> % mp2 density relaxed end
|  4> *xyz 0 1
|  5>  C       -0.0133239314     1.1324657151     0.0082758861
|  6>  N        0.0023107217    -0.0191585871     0.0019287305
|  7>  H       -0.0278026991     2.1989492963     0.0141537903
|  8> *
|  9>
| 10>                          ****END OF INPUT****

CARTESIAN COORDINATES (ANGSTROEM)
---------------------------------
  C     -0.013324    1.132466    0.008276
  N      0.002311   -0.019159    0.001929
  H     -0.027803    2.198949    0.014154

 Total Charge           Charge          ....    0
 Multiplicity           Mult            ....    1
 Number of Electrons    NEL             ....   14
 Basis Dimension        Dim             ....   68

ORBITAL ENERGIES
----------------

  NO   OCC          E(Eh)            E(eV)
   0   2.0000     -15.598597      -424.4594
   1   2.0000     -11.290581      -307.2323
   2   2.0000      -1.237009       -33.6607
   3   2.0000      -0.812212       -22.1014
   4   2.0000      -0.581805       -15.8317
   5   2.0000      -0.497109       -13.5270
   6   2.0000      -0.497109       -13.5270
   7   0.0000       0.148723         4.0470
   8   0.0000       0.154985         4.2173
   9   0.0000       0.154985         4.2173
  10   0.0000       0.190296         5.1782
  11   0.0000       0.348983         9.4963

MULLIKEN ATOMIC CHARGES
-----------------------
   0 C :   -0.138025
   1 N :   -0.076022
   2 H :    0.214046
Sum of atomic charges:   -0.0000000

LOEWDIN ATOMIC CHARGES
----------------------
   0 C :   -0.169816
   1 N :    0.044157
   2 H :    0.125660

  Mayer bond orders larger than 0.1
B(  0-C ,  1-N ) :   2.8086 B(  0-C ,  2-H ) :   0.8997

MP2 TOTAL ENERGY:      -93.252925947 Eh
FINAL SINGLE POINT ENERGY       -93.252925947143

DIPOLE MOMENT
-------------
                                X             Y             Z
Electronic contribution:      0.00449      -0.33056      -0.00182
Nuclear contribution   :     -0.02063       1.51992       0.00838
                        -----------------------------------------
Total Dipole Moment    :     -0.01615       1.18936       0.00656
                        -----------------------------------------
Magnitude (a.u.)       :      1.18948
Magnitude (Debye)      :      3.02343

                             ****ORCA TERMINATED NORMALLY****
TOTAL RUN TIME: 0 days 0 hours 8 minutes 41 seconds 647 msec
