                         Program Version 3.0.3 - RELEASE   -
|  1> ! RI-MP2 RIJK def2-TZVP def2-TZVP/C def2-TZVP/JK TIGHTSCF
|  2> % maxcore 2000
|  3> % mp2 density relaxed end
|  4> *xyz 0 1
|  5>  C       -0.0113615738     1.6925253508     0.1566642962
|  6>  C       -0.0590656252     0.1805619734     0.0354117210
|  7>  C       -1.3722880336    -0.4078193422    -0.4570137852
|  8>  C       -1.7296442576    -0.0077844510    -1.8873656233
|  9>  O       -2.9035016847    -0.7228026636    -2.2384961677
| 10>  C        1.2090688876    -0.5422992380    -0.3215371218
| 11>  C        0.6669602123    -0.6499853670     1.0986325078
| 12>  C        1.3671275352    -0.0165055100     2.1789776133
| 13>  N        1.9266861658     0.4989546178     3.0513608070
| 14>  H        0.9200599512     2.0294651126     0.6181905862
| 15>  H       -0.0871957324     2.1664224690    -0.8271228169
| 16>  H       -0.8392106694     2.0607147694     0.7722913179
| 17>  H       -1.3295589894    -1.5026022953    -0.4234997914
| 18>  H       -2.1904385937    -0.1046181443     0.2073495881
| 19>  H       -1.8930646271     1.0785283842    -1.9514386047
| 20>  H       -0.8921124988    -0.2534475457    -2.5605874007
| 21>  H       -3.1736905945    -0.4470776933    -3.1191311984
| 22>  H        1.1526191270    -1.4393065482    -0.9286110083
| 23>  H        2.1126525880     0.0408694269    -0.4577291823
| 24>  H        0.2044152829    -1.5922559554     1.3735805932
| 25> *
| 26>
| 27>                          ****END OF INPUT****

CARTESIAN COORDINATES (ANGSTROEM)
---------------------------------
  C     -0.011362    1.692525    0.156664
  C     -0.059066    0.180562    0.035412
  C     -1.372288   -0.407819   -0.457014
  C     -1.729644   -0.007784   -1.887366
  O     -2.903502   -0.722803   -2.238496
  C      1.209069   -0.542299   -0.321537
  C      0.666960   -0.649985    1.098633
  C      1.367128   -0.016506    2.178978
  N      1.926686    0.498955    3.051361
  H      0.920060    2.029465    0.618191
  H     -0.087196    2.166422   -0.827123
  H     -0.839211    2.060715    0.772291
  H     -1.329559   -1.502602   -0.423500
  H     -2.190439   -0.104618    0.207350
  H     -1.893065    1.078528   -1.951439
  H     -0.892112   -0.253448   -2.560587
  H     -3.173691   -0.447078   -3.119131
  H      1.152619   -1.439307   -0.928611
  H      2.112653    0.040869   -0.457729
  H      0.204415   -1.592256    1.373581

 Total Charge           Charge          ....    0
 Multiplicity           Mult            ....    1
 Number of Electrons    NEL             ....   68
 Basis Dimension        Dim             ....  345

ORBITAL ENERGIES
----------------

  NO   OCC          E(Eh)            E(eV)
   0   2.0000     -20.567261      -559.6636
   1   2.0000     -15.563058      -423.4923
   2   2.0000     -11.289315      -307.1979
   3   2.0000     -11.280527      -306.9588
   4   2.0000     -11.274082      -306.7834
   5   2.0000     -11.270345      -306.6817
   6   2.0000     -11.257816      -306.3408
   7   2.0000     -11.240116      -305.8591
   8   2.0000     -11.234212      -305.6985
   9   2.0000      -1.371846       -37.3298
  10   2.0000      -1.221085       -33.2274
  11   2.0000      -1.183986       -32.2179
  12   2.0000      -1.040507       -28.3136
  13   2.0000      -0.980316       -26.6757
  14   2.0000      -0.907660       -24.6987
  15   2.0000      -0.872782       -23.7496
  16   2.0000      -0.776113       -21.1191
  17   2.0000      -0.717374       -19.5207
  18   2.0000      -0.712926       -19.3997
  19   2.0000      -0.664143       -18.0722
  20   2.0000      -0.645164       -17.5558
  21   2.0000      -0.606924       -16.5152
  22   2.0000      -0.589405       -16.0385
  23   2.0000      -0.578159       -15.7325
  24   2.0000      -0.568248       -15.4628
  25   2.0000      -0.547101       -14.8874
  26   2.0000      -0.537384       -14.6230
  27   2.0000      -0.518648       -14.1131
  28   2.0000      -0.504915       -13.7394
  29   2.0000      -0.497201       -13.5295
  30   2.0000      -0.474717       -12.9177
  31   2.0000      -0.456759       -12.4290
  32   2.0000      -0.425018       -11.5653
  33   2.0000      -0.404049       -10.9947
  34   0.0000       0.120751         3.2858
  35   0.0000       0.132842         3.6148
  36   0.0000       0.151294         4.1169
  37   0.0000       0.151542         4.1237
  38   0.0000       0.169598         4.6150

MULLIKEN ATOMIC CHARGES
-----------------------
   0 C :   -0.434113
   1 C :    0.080776
   2 C :   -0.157647
   3 C :   -0.108677
   4 O :   -0.461202
   5 C :   -0.289072
   6 C :   -0.020999
   7 C :   -0.222454
   8 N :   -0.058586
   9 H :    0.155483
  10 H :    0.142639
  11 H :    0.143514
  12 H :    0.115423
  13 H :    0.129061
  14 H :    0.105820
  15 H :    0.103190
  16 H :    0.318058
  17 H :    0.148847
  18 H :    0.152295
  19 H :    0.157641
Sum of atomic charges:   -0.0000000

LOEWDIN ATOMIC CHARGES
----------------------
   0 C :   -0.253216
   1 C :   -0.238598
   2 C :   -0.220720
   3 C :   -0.344022
   4 O :   -0.047259
   5 C :   -0.156597
   6 C :   -0.176319
   7 C :   -0.182438
   8 N :    0.056623
   9 H :    0.137658
  10 H :    0.128593
  11 H :    0.134147
  12 H :    0.149600
  13 H :    0.148479
  14 H :    0.115870
  15 H :    0.116865
  16 H :    0.173674
  17 H :    0.140990
  18 H :    0.145168
  19 H :    0.171501

  Mayer bond orders larger than 0.1
B(  0-C ,  1-C ) :   0.9346 B(  0-C ,  9-H ) :   0.9216 B(  0-C , 10-H ) :   0.9380
B(  0-C , 11-H ) :   0.9337 B(  1-C ,  2-C ) :   0.8825 B(  1-C ,  5-C ) :   0.8856
B(  1-C ,  6-C ) :   0.8014 B(  2-C ,  3-C ) :   0.9166 B(  2-C , 12-H ) :   0.9165
B(  2-C , 13-H ) :   0.9262 B(  3-C ,  4-O ) :   1.0248 B(  3-C , 14-H ) :   0.9355
B(  3-C , 15-H ) :   0.9292 B(  4-O , 16-H ) :   0.8473 B(  5-C ,  6-C ) :   0.8499
B(  5-C , 17-H ) :   0.9219 B(  5-C , 18-H ) :   0.9252 B(  6-C ,  7-C ) :   0.9836
B(  6-C , 19-H ) :   0.9062 B(  7-C ,  8-N ) :   2.8512

MP2 TOTAL ENERGY:     -402.464449154 Eh
FINAL SINGLE POINT ENERGY      -402.464449154130

DIPOLE MOMENT
-------------
                                X             Y             Z
Electronic contribution:      3.04029      -1.93731       5.84909
Nuclear contribution   :     -3.63722       1.86444      -7.62403
                        -----------------------------------------
Total Dipole Moment    :     -0.59693      -0.07287      -1.77494
                        -----------------------------------------
Magnitude (a.u.)       :      1.87405
Magnitude (Debye)      :      4.76345

                             ****ORCA TERMINATED NORMALLY****
TOTAL RUN TIME: 0 days 0 hours 18 minutes 49 seconds 680 msec
