                         Program Version 3.0.3 - RELEASE   -
|  1> ! RI-MP2 RIJK def2-TZVP def2-TZVP/C def2-TZVP/JK TIGHTSCF
|  2> % maxcore 2000
|  3> % mp2 density relaxed end
|  4> *xyz 0 1
|  5>  C       -0.1999703292     1.7170296600     0.1657239983
|  6>  C       -0.0968468309     0.2042926954     0.3900190847
|  7>  C       -1.3481253424    -0.5424286213    -0.0569188549
|  8>  C       -1.6520949216    -0.6870334242    -1.5879527603
|  9>  C       -1.8040903777    -2.2146846581    -1.4148453016
| 10>  O       -0.5685183941    -2.9180344709    -1.6710316325
| 11>  C       -0.1901818781    -2.9027428975    -0.2787174688
| 12>  C       -1.4379794409    -2.0820375965     0.1056691199
| 13>  O       -2.1875412992    -2.4688037510     1.2125170830
| 14>  H        0.7133984034     2.2289753346     0.4837393362
| 15>  H       -0.3607276373     1.9507735445    -0.8923091729
| 16>  H       -1.0367227376     2.1437436589     0.7296908140
| 17>  H        0.7774817773    -0.1799454268    -0.1507396258
| 18>  H        0.0814785301     0.0015076821     1.4541030885
| 19>  H       -2.2214881121    -0.1248853598     0.4557659302
| 20>  H       -2.5544552334    -0.1680773901    -1.9192829471
| 21>  H       -0.8254107081    -0.4286465082    -2.2546987094
| 22>  H       -2.6772615226    -2.7237559206    -1.8308741464
| 23>  H       -0.1954747262    -3.9162926979     0.1524274189
| 24>  H        0.7972624801    -2.4579214947    -0.1103152643
| 25>  H       -2.2345619197    -3.4311566978     1.2359563404
| 26> *
| 27>
| 28>                          ****END OF INPUT****

CARTESIAN COORDINATES (ANGSTROEM)
---------------------------------
  C     -0.199970    1.717030    0.165724
  C     -0.096847    0.204293    0.390019
  C     -1.348125   -0.542429   -0.056919
  C     -1.652095   -0.687033   -1.587953
  C     -1.804090   -2.214685   -1.414845
  O     -0.568518   -2.918034   -1.671032
  C     -0.190182   -2.902743   -0.278717
  C     -1.437979   -2.082038    0.105669
  O     -2.187541   -2.468804    1.212517
  H      0.713398    2.228975    0.483739
  H     -0.360728    1.950774   -0.892309
  H     -1.036723    2.143744    0.729691
  H      0.777482   -0.179945   -0.150740
  H      0.081479    0.001508    1.454103
  H     -2.221488   -0.124885    0.455766
  H     -2.554455   -0.168077   -1.919283
  H     -0.825411   -0.428647   -2.254699
  H     -2.677262   -2.723756   -1.830874
  H     -0.195475   -3.916293    0.152427
  H      0.797262   -2.457921   -0.110315
  H     -2.234562   -3.431157    1.235956

 Total Charge           Charge          ....    0
 Multiplicity           Mult            ....    1
 Number of Electrons    NEL             ....   70
 Basis Dimension        Dim             ....  351

ORBITAL ENERGIES
----------------

  NO   OCC          E(Eh)            E(eV)
   0   2.0000     -20.571843      -559.7883
   1   2.0000     -20.551042      -559.2223
   2   2.0000     -11.290014      -307.2169
   3   2.0000     -11.280810      -306.9665
   4   2.0000     -11.278238      -306.8965
   5   2.0000     -11.229746      -305.5769
   6   2.0000     -11.222141      -305.3700
   7   2.0000     -11.221871      -305.3626
   8   2.0000     -11.214879      -305.1724
   9   2.0000      -1.396199       -37.9925
  10   2.0000      -1.366719       -37.1903
  11   2.0000      -1.115302       -30.3489
  12   2.0000      -1.024960       -27.8906
  13   2.0000      -0.966492       -26.2996
  14   2.0000      -0.895468       -24.3669
  15   2.0000      -0.862120       -23.4595
  16   2.0000      -0.813542       -22.1376
  17   2.0000      -0.732288       -19.9266
  18   2.0000      -0.716600       -19.4997
  19   2.0000      -0.673547       -18.3281
  20   2.0000      -0.644083       -17.5264
  21   2.0000      -0.618160       -16.8210
  22   2.0000      -0.602453       -16.3936
  23   2.0000      -0.585879       -15.9426
  24   2.0000      -0.575631       -15.6637
  25   2.0000      -0.557570       -15.1723
  26   2.0000      -0.544082       -14.8052
  27   2.0000      -0.525141       -14.2898
  28   2.0000      -0.513357       -13.9692
  29   2.0000      -0.493255       -13.4221
  30   2.0000      -0.472995       -12.8709
  31   2.0000      -0.461657       -12.5623
  32   2.0000      -0.435802       -11.8588
  33   2.0000      -0.402268       -10.9463
  34   2.0000      -0.392489       -10.6802
  35   0.0000       0.133813         3.6412
  36   0.0000       0.139640         3.7998
  37   0.0000       0.167017         4.5448
  38   0.0000       0.172054         4.6818
  39   0.0000       0.183296         4.9877

MULLIKEN ATOMIC CHARGES
-----------------------
   0 C :   -0.394250
   1 C :   -0.246762
   2 C :   -0.060138
   3 C :   -0.245988
   4 C :    0.017294
   5 O :   -0.332314
   6 C :   -0.067485
   7 C :    0.197333
   8 O :   -0.443251
   9 H :    0.134914
  10 H :    0.129373
  11 H :    0.125167
  12 H :    0.107655
  13 H :    0.122134
  14 H :    0.098619
  15 H :    0.121363
  16 H :    0.113777
  17 H :    0.108249
  18 H :    0.083840
  19 H :    0.109706
  20 H :    0.320764
Sum of atomic charges:   -0.0000000

LOEWDIN ATOMIC CHARGES
----------------------
   0 C :   -0.314892
   1 C :   -0.276818
   2 C :   -0.192173
   3 C :   -0.198079
   4 C :   -0.220861
   5 O :    0.134142
   6 C :   -0.241737
   7 C :   -0.328752
   8 O :    0.027033
   9 H :    0.120978
  10 H :    0.121695
  11 H :    0.121434
  12 H :    0.136880
  13 H :    0.141132
  14 H :    0.160222
  15 H :    0.131920
  16 H :    0.138282
  17 H :    0.124002
  18 H :    0.117081
  19 H :    0.118906
  20 H :    0.179604

  Mayer bond orders larger than 0.1
B(  0-C ,  1-C ) :   0.9205 B(  0-C ,  9-H ) :   0.9414 B(  0-C , 10-H ) :   0.9403
B(  0-C , 11-H ) :   0.9388 B(  1-C ,  2-C ) :   0.9094 B(  1-C , 12-H ) :   0.9296
B(  1-C , 13-H ) :   0.9354 B(  2-C ,  3-C ) :   0.9592 B(  2-C ,  7-C ) :   0.9199
B(  2-C , 14-H ) :   0.8939 B(  3-C ,  4-C ) :   0.9020 B(  3-C , 15-H ) :   0.9067
B(  3-C , 16-H ) :   0.8955 B(  4-C ,  5-O ) :   0.9537 B(  4-C ,  7-C ) :   0.9029
B(  4-C , 17-H ) :   0.9194 B(  5-O ,  6-C ) :   0.9595 B(  6-C ,  7-C ) :   0.9864
B(  6-C , 18-H ) :   0.8980 B(  6-C , 19-H ) :   0.9111 B(  7-C ,  8-O ) :   1.0921
B(  8-O , 20-H ) :   0.8367

MP2 TOTAL ENERGY:     -423.487664822 Eh
FINAL SINGLE POINT ENERGY      -423.487664821688

DIPOLE MOMENT
-------------
                                X             Y             Z
Electronic contribution:     -2.77373      -8.39980      -0.93610
Nuclear contribution   :      2.69039       8.35835       1.22298
                        -----------------------------------------
Total Dipole Moment    :     -0.08334      -0.04145       0.28688
                        -----------------------------------------
Magnitude (a.u.)       :      0.30160
Magnitude (Debye)      :      0.76661

                             ****ORCA TERMINATED NORMALLY****
TOTAL RUN TIME: 0 days 0 hours 29 minutes 4 seconds 762 msec
