                         Program Version 3.0.3 - RELEASE   -
|  1> ! RI-MP2 RIJK def2-TZVP def2-TZVP/C def2-TZVP/JK TIGHTSCF
|  2> % maxcore 2000
|  3> % mp2 density relaxed end
|  4> *xyz 0 1
|  5>  O        0.0415404534     0.0415231766    -0.2921535490
|  6>  C       -0.0147892673     1.1980094905    -0.0222354356
|  7>  C       -1.1327145296     2.1729110546     0.3685049096
|  8>  C       -0.0452730741     3.2031398394     0.7199810949
|  9>  C       -0.1256894470     4.6971534851     0.6768340097
| 10>  C        0.0557439732     3.9809464772     1.9964313945
| 11>  C        1.0799443861     2.3173624947     0.1214905867
| 12>  C        2.2454201302     2.0312625200     0.9315985757
| 13>  N        3.1576961126     1.8166352154     1.6091933443
| 14>  H       -1.7654190934     2.4397570143    -0.4856790644
| 15>  H       -1.7745963075     1.8232036249     1.1821625267
| 16>  H        0.7206097279     5.2438880568     0.2737756128
| 17>  H       -1.0903776519     5.1458885305     0.4630438522
| 18>  H       -0.7868075787     3.9403118543     2.6787477719
| 19>  H        1.0251274540     4.0356887047     2.4807181349
| 20>  H        1.3918641220     2.6494875010    -0.8764238448
| 21> *
| 22>
| 23>                          ****END OF INPUT****

CARTESIAN COORDINATES (ANGSTROEM)
---------------------------------
  O      0.041540    0.041523   -0.292154
  C     -0.014789    1.198009   -0.022235
  C     -1.132715    2.172911    0.368505
  C     -0.045273    3.203140    0.719981
  C     -0.125689    4.697153    0.676834
  C      0.055744    3.980946    1.996431
  C      1.079944    2.317362    0.121491
  C      2.245420    2.031263    0.931599
  N      3.157696    1.816635    1.609193
  H     -1.765419    2.439757   -0.485679
  H     -1.774596    1.823204    1.182163
  H      0.720610    5.243888    0.273776
  H     -1.090378    5.145889    0.463044
  H     -0.786808    3.940312    2.678748
  H      1.025127    4.035689    2.480718
  H      1.391864    2.649488   -0.876424

 Total Charge           Charge          ....    0
 Multiplicity           Mult            ....    1
 Number of Electrons    NEL             ....   64
 Basis Dimension        Dim             ....  321

ORBITAL ENERGIES
----------------

  NO   OCC          E(Eh)            E(eV)
   0   2.0000     -20.583514      -560.1059
   1   2.0000     -15.580085      -423.9557
   2   2.0000     -11.367162      -309.3162
   3   2.0000     -11.303291      -307.5782
   4   2.0000     -11.283475      -307.0390
   5   2.0000     -11.283150      -307.0301
   6   2.0000     -11.268561      -306.6331
   7   2.0000     -11.256272      -306.2987
   8   2.0000     -11.254282      -306.2446
   9   2.0000      -1.428952       -38.8838
  10   2.0000      -1.232351       -33.5340
  11   2.0000      -1.202461       -32.7206
  12   2.0000      -1.102839       -30.0098
  13   2.0000      -0.998213       -27.1628
  14   2.0000      -0.856119       -23.2962
  15   2.0000      -0.800512       -21.7830
  16   2.0000      -0.796126       -21.6637
  17   2.0000      -0.711250       -19.3541
  18   2.0000      -0.693308       -18.8659
  19   2.0000      -0.691157       -18.8073
  20   2.0000      -0.640851       -17.4384
  21   2.0000      -0.621811       -16.9203
  22   2.0000      -0.618353       -16.8262
  23   2.0000      -0.568961       -15.4822
  24   2.0000      -0.543045       -14.7770
  25   2.0000      -0.540547       -14.7090
  26   2.0000      -0.526067       -14.3150
  27   2.0000      -0.492317       -13.3966
  28   2.0000      -0.461901       -12.5690
  29   2.0000      -0.447671       -12.1818
  30   2.0000      -0.442392       -12.0381
  31   2.0000      -0.416171       -11.3246
  32   0.0000       0.100713         2.7405
  33   0.0000       0.121962         3.3188
  34   0.0000       0.142427         3.8756
  35   0.0000       0.147210         4.0058
  36   0.0000       0.158578         4.3151

MULLIKEN ATOMIC CHARGES
-----------------------
   0 O :   -0.210392
   1 C :    0.097872
   2 C :   -0.181117
   3 C :   -0.043379
   4 C :   -0.275169
   5 C :   -0.265946
   6 C :    0.119095
   7 C :   -0.237987
   8 N :   -0.047190
   9 H :    0.149265
  10 H :    0.150208
  11 H :    0.143138
  12 H :    0.139466
  13 H :    0.139881
  14 H :    0.158103
  15 H :    0.164151
Sum of atomic charges:   -0.0000000

LOEWDIN ATOMIC CHARGES
----------------------
   0 O :    0.200362
   1 C :   -0.260282
   2 C :   -0.159145
   3 C :   -0.198201
   4 C :   -0.198804
   5 C :   -0.189850
   6 C :   -0.151007
   7 C :   -0.166720
   8 N :    0.072727
   9 H :    0.154195
  10 H :    0.151127
  11 H :    0.139418
  12 H :    0.137976
  13 H :    0.137906
  14 H :    0.143701
  15 H :    0.186595

  Mayer bond orders larger than 0.1
B(  0-O ,  1-C ) :   2.0780 B(  1-C ,  2-C ) :   0.9113 B(  1-C ,  6-C ) :   0.7660
B(  2-C ,  3-C ) :   0.9012 B(  2-C ,  6-C ) :  -0.1278 B(  2-C ,  9-H ) :   0.8977
B(  2-C , 10-H ) :   0.8943 B(  3-C ,  4-C ) :   0.8568 B(  3-C ,  5-C ) :   0.8673
B(  3-C ,  6-C ) :   0.8630 B(  4-C ,  5-C ) :   0.9215 B(  4-C , 11-H ) :   0.9247
B(  4-C , 12-H ) :   0.9253 B(  5-C , 13-H ) :   0.9262 B(  5-C , 14-H ) :   0.9174
B(  6-C ,  7-C ) :   0.9360 B(  6-C , 15-H ) :   0.8762 B(  7-C ,  8-N ) :   2.8470

MP2 TOTAL ENERGY:     -400.049175628 Eh
FINAL SINGLE POINT ENERGY      -400.049175628100

DIPOLE MOMENT
-------------
                                X             Y             Z
Electronic contribution:      4.35784      -6.78126      -1.44057
Nuclear contribution   :     -5.78429       8.11817       0.95227
                        -----------------------------------------
Total Dipole Moment    :     -1.42645       1.33691      -0.48830
                        -----------------------------------------
Magnitude (a.u.)       :      2.01508
Magnitude (Debye)      :      5.12192

                             ****ORCA TERMINATED NORMALLY****
TOTAL RUN TIME: 0 days 0 hours 16 minutes 5 seconds 815 msec
