                         Program Version 3.0.3 - RELEASE   -
|  1> ! RI-MP2 RIJK def2-TZVP def2-TZVP/C def2-TZVP/JK TIGHTSCF
|  2> % maxcore 2000
|  3> % mp2 density relaxed end
|  4> *xyz 0 1
|  5>  C        0.0367454210     1.3872909396     0.0089769362
|  6>  O        0.0181315738    -0.0200788096     0.0015524126
|  7>  C       -1.2862357070    -0.5531016268     0.0114586531
|  8>  C       -1.1836580435    -2.0730329465     0.0022269970
|  9>  C       -2.5547652876    -2.7528644698     0.0120047023
| 10>  C       -2.4309273276    -4.2894552973     0.0024801197
| 11>  C       -3.7297809261    -4.9592268271     0.0115934848
| 12>  N       -4.7657322520    -5.4712030849     0.0189941763
| 13>  H        1.0833713937     1.7007229274     0.0004390563
| 14>  H       -0.4676572042     1.8080952846    -0.8754771364
| 15>  H       -0.4502243965     1.7984577548     0.9076201105
| 16>  H       -1.8371914287    -0.2107445432     0.9053776814
| 17>  H       -1.8545768983    -0.2011533997    -0.8677296963
| 18>  H       -0.6151567509    -2.3787014606    -0.8845245282
| 19>  H       -0.5978914755    -2.3882152317     0.8742895611
| 20>  H       -3.1239951718    -2.4476552977     0.8973666557
| 21>  H       -3.1412348113    -2.4381611545    -0.8586613648
| 22>  H       -1.8760889342    -4.6194324197    -0.8836219521
| 23>  H       -1.8588301732    -4.6289370972     0.8738960308
| 24> *
| 25>
| 26>                          ****END OF INPUT****

CARTESIAN COORDINATES (ANGSTROEM)
---------------------------------
  C      0.036745    1.387291    0.008977
  O      0.018132   -0.020079    0.001552
  C     -1.286236   -0.553102    0.011459
  C     -1.183658   -2.073033    0.002227
  C     -2.554765   -2.752864    0.012005
  C     -2.430927   -4.289455    0.002480
  C     -3.729781   -4.959227    0.011593
  N     -4.765732   -5.471203    0.018994
  H      1.083371    1.700723    0.000439
  H     -0.467657    1.808095   -0.875477
  H     -0.450224    1.798458    0.907620
  H     -1.837191   -0.210745    0.905378
  H     -1.854577   -0.201153   -0.867730
  H     -0.615157   -2.378701   -0.884525
  H     -0.597891   -2.388215    0.874290
  H     -3.123995   -2.447655    0.897367
  H     -3.141235   -2.438161   -0.858661
  H     -1.876089   -4.619432   -0.883622
  H     -1.858830   -4.628937    0.873896

 Total Charge           Charge          ....    0
 Multiplicity           Mult            ....    1
 Number of Electrons    NEL             ....   62
 Basis Dimension        Dim             ....  314

ORBITAL ENERGIES
----------------

  NO   OCC          E(Eh)            E(eV)
   0   2.0000     -20.564184      -559.5799
   1   2.0000     -15.567089      -423.6020
   2   2.0000     -11.286519      -307.1218
   3   2.0000     -11.283878      -307.0499
   4   2.0000     -11.277787      -306.8842
   5   2.0000     -11.271755      -306.7201
   6   2.0000     -11.254528      -306.2513
   7   2.0000     -11.238724      -305.8212
   8   2.0000      -1.385818       -37.7100
   9   2.0000      -1.217390       -33.1269
  10   2.0000      -1.109247       -30.1841
  11   2.0000      -1.031372       -28.0651
  12   2.0000      -0.943235       -25.6667
  13   2.0000      -0.876605       -23.8536
  14   2.0000      -0.825115       -22.4525
  15   2.0000      -0.701824       -19.0976
  16   2.0000      -0.693052       -18.8589
  17   2.0000      -0.662860       -18.0373
  18   2.0000      -0.660509       -17.9734
  19   2.0000      -0.633925       -17.2500
  20   2.0000      -0.598178       -16.2772
  21   2.0000      -0.582262       -15.8441
  22   2.0000      -0.556882       -15.1535
  23   2.0000      -0.542508       -14.7624
  24   2.0000      -0.517839       -14.0911
  25   2.0000      -0.511747       -13.9253
  26   2.0000      -0.496652       -13.5146
  27   2.0000      -0.486512       -13.2387
  28   2.0000      -0.456469       -12.4212
  29   2.0000      -0.452590       -12.3156
  30   2.0000      -0.432734       -11.7753
  31   0.0000       0.117581         3.1995
  32   0.0000       0.137120         3.7312
  33   0.0000       0.160316         4.3624
  34   0.0000       0.161710         4.4004
  35   0.0000       0.167109         4.5473

MULLIKEN ATOMIC CHARGES
-----------------------
   0 C :   -0.216347
   1 O :   -0.300210
   2 C :   -0.057118
   3 C :   -0.159536
   4 C :   -0.274441
   5 C :   -0.119385
   6 C :   -0.176524
   7 N :   -0.059016
   8 H :    0.140714
   9 H :    0.112490
  10 H :    0.112489
  11 H :    0.092515
  12 H :    0.092515
  13 H :    0.117451
  14 H :    0.117451
  15 H :    0.131894
  16 H :    0.131895
  17 H :    0.156579
  18 H :    0.156581
Sum of atomic charges:    0.0000000

LOEWDIN ATOMIC CHARGES
----------------------
   0 C :   -0.360530
   1 O :    0.134105
   2 C :   -0.331949
   3 C :   -0.265876
   4 C :   -0.247788
   5 C :   -0.245509
   6 C :   -0.194398
   7 N :    0.054089
   8 H :    0.114114
   9 H :    0.101573
  10 H :    0.101573
  11 H :    0.119368
  12 H :    0.119368
  13 H :    0.142114
  14 H :    0.142114
  15 H :    0.144715
  16 H :    0.144715
  17 H :    0.164102
  18 H :    0.164101

  Mayer bond orders larger than 0.1
B(  0-C ,  1-O ) :   0.9172 B(  0-C ,  8-H ) :   0.9392 B(  0-C ,  9-H ) :   0.9372
B(  0-C , 10-H ) :   0.9372 B(  1-O ,  2-C ) :   0.9686 B(  2-C ,  3-C ) :   0.9533
B(  2-C , 11-H ) :   0.9252 B(  2-C , 12-H ) :   0.9252 B(  3-C ,  4-C ) :   0.9181
B(  3-C , 13-H ) :   0.9227 B(  3-C , 14-H ) :   0.9227 B(  4-C ,  5-C ) :   0.9256
B(  4-C , 15-H ) :   0.9247 B(  4-C , 16-H ) :   0.9247 B(  5-C ,  6-C ) :   0.9361
B(  5-C , 17-H ) :   0.9092 B(  5-C , 18-H ) :   0.9092 B(  6-C ,  7-N ) :   2.8834

MP2 TOTAL ENERGY:     -364.448858010 Eh
FINAL SINGLE POINT ENERGY      -364.448858009809

DIPOLE MOMENT
-------------
                                X             Y             Z
Electronic contribution:     -4.79021      -8.55086       0.00076
Nuclear contribution   :      5.81262       9.68357      -0.00467
                        -----------------------------------------
Total Dipole Moment    :      1.02241       1.13271      -0.00391
                        -----------------------------------------
Magnitude (a.u.)       :      1.52590
Magnitude (Debye)      :      3.87853

                             ****ORCA TERMINATED NORMALLY****
TOTAL RUN TIME: 0 days 0 hours 10 minutes 21 seconds 869 msec
