                         Program Version 3.0.3 - RELEASE   -
|  1> ! RI-MP2 RIJK def2-TZVP def2-TZVP/C def2-TZVP/JK TIGHTSCF
|  2> % maxcore 2000
|  3> % mp2 density relaxed end
|  4> *xyz 0 1
|  5>  C        0.1238849839     1.7492467581    -0.3113560285
|  6>  C       -0.0266727623     0.2448073911    -0.1065977355
|  7>  C       -1.4453103145    -0.2154961308    -0.3562014839
|  8>  O       -1.7709815391    -1.3616030720    -0.5482255039
|  9>  C        1.0852647046    -0.6908815800    -0.6593975995
| 10>  C        2.0413991450    -0.3796072549     0.5354181826
| 11>  O        2.3069597550    -1.7716364296     0.8465711662
| 12>  C        0.8934490194    -1.7417357277     0.4763191528
| 13>  C        0.6186947434    -0.3749093743     1.1785257582
| 14>  H        1.1390341304     2.0862126090    -0.0863711126
| 15>  H       -0.0985913355     2.0334563580    -1.3460439868
| 16>  H       -0.5614742998     2.3066821953     0.3371374863
| 17>  H       -2.2122424777     0.5939806862    -0.3385274555
| 18>  H        1.3603094079    -0.8849122512    -1.6958958971
| 19>  H        2.8532225784     0.3409857093     0.6212144505
| 20>  H        0.3254281778    -2.6660536903     0.4856411146
| 21>  H        0.3635893531    -0.2042153361     2.2247045923
| 22> *
| 23>
| 24>                          ****END OF INPUT****

CARTESIAN COORDINATES (ANGSTROEM)
---------------------------------
  C      0.123885    1.749247   -0.311356
  C     -0.026673    0.244807   -0.106598
  C     -1.445310   -0.215496   -0.356201
  O     -1.770982   -1.361603   -0.548226
  C      1.085265   -0.690882   -0.659398
  C      2.041399   -0.379607    0.535418
  O      2.306960   -1.771636    0.846571
  C      0.893449   -1.741736    0.476319
  C      0.618695   -0.374909    1.178526
  H      1.139034    2.086213   -0.086371
  H     -0.098591    2.033456   -1.346044
  H     -0.561474    2.306682    0.337137
  H     -2.212242    0.593981   -0.338527
  H      1.360309   -0.884912   -1.695896
  H      2.853223    0.340986    0.621214
  H      0.325428   -2.666054    0.485641
  H      0.363589   -0.204215    2.224705

 Total Charge           Charge          ....    0
 Multiplicity           Mult            ....    1
 Number of Electrons    NEL             ....   66
 Basis Dimension        Dim             ....  327

ORBITAL ENERGIES
----------------

  NO   OCC          E(Eh)            E(eV)
   0   2.0000     -20.563984      -559.5745
   1   2.0000     -20.551643      -559.2386
   2   2.0000     -11.337816      -308.5177
   3   2.0000     -11.311101      -307.7907
   4   2.0000     -11.306119      -307.6551
   5   2.0000     -11.267237      -306.5971
   6   2.0000     -11.265121      -306.5395
   7   2.0000     -11.260751      -306.4206
   8   2.0000     -11.240792      -305.8775
   9   2.0000      -1.412311       -38.4309
  10   2.0000      -1.401475       -38.1361
  11   2.0000      -1.183346       -32.2005
  12   2.0000      -1.027680       -27.9646
  13   2.0000      -0.913387       -24.8545
  14   2.0000      -0.895217       -24.3601
  15   2.0000      -0.884549       -24.0698
  16   2.0000      -0.797547       -21.7024
  17   2.0000      -0.720569       -19.6077
  18   2.0000      -0.708915       -19.2906
  19   2.0000      -0.672728       -18.3058
  20   2.0000      -0.663186       -18.0462
  21   2.0000      -0.629584       -17.1318
  22   2.0000      -0.608534       -16.5590
  23   2.0000      -0.576001       -15.6738
  24   2.0000      -0.561558       -15.2808
  25   2.0000      -0.553407       -15.0590
  26   2.0000      -0.541363       -14.7312
  27   2.0000      -0.490095       -13.3362
  28   2.0000      -0.457785       -12.4570
  29   2.0000      -0.452971       -12.3260
  30   2.0000      -0.446833       -12.1589
  31   2.0000      -0.413270       -11.2457
  32   2.0000      -0.405305       -11.0289
  33   0.0000       0.110412         3.0045
  34   0.0000       0.127562         3.4711
  35   0.0000       0.161164         4.3855
  36   0.0000       0.172515         4.6944
  37   0.0000       0.178806         4.8656

MULLIKEN ATOMIC CHARGES
-----------------------
   0 C :   -0.441341
   1 C :    0.026949
   2 C :    0.066788
   3 O :   -0.271267
   4 C :   -0.048763
   5 C :   -0.029681
   6 O :   -0.332924
   7 C :   -0.004983
   8 C :   -0.067135
   9 H :    0.142027
  10 H :    0.145173
  11 H :    0.140895
  12 H :    0.088363
  13 H :    0.150385
  14 H :    0.134754
  15 H :    0.151371
  16 H :    0.149389
Sum of atomic charges:    0.0000000

LOEWDIN ATOMIC CHARGES
----------------------
   0 C :   -0.265913
   1 C :   -0.245347
   2 C :   -0.248807
   3 O :    0.146124
   4 C :   -0.090956
   5 C :   -0.198200
   6 O :    0.135044
   7 C :   -0.182082
   8 C :   -0.090203
   9 H :    0.131827
  10 H :    0.130934
  11 H :    0.130136
  12 H :    0.116824
  13 H :    0.135239
  14 H :    0.127571
  15 H :    0.133959
  16 H :    0.133851

  Mayer bond orders larger than 0.1
B(  0-C ,  1-C ) :   0.9056 B(  0-C ,  9-H ) :   0.9340 B(  0-C , 10-H ) :   0.9357
B(  0-C , 11-H ) :   0.9305 B(  1-C ,  2-C ) :   0.8408 B(  1-C ,  4-C ) :   0.8783
B(  1-C ,  8-C ) :   0.8883 B(  2-C ,  3-O ) :   1.9903 B(  2-C , 12-H ) :   0.9550
B(  4-C ,  5-C ) :   0.8686 B(  4-C ,  7-C ) :   0.8963 B(  4-C , 13-H ) :   0.8847
B(  5-C ,  6-O ) :   0.9448 B(  5-C ,  8-C ) :   0.8720 B(  5-C , 14-H ) :   0.9127
B(  6-O ,  7-C ) :   0.9226 B(  7-C ,  8-C ) :   0.9117 B(  7-C , 15-H ) :   0.8790
B(  8-C , 16-H ) :   0.8836

MP2 TOTAL ENERGY:     -421.026879993 Eh
FINAL SINGLE POINT ENERGY      -421.026879992803

DIPOLE MOMENT
-------------
                                X             Y             Z
Electronic contribution:      0.04269      -5.87217       0.61102
Nuclear contribution   :     -0.13221       7.18584      -0.65996
                        -----------------------------------------
Total Dipole Moment    :     -0.08951       1.31367      -0.04894
                        -----------------------------------------
Magnitude (a.u.)       :      1.31763
Magnitude (Debye)      :      3.34914

                             ****ORCA TERMINATED NORMALLY****
TOTAL RUN TIME: 0 days 0 hours 19 minutes 28 seconds 448 msec
