                         Program Version 3.0.3 - RELEASE   -
|  1> ! RI-MP2 RIJK def2-TZVP def2-TZVP/C def2-TZVP/JK TIGHTSCF
|  2> % maxcore 2000
|  3> % mp2 density relaxed end
|  4> *xyz 0 1
|  5>  C       -0.0510760970     1.6039103815    -0.1800081155
|  6>  C        0.0699562723     0.0879969270    -0.0586953395
|  7>  C        1.1632313174    -0.6996195987    -0.8431265978
|  8>  C        2.5189980362    -0.1039756092    -0.3721045139
|  9>  C        2.1755995487    -0.6870313644     0.9964886939
| 10>  C        1.2400278043    -1.7011067126     0.3807464136
| 11>  C        0.6519862853    -0.5739584376     1.1993205052
| 12>  C        0.0395552069    -0.6450407243     2.5648639242
| 13>  O        0.2044827005     0.5468753317     3.3289046590
| 14>  H        0.8695738025     2.1174189498     0.1104292555
| 15>  H       -0.2928415198     1.8996535179    -1.2074380880
| 16>  H       -0.8576964351     1.9842637202     0.4591027286
| 17>  H       -0.9022154871    -0.3762470225    -0.2683300329
| 18>  H        1.0054928430    -0.9685281360    -1.8861092180
| 19>  H        3.3594245130    -0.6387286168    -0.8238857351
| 20>  H        2.6795359416     0.9744613355    -0.4778527267
| 21>  H        2.8256050687    -0.8182486959     1.8524123715
| 22>  H        1.1614780579    -2.7747233472     0.4748121086
| 23>  H       -1.0268237600    -0.9124797301     2.4818584111
| 24>  H        0.5224808508    -1.4356637879     3.1505660334
| 25>  H       -0.2003256401     1.2671820195     2.8360425429
| 26> *
| 27>
| 28>                          ****END OF INPUT****

CARTESIAN COORDINATES (ANGSTROEM)
---------------------------------
  C     -0.051076    1.603910   -0.180008
  C      0.069956    0.087997   -0.058695
  C      1.163231   -0.699620   -0.843127
  C      2.518998   -0.103976   -0.372105
  C      2.175600   -0.687031    0.996489
  C      1.240028   -1.701107    0.380746
  C      0.651986   -0.573958    1.199321
  C      0.039555   -0.645041    2.564864
  O      0.204483    0.546875    3.328905
  H      0.869574    2.117419    0.110429
  H     -0.292842    1.899654   -1.207438
  H     -0.857696    1.984264    0.459103
  H     -0.902215   -0.376247   -0.268330
  H      1.005493   -0.968528   -1.886109
  H      3.359425   -0.638729   -0.823886
  H      2.679536    0.974461   -0.477853
  H      2.825605   -0.818249    1.852412
  H      1.161478   -2.774723    0.474812
  H     -1.026824   -0.912480    2.481858
  H      0.522481   -1.435664    3.150566
  H     -0.200326    1.267182    2.836043

 Total Charge           Charge          ....    0
 Multiplicity           Mult            ....    1
 Number of Electrons    NEL             ....   68
 Basis Dimension        Dim             ....  351

ORBITAL ENERGIES
----------------

  NO   OCC          E(Eh)            E(eV)
   0   2.0000     -20.550442      -559.2060
   1   2.0000     -11.275434      -306.8202
   2   2.0000     -11.237725      -305.7940
   3   2.0000     -11.233417      -305.6768
   4   2.0000     -11.232663      -305.6563
   5   2.0000     -11.231640      -305.6285
   6   2.0000     -11.231008      -305.6113
   7   2.0000     -11.223250      -305.4002
   8   2.0000     -11.216540      -305.2176
   9   2.0000      -1.353510       -36.8309
  10   2.0000      -1.231375       -33.5074
  11   2.0000      -1.021047       -27.7841
  12   2.0000      -0.997563       -27.1451
  13   2.0000      -0.917155       -24.9571
  14   2.0000      -0.904412       -24.6103
  15   2.0000      -0.821609       -22.3571
  16   2.0000      -0.736710       -20.0469
  17   2.0000      -0.718348       -19.5472
  18   2.0000      -0.698042       -18.9947
  19   2.0000      -0.663817       -18.0634
  20   2.0000      -0.620708       -16.8903
  21   2.0000      -0.612358       -16.6631
  22   2.0000      -0.585195       -15.9240
  23   2.0000      -0.573432       -15.6039
  24   2.0000      -0.557752       -15.1772
  25   2.0000      -0.545051       -14.8316
  26   2.0000      -0.523925       -14.2567
  27   2.0000      -0.500481       -13.6188
  28   2.0000      -0.471131       -12.8201
  29   2.0000      -0.456456       -12.4208
  30   2.0000      -0.434059       -11.8113
  31   2.0000      -0.425343       -11.5742
  32   2.0000      -0.384062       -10.4509
  33   2.0000      -0.367350        -9.9961
  34   0.0000       0.128295         3.4911
  35   0.0000       0.155407         4.2288
  36   0.0000       0.158865         4.3229
  37   0.0000       0.167927         4.5695
  38   0.0000       0.190050         5.1715

MULLIKEN ATOMIC CHARGES
-----------------------
   0 C :   -0.451420
   1 C :   -0.001418
   2 C :   -0.048604
   3 C :   -0.223624
   4 C :   -0.149738
   5 C :   -0.207348
   6 C :   -0.091512
   7 C :   -0.020536
   8 O :   -0.465245
   9 H :    0.142166
  10 H :    0.136788
  11 H :    0.122297
  12 H :    0.092494
  13 H :    0.133188
  14 H :    0.114595
  15 H :    0.108999
  16 H :    0.134003
  17 H :    0.147380
  18 H :    0.105231
  19 H :    0.110987
  20 H :    0.311318
Sum of atomic charges:    0.0000000

LOEWDIN ATOMIC CHARGES
----------------------
   0 C :   -0.300585
   1 C :   -0.200952
   2 C :   -0.136956
   3 C :   -0.199360
   4 C :   -0.144073
   5 C :   -0.100965
   6 C :   -0.186977
   7 C :   -0.306573
   8 O :   -0.049538
   9 H :    0.124978
  10 H :    0.126859
  11 H :    0.120020
  12 H :    0.156698
  13 H :    0.130021
  14 H :    0.139532
  15 H :    0.121252
  16 H :    0.141205
  17 H :    0.134116
  18 H :    0.123431
  19 H :    0.137500
  20 H :    0.170367

  Mayer bond orders larger than 0.1
B(  0-C ,  1-C ) :   0.8759 B(  0-C ,  9-H ) :   0.9404 B(  0-C , 10-H ) :   0.9342
B(  0-C , 11-H ) :   0.9395 B(  1-C ,  2-C ) :   0.9132 B(  1-C ,  6-C ) :   0.9423
B(  1-C , 12-H ) :   0.9209 B(  2-C ,  3-C ) :   0.9121 B(  2-C ,  5-C ) :   0.9218
B(  2-C , 13-H ) :   0.9115 B(  3-C ,  4-C ) :   0.9445 B(  3-C , 14-H ) :   0.9255
B(  3-C , 15-H ) :   0.9242 B(  4-C ,  5-C ) :   0.8704 B(  4-C ,  6-C ) :   0.8090
B(  4-C , 16-H ) :   0.9299 B(  5-C ,  6-C ) :   0.8149 B(  5-C , 17-H ) :   0.9047
B(  6-C ,  7-C ) :   0.9447 B(  7-C ,  8-O ) :   0.9132 B(  7-C , 18-H ) :   0.9341
B(  7-C , 19-H ) :   0.9180 B(  8-O , 20-H ) :   0.8509

MP2 TOTAL ENERGY:     -386.364650769 Eh
FINAL SINGLE POINT ENERGY      -386.364650768523

DIPOLE MOMENT
-------------
                                X             Y             Z
Electronic contribution:      0.82415      -2.55555       2.46848
Nuclear contribution   :     -1.06573       2.44777      -3.13190
                        -----------------------------------------
Total Dipole Moment    :     -0.24159      -0.10778      -0.66342
                        -----------------------------------------
Magnitude (a.u.)       :      0.71422
Magnitude (Debye)      :      1.81540

                             ****ORCA TERMINATED NORMALLY****
TOTAL RUN TIME: 0 days 0 hours 19 minutes 14 seconds 675 msec
