                         Program Version 3.0.3 - RELEASE   -
|  1> ! RI-MP2 RIJK def2-TZVP def2-TZVP/C def2-TZVP/JK TIGHTSCF
|  2> % maxcore 2000
|  3> % mp2 density relaxed end
|  4> *xyz 0 1
|  5>  O        0.0019876721     1.4092512807     0.0463960176
|  6>  C       -0.0145096395     0.0297170461     0.0342823194
|  7>  C       -0.3518962002    -0.7799187704    -1.1819351020
|  8>  C       -1.2210876612    -0.8913103716     0.0551383723
|  9>  C       -0.5404665472    -1.8079438971     1.0751794288
| 10>  C        0.7006513439    -0.8316663335     1.1030221564
| 11>  C        2.0187726252    -1.3547668203     0.7980816774
| 12>  C        3.1030882342    -1.7932015729     0.5148896895
| 13>  H        0.7252846064     1.7090241953    -0.5157760565
| 14>  H       -0.7904873431    -0.1962347186    -1.9850315351
| 15>  H        0.2725382676    -1.6102802469    -1.5033668058
| 16>  H       -2.2730497239    -0.6372178081     0.0338857547
| 17>  H       -1.0434588793    -1.8538187835     2.0426219096
| 18>  H       -0.3244187977    -2.8232482333     0.7324956392
| 19>  H        0.7161107253    -0.2841258694     2.0499452116
| 20>  H        4.0631894774    -2.1792324167     0.2771825228
| 21> *
| 22>
| 23>                          ****END OF INPUT****

CARTESIAN COORDINATES (ANGSTROEM)
---------------------------------
  O      0.001988    1.409251    0.046396
  C     -0.014510    0.029717    0.034282
  C     -0.351896   -0.779919   -1.181935
  C     -1.221088   -0.891310    0.055138
  C     -0.540467   -1.807944    1.075179
  C      0.700651   -0.831666    1.103022
  C      2.018773   -1.354767    0.798082
  C      3.103088   -1.793202    0.514890
  H      0.725285    1.709024   -0.515776
  H     -0.790487   -0.196235   -1.985032
  H      0.272538   -1.610280   -1.503367
  H     -2.273050   -0.637218    0.033886
  H     -1.043459   -1.853819    2.042622
  H     -0.324419   -2.823248    0.732496
  H      0.716111   -0.284126    2.049945
  H      4.063189   -2.179232    0.277183

 Total Charge           Charge          ....    0
 Multiplicity           Mult            ....    1
 Number of Electrons    NEL             ....   58
 Basis Dimension        Dim             ....  296

ORBITAL ENERGIES
----------------

  NO   OCC          E(Eh)            E(eV)
   0   2.0000     -20.572509      -559.8064
   1   2.0000     -11.296345      -307.3892
   2   2.0000     -11.258663      -306.3638
   3   2.0000     -11.238306      -305.8099
   4   2.0000     -11.236681      -305.7656
   5   2.0000     -11.232822      -305.6606
   6   2.0000     -11.230982      -305.6106
   7   2.0000     -11.221392      -305.3496
   8   2.0000      -1.385104       -37.6906
   9   2.0000      -1.191680       -32.4273
  10   2.0000      -1.049660       -28.5627
  11   2.0000      -0.984758       -26.7966
  12   2.0000      -0.905847       -24.6494
  13   2.0000      -0.824671       -22.4404
  14   2.0000      -0.761533       -20.7224
  15   2.0000      -0.727209       -19.7884
  16   2.0000      -0.708049       -19.2670
  17   2.0000      -0.655068       -17.8253
  18   2.0000      -0.642947       -17.4955
  19   2.0000      -0.629288       -17.1238
  20   2.0000      -0.556704       -15.1487
  21   2.0000      -0.548856       -14.9351
  22   2.0000      -0.539917       -14.6919
  23   2.0000      -0.498003       -13.5514
  24   2.0000      -0.490538       -13.3482
  25   2.0000      -0.415117       -11.2959
  26   2.0000      -0.392755       -10.6874
  27   2.0000      -0.380151       -10.3444
  28   2.0000      -0.372544       -10.1374
  29   0.0000       0.140706         3.8288
  30   0.0000       0.149499         4.0681
  31   0.0000       0.165133         4.4935
  32   0.0000       0.166959         4.5432
  33   0.0000       0.178088         4.8460

MULLIKEN ATOMIC CHARGES
-----------------------
   0 O :   -0.454097
   1 C :    0.198809
   2 C :   -0.316338
   3 C :   -0.134522
   4 C :   -0.211734
   5 C :   -0.149015
   6 C :   -0.063449
   7 C :   -0.174453
   8 H :    0.332678
   9 H :    0.135867
  10 H :    0.137551
  11 H :    0.136834
  12 H :    0.125257
  13 H :    0.125492
  14 H :    0.123083
  15 H :    0.188037
Sum of atomic charges:    0.0000000

LOEWDIN ATOMIC CHARGES
----------------------
   0 O :    0.035539
   1 C :   -0.314473
   2 C :   -0.191023
   3 C :   -0.162347
   4 C :   -0.171235
   5 C :   -0.175016
   6 C :   -0.092669
   7 C :   -0.103597
   8 H :    0.189353
   9 H :    0.143699
  10 H :    0.135297
  11 H :    0.138309
  12 H :    0.135838
  13 H :    0.133968
  14 H :    0.172332
  15 H :    0.126026

  Mayer bond orders larger than 0.1
B(  0-O ,  1-C ) :   1.0442 B(  0-O ,  8-H ) :   0.8325 B(  1-C ,  2-C ) :   0.9194
B(  1-C ,  3-C ) :   0.8403 B(  1-C ,  5-C ) :   0.9107 B(  2-C ,  3-C ) :   0.8705
B(  2-C ,  9-H ) :   0.9306 B(  2-C , 10-H ) :   0.8965 B(  3-C ,  4-C ) :   0.9459
B(  3-C , 11-H ) :   0.9055 B(  4-C ,  5-C ) :   0.9293 B(  4-C , 12-H ) :   0.9263
B(  4-C , 13-H ) :   0.9166 B(  5-C ,  6-C ) :   1.1346 B(  5-C , 14-H ) :   0.9072
B(  6-C ,  7-C ) :   2.5693 B(  7-C , 15-H ) :   0.9038

MP2 TOTAL ENERGY:     -345.923148078 Eh
FINAL SINGLE POINT ENERGY      -345.923148078477

DIPOLE MOMENT
-------------
                                X             Y             Z
Electronic contribution:      2.02038       2.04671       0.76165
Nuclear contribution   :     -1.91992      -2.17809      -1.07181
                        -----------------------------------------
Total Dipole Moment    :      0.10047      -0.13138      -0.31016
                        -----------------------------------------
Magnitude (a.u.)       :      0.35151
Magnitude (Debye)      :      0.89346

                             ****ORCA TERMINATED NORMALLY****
TOTAL RUN TIME: 0 days 0 hours 12 minutes 27 seconds 790 msec
