                         Program Version 3.0.3 - RELEASE   -
|  1> ! RI-MP2 RIJK def2-TZVP def2-TZVP/C def2-TZVP/JK TIGHTSCF
|  2> % maxcore 2000
|  3> % mp2 density relaxed end
|  4> *xyz 0 1
|  5>  C       -0.2123572497     1.4516302167    -0.0692059250
|  6>  C        0.0251280935    -0.0288717410     0.0544536522
|  7>  O       -1.2007149844    -0.8017504913    -0.0091461077
|  8>  C       -0.8935254842    -1.4785546732     1.2343062682
|  9>  C        0.4935750307    -0.8242417194     1.3122497942
| 10>  N        1.6446239108    -1.4079632463     0.5480334729
| 11>  C        1.4558711380    -2.7261121461    -0.1430041682
| 12>  C        0.9837270645    -2.0250150671    -1.4500581031
| 13>  C        1.2090329935    -0.6885987756    -0.7072520111
| 14>  H        0.7234019891     2.0067379668     0.0496507938
| 15>  H       -0.6233777248     1.6830724439    -1.0586991286
| 16>  H       -0.9262926529     1.7994334794     0.6831447434
| 17>  H       -1.5651563355    -1.1499583318     2.0385951364
| 18>  H       -0.9580296620    -2.5678526665     1.1475082992
| 19>  H        0.7885143663    -0.3892989838     2.2689610989
| 20>  H        2.4106452465    -3.2538649447    -0.2290586536
| 21>  H        0.7414341538    -3.4051686835     0.3303986037
| 22>  H        1.6251444962    -2.1816292311    -2.3192772861
| 23>  H       -0.0557461299    -2.2083787213    -1.7251302726
| 24>  H        1.9292314406     0.0128563759    -1.1433245371
| 25> *
| 26>
| 27>                          ****END OF INPUT****

CARTESIAN COORDINATES (ANGSTROEM)
---------------------------------
  C     -0.212357    1.451630   -0.069206
  C      0.025128   -0.028872    0.054454
  O     -1.200715   -0.801750   -0.009146
  C     -0.893525   -1.478555    1.234306
  C      0.493575   -0.824242    1.312250
  N      1.644624   -1.407963    0.548033
  C      1.455871   -2.726112   -0.143004
  C      0.983727   -2.025015   -1.450058
  C      1.209033   -0.688599   -0.707252
  H      0.723402    2.006738    0.049651
  H     -0.623378    1.683072   -1.058699
  H     -0.926293    1.799433    0.683145
  H     -1.565156   -1.149958    2.038595
  H     -0.958030   -2.567853    1.147508
  H      0.788514   -0.389299    2.268961
  H      2.410645   -3.253865   -0.229059
  H      0.741434   -3.405169    0.330399
  H      1.625144   -2.181629   -2.319277
  H     -0.055746   -2.208379   -1.725130
  H      1.929231    0.012856   -1.143325

 Total Charge           Charge          ....    0
 Multiplicity           Mult            ....    1
 Number of Electrons    NEL             ....   68
 Basis Dimension        Dim             ....  345

ORBITAL ENERGIES
----------------

  NO   OCC          E(Eh)            E(eV)
   0   2.0000     -20.549582      -559.1825
   1   2.0000     -15.542122      -422.9226
   2   2.0000     -11.289680      -307.2078
   3   2.0000     -11.281273      -306.9791
   4   2.0000     -11.258482      -306.3589
   5   2.0000     -11.253652      -306.2274
   6   2.0000     -11.250113      -306.1311
   7   2.0000     -11.221525      -305.3532
   8   2.0000     -11.221390      -305.3495
   9   2.0000      -1.386068       -37.7168
  10   2.0000      -1.245410       -33.8893
  11   2.0000      -1.037255       -28.2251
  12   2.0000      -1.016596       -27.6630
  13   2.0000      -0.934845       -25.4384
  14   2.0000      -0.926217       -25.2036
  15   2.0000      -0.839917       -22.8553
  16   2.0000      -0.787724       -21.4350
  17   2.0000      -0.707643       -19.2559
  18   2.0000      -0.689876       -18.7725
  19   2.0000      -0.659643       -17.9498
  20   2.0000      -0.638868       -17.3845
  21   2.0000      -0.613940       -16.7062
  22   2.0000      -0.584519       -15.9056
  23   2.0000      -0.573523       -15.6064
  24   2.0000      -0.568873       -15.4798
  25   2.0000      -0.545230       -14.8365
  26   2.0000      -0.531860       -14.4726
  27   2.0000      -0.506147       -13.7730
  28   2.0000      -0.486146       -13.2287
  29   2.0000      -0.463904       -12.6235
  30   2.0000      -0.450936       -12.2706
  31   2.0000      -0.418582       -11.3902
  32   2.0000      -0.400416       -10.8959
  33   2.0000      -0.351115        -9.5543
  34   0.0000       0.140146         3.8136
  35   0.0000       0.152730         4.1560
  36   0.0000       0.158946         4.3251
  37   0.0000       0.173910         4.7323
  38   0.0000       0.188182         5.1207

MULLIKEN ATOMIC CHARGES
-----------------------
   0 C :   -0.416118
   1 C :    0.280096
   2 O :   -0.350282
   3 C :   -0.028551
   4 C :   -0.160086
   5 N :   -0.164315
   6 C :   -0.152389
   7 C :   -0.286521
   8 C :   -0.046445
   9 H :    0.137023
  10 H :    0.140151
  11 H :    0.135752
  12 H :    0.103646
  13 H :    0.102494
  14 H :    0.117295
  15 H :    0.119523
  16 H :    0.101064
  17 H :    0.124297
  18 H :    0.136446
  19 H :    0.106920
Sum of atomic charges:    0.0000000

LOEWDIN ATOMIC CHARGES
----------------------
   0 C :   -0.272994
   1 C :   -0.289022
   2 O :    0.154527
   3 C :   -0.256173
   4 C :   -0.201802
   5 N :    0.108877
   6 C :   -0.248756
   7 C :   -0.227253
   8 C :   -0.175529
   9 H :    0.132428
  10 H :    0.134973
  11 H :    0.130345
  12 H :    0.122816
  13 H :    0.116998
  14 H :    0.131953
  15 H :    0.123454
  16 H :    0.116955
  17 H :    0.128348
  18 H :    0.137018
  19 H :    0.132836

  Mayer bond orders larger than 0.1
B(  0-C ,  1-C ) :   0.8727 B(  0-C ,  9-H ) :   0.9368 B(  0-C , 10-H ) :   0.9378
B(  0-C , 11-H ) :   0.9390 B(  1-C ,  2-O ) :   0.9078 B(  1-C ,  4-C ) :   0.8978
B(  1-C ,  8-C ) :   0.9335 B(  2-O ,  3-C ) :   0.9292 B(  3-C ,  4-C ) :   0.9870
B(  3-C , 12-H ) :   0.9102 B(  3-C , 13-H ) :   0.9073 B(  4-C ,  5-N ) :   0.9634
B(  4-C , 14-H ) :   0.9118 B(  5-N ,  6-C ) :   0.9013 B(  5-N ,  8-C ) :   0.9421
B(  6-C ,  7-C ) :   0.9783 B(  6-C , 15-H ) :   0.9206 B(  6-C , 16-H ) :   0.9291
B(  7-C ,  8-C ) :   0.9200 B(  7-C , 17-H ) :   0.9264 B(  7-C , 18-H ) :   0.9022
B(  8-C , 19-H ) :   0.8884

MP2 TOTAL ENERGY:     -402.382313882 Eh
FINAL SINGLE POINT ENERGY      -402.382313882337

DIPOLE MOMENT
-------------
                                X             Y             Z
Electronic contribution:     -0.16983      -0.66096       0.90777
Nuclear contribution   :      0.13399       0.68644      -0.81228
                        -----------------------------------------
Total Dipole Moment    :     -0.03584       0.02549       0.09549
                        -----------------------------------------
Magnitude (a.u.)       :      0.10513
Magnitude (Debye)      :      0.26721

                             ****ORCA TERMINATED NORMALLY****
TOTAL RUN TIME: 0 days 0 hours 20 minutes 37 seconds 358 msec
