                         Program Version 3.0.3 - RELEASE   -
|  1> ! RI-MP2 RIJK def2-TZVP def2-TZVP/C def2-TZVP/JK TIGHTSCF
|  2> % maxcore 2000
|  3> % mp2 density relaxed end
|  4> *xyz 0 1
|  5>  C       -0.0008817561     1.4841309778    -0.0298590583
|  6>  N       -0.0091373325     0.0410611842     0.0296116907
|  7>  C       -0.0588036761    -0.8384689651    -1.0424717521
|  8>  N       -0.0544497464    -2.1097212891    -0.7351499336
|  9>  C        0.0027891120    -2.0955976388     0.6457075803
| 10>  N        0.0366844441    -3.0088698038     1.6161208146
| 11>  N        0.0873404248    -2.2394792896     2.7264098907
| 12>  C        0.0875200575    -0.8831270357     2.5156026906
| 13>  C        0.0322071060    -0.7700214308     1.1447241484
| 14>  H        0.9117316142     1.8925226970     0.4182703218
| 15>  H       -0.0427379754     1.7967081770    -1.0754680336
| 16>  H       -0.8663048272     1.9056693156     0.4933795804
| 17>  H       -0.0979211220    -0.4476970535    -2.0510878079
| 18>  H        0.1217145283    -2.6993282685     3.6202112121
| 19>  H        0.1258840189    -0.1845346368     3.3341582358
| 20> *
| 21>
| 22>                          ****END OF INPUT****

CARTESIAN COORDINATES (ANGSTROEM)
---------------------------------
  C     -0.000882    1.484131   -0.029859
  N     -0.009137    0.041061    0.029612
  C     -0.058804   -0.838469   -1.042472
  N     -0.054450   -2.109721   -0.735150
  C      0.002789   -2.095598    0.645708
  N      0.036684   -3.008870    1.616121
  N      0.087340   -2.239479    2.726410
  C      0.087520   -0.883127    2.515603
  C      0.032207   -0.770021    1.144724
  H      0.911732    1.892523    0.418270
  H     -0.042738    1.796708   -1.075468
  H     -0.866305    1.905669    0.493380
  H     -0.097921   -0.447697   -2.051088
  H      0.121715   -2.699328    3.620211
  H      0.125884   -0.184535    3.334158

 Total Charge           Charge          ....    0
 Multiplicity           Mult            ....    1
 Number of Electrons    NEL             ....   64
 Basis Dimension        Dim             ....  315

ORBITAL ENERGIES
----------------

  NO   OCC          E(Eh)            E(eV)
   0   2.0000     -15.634868      -425.4464
   1   2.0000     -15.618977      -425.0140
   2   2.0000     -15.577849      -423.8948
   3   2.0000     -15.547487      -423.0686
   4   2.0000     -11.317977      -307.9778
   5   2.0000     -11.288578      -307.1778
   6   2.0000     -11.280905      -306.9690
   7   2.0000     -11.265193      -306.5415
   8   2.0000     -11.255407      -306.2752
   9   2.0000      -1.376987       -37.4697
  10   2.0000      -1.328859       -36.1601
  11   2.0000      -1.196544       -32.5596
  12   2.0000      -1.078521       -29.3481
  13   2.0000      -1.048520       -28.5317
  14   2.0000      -0.971874       -26.4460
  15   2.0000      -0.880684       -23.9646
  16   2.0000      -0.788132       -21.4462
  17   2.0000      -0.778060       -21.1721
  18   2.0000      -0.710024       -19.3207
  19   2.0000      -0.683922       -18.6105
  20   2.0000      -0.661866       -18.0103
  21   2.0000      -0.661115       -17.9898
  22   2.0000      -0.606101       -16.4929
  23   2.0000      -0.591223       -16.0880
  24   2.0000      -0.576299       -15.6819
  25   2.0000      -0.572748       -15.5853
  26   2.0000      -0.533410       -14.5148
  27   2.0000      -0.474138       -12.9020
  28   2.0000      -0.426019       -11.5926
  29   2.0000      -0.422721       -11.5028
  30   2.0000      -0.323000        -8.7893
  31   2.0000      -0.311192        -8.4680
  32   0.0000       0.120072         3.2673
  33   0.0000       0.124049         3.3755
  34   0.0000       0.140264         3.8168
  35   0.0000       0.163183         4.4404
  36   0.0000       0.182257         4.9595

MULLIKEN ATOMIC CHARGES
-----------------------
   0 C :   -0.321618
   1 N :   -0.075672
   2 C :    0.003861
   3 N :   -0.272228
   4 C :    0.080016
   5 N :   -0.227313
   6 N :   -0.063968
   7 C :   -0.144365
   8 C :    0.014683
   9 H :    0.150879
  10 H :    0.148742
  11 H :    0.150895
  12 H :    0.144404
  13 H :    0.255777
  14 H :    0.155908
Sum of atomic charges:   -0.0000000

LOEWDIN ATOMIC CHARGES
----------------------
   0 C :   -0.274798
   1 N :    0.223622
   2 C :   -0.275593
   3 N :    0.114731
   4 C :   -0.340179
   5 N :    0.040281
   6 N :    0.139047
   7 C :   -0.238119
   8 C :   -0.221656
   9 H :    0.123279
  10 H :    0.129836
  11 H :    0.123289
  12 H :    0.132947
  13 H :    0.188524
  14 H :    0.134790

  Mayer bond orders larger than 0.1
B(  0-C ,  1-N ) :   0.8783 B(  0-C ,  9-H ) :   0.9291 B(  0-C , 10-H ) :   0.9300
B(  0-C , 11-H ) :   0.9292 B(  1-N ,  2-C ) :   1.1340 B(  1-N ,  8-C ) :   1.0884
B(  2-C ,  3-N ) :   1.6124 B(  2-C , 12-H ) :   0.9212 B(  3-N ,  4-C ) :   1.2366
B(  4-C ,  5-N ) :   1.5067 B(  4-C ,  8-C ) :   1.2134 B(  5-N ,  6-N ) :   1.0863
B(  5-N ,  7-C ) :   0.1632 B(  6-N ,  7-C ) :   1.2079 B(  6-N , 13-H ) :   0.8716
B(  7-C ,  8-C ) :   1.3339 B(  7-C , 14-H ) :   0.8966

MP2 TOTAL ENERGY:     -412.300859689 Eh
FINAL SINGLE POINT ENERGY      -412.300859688747

DIPOLE MOMENT
-------------
                                X             Y             Z
Electronic contribution:     -0.00744      -6.36264       0.88650
Nuclear contribution   :      0.06208       8.44437       0.09109
                        -----------------------------------------
Total Dipole Moment    :      0.05465       2.08173       0.97759
                        -----------------------------------------
Magnitude (a.u.)       :      2.30049
Magnitude (Debye)      :      5.84739

                             ****ORCA TERMINATED NORMALLY****
TOTAL RUN TIME: 0 days 0 hours 17 minutes 47 seconds 873 msec
