                         Program Version 3.0.3 - RELEASE   -
|  1> ! RI-MP2 RIJK def2-TZVP def2-TZVP/C def2-TZVP/JK TIGHTSCF
|  2> % maxcore 2000
|  3> % mp2 density relaxed end
|  4> *xyz 0 1
|  5>  C        0.6788085208     1.4253620030     0.1792350666
|  6>  C       -0.1407258469     0.1577144588     0.0401940371
|  7>  O       -0.7904351425    -0.3079907233     0.9468380548
|  8>  C       -0.0929466732    -0.4796465308    -1.3281988127
|  9>  O       -0.5228980819    -1.8243280074    -1.4593984820
| 10>  C       -1.3437420492    -0.8320331569    -2.0818112897
| 11>  C       -2.7252381064    -0.6450994121    -1.4932157482
| 12>  C       -1.2686832506    -0.7832177907    -3.5256955522
| 13>  C       -1.2376766057    -0.7299948855    -4.7260512588
| 14>  H        1.7462748591     1.1934666902     0.0843023353
| 15>  H        0.4359769959     2.1337812150    -0.6211423021
| 16>  H        0.4909178171     1.8807683999     1.1517245141
| 17>  H        0.7755487915    -0.2170128568    -1.9331151785
| 18>  H       -2.6812951839    -0.6931506903    -0.4055122272
| 19>  H       -3.1460361578     0.3145115920    -1.8077086939
| 20>  H       -3.3827902488    -1.4381016579    -1.8609807711
| 21>  H       -1.2041123475    -0.6912404475    -5.7871051515
| 22> *
| 23>
| 24>                          ****END OF INPUT****

CARTESIAN COORDINATES (ANGSTROEM)
---------------------------------
  C      0.678809    1.425362    0.179235
  C     -0.140726    0.157714    0.040194
  O     -0.790435   -0.307991    0.946838
  C     -0.092947   -0.479647   -1.328199
  O     -0.522898   -1.824328   -1.459398
  C     -1.343742   -0.832033   -2.081811
  C     -2.725238   -0.645099   -1.493216
  C     -1.268683   -0.783218   -3.525696
  C     -1.237677   -0.729995   -4.726051
  H      1.746275    1.193467    0.084302
  H      0.435977    2.133781   -0.621142
  H      0.490918    1.880768    1.151725
  H      0.775549   -0.217013   -1.933115
  H     -2.681295   -0.693151   -0.405512
  H     -3.146036    0.314512   -1.807709
  H     -3.382790   -1.438102   -1.860981
  H     -1.204112   -0.691240   -5.787105

 Total Charge           Charge          ....    0
 Multiplicity           Mult            ....    1
 Number of Electrons    NEL             ....   66
 Basis Dimension        Dim             ....  327

ORBITAL ENERGIES
----------------

  NO   OCC          E(Eh)            E(eV)
   0   2.0000     -20.592707      -560.3561
   1   2.0000     -20.558691      -559.4304
   2   2.0000     -11.346776      -308.7615
   3   2.0000     -11.338861      -308.5461
   4   2.0000     -11.311355      -307.7976
   5   2.0000     -11.249238      -306.1073
   6   2.0000     -11.248225      -306.0798
   7   2.0000     -11.243916      -305.9625
   8   2.0000     -11.231442      -305.6231
   9   2.0000      -1.444832       -39.3159
  10   2.0000      -1.398065       -38.0433
  11   2.0000      -1.075111       -29.2553
  12   2.0000      -1.043250       -28.3883
  13   2.0000      -1.007981       -27.4285
  14   2.0000      -0.943942       -25.6860
  15   2.0000      -0.879348       -23.9283
  16   2.0000      -0.762783       -20.7564
  17   2.0000      -0.747170       -20.3315
  18   2.0000      -0.711340       -19.3565
  19   2.0000      -0.681873       -18.5547
  20   2.0000      -0.644503       -17.5378
  21   2.0000      -0.616404       -16.7732
  22   2.0000      -0.610908       -16.6237
  23   2.0000      -0.586946       -15.9716
  24   2.0000      -0.577833       -15.7236
  25   2.0000      -0.567122       -15.4322
  26   2.0000      -0.541791       -14.7429
  27   2.0000      -0.512647       -13.9498
  28   2.0000      -0.491877       -13.3847
  29   2.0000      -0.465376       -12.6635
  30   2.0000      -0.432087       -11.7577
  31   2.0000      -0.411188       -11.1890
  32   2.0000      -0.388816       -10.5802
  33   0.0000       0.109492         2.9794
  34   0.0000       0.125534         3.4159
  35   0.0000       0.155131         4.2213
  36   0.0000       0.159544         4.3414
  37   0.0000       0.159793         4.3482

MULLIKEN ATOMIC CHARGES
-----------------------
   0 C :   -0.436731
   1 C :    0.222673
   2 O :   -0.281194
   3 C :    0.021605
   4 O :   -0.295731
   5 C :   -0.038685
   6 C :   -0.417731
   7 C :    0.039724
   8 C :   -0.084329
   9 H :    0.153931
  10 H :    0.150476
  11 H :    0.158597
  12 H :    0.145358
  13 H :    0.179579
  14 H :    0.136588
  15 H :    0.147128
  16 H :    0.198743
Sum of atomic charges:   -0.0000000

LOEWDIN ATOMIC CHARGES
----------------------
   0 C :   -0.275162
   1 C :   -0.342835
   2 O :    0.165391
   3 C :   -0.214453
   4 O :    0.233439
   5 C :   -0.302470
   6 C :   -0.244863
   7 C :   -0.062421
   8 C :   -0.068371
   9 H :    0.141138
  10 H :    0.138569
  11 H :    0.135813
  12 H :    0.151089
  13 H :    0.141162
  14 H :    0.135588
  15 H :    0.138277
  16 H :    0.130108

  Mayer bond orders larger than 0.1
B(  0-C ,  1-C ) :   0.9137 B(  0-C ,  9-H ) :   0.9123 B(  0-C , 10-H ) :   0.9129
B(  0-C , 11-H ) :   0.9368 B(  1-C ,  2-O ) :   1.9796 B(  1-C ,  3-C ) :   0.8546
B(  3-C ,  4-O ) :   0.9090 B(  3-C ,  5-C ) :   0.9569 B(  3-C , 12-H ) :   0.9012
B(  4-O ,  5-C ) :   0.9177 B(  5-C ,  6-C ) :   0.9432 B(  5-C ,  7-C ) :   1.1236
B(  5-C ,  8-C ) :  -0.1629 B(  6-C , 13-H ) :   0.9253 B(  6-C , 14-H ) :   0.9278
B(  6-C , 15-H ) :   0.9280 B(  7-C ,  8-C ) :   2.5831 B(  8-C , 16-H ) :   0.8863

MP2 TOTAL ENERGY:     -421.069640015 Eh
FINAL SINGLE POINT ENERGY      -421.069640014970

DIPOLE MOMENT
-------------
                                X             Y             Z
Electronic contribution:      0.68498      -4.52527      -0.91334
Nuclear contribution   :     -0.38356       5.59241       0.11637
                        -----------------------------------------
Total Dipole Moment    :      0.30142       1.06715      -0.79696
                        -----------------------------------------
Magnitude (a.u.)       :      1.36558
Magnitude (Debye)      :      3.47103

                             ****ORCA TERMINATED NORMALLY****
TOTAL RUN TIME: 0 days 0 hours 17 minutes 12 seconds 720 msec
