                         Program Version 3.0.3 - RELEASE   -
|  1> ! RI-MP2 RIJK def2-TZVP def2-TZVP/C def2-TZVP/JK TIGHTSCF
|  2> % maxcore 2000
|  3> % mp2 density relaxed end
|  4> *xyz 0 1
|  5>  O       -0.0273026291     1.2937294918    -0.1898599312
|  6>  N        0.0252382288    -0.0785371972    -0.2061586998
|  7>  C       -1.0942169833    -0.6512120233     0.0113377257
|  8>  C       -1.1971925187    -2.1528446043     0.0771966049
|  9>  O       -0.8512626523    -2.6421402878     1.3662425420
| 10>  C       -2.7070428328    -2.3526539112    -0.1062973130
| 11>  O       -3.3425153676    -1.1093672034     0.2431503765
| 12>  C       -2.4587510928    -0.0736493236     0.2660872345
| 13>  O       -2.7868279420     1.0576967419     0.4677789084
| 14>  H        0.8835385034     1.5433987888    -0.3883638682
| 15>  H       -0.6131695337    -2.6476907902    -0.7076438961
| 16>  H        0.0376110778    -2.3269664510     1.5664320918
| 17>  H       -2.9633311873    -2.5956142323    -1.1420605190
| 18>  H       -3.0823669604    -3.1295293581     0.5611692535
| 19> *
| 20>
| 21>                          ****END OF INPUT****

CARTESIAN COORDINATES (ANGSTROEM)
---------------------------------
  O     -0.027303    1.293729   -0.189860
  N      0.025238   -0.078537   -0.206159
  C     -1.094217   -0.651212    0.011338
  C     -1.197193   -2.152845    0.077197
  O     -0.851263   -2.642140    1.366243
  C     -2.707043   -2.352654   -0.106297
  O     -3.342515   -1.109367    0.243150
  C     -2.458751   -0.073649    0.266087
  O     -2.786828    1.057697    0.467779
  H      0.883539    1.543399   -0.388364
  H     -0.613170   -2.647691   -0.707644
  H      0.037611   -2.326966    1.566432
  H     -2.963331   -2.595614   -1.142061
  H     -3.082367   -3.129529    0.561169

 Total Charge           Charge          ....    0
 Multiplicity           Mult            ....    1
 Number of Electrons    NEL             ....   68
 Basis Dimension        Dim             ....  309

ORBITAL ENERGIES
----------------

  NO   OCC          E(Eh)            E(eV)
   0   2.0000     -20.630519      -561.3850
   1   2.0000     -20.614485      -560.9487
   2   2.0000     -20.588747      -560.2483
   3   2.0000     -20.556214      -559.3630
   4   2.0000     -15.676499      -426.5792
   5   2.0000     -11.397197      -310.1335
   6   2.0000     -11.324762      -308.1624
   7   2.0000     -11.313124      -307.8458
   8   2.0000     -11.309564      -307.7489
   9   2.0000      -1.478059       -40.2200
  10   2.0000      -1.464473       -39.8503
  11   2.0000      -1.397765       -38.0351
  12   2.0000      -1.377548       -37.4850
  13   2.0000      -1.199648       -32.6441
  14   2.0000      -1.048653       -28.5353
  15   2.0000      -0.966272       -26.2936
  16   2.0000      -0.854235       -23.2449
  17   2.0000      -0.793294       -21.5866
  18   2.0000      -0.745413       -20.2837
  19   2.0000      -0.726955       -19.7815
  20   2.0000      -0.721969       -19.6458
  21   2.0000      -0.678693       -18.4682
  22   2.0000      -0.670651       -18.2494
  23   2.0000      -0.642066       -17.4715
  24   2.0000      -0.629058       -17.1175
  25   2.0000      -0.608861       -16.5680
  26   2.0000      -0.588624       -16.0173
  27   2.0000      -0.571114       -15.5408
  28   2.0000      -0.528421       -14.3791
  29   2.0000      -0.514661       -14.0046
  30   2.0000      -0.493732       -13.4351
  31   2.0000      -0.466707       -12.6998
  32   2.0000      -0.433926       -11.8077
  33   2.0000      -0.424233       -11.5440
  34   0.0000       0.065928         1.7940
  35   0.0000       0.126663         3.4467
  36   0.0000       0.137559         3.7432
  37   0.0000       0.157618         4.2890
  38   0.0000       0.181506         4.9390

MULLIKEN ATOMIC CHARGES
-----------------------
   0 O :   -0.306951
   1 N :   -0.071469
   2 C :   -0.042411
   3 C :    0.075174
   4 O :   -0.460745
   5 C :   -0.033299
   6 O :   -0.214072
   7 C :    0.247630
   8 O :   -0.248138
   9 H :    0.344841
  10 H :    0.115343
  11 H :    0.327740
  12 H :    0.121382
  13 H :    0.144975
Sum of atomic charges:   -0.0000000

LOEWDIN ATOMIC CHARGES
----------------------
   0 O :   -0.015635
   1 N :    0.047439
   2 C :   -0.245160
   3 C :   -0.315466
   4 O :   -0.006110
   5 C :   -0.231358
   6 O :    0.262204
   7 C :   -0.444329
   8 O :    0.170304
   9 H :    0.180115
  10 H :    0.143934
  11 H :    0.181970
  12 H :    0.131593
  13 H :    0.140499

  Mayer bond orders larger than 0.1
B(  0-O ,  1-N ) :   0.8858 B(  0-O ,  9-H ) :   0.8364 B(  1-N ,  2-C ) :   1.7564
B(  2-C ,  3-C ) :   0.9227 B(  2-C ,  7-C ) :   0.9125 B(  3-C ,  4-O ) :   0.9662
B(  3-C ,  5-C ) :   0.9145 B(  3-C , 10-H ) :   0.9382 B(  4-O , 11-H ) :   0.8351
B(  5-C ,  6-O ) :   0.8656 B(  5-C , 12-H ) :   0.9152 B(  5-C , 13-H ) :   0.9319
B(  6-O ,  7-C ) :   1.1233 B(  7-C ,  8-O ) :   2.0411

MP2 TOTAL ENERGY:     -510.160670611 Eh
FINAL SINGLE POINT ENERGY      -510.160670610933

DIPOLE MOMENT
-------------
                                X             Y             Z
Electronic contribution:     -0.71371       4.24399       0.51052
Nuclear contribution   :      2.02729      -5.14506      -1.17168
                        -----------------------------------------
Total Dipole Moment    :      1.31358      -0.90108      -0.66116
                        -----------------------------------------
Magnitude (a.u.)       :      1.72469
Magnitude (Debye)      :      4.38382

                             ****ORCA TERMINATED NORMALLY****
TOTAL RUN TIME: 0 days 0 hours 13 minutes 37 seconds 447 msec
