                         Program Version 3.0.3 - RELEASE   -
|  1> ! RI-MP2 RIJK def2-TZVP def2-TZVP/C def2-TZVP/JK TIGHTSCF
|  2> % maxcore 2000
|  3> % mp2 density relaxed end
|  4> *xyz 0 1
|  5>  C        0.0664545010    -1.2119520752     0.1118630486
|  6>  C        0.0245296201    -0.0103400458     0.0547267904
|  7>  C       -0.0271928862     1.4236857153    -0.0154464451
|  8>  C       -1.1189309390     2.1762269474     0.8147784576
|  9>  C       -1.2676438461     3.2047261144    -0.3266320114
| 10>  O       -0.1890856061     4.1666283421    -0.3286365049
| 11>  C        0.6841387632     3.2414114902    -1.0142064777
| 12>  C        1.3179197410     2.2220483054    -0.0436611232
| 13>  C       -0.4917219624     2.2653997143    -1.2891585599
| 14>  H        0.1048650310    -2.2716753635     0.1640492069
| 15>  H       -2.0171133005     1.5579803639     0.9010761462
| 16>  H       -0.8343524128     2.5569285541     1.7987802090
| 17>  H       -2.2365666298     3.6726014732    -0.5071157367
| 18>  H        1.3098476560     3.7392608555    -1.7564508540
| 19>  H        1.7001422641     2.6045982781     0.9059393787
| 20>  H        2.0920271189     1.6352265755    -0.5464555064
| 21>  H       -0.8196591823     1.8600382551    -2.2416806180
| 22> *
| 23>
| 24>                          ****END OF INPUT****

CARTESIAN COORDINATES (ANGSTROEM)
---------------------------------
  C      0.066455   -1.211952    0.111863
  C      0.024530   -0.010340    0.054727
  C     -0.027193    1.423686   -0.015446
  C     -1.118931    2.176227    0.814778
  C     -1.267644    3.204726   -0.326632
  O     -0.189086    4.166628   -0.328637
  C      0.684139    3.241411   -1.014206
  C      1.317920    2.222048   -0.043661
  C     -0.491722    2.265400   -1.289159
  H      0.104865   -2.271675    0.164049
  H     -2.017113    1.557980    0.901076
  H     -0.834352    2.556929    1.798780
  H     -2.236567    3.672601   -0.507116
  H      1.309848    3.739261   -1.756451
  H      1.700142    2.604598    0.905939
  H      2.092027    1.635227   -0.546456
  H     -0.819659    1.860038   -2.241681

 Total Charge           Charge          ....    0
 Multiplicity           Mult            ....    1
 Number of Electrons    NEL             ....   64
 Basis Dimension        Dim             ....  327

ORBITAL ENERGIES
----------------

  NO   OCC          E(Eh)            E(eV)
   0   2.0000     -20.552236      -559.2548
   1   2.0000     -11.290060      -307.2181
   2   2.0000     -11.290059      -307.2181
   3   2.0000     -11.267960      -306.6168
   4   2.0000     -11.246598      -306.0355
   5   2.0000     -11.235705      -305.7391
   6   2.0000     -11.235692      -305.7387
   7   2.0000     -11.235071      -305.7218
   8   2.0000     -11.225187      -305.4529
   9   2.0000      -1.391793       -37.8726
  10   2.0000      -1.158487       -31.5240
  11   2.0000      -1.030617       -28.0445
  12   2.0000      -1.024762       -27.8852
  13   2.0000      -0.930940       -25.3322
  14   2.0000      -0.865491       -23.5512
  15   2.0000      -0.836758       -22.7693
  16   2.0000      -0.749232       -20.3877
  17   2.0000      -0.714285       -19.4367
  18   2.0000      -0.695698       -18.9309
  19   2.0000      -0.647120       -17.6090
  20   2.0000      -0.638763       -17.3816
  21   2.0000      -0.597425       -16.2568
  22   2.0000      -0.580368       -15.7926
  23   2.0000      -0.579825       -15.7778
  24   2.0000      -0.548148       -14.9159
  25   2.0000      -0.485483       -13.2107
  26   2.0000      -0.481651       -13.1064
  27   2.0000      -0.454579       -12.3697
  28   2.0000      -0.426703       -11.6112
  29   2.0000      -0.404581       -11.0092
  30   2.0000      -0.377891       -10.2829
  31   2.0000      -0.371991       -10.1224
  32   0.0000       0.146425         3.9844
  33   0.0000       0.153177         4.1682
  34   0.0000       0.157778         4.2933
  35   0.0000       0.159988         4.3535
  36   0.0000       0.170428         4.6376

MULLIKEN ATOMIC CHARGES
-----------------------
   0 C :   -0.128535
   1 C :   -0.004972
   2 C :   -0.051631
   3 C :   -0.234486
   4 C :    0.031026
   5 O :   -0.319922
   6 C :    0.031057
   7 C :   -0.234486
   8 C :   -0.152843
   9 H :    0.191439
  10 H :    0.123802
  11 H :    0.118230
  12 H :    0.120615
  13 H :    0.120613
  14 H :    0.118232
  15 H :    0.123801
  16 H :    0.148058
Sum of atomic charges:    0.0000000

LOEWDIN ATOMIC CHARGES
----------------------
   0 C :   -0.092017
   1 C :   -0.078200
   2 C :   -0.194737
   3 C :   -0.160916
   4 C :   -0.230596
   5 O :    0.158276
   6 C :   -0.230599
   7 C :   -0.160926
   8 C :   -0.086404
   9 H :    0.126825
  10 H :    0.147438
  11 H :    0.133325
  12 H :    0.126501
  13 H :    0.126499
  14 H :    0.133325
  15 H :    0.147434
  16 H :    0.134772

  Mayer bond orders larger than 0.1
B(  0-C ,  1-C ) :   2.5865 B(  0-C ,  2-C ) :  -0.1450 B(  0-C ,  9-H ) :   0.8768
B(  1-C ,  2-C ) :   1.2070 B(  2-C ,  3-C ) :   0.9414 B(  2-C ,  7-C ) :   0.9414
B(  2-C ,  8-C ) :   0.8919 B(  3-C ,  4-C ) :   0.9210 B(  3-C , 10-H ) :   0.9131
B(  3-C , 11-H ) :   0.8997 B(  4-C ,  5-O ) :   0.9469 B(  4-C ,  8-C ) :   0.9513
B(  4-C , 12-H ) :   0.9237 B(  5-O ,  6-C ) :   0.9469 B(  6-C ,  7-C ) :   0.9210
B(  6-C ,  8-C ) :   0.9513 B(  6-C , 13-H ) :   0.9236 B(  7-C , 14-H ) :   0.8997
B(  7-C , 15-H ) :   0.9131 B(  8-C , 16-H ) :   0.8962

MP2 TOTAL ENERGY:     -383.918932213 Eh
FINAL SINGLE POINT ENERGY      -383.918932213213

DIPOLE MOMENT
-------------
                                X             Y             Z
Electronic contribution:     -0.26522       0.23843      -0.74045
Nuclear contribution   :      0.18405      -0.68068       0.48630
                        -----------------------------------------
Total Dipole Moment    :     -0.08117      -0.44225      -0.25414
                        -----------------------------------------
Magnitude (a.u.)       :      0.51649
Magnitude (Debye)      :      1.31282

                             ****ORCA TERMINATED NORMALLY****
TOTAL RUN TIME: 0 days 0 hours 18 minutes 29 seconds 821 msec
