                         Program Version 3.0.3 - RELEASE   -
|  1> ! RI-MP2 RIJK def2-TZVP def2-TZVP/C def2-TZVP/JK TIGHTSCF
|  2> % maxcore 2000
|  3> % mp2 density relaxed end
|  4> *xyz 0 1
|  5>  N        0.0007022289     1.2319618713     0.4019843083
|  6>  C        0.1294524132    -0.0147491559    -0.1190380385
|  7>  O        1.0911089565    -0.4114855429    -0.7446502004
|  8>  C       -1.1153305457    -0.9017025029     0.0565774824
|  9>  N       -0.8072989403    -2.3138548142    -0.0435268405
| 10>  C       -1.9565412155    -3.0434177884     0.4889573693
| 11>  C       -2.2790134721    -2.2425738656     1.7593887838
| 12>  C       -1.8681752040    -0.8209898472     1.3910660691
| 13>  O       -2.1034399063     0.1860447046     2.0151108592
| 14>  H        0.8035740913     1.8390385277     0.3622094229
| 15>  H       -0.7381431171     1.4165514103     1.0680402048
| 16>  H       -1.8487177812    -0.5385879120    -0.6982792511
| 17>  H       -0.5043462967    -2.5926715253    -0.9662660709
| 18>  H       -2.8338048546    -3.0425108084    -0.1836633071
| 19>  H       -1.6913108483    -4.0838560868     0.6928968277
| 20>  H       -3.3198041747    -2.2809785134     2.0866234773
| 21>  H       -1.6488799534    -2.5624945510     2.5974089737
| 22> *
| 23>
| 24>                          ****END OF INPUT****

CARTESIAN COORDINATES (ANGSTROEM)
---------------------------------
  N      0.000702    1.231962    0.401984
  C      0.129452   -0.014749   -0.119038
  O      1.091109   -0.411486   -0.744650
  C     -1.115331   -0.901703    0.056577
  N     -0.807299   -2.313855   -0.043527
  C     -1.956541   -3.043418    0.488957
  C     -2.279013   -2.242574    1.759389
  C     -1.868175   -0.820990    1.391066
  O     -2.103440    0.186045    2.015111
  H      0.803574    1.839039    0.362209
  H     -0.738143    1.416551    1.068040
  H     -1.848718   -0.538588   -0.698279
  H     -0.504346   -2.592672   -0.966266
  H     -2.833805   -3.042511   -0.183663
  H     -1.691311   -4.083856    0.692897
  H     -3.319804   -2.280979    2.086623
  H     -1.648880   -2.562495    2.597409

 Total Charge           Charge          ....    0
 Multiplicity           Mult            ....    1
 Number of Electrons    NEL             ....   68
 Basis Dimension        Dim             ....  327

ORBITAL ENERGIES
----------------

  NO   OCC          E(Eh)            E(eV)
   0   2.0000     -20.571669      -559.7836
   1   2.0000     -20.520941      -558.4032
   2   2.0000     -15.577189      -423.8769
   3   2.0000     -15.564286      -423.5258
   4   2.0000     -11.356668      -309.0307
   5   2.0000     -11.356268      -309.0198
   6   2.0000     -11.291322      -307.2525
   7   2.0000     -11.276118      -306.8388
   8   2.0000     -11.253762      -306.2304
   9   2.0000      -1.417485       -38.5717
  10   2.0000      -1.385546       -37.7026
  11   2.0000      -1.252571       -34.0842
  12   2.0000      -1.211394       -32.9637
  13   2.0000      -1.044949       -28.4345
  14   2.0000      -1.007586       -27.4178
  15   2.0000      -0.864074       -23.5126
  16   2.0000      -0.818181       -22.2638
  17   2.0000      -0.764186       -20.7946
  18   2.0000      -0.722472       -19.6595
  19   2.0000      -0.715042       -19.4573
  20   2.0000      -0.681308       -18.5393
  21   2.0000      -0.657476       -17.8908
  22   2.0000      -0.629955       -17.1420
  23   2.0000      -0.615818       -16.7573
  24   2.0000      -0.605626       -16.4799
  25   2.0000      -0.579152       -15.7595
  26   2.0000      -0.560924       -15.2635
  27   2.0000      -0.550391       -14.9769
  28   2.0000      -0.536483       -14.5984
  29   2.0000      -0.507659       -13.8141
  30   2.0000      -0.441921       -12.0253
  31   2.0000      -0.421542       -11.4708
  32   2.0000      -0.414038       -11.2665
  33   2.0000      -0.390145       -10.6164
  34   0.0000       0.110943         3.0189
  35   0.0000       0.124570         3.3897
  36   0.0000       0.153505         4.1771
  37   0.0000       0.158486         4.3126
  38   0.0000       0.168782         4.5928

MULLIKEN ATOMIC CHARGES
-----------------------
   0 N :   -0.470027
   1 C :    0.225620
   2 O :   -0.343734
   3 C :    0.017801
   4 N :   -0.361161
   5 C :   -0.128153
   6 C :   -0.199860
   7 C :    0.170908
   8 O :   -0.317508
   9 H :    0.257300
  10 H :    0.281723
  11 H :    0.123748
  12 H :    0.222990
  13 H :    0.102397
  14 H :    0.130442
  15 H :    0.145608
  16 H :    0.141905
Sum of atomic charges:    0.0000000

LOEWDIN ATOMIC CHARGES
----------------------
   0 N :   -0.006356
   1 C :   -0.464837
   2 O :    0.090729
   3 C :   -0.247063
   4 N :    0.024863
   5 C :   -0.290111
   6 C :   -0.219545
   7 C :   -0.279864
   8 O :    0.142080
   9 H :    0.174363
  10 H :    0.175815
  11 H :    0.164790
  12 H :    0.174633
  13 H :    0.119710
  14 H :    0.131266
  15 H :    0.148804
  16 H :    0.160722

  Mayer bond orders larger than 0.1
B(  0-N ,  1-C ) :   1.1993 B(  0-N ,  9-H ) :   0.8588 B(  0-N , 10-H ) :   0.8344
B(  1-C ,  2-O ) :   2.0049 B(  1-C ,  3-C ) :   0.8816 B(  3-C ,  4-N ) :   0.9427
B(  3-C ,  7-C ) :   0.8663 B(  3-C , 11-H ) :   0.8691 B(  4-N ,  5-C ) :   0.9066
B(  4-N , 12-H ) :   0.8721 B(  5-C ,  6-C ) :   0.9586 B(  5-C , 13-H ) :   0.9234
B(  5-C , 14-H ) :   0.9257 B(  6-C ,  7-C ) :   0.9318 B(  6-C , 15-H ) :   0.9186
B(  6-C , 16-H ) :   0.8935 B(  7-C ,  8-O ) :   1.9116

MP2 TOTAL ENERGY:     -454.464286295 Eh
FINAL SINGLE POINT ENERGY      -454.464286294755

DIPOLE MOMENT
-------------
                                X             Y             Z
Electronic contribution:      2.74345       4.03064      -0.21402
Nuclear contribution   :     -3.73894      -4.34628       0.35581
                        -----------------------------------------
Total Dipole Moment    :     -0.99549      -0.31564       0.14178
                        -----------------------------------------
Magnitude (a.u.)       :      1.05392
Magnitude (Debye)      :      2.67884

                             ****ORCA TERMINATED NORMALLY****
TOTAL RUN TIME: 0 days 0 hours 17 minutes 40 seconds 515 msec
