                         Program Version 3.0.3 - RELEASE   -
|  1> ! RI-MP2 RIJK def2-TZVP def2-TZVP/C def2-TZVP/JK TIGHTSCF
|  2> % maxcore 2000
|  3> % mp2 density relaxed end
|  4> *xyz 0 1
|  5>  C        0.0859315173     1.4448224957     0.0401706304
|  6>  C       -0.0695544819    -0.0301572100    -0.0123675377
|  7>  C       -1.1392876746    -0.8535126979    -0.2084408673
|  8>  C       -0.6222246557    -2.1963622173    -0.1448170101
|  9>  C        0.7146728405    -2.0376115114     0.0847215012
| 10>  N        1.2863647471    -3.2726126442     0.1595887584
| 11>  C        0.2193622741    -4.1465814358    -0.0369421264
| 12>  N       -0.9318707694    -3.5405561766    -0.2213090953
| 13>  O        1.1176055681    -0.7627465331     0.1758130823
| 14>  H        0.7723985929     1.8095496891    -0.7331001934
| 15>  H       -0.8856650688     1.9187767176    -0.1165163244
| 16>  H        0.4765040855     1.7788947702     1.0087155897
| 17>  H       -2.1522455533    -0.5214943754    -0.3742536554
| 18>  H        2.2483449928    -3.5168941129     0.3182720122
| 19>  H        0.3758426952    -5.2146690780    -0.0294441645
| 20> *
| 21>
| 22>                          ****END OF INPUT****

CARTESIAN COORDINATES (ANGSTROEM)
---------------------------------
  C      0.085932    1.444822    0.040171
  C     -0.069554   -0.030157   -0.012368
  C     -1.139288   -0.853513   -0.208441
  C     -0.622225   -2.196362   -0.144817
  C      0.714673   -2.037612    0.084722
  N      1.286365   -3.272613    0.159589
  C      0.219362   -4.146581   -0.036942
  N     -0.931871   -3.540556   -0.221309
  O      1.117606   -0.762747    0.175813
  H      0.772399    1.809550   -0.733100
  H     -0.885665    1.918777   -0.116516
  H      0.476504    1.778895    1.008716
  H     -2.152246   -0.521494   -0.374254
  H      2.248345   -3.516894    0.318272
  H      0.375843   -5.214669   -0.029444

 Total Charge           Charge          ....    0
 Multiplicity           Mult            ....    1
 Number of Electrons    NEL             ....   64
 Basis Dimension        Dim             ....  315

ORBITAL ENERGIES
----------------

  NO   OCC          E(Eh)            E(eV)
   0   2.0000     -20.626036      -561.2630
   1   2.0000     -15.628919      -425.2845
   2   2.0000     -15.553944      -423.2443
   3   2.0000     -11.309813      -307.7556
   4   2.0000     -11.300924      -307.5138
   5   2.0000     -11.293352      -307.3077
   6   2.0000     -11.235514      -305.7339
   7   2.0000     -11.232950      -305.6641
   8   2.0000     -11.231896      -305.6354
   9   2.0000      -1.461617       -39.7726
  10   2.0000      -1.334604       -36.3164
  11   2.0000      -1.178106       -32.0579
  12   2.0000      -1.073422       -29.2093
  13   2.0000      -1.032385       -28.0926
  14   2.0000      -0.935646       -25.4602
  15   2.0000      -0.838265       -22.8103
  16   2.0000      -0.809263       -22.0212
  17   2.0000      -0.780935       -21.2503
  18   2.0000      -0.736364       -20.0375
  19   2.0000      -0.666783       -18.1441
  20   2.0000      -0.657626       -17.8949
  21   2.0000      -0.623958       -16.9788
  22   2.0000      -0.587678       -15.9915
  23   2.0000      -0.581048       -15.8111
  24   2.0000      -0.575947       -15.6723
  25   2.0000      -0.555059       -15.1039
  26   2.0000      -0.550013       -14.9666
  27   2.0000      -0.531233       -14.4556
  28   2.0000      -0.435152       -11.8411
  29   2.0000      -0.434187       -11.8148
  30   2.0000      -0.357041        -9.7156
  31   2.0000      -0.279768        -7.6129
  32   0.0000       0.127076         3.4579
  33   0.0000       0.144520         3.9326
  34   0.0000       0.153590         4.1794
  35   0.0000       0.177703         4.8355
  36   0.0000       0.183194         4.9850

MULLIKEN ATOMIC CHARGES
-----------------------
   0 C :   -0.443108
   1 C :    0.242668
   2 C :   -0.308310
   3 C :    0.078630
   4 C :    0.206720
   5 N :   -0.293356
   6 C :    0.051518
   7 N :   -0.269151
   8 O :   -0.255562
   9 H :    0.148136
  10 H :    0.149450
  11 H :    0.148140
  12 H :    0.137202
  13 H :    0.257821
  14 H :    0.149202
Sum of atomic charges:   -0.0000000

LOEWDIN ATOMIC CHARGES
----------------------
   0 C :   -0.276962
   1 C :   -0.238066
   2 C :   -0.133060
   3 C :   -0.243667
   4 C :   -0.318616
   5 N :    0.183383
   6 C :   -0.297837
   7 N :    0.104948
   8 O :    0.339559
   9 H :    0.134258
  10 H :    0.140293
  11 H :    0.134249
  12 H :    0.147451
  13 H :    0.194851
  14 H :    0.129214

  Mayer bond orders larger than 0.1
B(  0-C ,  1-C ) :   0.8742 B(  0-C ,  9-H ) :   0.9319 B(  0-C , 10-H ) :   0.9478
B(  0-C , 11-H ) :   0.9319 B(  1-C ,  2-C ) :   1.5922 B(  1-C ,  8-O ) :   0.9308
B(  2-C ,  3-C ) :   1.1521 B(  2-C , 12-H ) :   0.9343 B(  3-C ,  4-C ) :   1.3195
B(  3-C ,  7-N ) :   1.2919 B(  4-C ,  5-N ) :   1.1343 B(  4-C ,  8-O ) :   1.0824
B(  5-N ,  6-C ) :   1.0893 B(  5-N , 13-H ) :   0.8585 B(  6-C ,  7-N ) :   1.5708
B(  6-C , 14-H ) :   0.9280

MP2 TOTAL ENERGY:     -416.132072407 Eh
FINAL SINGLE POINT ENERGY      -416.132072407324

DIPOLE MOMENT
-------------
                                X             Y             Z
Electronic contribution:      1.02953      -5.64668       0.07414
Nuclear contribution   :      0.15630       5.94436       0.13216
                        -----------------------------------------
Total Dipole Moment    :      1.18582       0.29768       0.20629
                        -----------------------------------------
Magnitude (a.u.)       :      1.23990
Magnitude (Debye)      :      3.15157

                             ****ORCA TERMINATED NORMALLY****
TOTAL RUN TIME: 0 days 0 hours 15 minutes 0 seconds 742 msec
