                         Program Version 3.0.3 - RELEASE   -
|  1> ! RI-MP2 RIJK def2-TZVP def2-TZVP/C def2-TZVP/JK TIGHTSCF
|  2> % maxcore 2000
|  3> % mp2 density relaxed end
|  4> *xyz 0 1
|  5>  C        0.0069387725     1.4339792142    -0.3518694858
|  6>  O        0.0035952237     0.0193209720    -0.2797613823
|  7>  C        0.4844008938    -0.5270541238     0.9408088447
|  8>  C       -0.3189743174    -0.1487830247     2.2144929992
|  9>  C       -0.5501944492    -1.4714931652     2.8994331464
| 10>  C       -0.1713136007    -2.5064755129     2.1539582104
| 11>  C        0.3827624775    -2.0782768334     0.8218426553
| 12>  C        1.9708511866    -0.1807224844     1.0690146565
| 13>  O        2.5302568865     0.1687033932     2.0743901705
| 14>  H        1.0099950947     1.8592229736    -0.2017375315
| 15>  H       -0.3366475898     1.6961310999    -1.3548751524
| 16>  H       -0.6709089984     1.8872035055     0.3837410085
| 17>  H        0.2392155916     0.5547613007     2.8405360655
| 18>  H       -1.2679628925     0.3283589664     1.9397380040
| 19>  H       -0.9953892718    -1.5390461873     3.8857432709
| 20>  H       -0.2554505034    -3.5498748539     2.4354056851
| 21>  H       -0.2885925566    -2.3148944241    -0.0129524466
| 22>  H        1.3483692267    -2.5445617740     0.5845624756
| 23>  H        2.5161929662    -0.3085578017     0.1049396359
| 24> *
| 25>
| 26>                          ****END OF INPUT****

CARTESIAN COORDINATES (ANGSTROEM)
---------------------------------
  C      0.006939    1.433979   -0.351869
  O      0.003595    0.019321   -0.279761
  C      0.484401   -0.527054    0.940809
  C     -0.318974   -0.148783    2.214493
  C     -0.550194   -1.471493    2.899433
  C     -0.171314   -2.506476    2.153958
  C      0.382762   -2.078277    0.821843
  C      1.970851   -0.180722    1.069015
  O      2.530257    0.168703    2.074390
  H      1.009995    1.859223   -0.201738
  H     -0.336648    1.696131   -1.354875
  H     -0.670909    1.887204    0.383741
  H      0.239216    0.554761    2.840536
  H     -1.267963    0.328359    1.939738
  H     -0.995389   -1.539046    3.885743
  H     -0.255451   -3.549875    2.435406
  H     -0.288593   -2.314894   -0.012952
  H      1.348369   -2.544562    0.584562
  H      2.516193   -0.308558    0.104940

 Total Charge           Charge          ....    0
 Multiplicity           Mult            ....    1
 Number of Electrons    NEL             ....   68
 Basis Dimension        Dim             ....  339

ORBITAL ENERGIES
----------------

  NO   OCC          E(Eh)            E(eV)
   0   2.0000     -20.572707      -559.8118
   1   2.0000     -20.563416      -559.5590
   2   2.0000     -11.331879      -308.3561
   3   2.0000     -11.303715      -307.5897
   4   2.0000     -11.282434      -307.0107
   5   2.0000     -11.239015      -305.8291
   6   2.0000     -11.232494      -305.6517
   7   2.0000     -11.231656      -305.6289
   8   2.0000     -11.230255      -305.5908
   9   2.0000      -1.406938       -38.2847
  10   2.0000      -1.387522       -37.7564
  11   2.0000      -1.141023       -31.0488
  12   2.0000      -1.005570       -27.3630
  13   2.0000      -0.975237       -26.5375
  14   2.0000      -0.922879       -25.1128
  15   2.0000      -0.868212       -23.6252
  16   2.0000      -0.762570       -20.7506
  17   2.0000      -0.741301       -20.1718
  18   2.0000      -0.700360       -19.0578
  19   2.0000      -0.692676       -18.8487
  20   2.0000      -0.659579       -17.9481
  21   2.0000      -0.629994       -17.1430
  22   2.0000      -0.629452       -17.1283
  23   2.0000      -0.573999       -15.6193
  24   2.0000      -0.569851       -15.5064
  25   2.0000      -0.558373       -15.1941
  26   2.0000      -0.541141       -14.7252
  27   2.0000      -0.532684       -14.4951
  28   2.0000      -0.507241       -13.8027
  29   2.0000      -0.503203       -13.6929
  30   2.0000      -0.485743       -13.2178
  31   2.0000      -0.449950       -12.2438
  32   2.0000      -0.406490       -11.0612
  33   2.0000      -0.354166        -9.6374
  34   0.0000       0.129756         3.5308
  35   0.0000       0.139155         3.7866
  36   0.0000       0.155442         4.2298
  37   0.0000       0.168770         4.5925
  38   0.0000       0.170170         4.6306

MULLIKEN ATOMIC CHARGES
-----------------------
   0 C :   -0.234066
   1 O :   -0.312843
   2 C :    0.316616
   3 C :   -0.224865
   4 C :   -0.177235
   5 C :   -0.205055
   6 C :   -0.172788
   7 C :   -0.017250
   8 O :   -0.254402
   9 H :    0.122985
  10 H :    0.148137
  11 H :    0.120473
  12 H :    0.145782
  13 H :    0.121533
  14 H :    0.129255
  15 H :    0.130270
  16 H :    0.133804
  17 H :    0.125898
  18 H :    0.103751
Sum of atomic charges:    0.0000000

LOEWDIN ATOMIC CHARGES
----------------------
   0 C :   -0.345500
   1 O :    0.177357
   2 C :   -0.326350
   3 C :   -0.201657
   4 C :   -0.152641
   5 C :   -0.159633
   6 C :   -0.187985
   7 C :   -0.266522
   8 O :    0.147049
   9 H :    0.106791
  10 H :    0.116396
  11 H :    0.104548
  12 H :    0.148003
  13 H :    0.147332
  14 H :    0.137930
  15 H :    0.137986
  16 H :    0.152089
  17 H :    0.144226
  18 H :    0.120583

  Mayer bond orders larger than 0.1
B(  0-C ,  1-O ) :   0.9024 B(  0-C ,  9-H ) :   0.9273 B(  0-C , 10-H ) :   0.9397
B(  0-C , 11-H ) :   0.9325 B(  1-O ,  2-C ) :   0.9898 B(  2-C ,  3-C ) :   0.9324
B(  2-C ,  6-C ) :   0.8641 B(  2-C ,  7-C ) :   0.8260 B(  3-C ,  4-C ) :   0.9590
B(  3-C , 12-H ) :   0.8893 B(  3-C , 13-H ) :   0.9114 B(  4-C ,  5-C ) :   1.7922
B(  4-C , 14-H ) :   0.9253 B(  5-C ,  6-C ) :   0.9661 B(  5-C , 15-H ) :   0.9288
B(  6-C , 16-H ) :   0.8907 B(  6-C , 17-H ) :   0.9177 B(  7-C ,  8-O ) :   2.0042
B(  7-C , 18-H ) :   0.9451

MP2 TOTAL ENERGY:     -422.317957516 Eh
FINAL SINGLE POINT ENERGY      -422.317957515698

DIPOLE MOMENT
-------------
                                X             Y             Z
Electronic contribution:      2.97274      -1.25955       1.33670
Nuclear contribution   :     -3.48282       1.29501      -1.69775
                        -----------------------------------------
Total Dipole Moment    :     -0.51008       0.03546      -0.36105
                        -----------------------------------------
Magnitude (a.u.)       :      0.62594
Magnitude (Debye)      :      1.59102

                             ****ORCA TERMINATED NORMALLY****
TOTAL RUN TIME: 0 days 0 hours 18 minutes 15 seconds 27 msec
