                         Program Version 3.0.3 - RELEASE   -
|  1> ! RI-MP2 RIJK def2-TZVP def2-TZVP/C def2-TZVP/JK TIGHTSCF
|  2> % maxcore 2000
|  3> % mp2 density relaxed end
|  4> *xyz 0 1
|  5>  C        0.3644511868     1.4211698054    -0.0613463267
|  6>  C        0.0398285607    -0.0724072760     0.0619325927
|  7>  C       -1.4767940891    -0.3127643878     0.0214795651
|  8>  O        0.6510567482    -0.7619658791    -1.0549797016
|  9>  C        1.4744292635    -1.8454793110    -0.6053711694
| 10>  C        2.8346713999    -1.7306615102    -1.3080742426
| 11>  O        3.4160629596    -0.4592452650    -1.1261379214
| 12>  C        1.4955654226    -1.6980092360     0.8921565924
| 13>  C        0.6911327156    -0.7130239181     1.2657071552
| 14>  H        1.4448194558     1.5807532718    -0.0030161765
| 15>  H       -0.0011876181     1.8089666494    -1.0171473171
| 16>  H       -0.1095040109     1.9920730959     0.7435298060
| 17>  H       -1.8991559401     0.0899919758    -0.9041125336
| 18>  H       -1.6952844498    -1.3829743413     0.0663413290
| 19>  H       -1.9724976708     0.1761412346     0.8667166761
| 20>  H        1.0218415383    -2.8088700241    -0.8996015362
| 21>  H        3.5275800693    -2.4721811099    -0.8951397510
| 22>  H        2.6959557588    -1.9617302093    -2.3763159051
| 23>  H        2.7320970884     0.1689381968    -1.3887628953
| 24>  H        2.0860832431    -2.3379949351     1.5357557373
| 25>  H        0.4897081880    -0.3819445966     2.2769972228
| 26> *
| 27>
| 28>                          ****END OF INPUT****

CARTESIAN COORDINATES (ANGSTROEM)
---------------------------------
  C      0.364451    1.421170   -0.061346
  C      0.039829   -0.072407    0.061933
  C     -1.476794   -0.312764    0.021480
  O      0.651057   -0.761966   -1.054980
  C      1.474429   -1.845479   -0.605371
  C      2.834671   -1.730662   -1.308074
  O      3.416063   -0.459245   -1.126138
  C      1.495565   -1.698009    0.892157
  C      0.691133   -0.713024    1.265707
  H      1.444819    1.580753   -0.003016
  H     -0.001188    1.808967   -1.017147
  H     -0.109504    1.992073    0.743530
  H     -1.899156    0.089992   -0.904113
  H     -1.695284   -1.382974    0.066341
  H     -1.972498    0.176141    0.866717
  H      1.021842   -2.808870   -0.899602
  H      3.527580   -2.472181   -0.895140
  H      2.695956   -1.961730   -2.376316
  H      2.732097    0.168938   -1.388763
  H      2.086083   -2.337995    1.535756
  H      0.489708   -0.381945    2.276997

 Total Charge           Charge          ....    0
 Multiplicity           Mult            ....    1
 Number of Electrons    NEL             ....   70
 Basis Dimension        Dim             ....  351

ORBITAL ENERGIES
----------------

  NO   OCC          E(Eh)            E(eV)
   0   2.0000     -20.554443      -559.3148
   1   2.0000     -20.547309      -559.1207
   2   2.0000     -11.294596      -307.3416
   3   2.0000     -11.285724      -307.1002
   4   2.0000     -11.272234      -306.7331
   5   2.0000     -11.233638      -305.6828
   6   2.0000     -11.231374      -305.6212
   7   2.0000     -11.219358      -305.2943
   8   2.0000     -11.217528      -305.2445
   9   2.0000      -1.385762       -37.7085
  10   2.0000      -1.349755       -36.7287
  11   2.0000      -1.084185       -29.5022
  12   2.0000      -1.062819       -28.9208
  13   2.0000      -0.967306       -26.3217
  14   2.0000      -0.941694       -25.6248
  15   2.0000      -0.856990       -23.3199
  16   2.0000      -0.779272       -21.2051
  17   2.0000      -0.762745       -20.7553
  18   2.0000      -0.692070       -18.8322
  19   2.0000      -0.678817       -18.4716
  20   2.0000      -0.654109       -17.7992
  21   2.0000      -0.619721       -16.8635
  22   2.0000      -0.600937       -16.3523
  23   2.0000      -0.587796       -15.9948
  24   2.0000      -0.577788       -15.7224
  25   2.0000      -0.548635       -14.9291
  26   2.0000      -0.546788       -14.8789
  27   2.0000      -0.535062       -14.5598
  28   2.0000      -0.516123       -14.0444
  29   2.0000      -0.498873       -13.5750
  30   2.0000      -0.487817       -13.2742
  31   2.0000      -0.474341       -12.9075
  32   2.0000      -0.444542       -12.0966
  33   2.0000      -0.430346       -11.7103
  34   2.0000      -0.357279        -9.7221
  35   0.0000       0.133339         3.6283
  36   0.0000       0.142667         3.8822
  37   0.0000       0.159070         4.3285
  38   0.0000       0.170800         4.6477
  39   0.0000       0.175634         4.7793

MULLIKEN ATOMIC CHARGES
-----------------------
   0 C :   -0.421689
   1 C :    0.274200
   2 C :   -0.399696
   3 O :   -0.372905
   4 C :    0.114957
   5 C :   -0.018417
   6 O :   -0.480162
   7 C :   -0.196364
   8 C :   -0.202180
   9 H :    0.136274
  10 H :    0.141538
  11 H :    0.129049
  12 H :    0.135970
  13 H :    0.134628
  14 H :    0.122093
  15 H :    0.091434
  16 H :    0.104328
  17 H :    0.110944
  18 H :    0.322430
  19 H :    0.137093
  20 H :    0.136475
Sum of atomic charges:   -0.0000000

LOEWDIN ATOMIC CHARGES
----------------------
   0 C :   -0.270951
   1 C :   -0.366023
   2 C :   -0.265436
   3 O :    0.202573
   4 C :   -0.303520
   5 C :   -0.332979
   6 O :   -0.038699
   7 C :   -0.132598
   8 C :   -0.118001
   9 H :    0.125759
  10 H :    0.129100
  11 H :    0.128713
  12 H :    0.128170
  13 H :    0.128202
  14 H :    0.126474
  15 H :    0.144621
  16 H :    0.130815
  17 H :    0.120169
  18 H :    0.175310
  19 H :    0.143332
  20 H :    0.144966

  Mayer bond orders larger than 0.1
B(  0-C ,  1-C ) :   0.8970 B(  0-C ,  9-H ) :   0.9365 B(  0-C , 10-H ) :   0.9351
B(  0-C , 11-H ) :   0.9300 B(  1-C ,  2-C ) :   0.9070 B(  1-C ,  3-O ) :   0.8606
B(  1-C ,  8-C ) :   0.9318 B(  2-C , 12-H ) :   0.9330 B(  2-C , 13-H ) :   0.9345
B(  2-C , 14-H ) :   0.9312 B(  3-O ,  4-C ) :   0.9332 B(  4-C ,  5-C ) :   0.9184
B(  4-C ,  7-C ) :   0.9656 B(  4-C , 15-H ) :   0.8882 B(  5-C ,  6-O ) :   0.9543
B(  5-C , 16-H ) :   0.9240 B(  5-C , 17-H ) :   0.9384 B(  6-O , 18-H ) :   0.8281
B(  7-C ,  8-C ) :   1.7907 B(  7-C , 19-H ) :   0.9105 B(  8-C , 20-H ) :   0.9126

MP2 TOTAL ENERGY:     -423.532704871 Eh
FINAL SINGLE POINT ENERGY      -423.532704871077

DIPOLE MOMENT
-------------
                                X             Y             Z
Electronic contribution:      3.71393      -2.43765      -0.64184
Nuclear contribution   :     -4.33959       2.24365       1.06468
                        -----------------------------------------
Total Dipole Moment    :     -0.62566      -0.19400       0.42284
                        -----------------------------------------
Magnitude (a.u.)       :      0.77967
Magnitude (Debye)      :      1.98176

                             ****ORCA TERMINATED NORMALLY****
TOTAL RUN TIME: 0 days 0 hours 29 minutes 53 seconds 589 msec
