                         Program Version 3.0.3 - RELEASE   -
|  1> ! RI-MP2 RIJK def2-TZVP def2-TZVP/C def2-TZVP/JK TIGHTSCF
|  2> % maxcore 2000
|  3> % mp2 density relaxed end
|  4> *xyz 0 1
|  5>  C        0.3659068501     1.5224587439    -0.3314560114
|  6>  C        0.0649816617     0.0417995451    -0.0429043067
|  7>  C       -1.4322985956    -0.1387718345     0.2219082750
|  8>  C        0.5801431976    -0.8561533137    -1.1913050992
|  9>  C        2.1025727749    -1.0163147866    -0.9623094620
| 10>  C        2.3434801686    -0.7034878935     0.5407338902
| 11>  C        0.9284031549    -0.4979864083     1.1458988316
| 12>  C        0.9039845829     0.3094624217     2.3554758915
| 13>  C        0.8856688582     0.9810114743     3.3536724085
| 14>  H        1.4212846594     1.6936055622    -0.5649802632
| 15>  H       -0.2217520634     1.8661551067    -1.1893559413
| 16>  H        0.1114429676     2.1480574667     0.5287649228
| 17>  H       -2.0260553944     0.1869022806    -0.6391437902
| 18>  H       -1.6764614562    -1.1886954260     0.4188811377
| 19>  H       -1.7500719002     0.4495133229     1.0891451056
| 20>  H        0.0866543781    -1.8336175639    -1.1297391393
| 21>  H        0.3406221681    -0.4417751443    -2.1754215209
| 22>  H        2.4388657375    -2.0220885997    -1.2279998974
| 23>  H        2.6701620689    -0.3248862901    -1.5912753085
| 24>  H        2.8815255736    -1.4994910750     1.0611348457
| 25>  H        2.9331786540     0.2082904157     0.6650237311
| 26>  H        0.5217383830    -1.4883709187     1.3955365379
| 27>  H        0.8715459109     1.5687695346     4.2377286726
| 28> *
| 29>
| 30>                          ****END OF INPUT****

CARTESIAN COORDINATES (ANGSTROEM)
---------------------------------
  C      0.365907    1.522459   -0.331456
  C      0.064982    0.041800   -0.042904
  C     -1.432299   -0.138772    0.221908
  C      0.580143   -0.856153   -1.191305
  C      2.102573   -1.016315   -0.962309
  C      2.343480   -0.703488    0.540734
  C      0.928403   -0.497986    1.145899
  C      0.903985    0.309462    2.355476
  C      0.885669    0.981011    3.353672
  H      1.421285    1.693606   -0.564980
  H     -0.221752    1.866155   -1.189356
  H      0.111443    2.148057    0.528765
  H     -2.026055    0.186902   -0.639144
  H     -1.676461   -1.188695    0.418881
  H     -1.750072    0.449513    1.089145
  H      0.086654   -1.833618   -1.129739
  H      0.340622   -0.441775   -2.175422
  H      2.438866   -2.022089   -1.228000
  H      2.670162   -0.324886   -1.591275
  H      2.881526   -1.499491    1.061135
  H      2.933179    0.208290    0.665024
  H      0.521738   -1.488371    1.395537
  H      0.871546    1.568770    4.237729

 Total Charge           Charge          ....    0
 Multiplicity           Mult            ....    1
 Number of Electrons    NEL             ....   68
 Basis Dimension        Dim             ....  363

ORBITAL ENERGIES
----------------

  NO   OCC          E(Eh)            E(eV)
   0   2.0000     -11.246646      -306.0368
   1   2.0000     -11.237502      -305.7880
   2   2.0000     -11.227595      -305.5184
   3   2.0000     -11.223586      -305.4093
   4   2.0000     -11.220173      -305.3164
   5   2.0000     -11.217710      -305.2494
   6   2.0000     -11.214785      -305.1698
   7   2.0000     -11.210179      -305.0445
   8   2.0000     -11.208589      -305.0012
   9   2.0000      -1.146967       -31.2106
  10   2.0000      -1.036618       -28.2078
  11   2.0000      -1.024215       -27.8703
  12   2.0000      -0.959057       -26.0973
  13   2.0000      -0.930043       -25.3078
  14   2.0000      -0.892823       -24.2949
  15   2.0000      -0.794212       -21.6116
  16   2.0000      -0.749159       -20.3857
  17   2.0000      -0.705872       -19.2078
  18   2.0000      -0.660768       -17.9804
  19   2.0000      -0.642012       -17.4700
  20   2.0000      -0.611729       -16.6460
  21   2.0000      -0.591283       -16.0896
  22   2.0000      -0.571574       -15.5533
  23   2.0000      -0.551594       -15.0096
  24   2.0000      -0.529893       -14.4191
  25   2.0000      -0.515362       -14.0237
  26   2.0000      -0.508327       -13.8323
  27   2.0000      -0.480670       -13.0797
  28   2.0000      -0.467591       -12.7238
  29   2.0000      -0.463175       -12.6036
  30   2.0000      -0.455766       -12.4020
  31   2.0000      -0.444651       -12.0996
  32   2.0000      -0.377790       -10.2802
  33   2.0000      -0.373345       -10.1592
  34   0.0000       0.127647         3.4735
  35   0.0000       0.156485         4.2582
  36   0.0000       0.161469         4.3938
  37   0.0000       0.164893         4.4870
  38   0.0000       0.177098         4.8191

MULLIKEN ATOMIC CHARGES
-----------------------
   0 C :   -0.459798
   1 C :    0.133116
   2 C :   -0.406258
   3 C :   -0.251170
   4 C :   -0.225878
   5 C :   -0.263842
   6 C :   -0.171586
   7 C :   -0.022405
   8 C :   -0.171907
   9 H :    0.132995
  10 H :    0.131548
  11 H :    0.148598
  12 H :    0.130635
  13 H :    0.124061
  14 H :    0.144023
  15 H :    0.110713
  16 H :    0.122658
  17 H :    0.119639
  18 H :    0.121454
  19 H :    0.126907
  20 H :    0.132758
  21 H :    0.107861
  22 H :    0.185879
Sum of atomic charges:    0.0000000

LOEWDIN ATOMIC CHARGES
----------------------
   0 C :   -0.259182
   1 C :   -0.288906
   2 C :   -0.268111
   3 C :   -0.215079
   4 C :   -0.249087
   5 C :   -0.212200
   6 C :   -0.199921
   7 C :   -0.086764
   8 C :   -0.106865
   9 H :    0.128023
  10 H :    0.126279
  11 H :    0.131973
  12 H :    0.126127
  13 H :    0.124397
  14 H :    0.130659
  15 H :    0.139454
  16 H :    0.137096
  17 H :    0.132699
  18 H :    0.133967
  19 H :    0.135285
  20 H :    0.139892
  21 H :    0.174783
  22 H :    0.125483

  Mayer bond orders larger than 0.1
B(  0-C ,  1-C ) :   0.9169 B(  0-C ,  9-H ) :   0.9306 B(  0-C , 10-H ) :   0.9362
B(  0-C , 11-H ) :   0.9340 B(  1-C ,  2-C ) :   0.9153 B(  1-C ,  3-C ) :   0.8870
B(  1-C ,  6-C ) :   0.8481 B(  2-C , 12-H ) :   0.9378 B(  2-C , 13-H ) :   0.9289
B(  2-C , 14-H ) :   0.9356 B(  3-C ,  4-C ) :   0.9467 B(  3-C , 15-H ) :   0.9227
B(  3-C , 16-H ) :   0.9269 B(  4-C ,  5-C ) :   0.9199 B(  4-C , 17-H ) :   0.9321
B(  4-C , 18-H ) :   0.9353 B(  5-C ,  6-C ) :   0.9134 B(  5-C , 19-H ) :   0.9307
B(  5-C , 20-H ) :   0.9325 B(  6-C ,  7-C ) :   1.1510 B(  6-C , 21-H ) :   0.9198
B(  7-C ,  8-C ) :   2.5882 B(  8-C , 22-H ) :   0.8937

MP2 TOTAL ENERGY:     -350.499344829 Eh
FINAL SINGLE POINT ENERGY      -350.499344828725

DIPOLE MOMENT
-------------
                                X             Y             Z
Electronic contribution:      1.57594      -0.00393       5.58154
Nuclear contribution   :     -1.56524      -0.10022      -5.84129
                        -----------------------------------------
Total Dipole Moment    :      0.01070      -0.10415      -0.25975
                        -----------------------------------------
Magnitude (a.u.)       :      0.28006
Magnitude (Debye)      :      0.71184

                             ****ORCA TERMINATED NORMALLY****
TOTAL RUN TIME: 0 days 0 hours 24 minutes 42 seconds 26 msec
