                         Program Version 3.0.3 - RELEASE   -
|  1> ! RI-MP2 RIJK def2-TZVP def2-TZVP/C def2-TZVP/JK TIGHTSCF
|  2> % maxcore 2000
|  3> % mp2 density relaxed end
|  4> *xyz 0 1
|  5>  C       -0.1361802252     1.5526563059    -0.0526565033
|  6>  C        0.0199395870     0.0439269396     0.0211745093
|  7>  C        1.2845719125    -0.7280665818    -0.2927606085
|  8>  C        2.6811210616    -0.0974668443    -0.3435023154
|  9>  C        3.2493495572     0.1232414342     1.0735117060
| 10>  C        2.3359484032     0.9931392777     1.9551620867
| 11>  C        1.6362991974    -0.3613274265     2.1850543420
| 12>  O        2.9192999259    -1.0243286495     1.9070389063
| 13>  C        0.6756633475    -0.8080493617     1.0966327578
| 14>  H        0.8116448299     2.0813202288    -0.1734066666
| 15>  H       -0.7472766309     1.8074699902    -0.9247625221
| 16>  H       -0.6405654560     1.9621118741     0.8290903558
| 17>  H       -0.8658592007    -0.4577566925    -0.3630258827
| 18>  H        1.1650672759    -1.5908949243    -0.9393870768
| 19>  H        3.3477211458    -0.7848626652    -0.8737059161
| 20>  H        2.7002489064     0.8482640124    -0.9015520747
| 21>  H        4.3234719794     0.3278335840     1.0591083289
| 22>  H        2.8565208342     1.3071625978     2.8618344026
| 23>  H        1.7946071640     1.8327129298     1.5278084773
| 24>  H        1.2728445549    -0.5924410761     3.1889426492
| 25>  H        0.1406332700    -1.7182167227     1.3521043242
| 26> *
| 27>
| 28>                          ****END OF INPUT****

CARTESIAN COORDINATES (ANGSTROEM)
---------------------------------
  C     -0.136180    1.552656   -0.052657
  C      0.019940    0.043927    0.021175
  C      1.284572   -0.728067   -0.292761
  C      2.681121   -0.097467   -0.343502
  C      3.249350    0.123241    1.073512
  C      2.335948    0.993139    1.955162
  C      1.636299   -0.361327    2.185054
  O      2.919300   -1.024329    1.907039
  C      0.675663   -0.808049    1.096633
  H      0.811645    2.081320   -0.173407
  H     -0.747277    1.807470   -0.924763
  H     -0.640565    1.962112    0.829090
  H     -0.865859   -0.457757   -0.363026
  H      1.165067   -1.590895   -0.939387
  H      3.347721   -0.784863   -0.873706
  H      2.700249    0.848264   -0.901552
  H      4.323472    0.327834    1.059108
  H      2.856521    1.307163    2.861834
  H      1.794607    1.832713    1.527808
  H      1.272845   -0.592441    3.188943
  H      0.140633   -1.718217    1.352104

 Total Charge           Charge          ....    0
 Multiplicity           Mult            ....    1
 Number of Electrons    NEL             ....   68
 Basis Dimension        Dim             ....  351

ORBITAL ENERGIES
----------------

  NO   OCC          E(Eh)            E(eV)
   0   2.0000     -20.536330      -558.8219
   1   2.0000     -11.282806      -307.0208
   2   2.0000     -11.279481      -306.9303
   3   2.0000     -11.236350      -305.7566
   4   2.0000     -11.226369      -305.4850
   5   2.0000     -11.225166      -305.4523
   6   2.0000     -11.224883      -305.4446
   7   2.0000     -11.222325      -305.3750
   8   2.0000     -11.221380      -305.3493
   9   2.0000      -1.370884       -37.3037
  10   2.0000      -1.151361       -31.3301
  11   2.0000      -1.023604       -27.8537
  12   2.0000      -0.994425       -27.0597
  13   2.0000      -0.976209       -26.5640
  14   2.0000      -0.879151       -23.9229
  15   2.0000      -0.818107       -22.2618
  16   2.0000      -0.750770       -20.4295
  17   2.0000      -0.711398       -19.3581
  18   2.0000      -0.702075       -19.1044
  19   2.0000      -0.652656       -17.7597
  20   2.0000      -0.622578       -16.9412
  21   2.0000      -0.604434       -16.4475
  22   2.0000      -0.573958       -15.6182
  23   2.0000      -0.568027       -15.4568
  24   2.0000      -0.560110       -15.2414
  25   2.0000      -0.543141       -14.7796
  26   2.0000      -0.535973       -14.5846
  27   2.0000      -0.500114       -13.6088
  28   2.0000      -0.478412       -13.0182
  29   2.0000      -0.462546       -12.5865
  30   2.0000      -0.443084       -12.0569
  31   2.0000      -0.410179       -11.1615
  32   2.0000      -0.393500       -10.7077
  33   2.0000      -0.384386       -10.4597
  34   0.0000       0.133952         3.6450
  35   0.0000       0.155967         4.2441
  36   0.0000       0.161973         4.4075
  37   0.0000       0.169009         4.5990
  38   0.0000       0.192092         5.2271

MULLIKEN ATOMIC CHARGES
-----------------------
   0 C :   -0.405075
   1 C :   -0.140813
   2 C :   -0.109830
   3 C :   -0.248469
   4 C :    0.054564
   5 C :   -0.254213
   6 C :    0.069340
   7 O :   -0.333533
   8 C :   -0.107810
   9 H :    0.126336
  10 H :    0.139328
  11 H :    0.140107
  12 H :    0.114216
  13 H :    0.124888
  14 H :    0.123177
  15 H :    0.116792
  16 H :    0.110632
  17 H :    0.119753
  18 H :    0.125166
  19 H :    0.115039
  20 H :    0.120404
Sum of atomic charges:    0.0000000

LOEWDIN ATOMIC CHARGES
----------------------
   0 C :   -0.299743
   1 C :   -0.207811
   2 C :   -0.173394
   3 C :   -0.221064
   4 C :   -0.271091
   5 C :   -0.205299
   6 C :   -0.240361
   7 O :    0.150327
   8 C :   -0.173078
   9 H :    0.119313
  10 H :    0.128007
  11 H :    0.125618
  12 H :    0.154785
  13 H :    0.145365
  14 H :    0.146541
  15 H :    0.139957
  16 H :    0.131384
  17 H :    0.139246
  18 H :    0.126654
  19 H :    0.135305
  20 H :    0.149340

  Mayer bond orders larger than 0.1
B(  0-C ,  1-C ) :   0.8850 B(  0-C ,  9-H ) :   0.9408 B(  0-C , 10-H ) :   0.9361
B(  0-C , 11-H ) :   0.9392 B(  1-C ,  2-C ) :   0.8961 B(  1-C ,  8-C ) :   0.8601
B(  1-C , 12-H ) :   0.9289 B(  2-C ,  3-C ) :   0.9319 B(  2-C ,  8-C ) :   0.8369
B(  2-C , 13-H ) :   0.9268 B(  3-C ,  4-C ) :   0.9440 B(  3-C , 14-H ) :   0.9155
B(  3-C , 15-H ) :   0.9177 B(  4-C ,  5-C ) :   0.9639 B(  4-C ,  7-O ) :   0.9522
B(  4-C , 16-H ) :   0.9256 B(  5-C ,  6-C ) :   0.9470 B(  5-C , 17-H ) :   0.9282
B(  5-C , 18-H ) :   0.9307 B(  6-C ,  7-O ) :   0.9244 B(  6-C ,  8-C ) :   0.9576
B(  6-C , 19-H ) :   0.9186 B(  8-C , 20-H ) :   0.9228

MP2 TOTAL ENERGY:     -386.384571832 Eh
FINAL SINGLE POINT ENERGY      -386.384571832099

DIPOLE MOMENT
-------------
                                X             Y             Z
Electronic contribution:      2.94784      -4.36554       2.97010
Nuclear contribution   :     -3.32282       4.94220      -3.26920
                        -----------------------------------------
Total Dipole Moment    :     -0.37498       0.57666      -0.29911
                        -----------------------------------------
Magnitude (a.u.)       :      0.75007
Magnitude (Debye)      :      1.90654

                             ****ORCA TERMINATED NORMALLY****
TOTAL RUN TIME: 0 days 0 hours 20 minutes 25 seconds 621 msec
