                         Program Version 3.0.3 - RELEASE   -
|  1> ! RI-MP2 RIJK def2-TZVP def2-TZVP/C def2-TZVP/JK TIGHTSCF
|  2> % maxcore 2000
|  3> % mp2 density relaxed end
|  4> *xyz 0 1
|  5>  C       -0.0875272986     1.5178217069    -0.0554565934
|  6>  N        0.0303629509     0.0563312210    -0.0552057022
|  7>  C        0.7795697182    -0.5007192154    -1.1737913721
|  8>  C        0.6506658770    -2.0601406536    -1.2109519621
|  9>  C       -0.5113988539    -1.9666952202    -2.2429340379
| 10>  C       -0.1722040096    -0.4869239190    -2.4286284757
| 11>  O       -0.4601268699     0.3591178259    -3.2157493523
| 12>  C        2.1289646380     0.0474506009    -1.3514886232
| 13>  N        3.1894852900     0.4930901551    -1.4743685621
| 14>  H        0.8803264007     2.0391114216    -0.0155130946
| 15>  H       -0.6088255140     1.8385721893    -0.9607214403
| 16>  H       -0.6857856249     1.8173129420     0.8085613015
| 17>  H        0.4506921917    -0.2610541070     0.8132733542
| 18>  H        1.5436614883    -2.5363996565    -1.6170225173
| 19>  H        0.4048976119    -2.5022281762    -0.2454938771
| 20>  H       -0.4341384645    -2.5732610732    -3.1477839975
| 21>  H       -1.5042855412    -2.1061659315    -1.8079248577
| 22> *
| 23>
| 24>                          ****END OF INPUT****

CARTESIAN COORDINATES (ANGSTROEM)
---------------------------------
  C     -0.087527    1.517822   -0.055457
  N      0.030363    0.056331   -0.055206
  C      0.779570   -0.500719   -1.173791
  C      0.650666   -2.060141   -1.210952
  C     -0.511399   -1.966695   -2.242934
  C     -0.172204   -0.486924   -2.428628
  O     -0.460127    0.359118   -3.215749
  C      2.128965    0.047451   -1.351489
  N      3.189485    0.493090   -1.474369
  H      0.880326    2.039111   -0.015513
  H     -0.608826    1.838572   -0.960721
  H     -0.685786    1.817313    0.808561
  H      0.450692   -0.261054    0.813273
  H      1.543661   -2.536400   -1.617023
  H      0.404898   -2.502228   -0.245494
  H     -0.434138   -2.573261   -3.147784
  H     -1.504286   -2.106166   -1.807925

 Total Charge           Charge          ....    0
 Multiplicity           Mult            ....    1
 Number of Electrons    NEL             ....   66
 Basis Dimension        Dim             ....  327

ORBITAL ENERGIES
----------------

  NO   OCC          E(Eh)            E(eV)
   0   2.0000     -20.579925      -560.0082
   1   2.0000     -15.586961      -424.1428
   2   2.0000     -15.582325      -424.0166
   3   2.0000     -11.360305      -309.1296
   4   2.0000     -11.329661      -308.2957
   5   2.0000     -11.279984      -306.9440
   6   2.0000     -11.269595      -306.6613
   7   2.0000     -11.263692      -306.5006
   8   2.0000     -11.260229      -306.4064
   9   2.0000      -1.425062       -38.7779
  10   2.0000      -1.264638       -34.4126
  11   2.0000      -1.219182       -33.1756
  12   2.0000      -1.137975       -30.9659
  13   2.0000      -0.981243       -26.7010
  14   2.0000      -0.908644       -24.7255
  15   2.0000      -0.897496       -24.4221
  16   2.0000      -0.799628       -21.7590
  17   2.0000      -0.725881       -19.7522
  18   2.0000      -0.694706       -18.9039
  19   2.0000      -0.671535       -18.2734
  20   2.0000      -0.643014       -17.4973
  21   2.0000      -0.623763       -16.9735
  22   2.0000      -0.605514       -16.4769
  23   2.0000      -0.573715       -15.6116
  24   2.0000      -0.567275       -15.4363
  25   2.0000      -0.547707       -14.9039
  26   2.0000      -0.539319       -14.6756
  27   2.0000      -0.526824       -14.3356
  28   2.0000      -0.514010       -13.9869
  29   2.0000      -0.491711       -13.3801
  30   2.0000      -0.463963       -12.6251
  31   2.0000      -0.428959       -11.6726
  32   2.0000      -0.403454       -10.9785
  33   0.0000       0.103970         2.8292
  34   0.0000       0.121745         3.3129
  35   0.0000       0.141266         3.8440
  36   0.0000       0.150019         4.0822
  37   0.0000       0.161919         4.4060

MULLIKEN ATOMIC CHARGES
-----------------------
   0 C :   -0.310812
   1 N :   -0.391527
   2 C :    0.382906
   3 C :   -0.301937
   4 C :   -0.182106
   5 C :    0.072128
   6 O :   -0.222560
   7 C :   -0.244221
   8 N :   -0.045497
   9 H :    0.139544
  10 H :    0.155346
  11 H :    0.142168
  12 H :    0.219401
  13 H :    0.154242
  14 H :    0.134827
  15 H :    0.150206
  16 H :    0.147891
Sum of atomic charges:   -0.0000000

LOEWDIN ATOMIC CHARGES
----------------------
   0 C :   -0.327207
   1 N :    0.021092
   2 C :   -0.290004
   3 C :   -0.171710
   4 C :   -0.198210
   5 C :   -0.260965
   6 O :    0.196169
   7 C :   -0.158171
   8 N :    0.073735
   9 H :    0.111473
  10 H :    0.125113
  11 H :    0.119248
  12 H :    0.178462
  13 H :    0.144636
  14 H :    0.136885
  15 H :    0.145085
  16 H :    0.154369

  Mayer bond orders larger than 0.1
B(  0-C ,  1-N ) :   0.9060 B(  0-C ,  9-H ) :   0.9296 B(  0-C , 10-H ) :   0.9315
B(  0-C , 11-H ) :   0.9317 B(  1-N ,  2-C ) :   0.9323 B(  1-N , 12-H ) :   0.8730
B(  2-C ,  3-C ) :   0.8632 B(  2-C ,  4-C ) :  -0.1215 B(  2-C ,  5-C ) :   0.7252
B(  2-C ,  7-C ) :   0.8721 B(  3-C ,  4-C ) :   0.9576 B(  3-C , 13-H ) :   0.9248
B(  3-C , 14-H ) :   0.9228 B(  4-C ,  5-C ) :   0.9376 B(  4-C , 15-H ) :   0.9071
B(  4-C , 16-H ) :   0.8889 B(  5-C ,  6-O ) :   2.0510 B(  7-C ,  8-N ) :   2.8576

MP2 TOTAL ENERGY:     -417.301720670 Eh
FINAL SINGLE POINT ENERGY      -417.301720669671

DIPOLE MOMENT
-------------
                                X             Y             Z
Electronic contribution:      3.37789       0.96778      -4.19899
Nuclear contribution   :     -4.26925      -2.05108       5.11818
                        -----------------------------------------
Total Dipole Moment    :     -0.89136      -1.08330       0.91919
                        -----------------------------------------
Magnitude (a.u.)       :      1.67719
Magnitude (Debye)      :      4.26308

                             ****ORCA TERMINATED NORMALLY****
TOTAL RUN TIME: 0 days 0 hours 16 minutes 49 seconds 249 msec
