                         Program Version 3.0.3 - RELEASE   -
|  1> ! RI-MP2 RIJK def2-TZVP def2-TZVP/C def2-TZVP/JK TIGHTSCF
|  2> % maxcore 2000
|  3> % mp2 density relaxed end
|  4> *xyz 0 1
|  5>  O       -0.0787577732     1.2859482496    -0.0023641069
|  6>  N        0.0135112411    -0.0968504224    -0.0040114317
|  7>  C       -1.1213619864    -0.6684182782     0.0211138654
|  8>  C       -1.3380286571    -2.1626279170     0.0248167881
|  9>  C       -2.4503704751    -2.3293096463    -1.0538333758
| 10>  C       -3.2574879494    -1.5673410892     0.0376626921
| 11>  N       -2.4072703390    -2.2344901320     1.1093503651
| 12>  C       -2.5656844609    -0.1911592522     0.0302404409
| 13>  O       -3.0402889395     0.9088296649     0.0136332189
| 14>  H        0.8470022282     1.5553607358    -0.0153966223
| 15>  H       -0.4614829682    -2.8014256979     0.1036844540
| 16>  H       -2.3115900436    -1.8783256671    -2.0420902615
| 17>  H       -2.7807934519    -3.3675400503    -1.1475469898
| 18>  H       -4.3409971334    -1.5776336576     0.1306584194
| 19>  H       -2.7140968418    -3.2082337401     1.1612874742
| 20> *
| 21>
| 22>                          ****END OF INPUT****

CARTESIAN COORDINATES (ANGSTROEM)
---------------------------------
  O     -0.078758    1.285948   -0.002364
  N      0.013511   -0.096850   -0.004011
  C     -1.121362   -0.668418    0.021114
  C     -1.338029   -2.162628    0.024817
  C     -2.450370   -2.329310   -1.053833
  C     -3.257488   -1.567341    0.037663
  N     -2.407270   -2.234490    1.109350
  C     -2.565684   -0.191159    0.030240
  O     -3.040289    0.908830    0.013633
  H      0.847002    1.555361   -0.015397
  H     -0.461483   -2.801426    0.103684
  H     -2.311590   -1.878326   -2.042090
  H     -2.780793   -3.367540   -1.147547
  H     -4.340997   -1.577634    0.130658
  H     -2.714097   -3.208234    1.161287

 Total Charge           Charge          ....    0
 Multiplicity           Mult            ....    1
 Number of Electrons    NEL             ....   66
 Basis Dimension        Dim             ....  315

ORBITAL ENERGIES
----------------

  NO   OCC          E(Eh)            E(eV)
   0   2.0000     -20.606790      -560.7393
   1   2.0000     -20.567116      -559.6597
   2   2.0000     -15.646227      -425.7555
   3   2.0000     -15.581367      -423.9906
   4   2.0000     -11.349722      -308.8416
   5   2.0000     -11.297314      -307.4156
   6   2.0000     -11.293814      -307.3203
   7   2.0000     -11.291957      -307.2698
   8   2.0000     -11.264640      -306.5264
   9   2.0000      -1.442339       -39.2480
  10   2.0000      -1.407342       -38.2957
  11   2.0000      -1.294544       -35.2263
  12   2.0000      -1.167115       -31.7588
  13   2.0000      -1.024384       -27.8749
  14   2.0000      -0.953107       -25.9353
  15   2.0000      -0.937007       -25.4972
  16   2.0000      -0.792880       -21.5754
  17   2.0000      -0.738532       -20.0965
  18   2.0000      -0.717300       -19.5187
  19   2.0000      -0.702376       -19.1126
  20   2.0000      -0.657636       -17.8952
  21   2.0000      -0.642033       -17.4706
  22   2.0000      -0.635601       -17.2956
  23   2.0000      -0.597665       -16.2633
  24   2.0000      -0.591771       -16.1029
  25   2.0000      -0.560780       -15.2596
  26   2.0000      -0.554980       -15.1018
  27   2.0000      -0.520298       -14.1580
  28   2.0000      -0.506834       -13.7917
  29   2.0000      -0.475521       -12.9396
  30   2.0000      -0.425651       -11.5825
  31   2.0000      -0.399449       -10.8696
  32   2.0000      -0.390347       -10.6219
  33   0.0000       0.084310         2.2942
  34   0.0000       0.125939         3.4270
  35   0.0000       0.148961         4.0534
  36   0.0000       0.163334         4.4445
  37   0.0000       0.165546         4.5047

MULLIKEN ATOMIC CHARGES
-----------------------
   0 O :   -0.321825
   1 N :   -0.061049
   2 C :   -0.046238
   3 C :    0.035226
   4 C :   -0.281995
   5 C :    0.026982
   6 N :   -0.346280
   7 C :    0.112879
   8 O :   -0.227146
   9 H :    0.340092
  10 H :    0.146797
  11 H :    0.134937
  12 H :    0.131785
  13 H :    0.146034
  14 H :    0.209801
Sum of atomic charges:    0.0000000

LOEWDIN ATOMIC CHARGES
----------------------
   0 O :   -0.037784
   1 N :    0.046354
   2 C :   -0.238556
   3 C :   -0.201023
   4 C :   -0.195245
   5 C :   -0.205706
   6 N :    0.017056
   7 C :   -0.269778
   8 O :    0.190907
   9 H :    0.175406
  10 H :    0.139511
  11 H :    0.133280
  12 H :    0.139393
  13 H :    0.136889
  14 H :    0.169295

  Mayer bond orders larger than 0.1
B(  0-O ,  1-N ) :   0.8444 B(  0-O ,  9-H ) :   0.8397 B(  1-N ,  2-C ) :   1.8274
B(  2-C ,  3-C ) :   0.8884 B(  2-C ,  7-C ) :   0.8993 B(  3-C ,  4-C ) :   0.9170
B(  3-C ,  6-N ) :   0.9053 B(  3-C , 10-H ) :   0.9024 B(  4-C ,  5-C ) :   0.9095
B(  4-C , 11-H ) :   0.9156 B(  4-C , 12-H ) :   0.9108 B(  5-C ,  6-N ) :   0.8863
B(  5-C ,  7-C ) :   0.8472 B(  5-C , 13-H ) :   0.9020 B(  6-N , 14-H ) :   0.8628
B(  7-C ,  8-O ) :   2.0368

MP2 TOTAL ENERGY:     -453.129895589 Eh
FINAL SINGLE POINT ENERGY      -453.129895588766

DIPOLE MOMENT
-------------
                                X             Y             Z
Electronic contribution:      1.25821       5.11724       1.21086
Nuclear contribution   :     -1.01491      -6.42447      -1.80586
                        -----------------------------------------
Total Dipole Moment    :      0.24330      -1.30723      -0.59500
                        -----------------------------------------
Magnitude (a.u.)       :      1.45673
Magnitude (Debye)      :      3.70271

                             ****ORCA TERMINATED NORMALLY****
TOTAL RUN TIME: 0 days 0 hours 15 minutes 36 seconds 78 msec
