                         Program Version 3.0.3 - RELEASE   -
|  1> ! RI-MP2 RIJK def2-TZVP def2-TZVP/C def2-TZVP/JK TIGHTSCF
|  2> % maxcore 2000
|  3> % mp2 density relaxed end
|  4> *xyz 0 1
|  5>  C       -0.3427155856     1.4103250889    -0.0568423860
|  6>  C        0.0716427187    -0.0560466357    -0.0950093517
|  7>  C        1.3864404550    -0.3454801654    -0.8833402878
|  8>  C        2.1452033498    -0.6219958808     0.4489710221
|  9>  C        0.7781560061    -0.5702248140     1.2020600340
| 10>  C        0.5291075691    -2.0117543430     1.5564178480
| 11>  C        1.5667430376    -2.7987738961     1.2720062128
| 12>  C        2.7324886762    -2.0421445398     0.6666096386
| 13>  O        3.2846229401    -2.6619215620    -0.4887798634
| 14>  H        0.4893252605     2.0493062812     0.2615886785
| 15>  H       -0.6661400109     1.7558063377    -1.0450010511
| 16>  H       -1.1707840828     1.5707827213     0.6427022272
| 17>  H       -0.7791970748    -0.6718575168    -0.4052776244
| 18>  H        1.3188078031    -1.2098097530    -1.5493700161
| 19>  H        1.7688027205     0.4923183157    -1.4718157262
| 20>  H        2.8607634621     0.1610870924     0.7014270173
| 21>  H        0.6908797815     0.0962485375     2.0672954284
| 22>  H       -0.4078345412    -2.3472813125     1.9910904265
| 23>  H        1.6184750860    -3.8693919301     1.4409247821
| 24>  H        3.5778127515    -2.0026593541     1.3653581901
| 25>  H        2.5588721476    -2.8528142015    -1.0922591591
| 26> *
| 27>
| 28>                          ****END OF INPUT****

CARTESIAN COORDINATES (ANGSTROEM)
---------------------------------
  C     -0.342716    1.410325   -0.056842
  C      0.071643   -0.056047   -0.095009
  C      1.386440   -0.345480   -0.883340
  C      2.145203   -0.621996    0.448971
  C      0.778156   -0.570225    1.202060
  C      0.529108   -2.011754    1.556418
  C      1.566743   -2.798774    1.272006
  C      2.732489   -2.042145    0.666610
  O      3.284623   -2.661922   -0.488780
  H      0.489325    2.049306    0.261589
  H     -0.666140    1.755806   -1.045001
  H     -1.170784    1.570783    0.642702
  H     -0.779197   -0.671858   -0.405278
  H      1.318808   -1.209810   -1.549370
  H      1.768803    0.492318   -1.471816
  H      2.860763    0.161087    0.701427
  H      0.690880    0.096249    2.067295
  H     -0.407835   -2.347281    1.991090
  H      1.618475   -3.869392    1.440925
  H      3.577813   -2.002659    1.365358
  H      2.558872   -2.852814   -1.092259

 Total Charge           Charge          ....    0
 Multiplicity           Mult            ....    1
 Number of Electrons    NEL             ....   68
 Basis Dimension        Dim             ....  351

ORBITAL ENERGIES
----------------

  NO   OCC          E(Eh)            E(eV)
   0   2.0000     -20.550768      -559.2148
   1   2.0000     -11.278783      -306.9113
   2   2.0000     -11.232121      -305.6415
   3   2.0000     -11.229228      -305.5628
   4   2.0000     -11.228690      -305.5482
   5   2.0000     -11.224031      -305.4214
   6   2.0000     -11.224004      -305.4207
   7   2.0000     -11.221570      -305.3544
   8   2.0000     -11.216687      -305.2216
   9   2.0000      -1.356576       -36.9143
  10   2.0000      -1.161710       -31.6117
  11   2.0000      -1.061472       -28.8841
  12   2.0000      -0.979293       -26.6479
  13   2.0000      -0.938013       -25.5246
  14   2.0000      -0.888941       -24.1893
  15   2.0000      -0.818657       -22.2768
  16   2.0000      -0.755708       -20.5639
  17   2.0000      -0.717873       -19.5343
  18   2.0000      -0.702912       -19.1272
  19   2.0000      -0.649170       -17.6648
  20   2.0000      -0.628426       -17.1003
  21   2.0000      -0.604746       -16.4560
  22   2.0000      -0.590528       -16.0691
  23   2.0000      -0.577250       -15.7078
  24   2.0000      -0.559997       -15.2383
  25   2.0000      -0.525689       -14.3047
  26   2.0000      -0.522731       -14.2242
  27   2.0000      -0.501130       -13.6364
  28   2.0000      -0.466909       -12.7052
  29   2.0000      -0.464504       -12.6398
  30   2.0000      -0.442434       -12.0393
  31   2.0000      -0.437496       -11.9049
  32   2.0000      -0.412565       -11.2265
  33   2.0000      -0.351802        -9.5730
  34   0.0000       0.132537         3.6065
  35   0.0000       0.138433         3.7669
  36   0.0000       0.150373         4.0918
  37   0.0000       0.169428         4.6104
  38   0.0000       0.172792         4.7019

MULLIKEN ATOMIC CHARGES
-----------------------
   0 C :   -0.441156
   1 C :    0.014283
   2 C :   -0.320187
   3 C :    0.008395
   4 C :   -0.036290
   5 C :   -0.201745
   6 C :   -0.216084
   7 C :    0.058546
   8 O :   -0.457116
   9 H :    0.128812
  10 H :    0.134498
  11 H :    0.130310
  12 H :    0.094412
  13 H :    0.088546
  14 H :    0.120853
  15 H :    0.112618
  16 H :    0.113318
  17 H :    0.128558
  18 H :    0.128611
  19 H :    0.101943
  20 H :    0.308874
Sum of atomic charges:    0.0000000

LOEWDIN ATOMIC CHARGES
----------------------
   0 C :   -0.299186
   1 C :   -0.226916
   2 C :   -0.194617
   3 C :   -0.160241
   4 C :   -0.168729
   5 C :   -0.130471
   6 C :   -0.147701
   7 C :   -0.305792
   8 O :   -0.018395
   9 H :    0.124917
  10 H :    0.124112
  11 H :    0.123398
  12 H :    0.140579
  13 H :    0.125426
  14 H :    0.131935
  15 H :    0.143029
  16 H :    0.146273
  17 H :    0.138959
  18 H :    0.138585
  19 H :    0.146319
  20 H :    0.168516

  Mayer bond orders larger than 0.1
B(  0-C ,  1-C ) :   0.8956 B(  0-C ,  9-H ) :   0.9329 B(  0-C , 10-H ) :   0.9422
B(  0-C , 11-H ) :   0.9432 B(  1-C ,  2-C ) :   0.9116 B(  1-C ,  4-C ) :   0.8645
B(  1-C , 12-H ) :   0.9148 B(  2-C ,  3-C ) :   0.9348 B(  2-C , 13-H ) :   0.9111
B(  2-C , 14-H ) :   0.9283 B(  3-C ,  4-C ) :   0.9215 B(  3-C ,  7-C ) :   0.9123
B(  3-C , 15-H ) :   0.9089 B(  4-C ,  5-C ) :   0.9110 B(  4-C , 16-H ) :   0.9131
B(  5-C ,  6-C ) :   1.7563 B(  5-C , 17-H ) :   0.9203 B(  6-C ,  7-C ) :   0.9547
B(  6-C , 18-H ) :   0.9374 B(  7-C ,  8-O ) :   0.9540 B(  7-C , 19-H ) :   0.9212
B(  8-O , 20-H ) :   0.8414

MP2 TOTAL ENERGY:     -386.412274939 Eh
FINAL SINGLE POINT ENERGY      -386.412274939453

DIPOLE MOMENT
-------------
                                X             Y             Z
Electronic contribution:      3.65895      -5.45392       1.41888
Nuclear contribution   :     -4.34834       5.71690      -1.31852
                        -----------------------------------------
Total Dipole Moment    :     -0.68940       0.26297       0.10036
                        -----------------------------------------
Magnitude (a.u.)       :      0.74464
Magnitude (Debye)      :      1.89274

                             ****ORCA TERMINATED NORMALLY****
TOTAL RUN TIME: 0 days 0 hours 18 minutes 29 seconds 415 msec
