                         Program Version 3.0.3 - RELEASE   -
|  1> ! RI-MP2 RIJK def2-TZVP def2-TZVP/C def2-TZVP/JK TIGHTSCF
|  2> % maxcore 2000
|  3> % mp2 density relaxed end
|  4> *xyz 0 1
|  5>  C        0.7152508460     1.5591673749    -0.2638719385
|  6>  C        0.1561539578     0.1695690691     0.0737048610
|  7>  C        0.3504702306    -0.8875181906    -1.0595885168
|  8>  N        1.3275900570    -1.9085158324    -0.6338860814
|  9>  C        2.6379737972    -1.3617865616    -0.2580420355
| 10>  C        1.6260582084    -1.6582163365     0.7884899549
| 11>  C        0.7893124590    -0.5172774899     1.2990435491
| 12>  C        1.0723110059     0.1832826028     2.5756756272
| 13>  N       -0.0021562314    -0.8247282221     2.5060867431
| 14>  H        1.7954469685     1.5431824849    -0.4349970146
| 15>  H        0.2425267105     1.9478757752    -1.1722761525
| 16>  H        0.5196860038     2.2764598706     0.5396190801
| 17>  H       -0.9178781157     0.2894985812     0.2590045197
| 18>  H       -0.5917377330    -1.4087676651    -1.2558456055
| 19>  H        0.6737355356    -0.4299187746    -2.0006136083
| 20>  H        3.4704066297    -2.0432778977    -0.4099609487
| 21>  H        2.8636806165    -0.3230353189    -0.4835225027
| 22>  H        1.7286076452    -2.5193300862     1.4418929212
| 23>  H        1.9319574739    -0.1048281757     3.1754690189
| 24>  H        0.8006800110     1.2323092444     2.6612721476
| 25>  H       -0.9047662566    -0.3573041717     2.4556415318
| 26> *
| 27>
| 28>                          ****END OF INPUT****

CARTESIAN COORDINATES (ANGSTROEM)
---------------------------------
  C      0.715251    1.559167   -0.263872
  C      0.156154    0.169569    0.073705
  C      0.350470   -0.887518   -1.059589
  N      1.327590   -1.908516   -0.633886
  C      2.637974   -1.361787   -0.258042
  C      1.626058   -1.658216    0.788490
  C      0.789312   -0.517277    1.299044
  C      1.072311    0.183283    2.575676
  N     -0.002156   -0.824728    2.506087
  H      1.795447    1.543182   -0.434997
  H      0.242527    1.947876   -1.172276
  H      0.519686    2.276460    0.539619
  H     -0.917878    0.289499    0.259005
  H     -0.591738   -1.408768   -1.255846
  H      0.673736   -0.429919   -2.000614
  H      3.470407   -2.043278   -0.409961
  H      2.863681   -0.323035   -0.483523
  H      1.728608   -2.519330    1.441893
  H      1.931957   -0.104828    3.175469
  H      0.800680    1.232309    2.661272
  H     -0.904766   -0.357304    2.455642

 Total Charge           Charge          ....    0
 Multiplicity           Mult            ....    1
 Number of Electrons    NEL             ....   68
 Basis Dimension        Dim             ....  351

ORBITAL ENERGIES
----------------

  NO   OCC          E(Eh)            E(eV)
   0   2.0000     -15.557121      -423.3308
   1   2.0000     -15.555225      -423.2792
   2   2.0000     -11.268217      -306.6238
   3   2.0000     -11.256398      -306.3022
   4   2.0000     -11.252959      -306.2086
   5   2.0000     -11.250843      -306.1510
   6   2.0000     -11.250050      -306.1294
   7   2.0000     -11.241477      -305.8961
   8   2.0000     -11.225985      -305.4746
   9   2.0000      -1.289301       -35.0837
  10   2.0000      -1.250968       -34.0406
  11   2.0000      -1.065354       -28.9897
  12   2.0000      -0.974805       -26.5258
  13   2.0000      -0.927596       -25.2412
  14   2.0000      -0.881379       -23.9835
  15   2.0000      -0.844040       -22.9675
  16   2.0000      -0.792689       -21.5702
  17   2.0000      -0.753625       -20.5072
  18   2.0000      -0.697220       -18.9723
  19   2.0000      -0.656135       -17.8543
  20   2.0000      -0.631783       -17.1917
  21   2.0000      -0.603824       -16.4309
  22   2.0000      -0.587441       -15.9851
  23   2.0000      -0.569040       -15.4844
  24   2.0000      -0.565801       -15.3962
  25   2.0000      -0.533846       -14.5267
  26   2.0000      -0.527717       -14.3599
  27   2.0000      -0.492505       -13.4017
  28   2.0000      -0.469016       -12.7626
  29   2.0000      -0.457542       -12.4504
  30   2.0000      -0.448910       -12.2155
  31   2.0000      -0.438059       -11.9202
  32   2.0000      -0.392227       -10.6731
  33   2.0000      -0.360560        -9.8113
  34   0.0000       0.128644         3.5006
  35   0.0000       0.149733         4.0744
  36   0.0000       0.165148         4.4939
  37   0.0000       0.175033         4.7629
  38   0.0000       0.189394         5.1537

MULLIKEN ATOMIC CHARGES
-----------------------
   0 C :   -0.415486
   1 C :   -0.037129
   2 C :   -0.142902
   3 N :   -0.219468
   4 C :   -0.197219
   5 C :   -0.058028
   6 C :    0.069812
   7 C :   -0.196121
   8 N :   -0.369876
   9 H :    0.124073
  10 H :    0.138564
  11 H :    0.126684
  12 H :    0.091167
  13 H :    0.122874
  14 H :    0.117259
  15 H :    0.128894
  16 H :    0.116655
  17 H :    0.139645
  18 H :    0.124249
  19 H :    0.123324
  20 H :    0.213030
Sum of atomic charges:    0.0000000

LOEWDIN ATOMIC CHARGES
----------------------
   0 C :   -0.293402
   1 C :   -0.228640
   2 C :   -0.243220
   3 N :    0.110401
   4 C :   -0.239638
   5 C :   -0.204494
   6 C :   -0.267082
   7 C :   -0.239636
   8 N :    0.007359
   9 H :    0.120586
  10 H :    0.124859
  11 H :    0.121083
  12 H :    0.153391
  13 H :    0.134015
  14 H :    0.132763
  15 H :    0.126794
  16 H :    0.123958
  17 H :    0.148175
  18 H :    0.127769
  19 H :    0.122032
  20 H :    0.162927

  Mayer bond orders larger than 0.1
B(  0-C ,  1-C ) :   0.9229 B(  0-C ,  9-H ) :   0.9305 B(  0-C , 10-H ) :   0.9371
B(  0-C , 11-H ) :   0.9399 B(  1-C ,  2-C ) :   0.9155 B(  1-C ,  6-C ) :   0.8810
B(  1-C , 12-H ) :   0.9111 B(  2-C ,  3-N ) :   0.9410 B(  2-C , 13-H ) :   0.9257
B(  2-C , 14-H ) :   0.9394 B(  3-N ,  4-C ) :   0.8929 B(  3-N ,  5-C ) :   0.9026
B(  4-C ,  5-C ) :   0.9266 B(  4-C , 15-H ) :   0.9258 B(  4-C , 16-H ) :   0.9106
B(  5-C ,  6-C ) :   0.9380 B(  5-C , 17-H ) :   0.9052 B(  6-C ,  7-C ) :   0.9218
B(  6-C ,  8-N ) :   0.8996 B(  7-C ,  8-N ) :   0.9498 B(  7-C , 18-H ) :   0.9119
B(  7-C , 19-H ) :   0.9156 B(  8-N , 20-H ) :   0.8697

MP2 TOTAL ENERGY:     -382.548466806 Eh
FINAL SINGLE POINT ENERGY      -382.548466805533

DIPOLE MOMENT
-------------
                                X             Y             Z
Electronic contribution:     -0.18246      -5.15827       1.67178
Nuclear contribution   :      0.14668       6.28483      -1.76486
                        -----------------------------------------
Total Dipole Moment    :     -0.03578       1.12656      -0.09308
                        -----------------------------------------
Magnitude (a.u.)       :      1.13097
Magnitude (Debye)      :      2.87469

                             ****ORCA TERMINATED NORMALLY****
TOTAL RUN TIME: 0 days 0 hours 21 minutes 5 seconds 592 msec
