                         Program Version 3.0.3 - RELEASE   -
|  1> ! RI-MP2 RIJK def2-TZVP def2-TZVP/C def2-TZVP/JK TIGHTSCF
|  2> % maxcore 2000
|  3> % mp2 density relaxed end
|  4> *xyz 0 1
|  5>  C       -0.0882540510     1.3549820895    -0.1368576395
|  6>  N       -0.2332717981    -0.0215103237    -0.5601659983
|  7>  C       -1.0928967883    -0.7210350986     0.0329195065
|  8>  O       -1.2675578455    -2.0193189968    -0.2869878862
|  9>  C       -2.3656295235    -2.6815174638     0.3500814115
| 10>  C       -2.2106365688    -4.1612453101     0.1247474121
| 11>  C       -3.4245787693    -5.0254293201     0.0233734870
| 12>  N       -2.5656915230    -4.8160318032    -1.1305132520
| 13>  C       -3.0787794370    -4.0307802800    -2.2445682151
| 14>  H        0.9381661787     1.5289810930     0.2060710108
| 15>  H       -0.2542913002     2.0216584946    -0.9908082584
| 16>  H       -0.7765549971     1.6516805889     0.6721009582
| 17>  H       -1.7481264413    -0.3587672334     0.8423457839
| 18>  H       -2.3551229176    -2.4725059607     1.4290649332
| 19>  H       -3.3123927184    -2.3053532834    -0.0549976656
| 20>  H       -1.3116473475    -4.5703456231     0.5827509666
| 21>  H       -3.4301475355    -6.0240143872     0.4522001564
| 22>  H       -4.3919389006    -4.5214016059     0.0381422219
| 23>  H       -3.8428721537    -3.2869908687    -1.9684682751
| 24>  H       -2.2480781050    -3.5082123339    -2.7264982525
| 25>  H       -3.5296482175    -4.7141406433    -2.9707336454
| 26> *
| 27>
| 28>                          ****END OF INPUT****

CARTESIAN COORDINATES (ANGSTROEM)
---------------------------------
  C     -0.088254    1.354982   -0.136858
  N     -0.233272   -0.021510   -0.560166
  C     -1.092897   -0.721035    0.032920
  O     -1.267558   -2.019319   -0.286988
  C     -2.365630   -2.681517    0.350081
  C     -2.210637   -4.161245    0.124747
  C     -3.424579   -5.025429    0.023373
  N     -2.565692   -4.816032   -1.130513
  C     -3.078779   -4.030780   -2.244568
  H      0.938166    1.528981    0.206071
  H     -0.254291    2.021658   -0.990808
  H     -0.776555    1.651681    0.672101
  H     -1.748126   -0.358767    0.842346
  H     -2.355123   -2.472506    1.429065
  H     -3.312393   -2.305353   -0.054998
  H     -1.311647   -4.570346    0.582751
  H     -3.430148   -6.024014    0.452200
  H     -4.391939   -4.521402    0.038142
  H     -3.842872   -3.286991   -1.968468
  H     -2.248078   -3.508212   -2.726498
  H     -3.529648   -4.714141   -2.970734

 Total Charge           Charge          ....    0
 Multiplicity           Mult            ....    1
 Number of Electrons    NEL             ....   70
 Basis Dimension        Dim             ....  351

ORBITAL ENERGIES
----------------

  NO   OCC          E(Eh)            E(eV)
   0   2.0000     -20.589722      -560.2748
   1   2.0000     -15.561863      -423.4598
   2   2.0000     -15.543313      -422.9551
   3   2.0000     -11.329723      -308.2974
   4   2.0000     -11.302054      -307.5445
   5   2.0000     -11.265859      -306.5596
   6   2.0000     -11.260123      -306.4035
   7   2.0000     -11.247396      -306.0572
   8   2.0000     -11.245618      -306.0088
   9   2.0000      -1.424957       -38.7751
  10   2.0000      -1.278494       -34.7896
  11   2.0000      -1.219053       -33.1721
  12   2.0000      -1.022789       -27.8315
  13   2.0000      -0.979269       -26.6473
  14   2.0000      -0.928197       -25.2575
  15   2.0000      -0.840774       -22.8786
  16   2.0000      -0.809047       -22.0153
  17   2.0000      -0.790042       -21.4981
  18   2.0000      -0.713984       -19.4285
  19   2.0000      -0.688222       -18.7275
  20   2.0000      -0.666971       -18.1492
  21   2.0000      -0.647010       -17.6060
  22   2.0000      -0.625368       -17.0171
  23   2.0000      -0.592989       -16.1361
  24   2.0000      -0.580264       -15.7898
  25   2.0000      -0.563799       -15.3417
  26   2.0000      -0.554532       -15.0896
  27   2.0000      -0.546082       -14.8596
  28   2.0000      -0.518488       -14.1088
  29   2.0000      -0.513040       -13.9605
  30   2.0000      -0.466672       -12.6988
  31   2.0000      -0.450263       -12.2523
  32   2.0000      -0.412643       -11.2286
  33   2.0000      -0.381304       -10.3758
  34   2.0000      -0.373953       -10.1758
  35   0.0000       0.138398         3.7660
  36   0.0000       0.145864         3.9692
  37   0.0000       0.157418         4.2836
  38   0.0000       0.168602         4.5879
  39   0.0000       0.175596         4.7782

MULLIKEN ATOMIC CHARGES
-----------------------
   0 C :   -0.247110
   1 N :   -0.188734
   2 C :    0.059745
   3 O :   -0.216357
   4 C :   -0.109643
   5 C :   -0.023259
   6 C :   -0.199175
   7 N :   -0.214546
   8 C :   -0.290047
   9 H :    0.136443
  10 H :    0.135981
  11 H :    0.089123
  12 H :    0.057106
  13 H :    0.129292
  14 H :    0.113955
  15 H :    0.124334
  16 H :    0.131464
  17 H :    0.116921
  18 H :    0.097367
  19 H :    0.154676
  20 H :    0.142463
Sum of atomic charges:   -0.0000000

LOEWDIN ATOMIC CHARGES
----------------------
   0 C :   -0.339264
   1 N :    0.060788
   2 C :   -0.371195
   3 O :    0.240856
   4 C :   -0.294170
   5 C :   -0.262550
   6 C :   -0.244848
   7 N :    0.094841
   8 C :   -0.327086
   9 H :    0.117463
  10 H :    0.117192
  11 H :    0.100144
  12 H :    0.106522
  13 H :    0.131975
  14 H :    0.127122
  15 H :    0.146578
  16 H :    0.125471
  17 H :    0.123517
  18 H :    0.102366
  19 H :    0.124986
  20 H :    0.119291

  Mayer bond orders larger than 0.1
B(  0-C ,  1-N ) :   0.8831 B(  0-C ,  9-H ) :   0.9314 B(  0-C , 10-H ) :   0.9326
B(  0-C , 11-H ) :   0.9263 B(  1-N ,  2-C ) :   1.8936 B(  2-C ,  3-O ) :   1.0635
B(  2-C , 12-H ) :   0.9251 B(  3-O ,  4-C ) :   0.8608 B(  4-C ,  5-C ) :   0.9639
B(  4-C , 13-H ) :   0.9168 B(  4-C , 14-H ) :   0.9167 B(  5-C ,  6-C ) :   0.9230
B(  5-C ,  7-N ) :   0.9240 B(  5-C , 15-H ) :   0.9140 B(  6-C ,  7-N ) :   0.9026
B(  6-C , 16-H ) :   0.9194 B(  6-C , 17-H ) :   0.9168 B(  7-N ,  8-C ) :   0.8878
B(  8-C , 18-H ) :   0.9294 B(  8-C , 19-H ) :   0.9346 B(  8-C , 20-H ) :   0.9338

MP2 TOTAL ENERGY:     -419.643582004 Eh
FINAL SINGLE POINT ENERGY      -419.643582003767

DIPOLE MOMENT
-------------
                                X             Y             Z
Electronic contribution:      3.01724      -1.95895       0.27792
Nuclear contribution   :     -4.14143       2.33345       0.61897
                        -----------------------------------------
Total Dipole Moment    :     -1.12419       0.37450       0.89689
                        -----------------------------------------
Magnitude (a.u.)       :      1.48609
Magnitude (Debye)      :      3.77735

                             ****ORCA TERMINATED NORMALLY****
TOTAL RUN TIME: 0 days 0 hours 14 minutes 52 seconds 532 msec
