                         Program Version 3.0.3 - RELEASE   -
|  1> ! RI-MP2 RIJK def2-TZVP def2-TZVP/C def2-TZVP/JK TIGHTSCF
|  2> % maxcore 2000
|  3> % mp2 density relaxed end
|  4> *xyz 0 1
|  5>  C       -0.0139685538    -1.2363967136    -0.1285151253
|  6>  C       -0.0034246370    -0.0381735493    -0.0347582642
|  7>  C        0.0065834019     1.4125629172     0.0691394764
|  8>  C       -0.6191704587     1.9811538036     1.3883967018
|  9>  C        0.2437723936     3.2004663247     1.7075886125
| 10>  C        1.7284037034     2.9434345571     1.8748902349
| 11>  O        2.0711371695     1.6644097032     1.3369785665
| 12>  C        1.4126885962     2.0409244658     0.0858731699
| 13>  C        1.2205851755     3.4889279426     0.5785743272
| 14>  H       -0.0174116328    -2.2953104298    -0.2054530596
| 15>  H       -0.5279733025     1.8368189478    -0.7922167198
| 16>  H       -1.6675651177     2.2523255909     1.2428999665
| 17>  H       -0.5724574562     1.2321899927     2.1821960345
| 18>  H       -0.1720275725     4.0368287129     2.2584423076
| 19>  H        2.3589302425     3.3549308661     2.6539615601
| 20>  H        2.0406295646     1.8323444608    -0.7808190458
| 21>  H        1.3753769540     4.4191232276     0.0509924468
| 22> *
| 23>
| 24>                          ****END OF INPUT****

CARTESIAN COORDINATES (ANGSTROEM)
---------------------------------
  C     -0.013969   -1.236397   -0.128515
  C     -0.003425   -0.038174   -0.034758
  C      0.006583    1.412563    0.069139
  C     -0.619170    1.981154    1.388397
  C      0.243772    3.200466    1.707589
  C      1.728404    2.943435    1.874890
  O      2.071137    1.664410    1.336979
  C      1.412689    2.040924    0.085873
  C      1.220585    3.488928    0.578574
  H     -0.017412   -2.295310   -0.205453
  H     -0.527973    1.836819   -0.792217
  H     -1.667565    2.252326    1.242900
  H     -0.572457    1.232190    2.182196
  H     -0.172028    4.036829    2.258442
  H      2.358930    3.354931    2.653962
  H      2.040630    1.832344   -0.780819
  H      1.375377    4.419123    0.050992

 Total Charge           Charge          ....    0
 Multiplicity           Mult            ....    1
 Number of Electrons    NEL             ....   64
 Basis Dimension        Dim             ....  327

ORBITAL ENERGIES
----------------

  NO   OCC          E(Eh)            E(eV)
   0   2.0000     -20.554055      -559.3043
   1   2.0000     -11.297453      -307.4193
   2   2.0000     -11.291962      -307.2699
   3   2.0000     -11.259372      -306.3831
   4   2.0000     -11.243529      -305.9520
   5   2.0000     -11.239577      -305.8444
   6   2.0000     -11.235050      -305.7213
   7   2.0000     -11.228830      -305.5520
   8   2.0000     -11.216838      -305.2257
   9   2.0000      -1.398935       -38.0670
  10   2.0000      -1.147357       -31.2212
  11   2.0000      -1.080396       -29.3991
  12   2.0000      -0.996795       -27.1242
  13   2.0000      -0.960735       -26.1429
  14   2.0000      -0.859383       -23.3850
  15   2.0000      -0.784839       -21.3566
  16   2.0000      -0.749596       -20.3975
  17   2.0000      -0.732191       -19.9239
  18   2.0000      -0.714003       -19.4290
  19   2.0000      -0.666901       -18.1473
  20   2.0000      -0.644669       -17.5423
  21   2.0000      -0.600696       -16.3458
  22   2.0000      -0.575845       -15.6695
  23   2.0000      -0.546506       -14.8712
  24   2.0000      -0.532252       -14.4833
  25   2.0000      -0.511330       -13.9140
  26   2.0000      -0.497738       -13.5441
  27   2.0000      -0.475840       -12.9483
  28   2.0000      -0.410658       -11.1746
  29   2.0000      -0.381742       -10.3877
  30   2.0000      -0.378593       -10.3020
  31   2.0000      -0.374508       -10.1909
  32   0.0000       0.139587         3.7984
  33   0.0000       0.158739         4.3195
  34   0.0000       0.166681         4.5356
  35   0.0000       0.167807         4.5663
  36   0.0000       0.180447         4.9102

MULLIKEN ATOMIC CHARGES
-----------------------
   0 C :   -0.156415
   1 C :   -0.038875
   2 C :   -0.199401
   3 C :   -0.189635
   4 C :   -0.136377
   5 C :    0.017812
   6 O :   -0.328532
   7 C :    0.125394
   8 C :   -0.207810
   9 H :    0.189203
  10 H :    0.120057
  11 H :    0.128296
  12 H :    0.128443
  13 H :    0.132271
  14 H :    0.135180
  15 H :    0.132064
  16 H :    0.148325
Sum of atomic charges:   -0.0000000

LOEWDIN ATOMIC CHARGES
----------------------
   0 C :   -0.096340
   1 C :   -0.086763
   2 C :   -0.208154
   3 C :   -0.183041
   4 C :   -0.180287
   5 C :   -0.226945
   6 O :    0.173313
   7 C :   -0.187645
   8 C :   -0.151844
   9 H :    0.126294
  10 H :    0.173777
  11 H :    0.139412
  12 H :    0.148549
  13 H :    0.149723
  14 H :    0.132214
  15 H :    0.141959
  16 H :    0.135779

  Mayer bond orders larger than 0.1
B(  0-C ,  1-C ) :   2.5987 B(  0-C ,  9-H ) :   0.8908 B(  1-C ,  2-C ) :   1.1600
B(  2-C ,  3-C ) :   0.9483 B(  2-C ,  7-C ) :   0.8996 B(  2-C , 10-H ) :   0.9098
B(  3-C ,  4-C ) :   0.9154 B(  3-C , 11-H ) :   0.9236 B(  3-C , 12-H ) :   0.9149
B(  4-C ,  5-C ) :   0.8849 B(  4-C ,  8-C ) :   0.8602 B(  4-C , 13-H ) :   0.9230
B(  5-C ,  6-O ) :   0.9576 B(  5-C ,  8-C ) :   0.9265 B(  5-C , 14-H ) :   0.9257
B(  6-O ,  7-C ) :   0.9456 B(  7-C ,  8-C ) :   0.9306 B(  7-C , 15-H ) :   0.9149
B(  8-C , 16-H ) :   0.9084

MP2 TOTAL ENERGY:     -383.933318519 Eh
FINAL SINGLE POINT ENERGY      -383.933318518843

DIPOLE MOMENT
-------------
                                X             Y             Z
Electronic contribution:      2.22279      -1.78382      -0.45622
Nuclear contribution   :     -2.56640       2.57596       0.29962
                        -----------------------------------------
Total Dipole Moment    :     -0.34361       0.79214      -0.15660
                        -----------------------------------------
Magnitude (a.u.)       :      0.87754
Magnitude (Debye)      :      2.23053

                             ****ORCA TERMINATED NORMALLY****
TOTAL RUN TIME: 0 days 0 hours 18 minutes 24 seconds 847 msec
