                         Program Version 3.0.3 - RELEASE   -
|  1> ! RI-MP2 RIJK def2-TZVP def2-TZVP/C def2-TZVP/JK TIGHTSCF
|  2> % maxcore 2000
|  3> % mp2 density relaxed end
|  4> *xyz 0 1
|  5>  C        0.0521257740     1.5473060346     0.0497047754
|  6>  C       -0.0431375535     0.0207746873    -0.0564247923
|  7>  C       -1.4641893162    -0.4889096731    -0.0291293038
|  8>  C       -2.5400792234    -0.3973404733     1.0808604053
|  9>  N       -3.2893211294    -1.1868926178    -0.0066484304
| 10>  C       -2.6509464286    -0.1744049982    -0.9767302146
| 11>  C       -1.9517292553    -1.9693884659    -0.1449167700
| 12>  C       -1.7390936540    -2.7282893685    -1.3585189686
| 13>  C       -1.5262855029    -3.3773979080    -2.3487424935
| 14>  H        1.0939050952     1.8791265397     0.0189357392
| 15>  H       -0.4779980135     2.0348202736    -0.7751745442
| 16>  H       -0.3854839307     1.9093450164     0.9860724060
| 17>  H        0.4309485473    -0.3202539070    -0.9856035205
| 18>  H        0.5174437965    -0.4460393072     0.7641417440
| 19>  H       -2.3832778014    -0.9624155357     2.0048520107
| 20>  H       -2.9887662817     0.5782831901     1.2817137362
| 21>  H       -3.1053313206     0.8176566232    -0.9149050327
| 22>  H       -2.5986791065    -0.5289567970    -2.0075305757
| 23>  H       -1.7676105259    -2.5969472906     0.7336006466
| 24>  H       -1.3506797395    -3.9512970624    -3.2249908870
| 25> *
| 26>
| 27>                          ****END OF INPUT****

CARTESIAN COORDINATES (ANGSTROEM)
---------------------------------
  C      0.052126    1.547306    0.049705
  C     -0.043138    0.020775   -0.056425
  C     -1.464189   -0.488910   -0.029129
  C     -2.540079   -0.397340    1.080860
  N     -3.289321   -1.186893   -0.006648
  C     -2.650946   -0.174405   -0.976730
  C     -1.951729   -1.969388   -0.144917
  C     -1.739094   -2.728289   -1.358519
  C     -1.526286   -3.377398   -2.348742
  H      1.093905    1.879127    0.018936
  H     -0.477998    2.034820   -0.775175
  H     -0.385484    1.909345    0.986072
  H      0.430949   -0.320254   -0.985604
  H      0.517444   -0.446039    0.764142
  H     -2.383278   -0.962416    2.004852
  H     -2.988766    0.578283    1.281714
  H     -3.105331    0.817657   -0.914905
  H     -2.598679   -0.528957   -2.007531
  H     -1.767611   -2.596947    0.733601
  H     -1.350680   -3.951297   -3.224991

 Total Charge           Charge          ....    0
 Multiplicity           Mult            ....    1
 Number of Electrons    NEL             ....   66
 Basis Dimension        Dim             ....  345

ORBITAL ENERGIES
----------------

  NO   OCC          E(Eh)            E(eV)
   0   2.0000     -15.575350      -423.8268
   1   2.0000     -11.285941      -307.1061
   2   2.0000     -11.261837      -306.4502
   3   2.0000     -11.260660      -306.4181
   4   2.0000     -11.257873      -306.3423
   5   2.0000     -11.235528      -305.7343
   6   2.0000     -11.229918      -305.5816
   7   2.0000     -11.227990      -305.5291
   8   2.0000     -11.223174      -305.3981
   9   2.0000      -1.298753       -35.3409
  10   2.0000      -1.055042       -28.7091
  11   2.0000      -1.046743       -28.4833
  12   2.0000      -0.940245       -25.5854
  13   2.0000      -0.925179       -25.1754
  14   2.0000      -0.924469       -25.1561
  15   2.0000      -0.838066       -22.8049
  16   2.0000      -0.773216       -21.0403
  17   2.0000      -0.714232       -19.4352
  18   2.0000      -0.661475       -17.9997
  19   2.0000      -0.648671       -17.6512
  20   2.0000      -0.627170       -17.0662
  21   2.0000      -0.619784       -16.8652
  22   2.0000      -0.558393       -15.1947
  23   2.0000      -0.532743       -14.4967
  24   2.0000      -0.524247       -14.2655
  25   2.0000      -0.516850       -14.0642
  26   2.0000      -0.498853       -13.5745
  27   2.0000      -0.485786       -13.2189
  28   2.0000      -0.468636       -12.7522
  29   2.0000      -0.453891       -12.3510
  30   2.0000      -0.397479       -10.8159
  31   2.0000      -0.389724       -10.6049
  32   2.0000      -0.364447        -9.9171
  33   0.0000       0.128197         3.4884
  34   0.0000       0.152892         4.1604
  35   0.0000       0.155649         4.2354
  36   0.0000       0.159040         4.3277
  37   0.0000       0.172890         4.7046

MULLIKEN ATOMIC CHARGES
-----------------------
   0 C :   -0.410083
   1 C :   -0.156034
   2 C :   -0.016611
   3 C :   -0.147527
   4 N :   -0.184300
   5 C :   -0.191771
   6 C :   -0.165895
   7 C :   -0.038472
   8 C :   -0.120676
   9 H :    0.140210
  10 H :    0.130230
  11 H :    0.128052
  12 H :    0.122922
  13 H :    0.110727
  14 H :    0.110652
  15 H :    0.122742
  16 H :    0.118822
  17 H :    0.135305
  18 H :    0.118793
  19 H :    0.192915
Sum of atomic charges:    0.0000000

LOEWDIN ATOMIC CHARGES
----------------------
   0 C :   -0.310933
   1 C :   -0.261301
   2 C :   -0.219580
   3 C :   -0.207719
   4 N :    0.115518
   5 C :   -0.198778
   6 C :   -0.194656
   7 C :   -0.090394
   8 C :   -0.083674
   9 H :    0.122778
  10 H :    0.122666
  11 H :    0.121927
  12 H :    0.146326
  13 H :    0.143049
  14 H :    0.124320
  15 H :    0.126170
  16 H :    0.125054
  17 H :    0.131791
  18 H :    0.159478
  19 H :    0.127959

  Mayer bond orders larger than 0.1
B(  0-C ,  1-C ) :   0.9170 B(  0-C ,  9-H ) :   0.9404 B(  0-C , 10-H ) :   0.9380
B(  0-C , 11-H ) :   0.9380 B(  1-C ,  2-C ) :   0.8515 B(  1-C , 12-H ) :   0.9295
B(  1-C , 13-H ) :   0.9250 B(  2-C ,  3-C ) :   0.9230 B(  2-C ,  5-C ) :   0.9461
B(  2-C ,  6-C ) :   0.8807 B(  3-C ,  4-N ) :   0.9214 B(  3-C , 14-H ) :   0.9186
B(  3-C , 15-H ) :   0.9272 B(  4-N ,  5-C ) :   0.9321 B(  4-N ,  6-C ) :   0.9559
B(  5-C , 16-H ) :   0.9247 B(  5-C , 17-H ) :   0.9214 B(  6-C ,  7-C ) :   1.2233
B(  6-C ,  8-C ) :  -0.1406 B(  6-C , 18-H ) :   0.9050 B(  7-C ,  8-C ) :   2.5893
B(  8-C , 19-H ) :   0.8798

MP2 TOTAL ENERGY:     -365.237978505 Eh
FINAL SINGLE POINT ENERGY      -365.237978504724

DIPOLE MOMENT
-------------
                                X             Y             Z
Electronic contribution:     -4.16371      -7.35732      -2.02993
Nuclear contribution   :      4.95557       7.80243       2.07444
                        -----------------------------------------
Total Dipole Moment    :      0.79185       0.44511       0.04451
                        -----------------------------------------
Magnitude (a.u.)       :      0.90947
Magnitude (Debye)      :      2.31169

                             ****ORCA TERMINATED NORMALLY****
TOTAL RUN TIME: 0 days 0 hours 20 minutes 40 seconds 124 msec
