                         Program Version 3.0.3 - RELEASE   -
|  1> ! RI-MP2 RIJK def2-TZVP def2-TZVP/C def2-TZVP/JK TIGHTSCF
|  2> % maxcore 2000
|  3> % mp2 density relaxed end
|  4> *xyz 0 1
|  5>  O       -0.0243554347     0.0558280180     0.6886110801
|  6>  C        0.0259380557     1.1829063016     0.2585953573
|  7>  N       -1.1349490854     1.9643584665     0.3436062760
|  8>  C       -1.4841085220     3.2378111156    -0.0120857022
|  9>  C       -0.7327925748     4.1942283374    -0.6041237373
| 10>  C        0.6333515446     4.0944791241    -1.0053416382
| 11>  C        1.5027115282     3.0578190875    -0.9031058065
| 12>  C        1.3402478045     1.7163162639    -0.3583442521
| 13>  O        2.2643771318     0.9268909085    -0.3645028074
| 14>  H       -1.8650375525     1.4141229388     0.7795603586
| 15>  H       -2.5157992630     3.4627812597     0.2360420307
| 16>  H       -1.2320406293     5.1375907646    -0.7904856538
| 17>  H        1.0330666384     4.9958113551    -1.4644872438
| 18>  H        2.5107846886     3.2037964087    -1.2796865115
| 19> *
| 20>
| 21>                          ****END OF INPUT****

CARTESIAN COORDINATES (ANGSTROEM)
---------------------------------
  O     -0.024355    0.055828    0.688611
  C      0.025938    1.182906    0.258595
  N     -1.134949    1.964358    0.343606
  C     -1.484109    3.237811   -0.012086
  C     -0.732793    4.194228   -0.604124
  C      0.633352    4.094479   -1.005342
  C      1.502712    3.057819   -0.903106
  C      1.340248    1.716316   -0.358344
  O      2.264377    0.926891   -0.364503
  H     -1.865038    1.414123    0.779560
  H     -2.515799    3.462781    0.236042
  H     -1.232041    5.137591   -0.790486
  H      1.033067    4.995811   -1.464487
  H      2.510785    3.203796   -1.279687

 Total Charge           Charge          ....    0
 Multiplicity           Mult            ....    1
 Number of Electrons    NEL             ....   64
 Basis Dimension        Dim             ....  309

ORBITAL ENERGIES
----------------

  NO   OCC          E(Eh)            E(eV)
   0   2.0000     -20.557366      -559.3944
   1   2.0000     -20.554381      -559.3131
   2   2.0000     -15.639517      -425.5729
   3   2.0000     -11.385015      -309.8020
   4   2.0000     -11.351505      -308.8902
   5   2.0000     -11.329297      -308.2858
   6   2.0000     -11.286612      -307.1243
   7   2.0000     -11.253840      -306.2325
   8   2.0000     -11.253771      -306.2307
   9   2.0000      -1.429770       -38.9060
  10   2.0000      -1.388137       -37.7731
  11   2.0000      -1.287151       -35.0252
  12   2.0000      -1.123734       -30.5784
  13   2.0000      -1.050944       -28.5977
  14   2.0000      -0.932568       -25.3765
  15   2.0000      -0.922090       -25.0913
  16   2.0000      -0.810523       -22.0554
  17   2.0000      -0.765285       -20.8245
  18   2.0000      -0.744279       -20.2529
  19   2.0000      -0.680499       -18.5173
  20   2.0000      -0.652843       -17.7648
  21   2.0000      -0.644020       -17.5247
  22   2.0000      -0.637097       -17.3363
  23   2.0000      -0.629718       -17.1355
  24   2.0000      -0.572024       -15.5656
  25   2.0000      -0.546801       -14.8792
  26   2.0000      -0.545064       -14.8320
  27   2.0000      -0.512795       -13.9539
  28   2.0000      -0.485322       -13.2063
  29   2.0000      -0.432573       -11.7709
  30   2.0000      -0.432460       -11.7678
  31   2.0000      -0.326334        -8.8800
  32   0.0000       0.044937         1.2228
  33   0.0000       0.081289         2.2120
  34   0.0000       0.116082         3.1587
  35   0.0000       0.146239         3.9794
  36   0.0000       0.171231         4.6594

MULLIKEN ATOMIC CHARGES
-----------------------
   0 O :   -0.278645
   1 C :    0.192181
   2 N :   -0.236328
   3 C :    0.009635
   4 C :   -0.183236
   5 C :   -0.072833
   6 C :   -0.225650
   7 C :    0.226002
   8 O :   -0.264611
   9 H :    0.257417
  10 H :    0.150458
  11 H :    0.143229
  12 H :    0.138887
  13 H :    0.143493
Sum of atomic charges:    0.0000000

LOEWDIN ATOMIC CHARGES
----------------------
   0 O :    0.147506
   1 C :   -0.379686
   2 N :    0.172875
   3 C :   -0.197609
   4 C :   -0.191332
   5 C :   -0.133852
   6 C :   -0.129915
   7 C :   -0.314665
   8 O :    0.179740
   9 H :    0.212088
  10 H :    0.152617
  11 H :    0.159088
  12 H :    0.160175
  13 H :    0.162971

  Mayer bond orders larger than 0.1
B(  0-O ,  1-C ) :   2.0143 B(  1-C ,  2-N ) :   1.0268 B(  1-C ,  7-C ) :   0.8583
B(  2-N ,  3-C ) :   1.1151 B(  2-N ,  9-H ) :   0.8463 B(  3-C ,  4-C ) :   1.5768
B(  3-C , 10-H ) :   0.9048 B(  4-C ,  5-C ) :   1.1230 B(  4-C , 11-H ) :   0.9160
B(  5-C ,  6-C ) :   1.5468 B(  5-C , 12-H ) :   0.9186 B(  6-C ,  7-C ) :   1.0928
B(  6-C , 13-H ) :   0.9171 B(  7-C ,  8-O ) :   1.8735

MP2 TOTAL ENERGY:     -435.998909238 Eh
FINAL SINGLE POINT ENERGY      -435.998909238144

DIPOLE MOMENT
-------------
                                X             Y             Z
Electronic contribution:      1.69811      -4.84916       1.23660
Nuclear contribution   :     -3.19230       6.68755      -1.43292
                        -----------------------------------------
Total Dipole Moment    :     -1.49419       1.83839      -0.19633
                        -----------------------------------------
Magnitude (a.u.)       :      2.37715
Magnitude (Debye)      :      6.04223

                             ****ORCA TERMINATED NORMALLY****
TOTAL RUN TIME: 0 days 0 hours 14 minutes 39 seconds 234 msec
