                         Program Version 3.0.3 - RELEASE   -
|  1> ! RI-MP2 RIJK def2-TZVP def2-TZVP/C def2-TZVP/JK TIGHTSCF
|  2> % maxcore 2000
|  3> % mp2 density relaxed end
|  4> *xyz 0 1
|  5>  C        0.0751327808     1.5301371055    -0.0502455037
|  6>  C       -0.0043067394     0.0175104853     0.1274391787
|  7>  O        0.6590748858    -0.4278761008     1.3022410725
|  8>  C       -1.4704646199    -0.5203459657     0.0837118043
|  9>  O       -2.0970756615    -0.1104463505    -1.1236782802
| 10>  C       -1.4825582855    -2.0708273620     0.1458920347
| 11>  O       -1.0245255230    -2.6106397165    -1.0894221432
| 12>  C       -2.2154248339     0.0019667999     1.2320694876
| 13>  C       -2.7734143764     0.3982606544     2.2210136018
| 14>  H        1.1211151895     1.8469009775    -0.0685470710
| 15>  H       -0.4113275855     1.8315353388    -0.9802160903
| 16>  H       -0.4288546245     2.0413479422     0.7771767395
| 17>  H        0.5266036798    -0.4667026902    -0.7020519412
| 18>  H        0.2111979518    -0.0170040606     2.0524844820
| 19>  H       -1.8664538906    -0.8008202814    -1.7632576700
| 20>  H       -0.8852165310    -2.4152401078     0.9941665097
| 21>  H       -2.5149094741    -2.4080536756     0.2656275241
| 22>  H       -0.0630972520    -2.6461046398    -1.0667906791
| 23>  H       -3.2938964004     0.7561495672     3.0754154639
| 24> *
| 25>
| 26>                          ****END OF INPUT****

CARTESIAN COORDINATES (ANGSTROEM)
---------------------------------
  C      0.075133    1.530137   -0.050246
  C     -0.004307    0.017510    0.127439
  O      0.659075   -0.427876    1.302241
  C     -1.470465   -0.520346    0.083712
  O     -2.097076   -0.110446   -1.123678
  C     -1.482558   -2.070827    0.145892
  O     -1.024526   -2.610640   -1.089422
  C     -2.215425    0.001967    1.232069
  C     -2.773414    0.398261    2.221014
  H      1.121115    1.846901   -0.068547
  H     -0.411328    1.831535   -0.980216
  H     -0.428855    2.041348    0.777177
  H      0.526604   -0.466703   -0.702052
  H      0.211198   -0.017004    2.052484
  H     -1.866454   -0.800820   -1.763258
  H     -0.885217   -2.415240    0.994167
  H     -2.514909   -2.408054    0.265628
  H     -0.063097   -2.646105   -1.066791
  H     -3.293896    0.756150    3.075415

 Total Charge           Charge          ....    0
 Multiplicity           Mult            ....    1
 Number of Electrons    NEL             ....   70
 Basis Dimension        Dim             ....  339

ORBITAL ENERGIES
----------------

  NO   OCC          E(Eh)            E(eV)
   0   2.0000     -20.580912      -560.0351
   1   2.0000     -20.565212      -559.6079
   2   2.0000     -20.564448      -559.5871
   3   2.0000     -11.318810      -308.0005
   4   2.0000     -11.294219      -307.3313
   5   2.0000     -11.291425      -307.2553
   6   2.0000     -11.245616      -306.0088
   7   2.0000     -11.240232      -305.8623
   8   2.0000     -11.216280      -305.2105
   9   2.0000      -1.398954       -38.0675
  10   2.0000      -1.373362       -37.3711
  11   2.0000      -1.362700       -37.0810
  12   2.0000      -1.083444       -29.4820
  13   2.0000      -1.021545       -27.7977
  14   2.0000      -0.986421       -26.8419
  15   2.0000      -0.887842       -24.1594
  16   2.0000      -0.841498       -22.8983
  17   2.0000      -0.733074       -19.9480
  18   2.0000      -0.718986       -19.5646
  19   2.0000      -0.705349       -19.1935
  20   2.0000      -0.692058       -18.8318
  21   2.0000      -0.676003       -18.3950
  22   2.0000      -0.630913       -17.1680
  23   2.0000      -0.618111       -16.8197
  24   2.0000      -0.593601       -16.1527
  25   2.0000      -0.559039       -15.2122
  26   2.0000      -0.549560       -14.9543
  27   2.0000      -0.529707       -14.4141
  28   2.0000      -0.523208       -14.2372
  29   2.0000      -0.513160       -13.9638
  30   2.0000      -0.483246       -13.1498
  31   2.0000      -0.476624       -12.9696
  32   2.0000      -0.440501       -11.9866
  33   2.0000      -0.411651       -11.2016
  34   2.0000      -0.392144       -10.6708
  35   0.0000       0.125431         3.4131
  36   0.0000       0.139321         3.7911
  37   0.0000       0.156820         4.2673
  38   0.0000       0.164566         4.4781
  39   0.0000       0.169987         4.6256

MULLIKEN ATOMIC CHARGES
-----------------------
   0 C :   -0.410316
   1 C :    0.072189
   2 O :   -0.477638
   3 C :    0.098933
   4 O :   -0.470081
   5 C :   -0.051096
   6 O :   -0.486497
   7 C :   -0.104672
   8 C :   -0.133463
   9 H :    0.142447
  10 H :    0.149507
  11 H :    0.129744
  12 H :    0.073538
  13 H :    0.324110
  14 H :    0.338891
  15 H :    0.136155
  16 H :    0.139941
  17 H :    0.333427
  18 H :    0.194879
Sum of atomic charges:   -0.0000000

LOEWDIN ATOMIC CHARGES
----------------------
   0 C :   -0.294250
   1 C :   -0.336957
   2 O :   -0.011478
   3 C :   -0.377737
   4 O :    0.028116
   5 C :   -0.290908
   6 O :   -0.042600
   7 C :   -0.067847
   8 C :   -0.079723
   9 H :    0.126130
  10 H :    0.134096
  11 H :    0.127915
  12 H :    0.141807
  13 H :    0.180927
  14 H :    0.183619
  15 H :    0.131970
  16 H :    0.138963
  17 H :    0.177979
  18 H :    0.129978

  Mayer bond orders larger than 0.1
B(  0-C ,  1-C ) :   0.9535 B(  0-C ,  9-H ) :   0.9405 B(  0-C , 10-H ) :   0.9289
B(  0-C , 11-H ) :   0.9186 B(  1-C ,  2-O ) :   0.9109 B(  1-C ,  3-C ) :   0.8859
B(  1-C , 12-H ) :   0.9067 B(  2-O , 13-H ) :   0.8335 B(  3-C ,  4-O ) :   1.1354
B(  3-C ,  5-C ) :   0.8938 B(  3-C ,  7-C ) :   1.0162 B(  4-O ,  7-C ) :  -0.1471
B(  4-O , 14-H ) :   0.8100 B(  5-C ,  6-O ) :   0.8794 B(  5-C , 15-H ) :   0.9286
B(  5-C , 16-H ) :   0.9345 B(  6-O , 17-H ) :   0.8402 B(  7-C ,  8-C ) :   2.6197
B(  8-C , 18-H ) :   0.8968

MP2 TOTAL ENERGY:     -459.395417964 Eh
FINAL SINGLE POINT ENERGY      -459.395417964415

DIPOLE MOMENT
-------------
                                X             Y             Z
Electronic contribution:     -2.78547      -2.22420       0.44572
Nuclear contribution   :      3.08504       2.19121       0.00674
                        -----------------------------------------
Total Dipole Moment    :      0.29958      -0.03299       0.45246
                        -----------------------------------------
Magnitude (a.u.)       :      0.54365
Magnitude (Debye)      :      1.38184

                             ****ORCA TERMINATED NORMALLY****
TOTAL RUN TIME: 0 days 0 hours 18 minutes 42 seconds 957 msec
