                         Program Version 3.0.3 - RELEASE   -
|  1> ! RI-MP2 RIJK def2-TZVP def2-TZVP/C def2-TZVP/JK TIGHTSCF
|  2> % maxcore 2000
|  3> % mp2 density relaxed end
|  4> *xyz 0 1
|  5>  O       -0.0677496775     1.3383962311    -0.0290698574
|  6>  N        0.0392416287    -0.0650880657    -0.0068797473
|  7>  C       -1.1043359146    -0.6349825590     0.0302792579
|  8>  C       -2.4372951134     0.0800672603     0.1298654775
|  9>  O       -3.3073067828    -0.5993836990     1.0154123166
| 10>  C       -3.6577996809    -1.8894818273     0.5476998743
| 11>  C       -2.4501201674    -2.7985506350     0.3197546748
| 12>  C       -1.8418280742    -2.8837411473    -1.0519554451
| 13>  C       -1.1235883770    -2.1160295414     0.0449429219
| 14>  H        0.8549129933     1.6086081647     0.0182074791
| 15>  H       -2.2850984623     1.0814452583     0.5319378200
| 16>  H       -2.8971788449     0.1812183560    -0.8696973409
| 17>  H       -4.3093704409    -2.3138595526     1.3156021088
| 18>  H       -4.2478396122    -1.7978396431    -0.3798845966
| 19>  H       -2.4124612835    -3.6903699768     0.9359059887
| 20>  H       -1.3950942404    -3.8176845144    -1.3734710744
| 21>  H       -2.3149283306    -2.3158068793    -1.8472058063
| 22>  H       -0.2208353393    -2.5696647595     0.4370958683
| 23> *
| 24>
| 25>                          ****END OF INPUT****

CARTESIAN COORDINATES (ANGSTROEM)
---------------------------------
  O     -0.067750    1.338396   -0.029070
  N      0.039242   -0.065088   -0.006880
  C     -1.104336   -0.634983    0.030279
  C     -2.437295    0.080067    0.129865
  O     -3.307307   -0.599384    1.015412
  C     -3.657800   -1.889482    0.547700
  C     -2.450120   -2.798551    0.319755
  C     -1.841828   -2.883741   -1.051955
  C     -1.123588   -2.116030    0.044943
  H      0.854913    1.608608    0.018207
  H     -2.285098    1.081445    0.531938
  H     -2.897179    0.181218   -0.869697
  H     -4.309370   -2.313860    1.315602
  H     -4.247840   -1.797840   -0.379885
  H     -2.412461   -3.690370    0.935906
  H     -1.395094   -3.817685   -1.373471
  H     -2.314928   -2.315807   -1.847206
  H     -0.220835   -2.569665    0.437096

 Total Charge           Charge          ....    0
 Multiplicity           Mult            ....    1
 Number of Electrons    NEL             ....   68
 Basis Dimension        Dim             ....  333

ORBITAL ENERGIES
----------------

  NO   OCC          E(Eh)            E(eV)
   0   2.0000     -20.589167      -560.2597
   1   2.0000     -20.563860      -559.5711
   2   2.0000     -15.612522      -424.8383
   3   2.0000     -11.286704      -307.1268
   4   2.0000     -11.285786      -307.1019
   5   2.0000     -11.280366      -306.9544
   6   2.0000     -11.248072      -306.0756
   7   2.0000     -11.245529      -306.0064
   8   2.0000     -11.241765      -305.9040
   9   2.0000      -1.416031       -38.5322
  10   2.0000      -1.386471       -37.7278
  11   2.0000      -1.185170       -32.2501
  12   2.0000      -1.137735       -30.9593
  13   2.0000      -0.996663       -27.1206
  14   2.0000      -0.914274       -24.8787
  15   2.0000      -0.873472       -23.7684
  16   2.0000      -0.808800       -22.0086
  17   2.0000      -0.726322       -19.7642
  18   2.0000      -0.707430       -19.2502
  19   2.0000      -0.704023       -19.1574
  20   2.0000      -0.655423       -17.8350
  21   2.0000      -0.651350       -17.7241
  22   2.0000      -0.632610       -17.2142
  23   2.0000      -0.609490       -16.5851
  24   2.0000      -0.588267       -16.0076
  25   2.0000      -0.575092       -15.6490
  26   2.0000      -0.537917       -14.6375
  27   2.0000      -0.522198       -14.2097
  28   2.0000      -0.492714       -13.4074
  29   2.0000      -0.464068       -12.6279
  30   2.0000      -0.460906       -12.5419
  31   2.0000      -0.427100       -11.6220
  32   2.0000      -0.409236       -11.1359
  33   2.0000      -0.364064        -9.9067
  34   0.0000       0.139929         3.8077
  35   0.0000       0.145756         3.9662
  36   0.0000       0.156471         4.2578
  37   0.0000       0.160180         4.3587
  38   0.0000       0.177624         4.8334

MULLIKEN ATOMIC CHARGES
-----------------------
   0 O :   -0.377043
   1 N :   -0.085188
   2 C :   -0.025959
   3 C :   -0.050093
   4 O :   -0.301813
   5 C :   -0.076396
   6 C :   -0.096140
   7 C :   -0.296036
   8 C :   -0.072618
   9 H :    0.338637
  10 H :    0.158913
  11 H :    0.111687
  12 H :    0.129565
  13 H :    0.102401
  14 H :    0.132712
  15 H :    0.137257
  16 H :    0.136321
  17 H :    0.133793
Sum of atomic charges:   -0.0000000

LOEWDIN ATOMIC CHARGES
----------------------
   0 O :   -0.079748
   1 N :    0.029872
   2 C :   -0.269522
   3 C :   -0.278540
   4 O :    0.164662
   5 C :   -0.294073
   6 C :   -0.199282
   7 C :   -0.192330
   8 C :   -0.164485
   9 H :    0.169783
  10 H :    0.144323
  11 H :    0.131536
  12 H :    0.134986
  13 H :    0.123637
  14 H :    0.148776
  15 H :    0.135372
  16 H :    0.136309
  17 H :    0.158725

  Mayer bond orders larger than 0.1
B(  0-O ,  1-N ) :   0.7944 B(  0-O ,  9-H ) :   0.8427 B(  1-N ,  2-C ) :   1.8463
B(  2-C ,  3-C ) :   0.9216 B(  2-C ,  8-C ) :   0.9722 B(  3-C ,  4-O ) :   0.9131
B(  3-C , 10-H ) :   0.9155 B(  3-C , 11-H ) :   0.9232 B(  4-O ,  5-C ) :   0.9476
B(  5-C ,  6-C ) :   0.9091 B(  5-C , 12-H ) :   0.9339 B(  5-C , 13-H ) :   0.9362
B(  6-C ,  7-C ) :   0.8832 B(  6-C ,  8-C ) :   0.8446 B(  6-C , 14-H ) :   0.9217
B(  7-C ,  8-C ) :   0.8484 B(  7-C , 15-H ) :   0.9270 B(  7-C , 16-H ) :   0.9235
B(  8-C , 17-H ) :   0.9270

MP2 TOTAL ENERGY:     -438.303979127 Eh
FINAL SINGLE POINT ENERGY      -438.303979126830

DIPOLE MOMENT
-------------
                                X             Y             Z
Electronic contribution:      3.09811       3.90924       1.77923
Nuclear contribution   :     -3.12796      -4.38760      -2.12045
                        -----------------------------------------
Total Dipole Moment    :     -0.02985      -0.47835      -0.34121
                        -----------------------------------------
Magnitude (a.u.)       :      0.58834
Magnitude (Debye)      :      1.49544

                             ****ORCA TERMINATED NORMALLY****
TOTAL RUN TIME: 0 days 0 hours 16 minutes 18 seconds 464 msec
