                         Program Version 3.0.3 - RELEASE   -
|  1> ! RI-MP2 RIJK def2-TZVP def2-TZVP/C def2-TZVP/JK TIGHTSCF
|  2> % maxcore 2000
|  3> % mp2 density relaxed end
|  4> *xyz 0 1
|  5>  C       -0.1038878911     1.3587604262    -0.0781212747
|  6>  O        0.1379913056    -0.0316541046     0.0574097893
|  7>  C        0.6982673579    -0.6189997414    -1.0824417715
|  8>  C        1.0582944024    -2.0923412844    -0.8507826333
|  9>  C        1.3224041385    -2.6039116252    -2.2923070217
| 10>  C       -0.2196104509    -2.3997879234    -2.3708108092
| 11>  N       -0.3178862882    -2.7316692225    -0.8890946263
| 12>  C       -0.3171833835    -0.8796559717    -2.2426958230
| 13>  O       -1.0010391354    -0.0953417578    -2.8400717502
| 14>  H        0.8295483216     1.9062152757    -0.2848708833
| 15>  H       -0.8202298283     1.5717130562    -0.8790688253
| 16>  H       -0.5109265369     1.7001734822     0.8761466227
| 17>  H        1.5610260944    -0.0369857597    -1.4469828490
| 18>  H        1.7038084174    -2.3162582401    -0.0031508613
| 19>  H        1.9813387040    -2.0376512733    -2.9608725876
| 20>  H        1.5855712899    -3.6643848100    -2.3095157264
| 21>  H       -0.8825818362    -2.8974506847    -3.0755734459
| 22>  H       -0.1804257013    -3.7406309514    -0.8096932831
| 23> *
| 24>
| 25>                          ****END OF INPUT****

CARTESIAN COORDINATES (ANGSTROEM)
---------------------------------
  C     -0.103888    1.358760   -0.078121
  O      0.137991   -0.031654    0.057410
  C      0.698267   -0.619000   -1.082442
  C      1.058294   -2.092341   -0.850783
  C      1.322404   -2.603912   -2.292307
  C     -0.219610   -2.399788   -2.370811
  N     -0.317886   -2.731669   -0.889095
  C     -0.317183   -0.879656   -2.242696
  O     -1.001039   -0.095342   -2.840072
  H      0.829548    1.906215   -0.284871
  H     -0.820230    1.571713   -0.879069
  H     -0.510927    1.700173    0.876147
  H      1.561026   -0.036986   -1.446983
  H      1.703808   -2.316258   -0.003151
  H      1.981339   -2.037651   -2.960873
  H      1.585571   -3.664385   -2.309516
  H     -0.882582   -2.897451   -3.075573
  H     -0.180426   -3.740631   -0.809693

 Total Charge           Charge          ....    0
 Multiplicity           Mult            ....    1
 Number of Electrons    NEL             ....   68
 Basis Dimension        Dim             ....  333

ORBITAL ENERGIES
----------------

  NO   OCC          E(Eh)            E(eV)
   0   2.0000     -20.563179      -559.5526
   1   2.0000     -20.556647      -559.3748
   2   2.0000     -15.568100      -423.6295
   3   2.0000     -11.334405      -308.4248
   4   2.0000     -11.297933      -307.4324
   5   2.0000     -11.283139      -307.0298
   6   2.0000     -11.281933      -306.9970
   7   2.0000     -11.267450      -306.6029
   8   2.0000     -11.255565      -306.2795
   9   2.0000      -1.405370       -38.2421
  10   2.0000      -1.380255       -37.5587
  11   2.0000      -1.276714       -34.7411
  12   2.0000      -1.037507       -28.2320
  13   2.0000      -0.979658       -26.6579
  14   2.0000      -0.939969       -25.5779
  15   2.0000      -0.903058       -24.5735
  16   2.0000      -0.796739       -21.6804
  17   2.0000      -0.749198       -20.3867
  18   2.0000      -0.707682       -19.2570
  19   2.0000      -0.676124       -18.3983
  20   2.0000      -0.658687       -17.9238
  21   2.0000      -0.643968       -17.5233
  22   2.0000      -0.616677       -16.7806
  23   2.0000      -0.592895       -16.1335
  24   2.0000      -0.578973       -15.7547
  25   2.0000      -0.571898       -15.5621
  26   2.0000      -0.544257       -14.8100
  27   2.0000      -0.520497       -14.1634
  28   2.0000      -0.510004       -13.8779
  29   2.0000      -0.491495       -13.3743
  30   2.0000      -0.474432       -12.9099
  31   2.0000      -0.456370       -12.4184
  32   2.0000      -0.411375       -11.1941
  33   2.0000      -0.371544       -10.1102
  34   0.0000       0.129094         3.5128
  35   0.0000       0.137706         3.7472
  36   0.0000       0.150618         4.0985
  37   0.0000       0.168506         4.5853
  38   0.0000       0.175285         4.7698

MULLIKEN ATOMIC CHARGES
-----------------------
   0 C :   -0.232551
   1 O :   -0.295985
   2 C :    0.064754
   3 C :    0.025318
   4 C :   -0.306467
   5 C :    0.038930
   6 N :   -0.338715
   7 C :    0.071051
   8 O :   -0.258027
   9 H :    0.105473
  10 H :    0.147127
  11 H :    0.140288
  12 H :    0.089305
  13 H :    0.141658
  14 H :    0.126718
  15 H :    0.133364
  16 H :    0.141873
  17 H :    0.205886
Sum of atomic charges:   -0.0000000

LOEWDIN ATOMIC CHARGES
----------------------
   0 C :   -0.342868
   1 O :    0.174151
   2 C :   -0.286651
   3 C :   -0.219236
   4 C :   -0.202235
   5 C :   -0.213868
   6 N :    0.018940
   7 C :   -0.272038
   8 O :    0.167651
   9 H :    0.101293
  10 H :    0.110190
  11 H :    0.114071
  12 H :    0.143032
  13 H :    0.135124
  14 H :    0.129739
  15 H :    0.139093
  16 H :    0.135768
  17 H :    0.167843

  Mayer bond orders larger than 0.1
B(  0-C ,  1-O ) :   0.8913 B(  0-C ,  9-H ) :   0.9346 B(  0-C , 10-H ) :   0.9329
B(  0-C , 11-H ) :   0.9384 B(  1-O ,  2-C ) :   0.9771 B(  2-C ,  3-C ) :   0.8735
B(  2-C ,  5-C ) :  -0.1108 B(  2-C ,  7-C ) :   0.8853 B(  2-C , 12-H ) :   0.9076
B(  3-C ,  4-C ) :   0.9160 B(  3-C ,  6-N ) :   0.9363 B(  3-C , 13-H ) :   0.9031
B(  4-C ,  5-C ) :   0.8889 B(  4-C , 14-H ) :   0.9233 B(  4-C , 15-H ) :   0.9103
B(  5-C ,  6-N ) :   0.8976 B(  5-C ,  7-C ) :   0.8337 B(  5-C , 16-H ) :   0.9046
B(  6-N , 17-H ) :   0.8661 B(  7-C ,  8-O ) :   2.0313

MP2 TOTAL ENERGY:     -438.327395380 Eh
FINAL SINGLE POINT ENERGY      -438.327395379887

DIPOLE MOMENT
-------------
                                X             Y             Z
Electronic contribution:     -2.70678      -0.83281      -1.58280
Nuclear contribution   :      3.83767       0.17852       1.40779
                        -----------------------------------------
Total Dipole Moment    :      1.13088      -0.65429      -0.17501
                        -----------------------------------------
Magnitude (a.u.)       :      1.31819
Magnitude (Debye)      :      3.35057

                             ****ORCA TERMINATED NORMALLY****
TOTAL RUN TIME: 0 days 0 hours 30 minutes 37 seconds 346 msec
