                         Program Version 3.0.3 - RELEASE   -
|  1> ! RI-MP2 RIJK def2-TZVP def2-TZVP/C def2-TZVP/JK TIGHTSCF
|  2> % maxcore 2000
|  3> % mp2 density relaxed end
|  4> *xyz 0 1
|  5>  C        0.1274145060     1.1980382704    -0.5581642811
|  6>  C       -0.0604745145    -0.1925818564    -0.0211950028
|  7>  C       -0.6237896695    -0.5010377889     1.3396236236
|  8>  C        0.8109934099    -0.8740544059     0.9970901969
|  9>  C        1.0594445598    -2.2930458701     0.4928676492
| 10>  C        0.5214897424    -2.2178205809    -0.9681342468
| 11>  O       -0.4034507239    -1.1524196287    -1.0108224832
| 12>  C        1.6871198993    -2.0167782298    -1.9303827605
| 13>  O        1.9514293780    -0.9902183134    -2.4966168460
| 14>  H        0.8889837735     1.1953135177    -1.3421490991
| 15>  H       -0.8072419773     1.5749330388    -0.9866618320
| 16>  H        0.4330314695     1.8806407589     0.2403798130
| 17>  H       -0.7730825675     0.3208890469     2.0324481827
| 18>  H       -1.3559451444    -1.2989819031     1.4094428846
| 19>  H        1.6193725057    -0.3437775744     1.4864455551
| 20>  H        2.1208479090    -2.5582013510     0.5275729435
| 21>  H        0.5160045140    -3.0468589615     1.0700963241
| 22>  H        0.0043970091    -3.1401753058    -1.2626135331
| 23>  H        2.3202635510    -2.9289058529    -2.0528217182
| 24> *
| 25>
| 26>                          ****END OF INPUT****

CARTESIAN COORDINATES (ANGSTROEM)
---------------------------------
  C      0.127415    1.198038   -0.558164
  C     -0.060475   -0.192582   -0.021195
  C     -0.623790   -0.501038    1.339624
  C      0.810993   -0.874054    0.997090
  C      1.059445   -2.293046    0.492868
  C      0.521490   -2.217821   -0.968134
  O     -0.403451   -1.152420   -1.010822
  C      1.687120   -2.016778   -1.930383
  O      1.951429   -0.990218   -2.496617
  H      0.888984    1.195314   -1.342149
  H     -0.807242    1.574933   -0.986662
  H      0.433031    1.880641    0.240380
  H     -0.773083    0.320889    2.032448
  H     -1.355945   -1.298982    1.409443
  H      1.619373   -0.343778    1.486446
  H      2.120848   -2.558201    0.527573
  H      0.516005   -3.046859    1.070096
  H      0.004397   -3.140175   -1.262614
  H      2.320264   -2.928906   -2.052822

 Total Charge           Charge          ....    0
 Multiplicity           Mult            ....    1
 Number of Electrons    NEL             ....   68
 Basis Dimension        Dim             ....  339

ORBITAL ENERGIES
----------------

  NO   OCC          E(Eh)            E(eV)
   0   2.0000     -20.562262      -559.5276
   1   2.0000     -20.560813      -559.4882
   2   2.0000     -11.332719      -308.3789
   3   2.0000     -11.300553      -307.5037
   4   2.0000     -11.287531      -307.1493
   5   2.0000     -11.249211      -306.1066
   6   2.0000     -11.238908      -305.8262
   7   2.0000     -11.228729      -305.5493
   8   2.0000     -11.212417      -305.1054
   9   2.0000      -1.410213       -38.3738
  10   2.0000      -1.385443       -37.6998
  11   2.0000      -1.142556       -31.0905
  12   2.0000      -1.060681       -28.8626
  13   2.0000      -0.963182       -26.2095
  14   2.0000      -0.915147       -24.9024
  15   2.0000      -0.816265       -22.2117
  16   2.0000      -0.797435       -21.6993
  17   2.0000      -0.753496       -20.5037
  18   2.0000      -0.700114       -19.0511
  19   2.0000      -0.681885       -18.5550
  20   2.0000      -0.649577       -17.6759
  21   2.0000      -0.627502       -17.0752
  22   2.0000      -0.603731       -16.4284
  23   2.0000      -0.590419       -16.0661
  24   2.0000      -0.557288       -15.1646
  25   2.0000      -0.553971       -15.0743
  26   2.0000      -0.541567       -14.7368
  27   2.0000      -0.531922       -14.4743
  28   2.0000      -0.514708       -14.0059
  29   2.0000      -0.491268       -13.3681
  30   2.0000      -0.478319       -13.0157
  31   2.0000      -0.423840       -11.5333
  32   2.0000      -0.410908       -11.1814
  33   2.0000      -0.378521       -10.3001
  34   0.0000       0.122870         3.3435
  35   0.0000       0.144646         3.9360
  36   0.0000       0.150805         4.1036
  37   0.0000       0.168060         4.5732
  38   0.0000       0.180529         4.9124

MULLIKEN ATOMIC CHARGES
-----------------------
   0 C :   -0.417106
   1 C :    0.268791
   2 C :   -0.326526
   3 C :   -0.128102
   4 C :   -0.284190
   5 C :    0.149711
   6 O :   -0.316215
   7 C :    0.045149
   8 O :   -0.259854
   9 H :    0.161612
  10 H :    0.135722
  11 H :    0.118155
  12 H :    0.130044
  13 H :    0.131175
  14 H :    0.134576
  15 H :    0.130951
  16 H :    0.134432
  17 H :    0.115346
  18 H :    0.076330
Sum of atomic charges:   -0.0000000

LOEWDIN ATOMIC CHARGES
----------------------
   0 C :   -0.266393
   1 C :   -0.320918
   2 C :   -0.183503
   3 C :   -0.183336
   4 C :   -0.206480
   5 C :   -0.307140
   6 O :    0.239096
   7 C :   -0.281381
   8 O :    0.147489
   9 H :    0.134253
  10 H :    0.130935
  11 H :    0.129313
  12 H :    0.136296
  13 H :    0.137665
  14 H :    0.146637
  15 H :    0.144358
  16 H :    0.140146
  17 H :    0.150707
  18 H :    0.112256

  Mayer bond orders larger than 0.1
B(  0-C ,  1-C ) :   0.8996 B(  0-C ,  9-H ) :   0.9335 B(  0-C , 10-H ) :   0.9357
B(  0-C , 11-H ) :   0.9323 B(  1-C ,  2-C ) :   0.8860 B(  1-C ,  3-C ) :   0.8491
B(  1-C ,  6-O ) :   0.8847 B(  2-C ,  3-C ) :   0.8921 B(  2-C , 12-H ) :   0.9256
B(  2-C , 13-H ) :   0.9144 B(  3-C ,  4-C ) :   0.9148 B(  3-C , 14-H ) :   0.9111
B(  4-C ,  5-C ) :   0.9274 B(  4-C , 15-H ) :   0.9212 B(  4-C , 16-H ) :   0.9137
B(  5-C ,  6-O ) :   0.9725 B(  5-C ,  7-C ) :   0.8253 B(  5-C , 17-H ) :   0.9042
B(  7-C ,  8-O ) :   2.0086 B(  7-C , 18-H ) :   0.9274

MP2 TOTAL ENERGY:     -422.314963846 Eh
FINAL SINGLE POINT ENERGY      -422.314963845882

DIPOLE MOMENT
-------------
                                X             Y             Z
Electronic contribution:      0.83925      -2.13593      -4.76622
Nuclear contribution   :     -0.69462       1.50422       5.68370
                        -----------------------------------------
Total Dipole Moment    :      0.14463      -0.63172       0.91749
                        -----------------------------------------
Magnitude (a.u.)       :      1.12328
Magnitude (Debye)      :      2.85516

                             ****ORCA TERMINATED NORMALLY****
TOTAL RUN TIME: 0 days 0 hours 18 minutes 32 seconds 98 msec
