                         Program Version 3.0.3 - RELEASE   -
|  1> ! RI-MP2 RIJK def2-TZVP def2-TZVP/C def2-TZVP/JK TIGHTSCF
|  2> % maxcore 2000
|  3> % mp2 density relaxed end
|  4> *xyz 0 1
|  5>  C        0.2120009401     1.5608007758     0.1949828757
|  6>  N        1.1623966470     0.6120399493    -0.4115739307
|  7>  C       -0.1689905346     0.1371463362    -0.0002489016
|  8>  C       -0.3706155364    -0.7939724717     1.1682723734
|  9>  C        0.1593954347    -2.2489915597     1.2847239058
| 10>  C        1.5277994553    -1.6021386225     1.5914271293
| 11>  N        0.5564082579    -0.7077726188     2.4018611379
| 12>  C       -0.1003066721    -2.0472401520     2.7920261599
| 13>  H        0.4908404149     1.8930006402     1.1900727599
| 14>  H       -0.2519355889     2.3146546571    -0.4350123435
| 15>  H        1.1845987221     0.7342903938    -1.4202311544
| 16>  H       -0.8852142904    -0.0558524009    -0.7994794632
| 17>  H       -1.4205251095    -0.6781958280     1.4702002212
| 18>  H       -0.0729809248    -3.1170178496     0.6563332722
| 19>  H        2.2116386301    -2.1655286943     2.2332327585
| 20>  H        2.0492559044    -1.0679376251     0.8026507851
| 21>  H       -1.1337457596    -1.9469611090     3.1375355117
| 22>  H        0.5030389298    -2.6275938710     3.4947220630
| 23> *
| 24>
| 25>                          ****END OF INPUT****

CARTESIAN COORDINATES (ANGSTROEM)
---------------------------------
  C      0.212001    1.560801    0.194983
  N      1.162397    0.612040   -0.411574
  C     -0.168991    0.137146   -0.000249
  C     -0.370616   -0.793972    1.168272
  C      0.159395   -2.248992    1.284724
  C      1.527799   -1.602139    1.591427
  N      0.556408   -0.707773    2.401861
  C     -0.100307   -2.047240    2.792026
  H      0.490840    1.893001    1.190073
  H     -0.251936    2.314655   -0.435012
  H      1.184599    0.734290   -1.420231
  H     -0.885214   -0.055852   -0.799479
  H     -1.420525   -0.678196    1.470200
  H     -0.072981   -3.117018    0.656333
  H      2.211639   -2.165529    2.233233
  H      2.049256   -1.067938    0.802651
  H     -1.133746   -1.946961    3.137536
  H      0.503039   -2.627594    3.494722

 Total Charge           Charge          ....    0
 Multiplicity           Mult            ....    1
 Number of Electrons    NEL             ....   60
 Basis Dimension        Dim             ....  308

ORBITAL ENERGIES
----------------

  NO   OCC          E(Eh)            E(eV)
   0   2.0000     -15.561048      -423.4377
   1   2.0000     -15.558652      -423.3724
   2   2.0000     -11.263768      -306.5027
   3   2.0000     -11.262945      -306.4803
   4   2.0000     -11.253710      -306.2290
   5   2.0000     -11.252748      -306.2028
   6   2.0000     -11.243314      -305.9461
   7   2.0000     -11.242483      -305.9235
   8   2.0000      -1.289185       -35.0805
   9   2.0000      -1.255027       -34.1510
  10   2.0000      -0.967687       -26.3321
  11   2.0000      -0.919591       -25.0234
  12   2.0000      -0.910988       -24.7892
  13   2.0000      -0.877337       -23.8735
  14   2.0000      -0.816795       -22.2261
  15   2.0000      -0.727184       -19.7877
  16   2.0000      -0.706269       -19.2186
  17   2.0000      -0.642537       -17.4843
  18   2.0000      -0.632163       -17.2020
  19   2.0000      -0.625256       -17.0141
  20   2.0000      -0.563106       -15.3229
  21   2.0000      -0.514874       -14.0104
  22   2.0000      -0.504280       -13.7222
  23   2.0000      -0.488620       -13.2960
  24   2.0000      -0.480970       -13.0879
  25   2.0000      -0.467320       -12.7164
  26   2.0000      -0.456721       -12.4280
  27   2.0000      -0.435451       -11.8492
  28   2.0000      -0.385455       -10.4888
  29   2.0000      -0.362784        -9.8719
  30   0.0000       0.136645         3.7183
  31   0.0000       0.159724         4.3463
  32   0.0000       0.166792         4.5387
  33   0.0000       0.171256         4.6601
  34   0.0000       0.193313         5.2603

MULLIKEN ATOMIC CHARGES
-----------------------
   0 C :   -0.173213
   1 N :   -0.393153
   2 C :   -0.092331
   3 C :   -0.014884
   4 C :   -0.083467
   5 C :   -0.190118
   6 N :   -0.211532
   7 C :   -0.152730
   8 H :    0.144139
   9 H :    0.125204
  10 H :    0.217703
  11 H :    0.126197
  12 H :    0.094689
  13 H :    0.106644
  14 H :    0.105851
  15 H :    0.164020
  16 H :    0.110316
  17 H :    0.116665
Sum of atomic charges:   -0.0000000

LOEWDIN ATOMIC CHARGES
----------------------
   0 C :   -0.255317
   1 N :   -0.019530
   2 C :   -0.270225
   3 C :   -0.222834
   4 C :   -0.201652
   5 C :   -0.219367
   6 N :    0.102950
   7 C :   -0.233200
   8 H :    0.132875
   9 H :    0.119030
  10 H :    0.164937
  11 H :    0.142530
  12 H :    0.149946
  13 H :    0.116938
  14 H :    0.120246
  15 H :    0.128413
  16 H :    0.120959
  17 H :    0.123301

  Mayer bond orders larger than 0.1
B(  0-C ,  1-N ) :   0.9282 B(  0-C ,  2-C ) :   0.9301 B(  0-C ,  8-H ) :   0.9132
B(  0-C ,  9-H ) :   0.9263 B(  1-N ,  2-C ) :   0.9154 B(  1-N , 10-H ) :   0.8663
B(  2-C ,  3-C ) :   0.9011 B(  2-C , 11-H ) :   0.9264 B(  3-C ,  4-C ) :   0.9253
B(  3-C ,  6-N ) :   0.9255 B(  3-C , 12-H ) :   0.9216 B(  4-C ,  5-C ) :   0.9405
B(  4-C ,  7-C ) :   0.9322 B(  4-C , 13-H ) :   0.8988 B(  5-C ,  6-N ) :   0.9094
B(  5-C , 14-H ) :   0.9294 B(  5-C , 15-H ) :   0.9166 B(  6-N ,  7-C ) :   0.9081
B(  7-C , 16-H ) :   0.9247 B(  7-C , 17-H ) :   0.9265

MP2 TOTAL ENERGY:     -343.264064414 Eh
FINAL SINGLE POINT ENERGY      -343.264064414432

DIPOLE MOMENT
-------------
                                X             Y             Z
Electronic contribution:      0.43317       0.22856      -0.00734
Nuclear contribution   :     -1.05328      -0.49590      -0.76325
                        -----------------------------------------
Total Dipole Moment    :     -0.62011      -0.26734      -0.77059
                        -----------------------------------------
Magnitude (a.u.)       :      1.02460
Magnitude (Debye)      :      2.60433

                             ****ORCA TERMINATED NORMALLY****
TOTAL RUN TIME: 0 days 0 hours 12 minutes 19 seconds 305 msec
