                         Program Version 3.0.3 - RELEASE   -
|  1> ! RI-MP2 RIJK def2-TZVP def2-TZVP/C def2-TZVP/JK TIGHTSCF
|  2> % maxcore 2000
|  3> % mp2 density relaxed end
|  4> *xyz 0 1
|  5>  C       -0.0022288431     1.5917501265    -0.1489343086
|  6>  C       -0.0227902233     0.0678010346     0.0709195305
|  7>  C       -1.4050427009    -0.5162835771     0.0572609513
|  8>  C       -2.1199580827    -1.0222934518     1.1213302216
|  9>  N       -3.3526484651    -1.4139567030     0.6692582342
| 10>  C       -3.4627642732    -1.1872499626    -0.6894012558
| 11>  C       -4.6818021564    -1.5091268281    -1.4835315833
| 12>  C       -2.2665114860    -0.6284131336    -1.0776395322
| 13>  O       -2.0014321117    -0.2204791777    -2.3630693086
| 14>  H        1.0225939949     1.9773936598    -0.1656777361
| 15>  H       -0.4830700192     1.8554203990    -1.0961967472
| 16>  H       -0.5493395888     2.1029302509     0.6489297306
| 17>  H        0.6009031941    -0.4106904225    -0.7000629208
| 18>  H        0.4616082241    -0.1717727510     1.0242135142
| 19>  H       -1.8418918058    -1.1327436352     2.1576112875
| 20>  H       -4.0720583932    -1.8251180361     1.2364819684
| 21>  H       -5.5454221054    -0.8905399212    -1.2054240354
| 22>  H       -4.4746161338    -1.3287867066    -2.5408499869
| 23>  H       -4.9834167574    -2.5590221803    -1.3759502238
| 24>  H       -1.0496286072    -0.2471254037    -2.4987193597
| 25> *
| 26>
| 27>                          ****END OF INPUT****

CARTESIAN COORDINATES (ANGSTROEM)
---------------------------------
  C     -0.002229    1.591750   -0.148934
  C     -0.022790    0.067801    0.070920
  C     -1.405043   -0.516284    0.057261
  C     -2.119958   -1.022293    1.121330
  N     -3.352648   -1.413957    0.669258
  C     -3.462764   -1.187250   -0.689401
  C     -4.681802   -1.509127   -1.483532
  C     -2.266511   -0.628413   -1.077640
  O     -2.001432   -0.220479   -2.363069
  H      1.022594    1.977394   -0.165678
  H     -0.483070    1.855420   -1.096197
  H     -0.549340    2.102930    0.648930
  H      0.600903   -0.410690   -0.700063
  H      0.461608   -0.171773    1.024214
  H     -1.841892   -1.132744    2.157611
  H     -4.072058   -1.825118    1.236482
  H     -5.545422   -0.890540   -1.205424
  H     -4.474616   -1.328787   -2.540850
  H     -4.983417   -2.559022   -1.375950
  H     -1.049629   -0.247125   -2.498719

 Total Charge           Charge          ....    0
 Multiplicity           Mult            ....    1
 Number of Electrons    NEL             ....   68
 Basis Dimension        Dim             ....  345

ORBITAL ENERGIES
----------------

  NO   OCC          E(Eh)            E(eV)
   0   2.0000     -20.567814      -559.6787
   1   2.0000     -15.591273      -424.2601
   2   2.0000     -11.257169      -306.3232
   3   2.0000     -11.245182      -305.9970
   4   2.0000     -11.240933      -305.8814
   5   2.0000     -11.227603      -305.5186
   6   2.0000     -11.221985      -305.3657
   7   2.0000     -11.210597      -305.0559
   8   2.0000     -11.208607      -305.0017
   9   2.0000      -1.379105       -37.5274
  10   2.0000      -1.279411       -34.8145
  11   2.0000      -1.069752       -29.1094
  12   2.0000      -1.022065       -27.8118
  13   2.0000      -0.991161       -26.9709
  14   2.0000      -0.910019       -24.7629
  15   2.0000      -0.853496       -23.2248
  16   2.0000      -0.775544       -21.1036
  17   2.0000      -0.762157       -20.7394
  18   2.0000      -0.694557       -18.8999
  19   2.0000      -0.650633       -17.7046
  20   2.0000      -0.619216       -16.8497
  21   2.0000      -0.606447       -16.5023
  22   2.0000      -0.592284       -16.1169
  23   2.0000      -0.586991       -15.9729
  24   2.0000      -0.557650       -15.1744
  25   2.0000      -0.549234       -14.9454
  26   2.0000      -0.530793       -14.4436
  27   2.0000      -0.526942       -14.3388
  28   2.0000      -0.513929       -13.9847
  29   2.0000      -0.508110       -13.8264
  30   2.0000      -0.487783       -13.2732
  31   2.0000      -0.463855       -12.6221
  32   2.0000      -0.319249        -8.6872
  33   2.0000      -0.276168        -7.5149
  34   0.0000       0.130546         3.5523
  35   0.0000       0.135660         3.6915
  36   0.0000       0.161686         4.3997
  37   0.0000       0.169183         4.6037
  38   0.0000       0.177513         4.8304

MULLIKEN ATOMIC CHARGES
-----------------------
   0 C :   -0.355733
   1 C :   -0.314466
   2 C :    0.069639
   3 C :   -0.144482
   4 N :   -0.268354
   5 C :    0.102967
   6 C :   -0.450319
   7 C :    0.058533
   8 O :   -0.461353
   9 H :    0.124066
  10 H :    0.123404
  11 H :    0.125882
  12 H :    0.115752
  13 H :    0.123831
  14 H :    0.137316
  15 H :    0.238191
  16 H :    0.139885
  17 H :    0.166897
  18 H :    0.135033
  19 H :    0.333312
Sum of atomic charges:   -0.0000000

LOEWDIN ATOMIC CHARGES
----------------------
   0 C :   -0.312134
   1 C :   -0.263766
   2 C :   -0.189771
   3 C :   -0.222708
   4 N :    0.191438
   5 C :   -0.243829
   6 C :   -0.284012
   7 C :   -0.268083
   8 O :    0.044503
   9 H :    0.117122
  10 H :    0.120332
  11 H :    0.122480
  12 H :    0.136634
  13 H :    0.144274
  14 H :    0.132214
  15 H :    0.189811
  16 H :    0.127619
  17 H :    0.142916
  18 H :    0.127166
  19 H :    0.187793

  Mayer bond orders larger than 0.1
B(  0-C ,  1-C ) :   0.9175 B(  0-C ,  9-H ) :   0.9361 B(  0-C , 10-H ) :   0.9342
B(  0-C , 11-H ) :   0.9376 B(  1-C ,  2-C ) :   0.8459 B(  1-C , 12-H ) :   0.9457
B(  1-C , 13-H ) :   0.9483 B(  2-C ,  3-C ) :   1.4174 B(  2-C ,  7-C ) :   1.2282
B(  3-C ,  4-N ) :   1.1705 B(  3-C , 14-H ) :   0.9105 B(  4-N ,  5-C ) :   1.0887
B(  4-N , 15-H ) :   0.8774 B(  5-C ,  6-C ) :   0.8429 B(  5-C ,  7-C ) :   1.5225
B(  6-C , 16-H ) :   0.9375 B(  6-C , 17-H ) :   0.9460 B(  6-C , 18-H ) :   0.9390
B(  7-C ,  8-O ) :   1.0586 B(  8-O , 19-H ) :   0.8330

MP2 TOTAL ENERGY:     -402.497175308 Eh
FINAL SINGLE POINT ENERGY      -402.497175308143

DIPOLE MOMENT
-------------
                                X             Y             Z
Electronic contribution:     -2.50870      -3.22546      -0.03853
Nuclear contribution   :      2.44912       2.84687       0.59031
                        -----------------------------------------
Total Dipole Moment    :     -0.05959      -0.37859       0.55179
                        -----------------------------------------
Magnitude (a.u.)       :      0.67182
Magnitude (Debye)      :      1.70764

                             ****ORCA TERMINATED NORMALLY****
TOTAL RUN TIME: 0 days 0 hours 17 minutes 13 seconds 106 msec
