                         Program Version 3.0.3 - RELEASE   -
|  1> ! RI-MP2 RIJK def2-TZVP def2-TZVP/C def2-TZVP/JK TIGHTSCF
|  2> % maxcore 2000
|  3> % mp2 density relaxed end
|  4> *xyz 0 1
|  5>  N       -0.1928261335     1.3531820990     0.0960255932
|  6>  C        0.0242554209     0.0188634124    -0.0856205307
|  7>  O        1.1072434782    -0.4712051184    -0.3482866563
|  8>  C       -1.2184429481    -0.8254845975     0.0320678645
|  9>  C       -2.4289030422    -0.5099417054    -0.7867750236
| 10>  N       -2.4214143717    -0.2106329159     0.6466289965
| 11>  C       -3.0450362991    -1.2532554404     1.4870624559
| 12>  C       -2.4525418929    -2.6209685797     1.0697093515
| 13>  C       -1.0619891641    -2.2651947865     0.5004656806
| 14>  H        0.6134747407     1.9546114614     0.1406036175
| 15>  H       -1.0489418485     1.6325872183     0.5513301894
| 16>  H       -2.4202051994     0.3639100645    -1.4310685160
| 17>  H       -3.0289669177    -1.3391000945    -1.1541040457
| 18>  H       -2.7879513015    -1.0197006836     2.5255835352
| 19>  H       -4.1345505304    -1.2079018456     1.3961163313
| 20>  H       -2.3963939925    -3.3155441957     1.9109933033
| 21>  H       -3.0742464643    -3.0992358778     0.3074608506
| 22>  H       -0.7448884615    -2.9348865508    -0.3020165243
| 23>  H       -0.2870879825    -2.3032526236     1.2719961869
| 24> *
| 25>
| 26>                          ****END OF INPUT****

CARTESIAN COORDINATES (ANGSTROEM)
---------------------------------
  N     -0.192826    1.353182    0.096026
  C      0.024255    0.018863   -0.085621
  O      1.107243   -0.471205   -0.348287
  C     -1.218443   -0.825485    0.032068
  C     -2.428903   -0.509942   -0.786775
  N     -2.421414   -0.210633    0.646629
  C     -3.045036   -1.253255    1.487062
  C     -2.452542   -2.620969    1.069709
  C     -1.061989   -2.265195    0.500466
  H      0.613475    1.954611    0.140604
  H     -1.048942    1.632587    0.551330
  H     -2.420205    0.363910   -1.431069
  H     -3.028967   -1.339100   -1.154104
  H     -2.787951   -1.019701    2.525584
  H     -4.134551   -1.207902    1.396116
  H     -2.396394   -3.315544    1.910993
  H     -3.074246   -3.099236    0.307461
  H     -0.744888   -2.934887   -0.302017
  H     -0.287088   -2.303253    1.271996

 Total Charge           Charge          ....    0
 Multiplicity           Mult            ....    1
 Number of Electrons    NEL             ....   68
 Basis Dimension        Dim             ....  339

ORBITAL ENERGIES
----------------

  NO   OCC          E(Eh)            E(eV)
   0   2.0000     -20.514553      -558.2294
   1   2.0000     -15.575666      -423.8354
   2   2.0000     -15.572521      -423.7498
   3   2.0000     -11.346594      -308.7565
   4   2.0000     -11.275428      -306.8200
   5   2.0000     -11.269877      -306.6689
   6   2.0000     -11.261646      -306.4450
   7   2.0000     -11.233132      -305.6691
   8   2.0000     -11.232464      -305.6509
   9   2.0000      -1.378333       -37.5063
  10   2.0000      -1.299261       -35.3547
  11   2.0000      -1.202311       -32.7165
  12   2.0000      -1.057565       -28.7778
  13   2.0000      -1.013265       -27.5723
  14   2.0000      -0.896043       -24.3826
  15   2.0000      -0.855832       -23.2884
  16   2.0000      -0.800596       -21.7853
  17   2.0000      -0.750791       -20.4301
  18   2.0000      -0.727386       -19.7932
  19   2.0000      -0.674307       -18.3488
  20   2.0000      -0.662068       -18.0158
  21   2.0000      -0.645844       -17.5743
  22   2.0000      -0.601149       -16.3581
  23   2.0000      -0.593613       -16.1530
  24   2.0000      -0.576184       -15.6788
  25   2.0000      -0.566767       -15.4225
  26   2.0000      -0.516062       -14.0428
  27   2.0000      -0.503212       -13.6931
  28   2.0000      -0.493234       -13.4216
  29   2.0000      -0.474804       -12.9201
  30   2.0000      -0.454082       -12.3562
  31   2.0000      -0.423147       -11.5144
  32   2.0000      -0.409502       -11.1431
  33   2.0000      -0.385710       -10.4957
  34   0.0000       0.132259         3.5990
  35   0.0000       0.148719         4.0468
  36   0.0000       0.161939         4.4066
  37   0.0000       0.166021         4.5177
  38   0.0000       0.186534         5.0758

MULLIKEN ATOMIC CHARGES
-----------------------
   0 N :   -0.481920
   1 C :    0.168973
   2 O :   -0.346050
   3 C :    0.187133
   4 C :   -0.182735
   5 N :   -0.280132
   6 C :   -0.150416
   7 C :   -0.263830
   8 C :   -0.232152
   9 H :    0.251440
  10 H :    0.278835
  11 H :    0.137944
  12 H :    0.132215
  13 H :    0.124984
  14 H :    0.125150
  15 H :    0.132753
  16 H :    0.127059
  17 H :    0.136462
  18 H :    0.134289
Sum of atomic charges:    0.0000000

LOEWDIN ATOMIC CHARGES
----------------------
   0 N :   -0.012683
   1 C :   -0.449227
   2 O :    0.086851
   3 C :   -0.239057
   4 C :   -0.209921
   5 N :    0.114238
   6 C :   -0.270186
   7 C :   -0.259347
   8 C :   -0.206813
   9 H :    0.171811
  10 H :    0.177437
  11 H :    0.132298
  12 H :    0.132354
  13 H :    0.133938
  14 H :    0.131184
  15 H :    0.137464
  16 H :    0.133376
  17 H :    0.146785
  18 H :    0.149498

  Mayer bond orders larger than 0.1
B(  0-N ,  1-C ) :   1.1959 B(  0-N ,  9-H ) :   0.8632 B(  0-N , 10-H ) :   0.8453
B(  1-C ,  2-O ) :   2.0123 B(  1-C ,  3-C ) :   0.8744 B(  3-C ,  4-C ) :   0.8896
B(  3-C ,  5-N ) :   0.7880 B(  3-C ,  8-C ) :   0.9328 B(  4-C ,  5-N ) :   0.8806
B(  4-C , 11-H ) :   0.9122 B(  4-C , 12-H ) :   0.9187 B(  5-N ,  6-C ) :   0.9167
B(  6-C ,  7-C ) :   0.9177 B(  6-C , 13-H ) :   0.9361 B(  6-C , 14-H ) :   0.9368
B(  7-C ,  8-C ) :   0.9108 B(  7-C , 15-H ) :   0.9255 B(  7-C , 16-H ) :   0.9396
B(  8-C , 17-H ) :   0.9315 B(  8-C , 18-H ) :   0.9270

MP2 TOTAL ENERGY:     -418.533942630 Eh
FINAL SINGLE POINT ENERGY      -418.533942629870

DIPOLE MOMENT
-------------
                                X             Y             Z
Electronic contribution:      4.97727       3.76055      -1.75760
Nuclear contribution   :     -6.13288      -3.67879       2.15542
                        -----------------------------------------
Total Dipole Moment    :     -1.15561       0.08176       0.39782
                        -----------------------------------------
Magnitude (a.u.)       :      1.22490
Magnitude (Debye)      :      3.11345

                             ****ORCA TERMINATED NORMALLY****
TOTAL RUN TIME: 0 days 0 hours 20 minutes 6 seconds 965 msec
