                         Program Version 3.0.3 - RELEASE   -
|  1> ! RI-MP2 RIJK def2-TZVP def2-TZVP/C def2-TZVP/JK TIGHTSCF
|  2> % maxcore 2000
|  3> % mp2 density relaxed end
|  4> *xyz 0 1
|  5>  O       -0.0466698176    -0.0007232781    -0.2418034202
|  6>  C       -0.0349033700     1.1780735126    -0.0640385228
|  7>  C       -1.0610236606     2.2677235181     0.2701617710
|  8>  O        0.0069238498     3.2360680899     0.3263993073
|  9>  C        1.0393448132     2.2785963015    -0.0243477213
| 10>  C        2.1331095261     2.1468303988     1.0158710910
| 11>  C        3.3173009121     1.2546418693     0.5772371371
| 12>  O        4.1698622026     2.4040686919     0.4009284196
| 13>  C        3.1880272542     3.2765984107     0.9977306256
| 14>  H       -1.7899263998     2.4767017121    -0.5233346593
| 15>  H       -1.5874368381     2.1501000567     1.2254785043
| 16>  H        1.4726752544     2.5006627283    -1.0110639271
| 17>  H        1.7006893734     1.9212050439     1.9927185564
| 18>  H        3.6880727875     0.5799378050     1.3589869472
| 19>  H        3.1868021751     0.6853951238    -0.3502247102
| 20>  H        2.9644627626     4.1454354160     0.3684054914
| 21>  H        3.4965127553     3.6236445194     1.9922066301
| 22> *
| 23>
| 24>                          ****END OF INPUT****

CARTESIAN COORDINATES (ANGSTROEM)
---------------------------------
  O     -0.046670   -0.000723   -0.241803
  C     -0.034903    1.178074   -0.064039
  C     -1.061024    2.267724    0.270162
  O      0.006924    3.236068    0.326399
  C      1.039345    2.278596   -0.024348
  C      2.133110    2.146830    1.015871
  C      3.317301    1.254642    0.577237
  O      4.169862    2.404069    0.400928
  C      3.188027    3.276598    0.997731
  H     -1.789926    2.476702   -0.523335
  H     -1.587437    2.150100    1.225479
  H      1.472675    2.500663   -1.011064
  H      1.700689    1.921205    1.992719
  H      3.688073    0.579938    1.358987
  H      3.186802    0.685395   -0.350225
  H      2.964463    4.145435    0.368405
  H      3.496513    3.623645    1.992207

 Total Charge           Charge          ....    0
 Multiplicity           Mult            ....    1
 Number of Electrons    NEL             ....   68
 Basis Dimension        Dim             ....  327

ORBITAL ENERGIES
----------------

  NO   OCC          E(Eh)            E(eV)
   0   2.0000     -20.581251      -560.0443
   1   2.0000     -20.579993      -560.0101
   2   2.0000     -20.556911      -559.3820
   3   2.0000     -11.355566      -309.0007
   4   2.0000     -11.311385      -307.7984
   5   2.0000     -11.308365      -307.7162
   6   2.0000     -11.290506      -307.2303
   7   2.0000     -11.289785      -307.2107
   8   2.0000     -11.255197      -306.2695
   9   2.0000      -1.432649       -38.9844
  10   2.0000      -1.401436       -38.1350
  11   2.0000      -1.387336       -37.7513
  12   2.0000      -1.070212       -29.1219
  13   2.0000      -0.989881       -26.9360
  14   2.0000      -0.944544       -25.7023
  15   2.0000      -0.940707       -25.5979
  16   2.0000      -0.791932       -21.5496
  17   2.0000      -0.760711       -20.7000
  18   2.0000      -0.704380       -19.1672
  19   2.0000      -0.699388       -19.0313
  20   2.0000      -0.680136       -18.5074
  21   2.0000      -0.677716       -18.4416
  22   2.0000      -0.646833       -17.6012
  23   2.0000      -0.605503       -16.4766
  24   2.0000      -0.590022       -16.0553
  25   2.0000      -0.572058       -15.5665
  26   2.0000      -0.556269       -15.1369
  27   2.0000      -0.548721       -14.9315
  28   2.0000      -0.534462       -14.5435
  29   2.0000      -0.485270       -13.2049
  30   2.0000      -0.478198       -13.0124
  31   2.0000      -0.451152       -12.2765
  32   2.0000      -0.427724       -11.6390
  33   2.0000      -0.411917       -11.2088
  34   0.0000       0.114163         3.1065
  35   0.0000       0.134631         3.6635
  36   0.0000       0.156781         4.2662
  37   0.0000       0.157597         4.2884
  38   0.0000       0.159748         4.3470

MULLIKEN ATOMIC CHARGES
-----------------------
   0 O :   -0.236312
   1 C :    0.108241
   2 C :   -0.036771
   3 O :   -0.333258
   4 C :    0.025855
   5 C :   -0.071043
   6 C :   -0.050128
   7 O :   -0.328699
   8 C :   -0.028161
   9 H :    0.129596
  10 H :    0.129419
  11 H :    0.138299
  12 H :    0.121373
  13 H :    0.102930
  14 H :    0.115157
  15 H :    0.113333
  16 H :    0.100170
Sum of atomic charges:   -0.0000000

LOEWDIN ATOMIC CHARGES
----------------------
   0 O :    0.180615
   1 C :   -0.298166
   2 C :   -0.243545
   3 O :    0.143744
   4 C :   -0.240856
   5 C :   -0.219661
   6 C :   -0.244535
   7 O :    0.111519
   8 C :   -0.244939
   9 H :    0.132312
  10 H :    0.131384
  11 H :    0.155629
  12 H :    0.149977
  13 H :    0.120826
  14 H :    0.123324
  15 H :    0.122775
  16 H :    0.119597

  Mayer bond orders larger than 0.1
B(  0-O ,  1-C ) :   2.0503 B(  1-C ,  2-C ) :   0.9654 B(  1-C ,  4-C ) :   0.8502
B(  2-C ,  3-O ) :   0.9483 B(  2-C ,  9-H ) :   0.8999 B(  2-C , 10-H ) :   0.9013
B(  3-O ,  4-C ) :   0.9257 B(  4-C ,  5-C ) :   0.9163 B(  4-C , 11-H ) :   0.8893
B(  5-C ,  6-C ) :   0.9331 B(  5-C ,  8-C ) :   0.9403 B(  5-C , 12-H ) :   0.9077
B(  6-C ,  7-O ) :   0.9478 B(  6-C , 13-H ) :   0.9127 B(  6-C , 14-H ) :   0.9110
B(  7-O ,  8-C ) :   0.9472 B(  8-C , 15-H ) :   0.9114 B(  8-C , 16-H ) :   0.9145

MP2 TOTAL ENERGY:     -458.181917848 Eh
FINAL SINGLE POINT ENERGY      -458.181917847746

DIPOLE MOMENT
-------------
                                X             Y             Z
Electronic contribution:     -2.20822      -1.68643      -1.68897
Nuclear contribution   :      1.63382       1.88034       2.02781
                        -----------------------------------------
Total Dipole Moment    :     -0.57441       0.19391       0.33884
                        -----------------------------------------
Magnitude (a.u.)       :      0.69452
Magnitude (Debye)      :      1.76532

                             ****ORCA TERMINATED NORMALLY****
TOTAL RUN TIME: 0 days 0 hours 16 minutes 8 seconds 618 msec
