                         Program Version 3.0.3 - RELEASE   -
|  1> ! RI-MP2 RIJK def2-TZVP def2-TZVP/C def2-TZVP/JK TIGHTSCF
|  2> % maxcore 2000
|  3> % mp2 density relaxed end
|  4> *xyz 0 1
|  5>  C        0.0371898273     1.4651309723     0.1033219264
|  6>  C        1.3622783024     0.7821884190    -0.0591669611
|  7>  C        1.7751007276     0.0981177378     1.2492257709
|  8>  C        0.4463833825    -0.7294267282     1.2278568209
|  9>  C        0.6061790628    -2.2336286438     0.9968595361
| 10>  C       -0.6370223411    -2.8257512403     0.3049854016
| 11>  C       -1.0060343659    -2.0524702498    -0.9411882440
| 12>  C       -0.6649703180    -0.7720482409    -1.1220601283
| 13>  C        0.0392536523    -0.0289166252    -0.0760465268
| 14>  H       -0.2485255194     1.9021471734     1.0593096973
| 15>  H       -0.3038207358     2.0296876423    -0.7599755354
| 16>  H        2.0214800093     1.0138209156    -0.8876009859
| 17>  H        2.6571708022    -0.5394303766     1.1485406638
| 18>  H        1.9259199319     0.7662497983     2.1043707158
| 19>  H       -0.2342665247    -0.5449191059     2.0684783536
| 20>  H        1.4713367234    -2.4037240302     0.3436181372
| 21>  H        0.8111322974    -2.7528899901     1.9398125211
| 22>  H       -0.4509151941    -3.8751019360     0.0460916307
| 23>  H       -1.4871779064    -2.8431097976     1.0033347212
| 24>  H       -1.5618092088    -2.5792409179    -1.7122876573
| 25>  H       -0.9247817948    -0.2517223562    -2.0411010878
| 26> *
| 27>
| 28>                          ****END OF INPUT****

CARTESIAN COORDINATES (ANGSTROEM)
---------------------------------
  C      0.037190    1.465131    0.103322
  C      1.362278    0.782188   -0.059167
  C      1.775101    0.098118    1.249226
  C      0.446383   -0.729427    1.227857
  C      0.606179   -2.233629    0.996860
  C     -0.637022   -2.825751    0.304985
  C     -1.006034   -2.052470   -0.941188
  C     -0.664970   -0.772048   -1.122060
  C      0.039254   -0.028917   -0.076047
  H     -0.248526    1.902147    1.059310
  H     -0.303821    2.029688   -0.759976
  H      2.021480    1.013821   -0.887601
  H      2.657171   -0.539430    1.148541
  H      1.925920    0.766250    2.104371
  H     -0.234267   -0.544919    2.068478
  H      1.471337   -2.403724    0.343618
  H      0.811132   -2.752890    1.939813
  H     -0.450915   -3.875102    0.046092
  H     -1.487178   -2.843110    1.003335
  H     -1.561809   -2.579241   -1.712288
  H     -0.924782   -0.251722   -2.041101

 Total Charge           Charge          ....    0
 Multiplicity           Mult            ....    1
 Number of Electrons    NEL             ....   66
 Basis Dimension        Dim             ....  351

ORBITAL ENERGIES
----------------

  NO   OCC          E(Eh)            E(eV)
   0   2.0000     -11.231000      -305.6110
   1   2.0000     -11.229481      -305.5697
   2   2.0000     -11.224974      -305.4471
   3   2.0000     -11.223977      -305.4199
   4   2.0000     -11.221962      -305.3651
   5   2.0000     -11.221719      -305.3585
   6   2.0000     -11.220975      -305.3383
   7   2.0000     -11.218959      -305.2834
   8   2.0000     -11.217368      -305.2401
   9   2.0000      -1.193457       -32.4756
  10   2.0000      -1.083663       -29.4880
  11   2.0000      -1.022905       -27.8347
  12   2.0000      -0.949652       -25.8413
  13   2.0000      -0.913365       -24.8539
  14   2.0000      -0.815620       -22.1942
  15   2.0000      -0.801358       -21.8061
  16   2.0000      -0.760370       -20.6907
  17   2.0000      -0.688965       -18.7477
  18   2.0000      -0.666319       -18.1315
  19   2.0000      -0.639861       -17.4115
  20   2.0000      -0.610425       -16.6105
  21   2.0000      -0.585216       -15.9245
  22   2.0000      -0.569869       -15.5069
  23   2.0000      -0.546557       -14.8726
  24   2.0000      -0.524546       -14.2736
  25   2.0000      -0.518053       -14.0969
  26   2.0000      -0.498080       -13.5534
  27   2.0000      -0.488066       -13.2809
  28   2.0000      -0.452089       -12.3020
  29   2.0000      -0.430982       -11.7276
  30   2.0000      -0.409832       -11.1521
  31   2.0000      -0.396775       -10.7968
  32   2.0000      -0.311157        -8.4670
  33   0.0000       0.137748         3.7483
  34   0.0000       0.154316         4.1992
  35   0.0000       0.160033         4.3547
  36   0.0000       0.166318         4.5257
  37   0.0000       0.174459         4.7473

MULLIKEN ATOMIC CHARGES
-----------------------
   0 C :   -0.274715
   1 C :   -0.135338
   2 C :   -0.258584
   3 C :    0.023610
   4 C :   -0.284155
   5 C :   -0.172097
   6 C :   -0.154129
   7 C :   -0.270868
   8 C :    0.125791
   9 H :    0.120967
  10 H :    0.128550
  11 H :    0.126043
  12 H :    0.117678
  13 H :    0.111519
  14 H :    0.092592
  15 H :    0.111132
  16 H :    0.122884
  17 H :    0.123742
  18 H :    0.115891
  19 H :    0.118915
  20 H :    0.110573
Sum of atomic charges:    0.0000000

LOEWDIN ATOMIC CHARGES
----------------------
   0 C :   -0.181050
   1 C :   -0.155925
   2 C :   -0.195523
   3 C :   -0.172297
   4 C :   -0.231653
   5 C :   -0.249969
   6 C :   -0.165359
   7 C :   -0.140409
   8 C :   -0.172401
   9 H :    0.132754
  10 H :    0.141424
  11 H :    0.133730
  12 H :    0.135385
  13 H :    0.126793
  14 H :    0.143266
  15 H :    0.144524
  16 H :    0.136447
  17 H :    0.141121
  18 H :    0.143851
  19 H :    0.139156
  20 H :    0.146134

  Mayer bond orders larger than 0.1
B(  0-C ,  1-C ) :   0.9081 B(  0-C ,  8-C ) :   0.8461 B(  0-C ,  9-H ) :   0.9047
B(  0-C , 10-H ) :   0.9338 B(  1-C ,  2-C ) :   0.9495 B(  1-C ,  8-C ) :   0.7817
B(  1-C , 11-H ) :   0.9112 B(  2-C ,  3-C ) :   0.9457 B(  2-C , 12-H ) :   0.9201
B(  2-C , 13-H ) :   0.9148 B(  3-C ,  4-C ) :   0.8965 B(  3-C ,  8-C ) :   0.9133
B(  3-C , 14-H ) :   0.9194 B(  4-C ,  5-C ) :   0.9324 B(  4-C , 15-H ) :   0.9220
B(  4-C , 16-H ) :   0.9335 B(  5-C ,  6-C ) :   0.9316 B(  5-C , 17-H ) :   0.9285
B(  5-C , 18-H ) :   0.9136 B(  6-C ,  7-C ) :   1.7911 B(  6-C , 19-H ) :   0.9313
B(  7-C ,  8-C ) :   0.9694 B(  7-C , 20-H ) :   0.9260

MP2 TOTAL ENERGY:     -349.292924439 Eh
FINAL SINGLE POINT ENERGY      -349.292924439168

DIPOLE MOMENT
-------------
                                X             Y             Z
Electronic contribution:     -0.83281       1.36638      -1.69553
Nuclear contribution   :      0.89827      -1.41962       1.74451
                        -----------------------------------------
Total Dipole Moment    :      0.06546      -0.05324       0.04899
                        -----------------------------------------
Magnitude (a.u.)       :      0.09756
Magnitude (Debye)      :      0.24799

                             ****ORCA TERMINATED NORMALLY****
TOTAL RUN TIME: 0 days 0 hours 21 minutes 28 seconds 311 msec
