                         Program Version 3.0.3 - RELEASE   -
|  1> ! RI-MP2 RIJK def2-TZVP def2-TZVP/C def2-TZVP/JK TIGHTSCF
|  2> % maxcore 2000
|  3> % mp2 density relaxed end
|  4> *xyz 0 1
|  5>  C        0.0294373175     1.4098188900     0.0561866882
|  6>  N        0.0226267037    -0.0432196257     0.0338840728
|  7>  N       -0.0451900493    -0.6265867106    -1.1432680613
|  8>  N       -0.0549884812    -1.9111805479    -1.2307301397
|  9>  C        0.0066219645    -2.6831622770    -0.0742405441
| 10>  N        0.0035422767    -3.9658215763    -0.0478020334
| 11>  C        0.0801617307    -1.9547021058     1.2005546528
| 12>  N        0.1390925720    -2.6954766075     2.3156913997
| 13>  N        0.0880040261    -0.6486907886     1.2502261819
| 14>  H        0.9479831596     1.7675233562     0.5290890411
| 15>  H       -0.0266964401     1.7545530172    -0.9746159523
| 16>  H       -0.8280770429     1.7743936334     0.6280972640
| 17>  H       -0.0507637267    -4.3279758207    -1.0017019695
| 18>  H        0.1291200850    -3.6960849109     2.1900595414
| 19>  H        0.1917158443    -2.2688938958     3.2239112885
| 20> *
| 21>
| 22>                          ****END OF INPUT****

CARTESIAN COORDINATES (ANGSTROEM)
---------------------------------
  C      0.029437    1.409819    0.056187
  N      0.022627   -0.043220    0.033884
  N     -0.045190   -0.626587   -1.143268
  N     -0.054988   -1.911181   -1.230730
  C      0.006622   -2.683162   -0.074241
  N      0.003542   -3.965822   -0.047802
  C      0.080162   -1.954702    1.200555
  N      0.139093   -2.695477    2.315691
  N      0.088004   -0.648691    1.250226
  H      0.947983    1.767523    0.529089
  H     -0.026696    1.754553   -0.974616
  H     -0.828077    1.774394    0.628097
  H     -0.050764   -4.327976   -1.001702
  H      0.129120   -3.696085    2.190060
  H      0.191716   -2.268894    3.223911

 Total Charge           Charge          ....    0
 Multiplicity           Mult            ....    1
 Number of Electrons    NEL             ....   66
 Basis Dimension        Dim             ....  315

ORBITAL ENERGIES
----------------

  NO   OCC          E(Eh)            E(eV)
   0   2.0000     -15.695011      -427.0830
   1   2.0000     -15.688234      -426.8986
   2   2.0000     -15.611279      -424.8045
   3   2.0000     -15.598937      -424.4687
   4   2.0000     -15.589652      -424.2160
   5   2.0000     -15.543349      -422.9560
   6   2.0000     -11.346736      -308.7604
   7   2.0000     -11.324818      -308.1640
   8   2.0000     -11.282752      -307.0193
   9   2.0000      -1.462499       -39.7966
  10   2.0000      -1.308258       -35.5995
  11   2.0000      -1.283006       -34.9124
  12   2.0000      -1.195076       -32.5197
  13   2.0000      -1.150173       -31.2978
  14   2.0000      -1.006344       -27.3840
  15   2.0000      -0.929398       -25.2902
  16   2.0000      -0.901013       -24.5178
  17   2.0000      -0.808657       -22.0047
  18   2.0000      -0.744213       -20.2511
  19   2.0000      -0.694769       -18.9056
  20   2.0000      -0.693971       -18.8839
  21   2.0000      -0.678133       -18.4529
  22   2.0000      -0.644661       -17.5421
  23   2.0000      -0.595124       -16.1942
  24   2.0000      -0.587704       -15.9922
  25   2.0000      -0.552013       -15.0210
  26   2.0000      -0.543706       -14.7950
  27   2.0000      -0.521437       -14.1890
  28   2.0000      -0.498232       -13.5576
  29   2.0000      -0.465482       -12.6664
  30   2.0000      -0.411959       -11.2100
  31   2.0000      -0.406216       -11.0537
  32   2.0000      -0.313430        -8.5289
  33   0.0000       0.090045         2.4503
  34   0.0000       0.111195         3.0258
  35   0.0000       0.139545         3.7972
  36   0.0000       0.150527         4.0961
  37   0.0000       0.180274         4.9055

MULLIKEN ATOMIC CHARGES
-----------------------
   0 C :   -0.294587
   1 N :    0.209305
   2 N :   -0.152541
   3 N :   -0.163673
   4 C :    0.072361
   5 N :   -0.463729
   6 C :    0.234398
   7 N :   -0.460220
   8 N :   -0.239853
   9 H :    0.152927
  10 H :    0.176641
  11 H :    0.152931
  12 H :    0.219602
  13 H :    0.296209
  14 H :    0.260229
Sum of atomic charges:   -0.0000000

LOEWDIN ATOMIC CHARGES
----------------------
   0 C :   -0.275110
   1 N :    0.085611
   2 N :   -0.029477
   3 N :    0.020568
   4 C :   -0.397535
   5 N :   -0.082298
   6 C :   -0.335332
   7 N :    0.029156
   8 N :    0.068398
   9 H :    0.125671
  10 H :    0.133441
  11 H :    0.125673
  12 H :    0.164350
  13 H :    0.190857
  14 H :    0.176026

  Mayer bond orders larger than 0.1
B(  0-C ,  1-N ) :   0.8737 B(  0-C ,  9-H ) :   0.9266 B(  0-C , 10-H ) :   0.9213
B(  0-C , 11-H ) :   0.9266 B(  1-N ,  2-N ) :   1.1100 B(  1-N ,  8-N ) :   0.9434
B(  2-N ,  3-N ) :   1.2818 B(  3-N ,  4-C ) :   1.2146 B(  4-C ,  5-N ) :   1.8038
B(  4-C ,  6-C ) :   1.0076 B(  5-N , 12-H ) :   0.8583 B(  6-C ,  7-N ) :   1.2347
B(  6-C ,  8-N ) :   1.5784 B(  7-N , 13-H ) :   0.8335 B(  7-N , 14-H ) :   0.8566

MP2 TOTAL ENERGY:     -445.527588639 Eh
FINAL SINGLE POINT ENERGY      -445.527588638864

DIPOLE MOMENT
-------------
                                X             Y             Z
Electronic contribution:     -0.09619      -2.50472      -1.54686
Nuclear contribution   :      0.16629       3.44434       2.73095
                        -----------------------------------------
Total Dipole Moment    :      0.07011       0.93961       1.18409
                        -----------------------------------------
Magnitude (a.u.)       :      1.51323
Magnitude (Debye)      :      3.84632

                             ****ORCA TERMINATED NORMALLY****
TOTAL RUN TIME: 0 days 0 hours 16 minutes 32 seconds 839 msec
