                         Program Version 3.0.3 - RELEASE   -
|  1> ! RI-MP2 RIJK def2-TZVP def2-TZVP/C def2-TZVP/JK TIGHTSCF
|  2> % maxcore 2000
|  3> % mp2 density relaxed end
|  4> *xyz 0 1
|  5>  C        0.0030386235     1.4054000449     0.0462728144
|  6>  N       -0.0143230922    -0.0374569935     0.0648102278
|  7>  C       -1.2173363437    -0.8203264211    -0.0930616076
|  8>  C       -0.6545520503    -2.2579449674    -0.0838951299
|  9>  C       -1.1389225700    -3.1391838855    -1.2266138450
| 10>  O       -0.5336090739    -4.4105074141    -1.1999719406
| 11>  O        0.7716630892    -2.1015945549    -0.2169953144
| 12>  C        1.1240987323    -0.7815939979    -0.1097212085
| 13>  O        2.2606356940    -0.3962358523    -0.1600911038
| 14>  H        1.0450762619     1.7243167536     0.0985432378
| 15>  H       -0.4471276130     1.8021079812    -0.8740531818
| 16>  H       -0.5443561228     1.8144438592     0.9030317430
| 17>  H       -1.9281212997    -0.6503746853     0.7232082350
| 18>  H       -1.7314923832    -0.5870517455    -1.0394982067
| 19>  H       -0.8408766435    -2.7606911700     0.8711981561
| 20>  H       -2.2197711180    -3.2957120557    -1.1343877847
| 21>  H       -0.9548556270    -2.6134295524    -2.1783065340
| 22>  H        0.4197743566    -4.2653701134    -1.2169163972
| 23> *
| 24>
| 25>                          ****END OF INPUT****

CARTESIAN COORDINATES (ANGSTROEM)
---------------------------------
  C      0.003039    1.405400    0.046273
  N     -0.014323   -0.037457    0.064810
  C     -1.217336   -0.820326   -0.093062
  C     -0.654552   -2.257945   -0.083895
  C     -1.138923   -3.139184   -1.226614
  O     -0.533609   -4.410507   -1.199972
  O      0.771663   -2.101595   -0.216995
  C      1.124099   -0.781594   -0.109721
  O      2.260636   -0.396236   -0.160091
  H      1.045076    1.724317    0.098543
  H     -0.447128    1.802108   -0.874053
  H     -0.544356    1.814444    0.903032
  H     -1.928121   -0.650375    0.723208
  H     -1.731492   -0.587052   -1.039498
  H     -0.840877   -2.760691    0.871198
  H     -2.219771   -3.295712   -1.134388
  H     -0.954856   -2.613430   -2.178307
  H      0.419774   -4.265370   -1.216916

 Total Charge           Charge          ....    0
 Multiplicity           Mult            ....    1
 Number of Electrons    NEL             ....   70
 Basis Dimension        Dim             ....  333

ORBITAL ENERGIES
----------------

  NO   OCC          E(Eh)            E(eV)
   0   2.0000     -20.606912      -560.7426
   1   2.0000     -20.567132      -559.6601
   2   2.0000     -20.526958      -558.5669
   3   2.0000     -15.601396      -424.5356
   4   2.0000     -11.402766      -310.2850
   5   2.0000     -11.314516      -307.8836
   6   2.0000     -11.296090      -307.3822
   7   2.0000     -11.295755      -307.3731
   8   2.0000     -11.273378      -306.7642
   9   2.0000      -1.473035       -40.0833
  10   2.0000      -1.379502       -37.5382
  11   2.0000      -1.362733       -37.0818
  12   2.0000      -1.266435       -34.4615
  13   2.0000      -1.067141       -29.0384
  14   2.0000      -0.987274       -26.8651
  15   2.0000      -0.932194       -25.3663
  16   2.0000      -0.861432       -23.4408
  17   2.0000      -0.787927       -21.4406
  18   2.0000      -0.741971       -20.1900
  19   2.0000      -0.707770       -19.2594
  20   2.0000      -0.684283       -18.6203
  21   2.0000      -0.676716       -18.4144
  22   2.0000      -0.636309       -17.3148
  23   2.0000      -0.623628       -16.9698
  24   2.0000      -0.613990       -16.7075
  25   2.0000      -0.605180       -16.4678
  26   2.0000      -0.594204       -16.1691
  27   2.0000      -0.566955       -15.4276
  28   2.0000      -0.555851       -15.1255
  29   2.0000      -0.537066       -14.6143
  30   2.0000      -0.508981       -13.8501
  31   2.0000      -0.479575       -13.0499
  32   2.0000      -0.458881       -12.4868
  33   2.0000      -0.447796       -12.1851
  34   2.0000      -0.394604       -10.7377
  35   0.0000       0.120097         3.2680
  36   0.0000       0.146719         3.9924
  37   0.0000       0.155267         4.2250
  38   0.0000       0.159144         4.3305
  39   0.0000       0.184508         5.0207

MULLIKEN ATOMIC CHARGES
-----------------------
   0 C :   -0.317044
   1 N :   -0.128496
   2 C :   -0.205999
   3 C :    0.079036
   4 C :   -0.027205
   5 O :   -0.472090
   6 O :   -0.276151
   7 C :    0.317064
   8 O :   -0.342125
   9 H :    0.181621
  10 H :    0.131427
  11 H :    0.138446
  12 H :    0.135278
  13 H :    0.122370
  14 H :    0.110967
  15 H :    0.114462
  16 H :    0.104179
  17 H :    0.334260
Sum of atomic charges:   -0.0000000

LOEWDIN ATOMIC CHARGES
----------------------
   0 C :   -0.286927
   1 N :    0.154480
   2 C :   -0.229687
   3 C :   -0.281901
   4 C :   -0.338138
   5 O :   -0.033598
   6 O :    0.246204
   7 C :   -0.556153
   8 O :    0.096793
   9 H :    0.138882
  10 H :    0.116935
  11 H :    0.119113
  12 H :    0.134740
  13 H :    0.132447
  14 H :    0.145715
  15 H :    0.135402
  16 H :    0.122936
  17 H :    0.182757

  Mayer bond orders larger than 0.1
B(  0-C ,  1-N ) :   0.8802 B(  0-C ,  9-H ) :   0.9212 B(  0-C , 10-H ) :   0.9318
B(  0-C , 11-H ) :   0.9329 B(  1-N ,  2-C ) :   0.9240 B(  1-N ,  7-C ) :   1.1316
B(  2-C ,  3-C ) :   0.8982 B(  2-C , 12-H ) :   0.9233 B(  2-C , 13-H ) :   0.9224
B(  3-C ,  4-C ) :   0.9415 B(  3-C ,  6-O ) :   0.8642 B(  3-C , 14-H ) :   0.9278
B(  4-C ,  5-O ) :   0.9426 B(  4-C , 15-H ) :   0.9237 B(  4-C , 16-H ) :   0.9087
B(  5-O , 17-H ) :   0.8312 B(  6-O ,  7-C ) :   1.0667 B(  7-C ,  8-O ) :   1.9913

MP2 TOTAL ENERGY:     -475.523864088 Eh
FINAL SINGLE POINT ENERGY      -475.523864088298

DIPOLE MOMENT
-------------
                                X             Y             Z
Electronic contribution:      5.72630      -2.94675       0.73559
Nuclear contribution   :     -7.36033       3.73301      -0.66438
                        -----------------------------------------
Total Dipole Moment    :     -1.63403       0.78627       0.07121
                        -----------------------------------------
Magnitude (a.u.)       :      1.81476
Magnitude (Debye)      :      4.61275

                             ****ORCA TERMINATED NORMALLY****
TOTAL RUN TIME: 0 days 0 hours 25 minutes 9 seconds 633 msec
