                         Program Version 3.0.3 - RELEASE   -
|  1> ! RI-MP2 RIJK def2-TZVP def2-TZVP/C def2-TZVP/JK TIGHTSCF
|  2> % maxcore 2000
|  3> % mp2 density relaxed end
|  4> *xyz 0 1
|  5>  C        0.1414394102     1.0572491241    -0.5743643189
|  6>  O       -0.1643255265     0.1733327423     0.4870702869
|  7>  C       -1.3721342956    -0.4956601328     0.3045325747
|  8>  C       -1.4130839988    -1.7323291551    -0.5567493608
|  9>  C       -1.5139358071    -1.8408806317     0.9536713568
| 10>  C       -0.3646722071    -2.4173386994     1.7300543538
| 11>  O       -0.4352221709    -3.8474409292     1.6303944709
| 12>  C        0.4854097894    -4.5312621826     2.3311867063
| 13>  N        0.5070952003    -5.7937240207     2.2908308623
| 14>  H        1.0961148407     1.5302639224    -0.3337221063
| 15>  H        0.2306951020     0.5248720501    -1.5316631789
| 16>  H       -0.6264008978     1.8379377312    -0.6817319306
| 17>  H       -2.2455466381     0.1586114716     0.3005905429
| 18>  H       -2.2933637451    -1.9354656899    -1.1557361640
| 19>  H       -0.4757436125    -2.0499145679    -1.0011940325
| 20>  H       -2.4915903920    -2.0770909668     1.3622929501
| 21>  H        0.5867888749    -2.0543930936     1.3274792822
| 22>  H       -0.4236224428    -2.1199617717     2.7857716869
| 23>  H        1.1693451166    -3.8894101875     2.9054488686
| 24>  H        1.2613217303    -6.1439493925     2.8779095497
| 25> *
| 26>
| 27>                          ****END OF INPUT****

CARTESIAN COORDINATES (ANGSTROEM)
---------------------------------
  C      0.141439    1.057249   -0.574364
  O     -0.164326    0.173333    0.487070
  C     -1.372134   -0.495660    0.304533
  C     -1.413084   -1.732329   -0.556749
  C     -1.513936   -1.840881    0.953671
  C     -0.364672   -2.417339    1.730054
  O     -0.435222   -3.847441    1.630394
  C      0.485410   -4.531262    2.331187
  N      0.507095   -5.793724    2.290831
  H      1.096115    1.530264   -0.333722
  H      0.230695    0.524872   -1.531663
  H     -0.626401    1.837938   -0.681732
  H     -2.245547    0.158611    0.300591
  H     -2.293364   -1.935466   -1.155736
  H     -0.475744   -2.049915   -1.001194
  H     -2.491590   -2.077091    1.362293
  H      0.586789   -2.054393    1.327479
  H     -0.423622   -2.119962    2.785772
  H      1.169345   -3.889410    2.905449
  H      1.261322   -6.143949    2.877910

 Total Charge           Charge          ....    0
 Multiplicity           Mult            ....    1
 Number of Electrons    NEL             ....   70
 Basis Dimension        Dim             ....  345

ORBITAL ENERGIES
----------------

  NO   OCC          E(Eh)            E(eV)
   0   2.0000     -20.584241      -560.1257
   1   2.0000     -20.570395      -559.7489
   2   2.0000     -15.533721      -422.6940
   3   2.0000     -11.331943      -308.3578
   4   2.0000     -11.292973      -307.2974
   5   2.0000     -11.291769      -307.2646
   6   2.0000     -11.279312      -306.9257
   7   2.0000     -11.240476      -305.8689
   8   2.0000     -11.231333      -305.6201
   9   2.0000      -1.420368       -38.6502
  10   2.0000      -1.393617       -37.9222
  11   2.0000      -1.192857       -32.4593
  12   2.0000      -1.146357       -31.1939
  13   2.0000      -0.975205       -26.5367
  14   2.0000      -0.941555       -25.6210
  15   2.0000      -0.825498       -22.4629
  16   2.0000      -0.815850       -22.2004
  17   2.0000      -0.794389       -21.6164
  18   2.0000      -0.723184       -19.6788
  19   2.0000      -0.697810       -18.9884
  20   2.0000      -0.674257       -18.3475
  21   2.0000      -0.659247       -17.9390
  22   2.0000      -0.641993       -17.4695
  23   2.0000      -0.627458       -17.0740
  24   2.0000      -0.608192       -16.5497
  25   2.0000      -0.577427       -15.7126
  26   2.0000      -0.546282       -14.8651
  27   2.0000      -0.527183       -14.3454
  28   2.0000      -0.512967       -13.9585
  29   2.0000      -0.500585       -13.6216
  30   2.0000      -0.473425       -12.8826
  31   2.0000      -0.434236       -11.8162
  32   2.0000      -0.421235       -11.4624
  33   2.0000      -0.402128       -10.9425
  34   2.0000      -0.393714       -10.7135
  35   0.0000       0.139683         3.8010
  36   0.0000       0.149096         4.0571
  37   0.0000       0.150160         4.0861
  38   0.0000       0.167307         4.5527
  39   0.0000       0.171406         4.6642

MULLIKEN ATOMIC CHARGES
-----------------------
   0 C :   -0.210306
   1 O :   -0.316087
   2 C :    0.015497
   3 C :   -0.276046
   4 C :   -0.054254
   5 C :   -0.124065
   6 O :   -0.202347
   7 C :    0.064084
   8 N :   -0.343532
   9 H :    0.140570
  10 H :    0.119411
  11 H :    0.114956
  12 H :    0.108899
  13 H :    0.136302
  14 H :    0.141120
  15 H :    0.130356
  16 H :    0.133641
  17 H :    0.119379
  18 H :    0.079981
  19 H :    0.222442
Sum of atomic charges:   -0.0000000

LOEWDIN ATOMIC CHARGES
----------------------
   0 C :   -0.344497
   1 O :    0.164615
   2 C :   -0.300154
   3 C :   -0.204319
   4 C :   -0.207498
   5 C :   -0.277454
   6 O :    0.241124
   7 C :   -0.407523
   8 N :   -0.086905
   9 H :    0.113612
  10 H :    0.104243
  11 H :    0.104182
  12 H :    0.134774
  13 H :    0.133929
  14 H :    0.142998
  15 H :    0.153174
  16 H :    0.133352
  17 H :    0.129701
  18 H :    0.106458
  19 H :    0.166189

  Mayer bond orders larger than 0.1
B(  0-C ,  1-O ) :   0.8989 B(  0-C ,  9-H ) :   0.9386 B(  0-C , 10-H ) :   0.9352
B(  0-C , 11-H ) :   0.9377 B(  1-O ,  2-C ) :   0.9544 B(  2-C ,  3-C ) :   0.9107
B(  2-C ,  4-C ) :   0.8805 B(  2-C , 12-H ) :   0.9314 B(  3-C ,  4-C ) :   0.8677
B(  3-C , 13-H ) :   0.9211 B(  3-C , 14-H ) :   0.9190 B(  4-C ,  5-C ) :   0.9644
B(  4-C , 15-H ) :   0.9193 B(  5-C ,  6-O ) :   0.8911 B(  5-C , 16-H ) :   0.9109
B(  5-C , 17-H ) :   0.9230 B(  6-O ,  7-C ) :   1.0695 B(  7-C ,  8-N ) :   1.9480
B(  7-C , 18-H ) :   0.9314 B(  8-N , 19-H ) :   0.8515

MP2 TOTAL ENERGY:     -439.519371518 Eh
FINAL SINGLE POINT ENERGY      -439.519371517759

DIPOLE MOMENT
-------------
                                X             Y             Z
Electronic contribution:     -0.15396      -5.41428       3.39085
Nuclear contribution   :      0.46971       6.81881      -3.40023
                        -----------------------------------------
Total Dipole Moment    :      0.31575       1.40453      -0.00938
                        -----------------------------------------
Magnitude (a.u.)       :      1.43962
Magnitude (Debye)      :      3.65922

                             ****ORCA TERMINATED NORMALLY****
TOTAL RUN TIME: 0 days 0 hours 23 minutes 54 seconds 211 msec
