                         Program Version 3.0.3 - RELEASE   -
|  1> ! RI-MP2 RIJK def2-TZVP def2-TZVP/C def2-TZVP/JK TIGHTSCF
|  2> % maxcore 2000
|  3> % mp2 density relaxed end
|  4> *xyz 0 1
|  5>  C       -0.0270182160     1.4834123329    -0.0027550143
|  6>  C        0.0013099157    -0.0082567112    -0.0011548846
|  7>  C       -0.0192754585    -0.8267930885    -1.0552487433
|  8>  N        0.0192873375    -2.1941471783    -0.6937385388
|  9>  C        0.0061256563    -3.2176406704    -1.6360489503
| 10>  N        0.0425404414    -4.4508811753    -1.3445417902
| 11>  C        0.0698087591    -2.3023887038     0.7225200028
| 12>  O        0.1106543983    -3.3153558405     1.3626800406
| 13>  C        0.0603143604    -0.8578393776     1.2420097415
| 14>  H        0.8628515332     1.9025567961     0.4838694969
| 15>  H       -0.0709900033     1.8792412191    -1.0214382439
| 16>  H       -0.8950186779     1.8692200112     0.5468394216
| 17>  H       -0.0602565255    -0.5725957205    -2.1059743414
| 18>  H       -0.0395991417    -2.8056338094    -2.6526794684
| 19>  H        0.0225252472    -5.0032728685    -2.2004888586
| 20>  H        0.9568652260    -0.6848919977     1.8495740006
| 21>  H       -0.7981628720    -0.7181930276     1.9100999498
| 22> *
| 23>
| 24>                          ****END OF INPUT****

CARTESIAN COORDINATES (ANGSTROEM)
---------------------------------
  C     -0.027018    1.483412   -0.002755
  C      0.001310   -0.008257   -0.001155
  C     -0.019275   -0.826793   -1.055249
  N      0.019287   -2.194147   -0.693739
  C      0.006126   -3.217641   -1.636049
  N      0.042540   -4.450881   -1.344542
  C      0.069809   -2.302389    0.722520
  O      0.110654   -3.315356    1.362680
  C      0.060314   -0.857839    1.242010
  H      0.862852    1.902557    0.483869
  H     -0.070990    1.879241   -1.021438
  H     -0.895019    1.869220    0.546839
  H     -0.060257   -0.572596   -2.105974
  H     -0.039599   -2.805634   -2.652679
  H      0.022525   -5.003273   -2.200489
  H      0.956865   -0.684892    1.849574
  H     -0.798163   -0.718193    1.910100

 Total Charge           Charge          ....    0
 Multiplicity           Mult            ....    1
 Number of Electrons    NEL             ....   66
 Basis Dimension        Dim             ....  327

ORBITAL ENERGIES
----------------

  NO   OCC          E(Eh)            E(eV)
   0   2.0000     -20.535487      -558.7990
   1   2.0000     -15.614138      -424.8823
   2   2.0000     -15.542528      -422.9337
   3   2.0000     -11.362496      -309.1892
   4   2.0000     -11.327073      -308.2253
   5   2.0000     -11.284666      -307.0714
   6   2.0000     -11.253633      -306.2269
   7   2.0000     -11.250091      -306.1305
   8   2.0000     -11.242979      -305.9370
   9   2.0000      -1.400661       -38.1139
  10   2.0000      -1.303484       -35.4696
  11   2.0000      -1.201648       -32.6985
  12   2.0000      -1.099965       -29.9316
  13   2.0000      -1.001200       -27.2440
  14   2.0000      -0.951961       -25.9042
  15   2.0000      -0.885795       -24.1037
  16   2.0000      -0.787108       -21.4183
  17   2.0000      -0.728802       -19.8317
  18   2.0000      -0.707147       -19.2425
  19   2.0000      -0.667098       -18.1527
  20   2.0000      -0.653925       -17.7942
  21   2.0000      -0.630177       -17.1480
  22   2.0000      -0.616896       -16.7866
  23   2.0000      -0.584568       -15.9069
  24   2.0000      -0.582908       -15.8617
  25   2.0000      -0.566747       -15.4220
  26   2.0000      -0.562166       -15.2973
  27   2.0000      -0.525677       -14.3044
  28   2.0000      -0.497391       -13.5347
  29   2.0000      -0.454423       -12.3655
  30   2.0000      -0.430634       -11.7181
  31   2.0000      -0.407228       -11.0812
  32   2.0000      -0.320485        -8.7208
  33   0.0000       0.120205         3.2709
  34   0.0000       0.124966         3.4005
  35   0.0000       0.138810         3.7772
  36   0.0000       0.151032         4.1098
  37   0.0000       0.158653         4.3172

MULLIKEN ATOMIC CHARGES
-----------------------
   0 C :   -0.411587
   1 C :   -0.060641
   2 C :   -0.105372
   3 N :   -0.008253
   4 C :   -0.020845
   5 N :   -0.321451
   6 C :    0.150400
   7 O :   -0.259199
   8 C :   -0.139646
   9 H :    0.142686
  10 H :    0.137344
  11 H :    0.142671
  12 H :    0.144355
  13 H :    0.096156
  14 H :    0.221756
  15 H :    0.145812
  16 H :    0.145812
Sum of atomic charges:   -0.0000000

LOEWDIN ATOMIC CHARGES
----------------------
   0 C :   -0.273671
   1 C :   -0.205597
   2 C :   -0.159864
   3 N :    0.230883
   4 C :   -0.316362
   5 N :   -0.059142
   6 C :   -0.350056
   7 O :    0.159245
   8 C :   -0.174824
   9 H :    0.132248
  10 H :    0.132730
  11 H :    0.132242
  12 H :    0.141989
  13 H :    0.120652
  14 H :    0.166968
  15 H :    0.161283
  16 H :    0.161274

  Mayer bond orders larger than 0.1
B(  0-C ,  1-C ) :   0.8858 B(  0-C ,  9-H ) :   0.9310 B(  0-C , 10-H ) :   0.9479
B(  0-C , 11-H ) :   0.9311 B(  1-C ,  2-C ) :   1.7464 B(  1-C ,  8-C ) :   0.9522
B(  2-C ,  3-N ) :   0.9820 B(  2-C , 12-H ) :   0.8973 B(  3-N ,  4-C ) :   0.9813
B(  3-N ,  6-C ) :   0.9722 B(  4-C ,  5-N ) :   1.9637 B(  4-C , 13-H ) :   0.9243
B(  5-N , 14-H ) :   0.8509 B(  6-C ,  7-O ) :   2.0419 B(  6-C ,  8-C ) :   0.9489
B(  8-C , 15-H ) :   0.8873 B(  8-C , 16-H ) :   0.8873

MP2 TOTAL ENERGY:     -417.333106665 Eh
FINAL SINGLE POINT ENERGY      -417.333106665494

DIPOLE MOMENT
-------------
                                X             Y             Z
Electronic contribution:      0.17174      -7.67809       0.72817
Nuclear contribution   :     -0.24357       9.32838      -1.84713
                        -----------------------------------------
Total Dipole Moment    :     -0.07183       1.65029      -1.11896
                        -----------------------------------------
Magnitude (a.u.)       :      1.99517
Magnitude (Debye)      :      5.07132

                             ****ORCA TERMINATED NORMALLY****
TOTAL RUN TIME: 0 days 0 hours 15 minutes 48 seconds 84 msec
