                         Program Version 3.0.3 - RELEASE   -
|  1> ! RI-MP2 RIJK def2-TZVP def2-TZVP/C def2-TZVP/JK TIGHTSCF
|  2> % maxcore 2000
|  3> % mp2 density relaxed end
|  4> *xyz 0 1
|  5>  N       -0.0271527180     1.2866203128    -0.0229760874
|  6>  C        0.0411811557    -0.0637095735     0.0021229669
|  7>  O        1.0864734664    -0.7003655054     0.0350465388
|  8>  C       -1.2616706327    -0.7707808060    -0.0061747392
|  9>  N       -2.4301066914    -0.1913844831     0.0530216441
| 10>  O       -3.3457914863    -1.1795164011     0.0628031739
| 11>  N       -2.7472083758    -2.4340190065     0.0091588464
| 12>  C       -1.4564710613    -2.1929629802    -0.0395171122
| 13>  N       -0.4805451442    -3.1293575060    -0.1546429472
| 14>  H        0.8287473472     1.8152676762    -0.0000917263
| 15>  H       -0.9144827613     1.7612248002    -0.0365855698
| 16>  H       -0.7085575395    -4.0764787891     0.0986288874
| 17>  H        0.4511830011    -2.7915080384     0.0423003344
| 18> *
| 19>
| 20>                          ****END OF INPUT****

CARTESIAN COORDINATES (ANGSTROEM)
---------------------------------
  N     -0.027153    1.286620   -0.022976
  C      0.041181   -0.063710    0.002123
  O      1.086473   -0.700366    0.035047
  C     -1.261671   -0.770781   -0.006175
  N     -2.430107   -0.191384    0.053022
  O     -3.345791   -1.179516    0.062803
  N     -2.747208   -2.434019    0.009159
  C     -1.456471   -2.192963   -0.039517
  N     -0.480545   -3.129358   -0.154643
  H      0.828747    1.815268   -0.000092
  H     -0.914483    1.761225   -0.036586
  H     -0.708558   -4.076479    0.098629
  H      0.451183   -2.791508    0.042300

 Total Charge           Charge          ....    0
 Multiplicity           Mult            ....    1
 Number of Electrons    NEL             ....   66
 Basis Dimension        Dim             ....  303

ORBITAL ENERGIES
----------------

  NO   OCC          E(Eh)            E(eV)
   0   2.0000     -20.684071      -562.8422
   1   2.0000     -20.553800      -559.2973
   2   2.0000     -15.684477      -426.7963
   3   2.0000     -15.630208      -425.3196
   4   2.0000     -15.609895      -424.7668
   5   2.0000     -15.590050      -424.2268
   6   2.0000     -11.394608      -310.0631
   7   2.0000     -11.341942      -308.6299
   8   2.0000     -11.310154      -307.7649
   9   2.0000      -1.548684       -42.1418
  10   2.0000      -1.416656       -38.5492
  11   2.0000      -1.273638       -34.6575
  12   2.0000      -1.249857       -34.0103
  13   2.0000      -1.207747       -32.8645
  14   2.0000      -1.140735       -31.0410
  15   2.0000      -0.937995       -25.5241
  16   2.0000      -0.866586       -23.5810
  17   2.0000      -0.824990       -22.4491
  18   2.0000      -0.774210       -21.0673
  19   2.0000      -0.722218       -19.6525
  20   2.0000      -0.714796       -19.4506
  21   2.0000      -0.700610       -19.0646
  22   2.0000      -0.691676       -18.8215
  23   2.0000      -0.647278       -17.6133
  24   2.0000      -0.610034       -16.5999
  25   2.0000      -0.606044       -16.4913
  26   2.0000      -0.540240       -14.7007
  27   2.0000      -0.532231       -14.4828
  28   2.0000      -0.494355       -13.4521
  29   2.0000      -0.471791       -12.8381
  30   2.0000      -0.445285       -12.1168
  31   2.0000      -0.440052       -11.9744
  32   2.0000      -0.375400       -10.2152
  33   0.0000       0.064712         1.7609
  34   0.0000       0.126872         3.4524
  35   0.0000       0.141256         3.8438
  36   0.0000       0.162685         4.4269
  37   0.0000       0.178029         4.8444

MULLIKEN ATOMIC CHARGES
-----------------------
   0 N :   -0.454733
   1 C :    0.299681
   2 O :   -0.391126
   3 C :    0.073954
   4 N :   -0.131930
   5 O :   -0.015198
   6 N :   -0.123214
   7 C :    0.137016
   8 N :   -0.503167
   9 H :    0.267967
  10 H :    0.284283
  11 H :    0.263436
  12 H :    0.293033
Sum of atomic charges:   -0.0000000

LOEWDIN ATOMIC CHARGES
----------------------
   0 N :    0.018554
   1 C :   -0.449857
   2 O :    0.079389
   3 C :   -0.241081
   4 N :    0.029031
   5 O :    0.206033
   6 N :    0.030005
   7 C :   -0.372764
   8 N :   -0.023856
   9 H :    0.180324
  10 H :    0.182437
  11 H :    0.177178
  12 H :    0.184607

  Mayer bond orders larger than 0.1
B(  0-N ,  1-C ) :   1.2587 B(  0-N ,  9-H ) :   0.8560 B(  0-N , 10-H ) :   0.8535
B(  1-C ,  2-O ) :   1.8502 B(  1-C ,  3-C ) :   0.9008 B(  3-C ,  4-N ) :   1.5055
B(  3-C ,  7-C ) :   1.1587 B(  4-N ,  5-O ) :   0.9868 B(  4-N ,  6-N ) :   0.1225
B(  5-O ,  6-N ) :   0.8915 B(  6-N ,  7-C ) :   1.5733 B(  7-C ,  8-N ) :   1.1608
B(  8-N , 11-H ) :   0.8633 B(  8-N , 12-H ) :   0.8378

MP2 TOTAL ENERGY:     -485.296932577 Eh
FINAL SINGLE POINT ENERGY      -485.296932577036

DIPOLE MOMENT
-------------
                                X             Y             Z
Electronic contribution:     -3.30442      -0.25044       0.07558
Nuclear contribution   :      4.01718       0.79016       0.11257
                        -----------------------------------------
Total Dipole Moment    :      0.71276       0.53972       0.18815
                        -----------------------------------------
Magnitude (a.u.)       :      0.91363
Magnitude (Debye)      :      2.32227

                             ****ORCA TERMINATED NORMALLY****
TOTAL RUN TIME: 0 days 0 hours 14 minutes 3 seconds 218 msec
