                         Program Version 3.0.3 - RELEASE   -
|  1> ! RI-MP2 RIJK def2-TZVP def2-TZVP/C def2-TZVP/JK TIGHTSCF
|  2> % maxcore 2000
|  3> % mp2 density relaxed end
|  4> *xyz 0 1
|  5>  C       -0.0254307069     1.5064603074    -0.0366017853
|  6>  C        0.0001753017     0.0048600100     0.0595793752
|  7>  N       -1.2419004843    -0.6822902811    -0.2185872481
|  8>  C       -1.2544609421    -1.7123976881     0.5421146267
|  9>  N       -2.1773579735    -2.7221202245     0.5529654515
| 10>  O       -0.2204850573    -1.8904123353     1.4146403589
| 11>  C        0.6711555822    -0.8160131808     1.1489390832
| 12>  C        1.2713275777    -0.7941839528    -0.2450502078
| 13>  N        1.2796033984    -1.9417463230    -1.1055184480
| 14>  H        0.9457319866     1.9340509569     0.2293821561
| 15>  H       -0.2662534357     1.8180802266    -1.0581460416
| 16>  H       -0.7837075040     1.9273657439     0.6316227379
| 17>  H       -3.0469205730    -2.4783682696     0.1038949492
| 18>  H       -2.2803355468    -3.1971968209     1.4372656920
| 19>  H        1.1852895579    -0.4671176397     2.0356464355
| 20>  H        2.1617403861    -0.1685992165    -0.3048090088
| 21>  H        1.3276156290    -2.8029725699    -0.5711122331
| 22>  H        0.4244138340    -1.9803742926    -1.6507534235
| 23> *
| 24>
| 25>                          ****END OF INPUT****

CARTESIAN COORDINATES (ANGSTROEM)
---------------------------------
  C     -0.025431    1.506460   -0.036602
  C      0.000175    0.004860    0.059579
  N     -1.241900   -0.682290   -0.218587
  C     -1.254461   -1.712398    0.542115
  N     -2.177358   -2.722120    0.552965
  O     -0.220485   -1.890412    1.414640
  C      0.671156   -0.816013    1.148939
  C      1.271328   -0.794184   -0.245050
  N      1.279603   -1.941746   -1.105518
  H      0.945732    1.934051    0.229382
  H     -0.266253    1.818080   -1.058146
  H     -0.783708    1.927366    0.631623
  H     -3.046921   -2.478368    0.103895
  H     -2.280336   -3.197197    1.437266
  H      1.185290   -0.467118    2.035646
  H      2.161740   -0.168599   -0.304809
  H      1.327616   -2.802973   -0.571112
  H      0.424414   -1.980374   -1.650753

 Total Charge           Charge          ....    0
 Multiplicity           Mult            ....    1
 Number of Electrons    NEL             ....   68
 Basis Dimension        Dim             ....  333

ORBITAL ENERGIES
----------------

  NO   OCC          E(Eh)            E(eV)
   0   2.0000     -20.607999      -560.7722
   1   2.0000     -15.589182      -424.2032
   2   2.0000     -15.537250      -422.7901
   3   2.0000     -15.531017      -422.6205
   4   2.0000     -11.370694      -309.4123
   5   2.0000     -11.288031      -307.1629
   6   2.0000     -11.267731      -306.6105
   7   2.0000     -11.257110      -306.3215
   8   2.0000     -11.218218      -305.2632
   9   2.0000      -1.460150       -39.7327
  10   2.0000      -1.248321       -33.9685
  11   2.0000      -1.224649       -33.3244
  12   2.0000      -1.168090       -31.7854
  13   2.0000      -1.076125       -29.2828
  14   2.0000      -0.965315       -26.2676
  15   2.0000      -0.862529       -23.4706
  16   2.0000      -0.810364       -22.0511
  17   2.0000      -0.762471       -20.7479
  18   2.0000      -0.713989       -19.4286
  19   2.0000      -0.704012       -19.1571
  20   2.0000      -0.678360       -18.4591
  21   2.0000      -0.649707       -17.6794
  22   2.0000      -0.631929       -17.1957
  23   2.0000      -0.604993       -16.4627
  24   2.0000      -0.578984       -15.7550
  25   2.0000      -0.568174       -15.4608
  26   2.0000      -0.550924       -14.9914
  27   2.0000      -0.532478       -14.4895
  28   2.0000      -0.508064       -13.8251
  29   2.0000      -0.466311       -12.6890
  30   2.0000      -0.444210       -12.0876
  31   2.0000      -0.422013       -11.4835
  32   2.0000      -0.367855       -10.0099
  33   2.0000      -0.344748        -9.3811
  34   0.0000       0.128700         3.5021
  35   0.0000       0.149571         4.0700
  36   0.0000       0.163578         4.4512
  37   0.0000       0.180919         4.9231
  38   0.0000       0.190004         5.1703

MULLIKEN ATOMIC CHARGES
-----------------------
   0 C :   -0.408382
   1 C :    0.166045
   2 N :   -0.330648
   3 C :    0.277472
   4 N :   -0.501222
   5 O :   -0.282359
   6 C :   -0.000850
   7 C :   -0.081751
   8 N :   -0.512833
   9 H :    0.120014
  10 H :    0.141403
  11 H :    0.130008
  12 H :    0.272549
  13 H :    0.267279
  14 H :    0.138733
  15 H :    0.117908
  16 H :    0.237974
  17 H :    0.248661
Sum of atomic charges:    0.0000000

LOEWDIN ATOMIC CHARGES
----------------------
   0 C :   -0.266020
   1 C :   -0.292543
   2 N :    0.094473
   3 C :   -0.488977
   4 N :   -0.042435
   5 O :    0.264224
   6 C :   -0.221855
   7 C :   -0.269399
   8 N :   -0.131224
   9 H :    0.127927
  10 H :    0.132768
  11 H :    0.128197
  12 H :    0.182023
  13 H :    0.177457
  14 H :    0.136712
  15 H :    0.147730
  16 H :    0.158256
  17 H :    0.162686

  Mayer bond orders larger than 0.1
B(  0-C ,  1-C ) :   0.9033 B(  0-C ,  9-H ) :   0.9318 B(  0-C , 10-H ) :   0.9421
B(  0-C , 11-H ) :   0.9384 B(  1-C ,  2-N ) :   0.9524 B(  1-C ,  6-C ) :   0.8492
B(  1-C ,  7-C ) :   0.8553 B(  2-N ,  3-C ) :   1.7654 B(  3-C ,  4-N ) :   1.1096
B(  3-C ,  5-O ) :   1.0805 B(  4-N , 12-H ) :   0.8667 B(  4-N , 13-H ) :   0.8650
B(  5-O ,  6-C ) :   0.9029 B(  6-C ,  7-C ) :   0.8539 B(  6-C , 14-H ) :   0.9199
B(  7-C ,  8-N ) :   0.9707 B(  7-C , 15-H ) :   0.9419 B(  8-N , 16-H ) :   0.8931
B(  8-N , 17-H ) :   0.8928

MP2 TOTAL ENERGY:     -434.552780073 Eh
FINAL SINGLE POINT ENERGY      -434.552780073000

DIPOLE MOMENT
-------------
                                X             Y             Z
Electronic contribution:     -1.90715      -3.85538       2.02964
Nuclear contribution   :      1.39758       3.68342      -1.20504
                        -----------------------------------------
Total Dipole Moment    :     -0.50957      -0.17196       0.82459
                        -----------------------------------------
Magnitude (a.u.)       :      0.98447
Magnitude (Debye)      :      2.50233

                             ****ORCA TERMINATED NORMALLY****
TOTAL RUN TIME: 0 days 0 hours 16 minutes 50 seconds 39 msec
