                         Program Version 3.0.3 - RELEASE   -
|  1> ! RI-MP2 RIJK def2-TZVP def2-TZVP/C def2-TZVP/JK TIGHTSCF
|  2> % maxcore 2000
|  3> % mp2 density relaxed end
|  4> *xyz 0 1
|  5>  C       -0.4371917891     1.4414174866     0.0029711668
|  6>  C       -0.1242207907    -0.0509543851     0.0451164838
|  7>  C        0.9356216182    -0.5006777718    -1.0038402158
|  8>  C        2.0216762594    -0.4812419976     0.1038261616
|  9>  C        0.8965143413    -0.4948226525     1.1672705723
| 10>  C        1.0109968530     0.3245533103     2.4166258930
| 11>  C       -0.0871587502     0.2400894400     3.4450660139
| 12>  N        2.0452169811     1.0656223903     2.5468636803
| 13>  O        2.0222663326     1.7779316176     3.7601445809
| 14>  H        0.4751226855     2.0455039226     0.0409826101
| 15>  H       -0.9674281631     1.6917782746    -0.9224669732
| 16>  H       -1.0703477092     1.7469986715     0.8429677938
| 17>  H       -1.0573971715    -0.6222552292     0.0355214745
| 18>  H        0.7424154781    -1.5090482685    -1.3804487749
| 19>  H        1.0824966637     0.1649424981    -1.8588506926
| 20>  H        2.7331131500    -1.3094124935     0.1312091434
| 21>  H        2.5805754586     0.4551115909     0.1307421734
| 22>  H        0.6588172384    -1.5258639565     1.4579346831
| 23>  H        0.2988729348    -0.1763547983     4.3819219205
| 24>  H       -0.4681310521     1.2376083818     3.6834377994
| 25>  H       -0.9103647694    -0.3860095003     3.0946600826
| 26>  H        2.8461514406     2.2739999790     3.7161402232
| 27> *
| 28>
| 29>                          ****END OF INPUT****

CARTESIAN COORDINATES (ANGSTROEM)
---------------------------------
  C     -0.437192    1.441417    0.002971
  C     -0.124221   -0.050954    0.045116
  C      0.935622   -0.500678   -1.003840
  C      2.021676   -0.481242    0.103826
  C      0.896514   -0.494823    1.167271
  C      1.010997    0.324553    2.416626
  C     -0.087159    0.240089    3.445066
  N      2.045217    1.065622    2.546864
  O      2.022266    1.777932    3.760145
  H      0.475123    2.045504    0.040983
  H     -0.967428    1.691778   -0.922467
  H     -1.070348    1.746999    0.842968
  H     -1.057397   -0.622255    0.035521
  H      0.742415   -1.509048   -1.380449
  H      1.082497    0.164942   -1.858851
  H      2.733113   -1.309412    0.131209
  H      2.580575    0.455112    0.130742
  H      0.658817   -1.525864    1.457935
  H      0.298873   -0.176355    4.381922
  H     -0.468131    1.237608    3.683438
  H     -0.910365   -0.386010    3.094660
  H      2.846151    2.274000    3.716140

 Total Charge           Charge          ....    0
 Multiplicity           Mult            ....    1
 Number of Electrons    NEL             ....   70
 Basis Dimension        Dim             ....  357

ORBITAL ENERGIES
----------------

  NO   OCC          E(Eh)            E(eV)
   0   2.0000     -20.582815      -560.0869
   1   2.0000     -15.602798      -424.5737
   2   2.0000     -11.271501      -306.7131
   3   2.0000     -11.233174      -305.6702
   4   2.0000     -11.231790      -305.6326
   5   2.0000     -11.226271      -305.4824
   6   2.0000     -11.217465      -305.2427
   7   2.0000     -11.214640      -305.1659
   8   2.0000     -11.212851      -305.1172
   9   2.0000      -1.409236       -38.3472
  10   2.0000      -1.172260       -31.8988
  11   2.0000      -1.116904       -30.3925
  12   2.0000      -0.982731       -26.7415
  13   2.0000      -0.977486       -26.5988
  14   2.0000      -0.911329       -24.7985
  15   2.0000      -0.850178       -23.1345
  16   2.0000      -0.768898       -20.9228
  17   2.0000      -0.703492       -19.1430
  18   2.0000      -0.689001       -18.7487
  19   2.0000      -0.665439       -18.1075
  20   2.0000      -0.638267       -17.3681
  21   2.0000      -0.610774       -16.6200
  22   2.0000      -0.596609       -16.2346
  23   2.0000      -0.571655       -15.5555
  24   2.0000      -0.553577       -15.0636
  25   2.0000      -0.546539       -14.8721
  26   2.0000      -0.543015       -14.7762
  27   2.0000      -0.531925       -14.4744
  28   2.0000      -0.521253       -14.1840
  29   2.0000      -0.470015       -12.7898
  30   2.0000      -0.452656       -12.3174
  31   2.0000      -0.446951       -12.1621
  32   2.0000      -0.431763       -11.7489
  33   2.0000      -0.416470       -11.3327
  34   2.0000      -0.368226       -10.0199
  35   0.0000       0.128494         3.4965
  36   0.0000       0.150272         4.0891
  37   0.0000       0.156399         4.2558
  38   0.0000       0.167255         4.5513
  39   0.0000       0.168987         4.5984

MULLIKEN ATOMIC CHARGES
-----------------------
   0 C :   -0.444533
   1 C :   -0.040360
   2 C :   -0.210711
   3 C :   -0.270199
   4 C :   -0.057153
   5 C :    0.071978
   6 C :   -0.434085
   7 N :   -0.118030
   8 O :   -0.376036
   9 H :    0.142177
  10 H :    0.135377
  11 H :    0.128982
  12 H :    0.100778
  13 H :    0.113361
  14 H :    0.111514
  15 H :    0.116854
  16 H :    0.136076
  17 H :    0.113633
  18 H :    0.154338
  19 H :    0.153705
  20 H :    0.139301
  21 H :    0.333033
Sum of atomic charges:    0.0000000

LOEWDIN ATOMIC CHARGES
----------------------
   0 C :   -0.294768
   1 C :   -0.224153
   2 C :   -0.222737
   3 C :   -0.215199
   4 C :   -0.187714
   5 C :   -0.292251
   6 C :   -0.283327
   7 N :    0.022793
   8 O :   -0.074914
   9 H :    0.129394
  10 H :    0.124875
  11 H :    0.123832
  12 H :    0.136650
  13 H :    0.132019
  14 H :    0.125612
  15 H :    0.124902
  16 H :    0.138782
  17 H :    0.160514
  18 H :    0.139550
  19 H :    0.137514
  20 H :    0.130811
  21 H :    0.167813

  Mayer bond orders larger than 0.1
B(  0-C ,  1-C ) :   0.9086 B(  0-C ,  9-H ) :   0.9346 B(  0-C , 10-H ) :   0.9351
B(  0-C , 11-H ) :   0.9403 B(  1-C ,  2-C ) :   0.9076 B(  1-C ,  4-C ) :   0.8914
B(  1-C , 12-H ) :   0.9212 B(  2-C ,  3-C ) :   0.9357 B(  2-C , 13-H ) :   0.9243
B(  2-C , 14-H ) :   0.9256 B(  3-C ,  4-C ) :   0.9351 B(  3-C , 15-H ) :   0.9297
B(  3-C , 16-H ) :   0.9240 B(  4-C ,  5-C ) :   0.9201 B(  4-C , 17-H ) :   0.9159
B(  5-C ,  6-C ) :   0.9288 B(  5-C ,  7-N ) :   1.8156 B(  6-C , 18-H ) :   0.9213
B(  6-C , 19-H ) :   0.9216 B(  6-C , 20-H ) :   0.9368 B(  7-N ,  8-O ) :   0.8139
B(  8-O , 21-H ) :   0.8472

MP2 TOTAL ENERGY:     -403.611804041 Eh
FINAL SINGLE POINT ENERGY      -403.611804041204

DIPOLE MOMENT
-------------
                                X             Y             Z
Electronic contribution:      4.63164       1.13221       4.96571
Nuclear contribution   :     -4.84008      -1.24701      -5.02637
                        -----------------------------------------
Total Dipole Moment    :     -0.20844      -0.11479      -0.06066
                        -----------------------------------------
Magnitude (a.u.)       :      0.24557
Magnitude (Debye)      :      0.62419

                             ****ORCA TERMINATED NORMALLY****
TOTAL RUN TIME: 0 days 0 hours 19 minutes 45 seconds 839 msec
