                         Program Version 3.0.3 - RELEASE   -
|  1> ! RI-MP2 RIJK def2-TZVP def2-TZVP/C def2-TZVP/JK TIGHTSCF
|  2> % maxcore 2000
|  3> % mp2 density relaxed end
|  4> *xyz 0 1
|  5>  N       -0.0792164816     1.4888117838    -0.1751835763
|  6>  C       -0.0719740333     0.0883796582    -0.0323198106
|  7>  C       -1.0865178607    -0.8285003313     0.1080998836
|  8>  C       -2.4649305445    -1.3861864793    -0.2066231324
|  9>  C       -1.7103851310    -2.7574738913    -0.3888974399
| 10>  N       -0.5208271304    -2.0698357233     0.1637996922
| 11>  N        0.8229848896    -2.0646451177    -0.0516799458
| 12>  C        1.0818680903    -0.7612810543    -0.0836063781
| 13>  O        2.3404511296    -0.2687496885    -0.1464105734
| 14>  H        0.8636279796     1.8558284514    -0.1222602475
| 15>  H       -0.6419279568     1.9476543552     0.5307674232
| 16>  H       -3.1971968818    -1.3653525725     0.6042784077
| 17>  H       -2.9248183975    -1.0010891513    -1.1187952535
| 18>  H       -2.0453649881    -3.6171828968     0.1964675913
| 19>  H       -1.5921654000    -3.0370309816    -1.4394755056
| 20>  H        2.9401380065    -1.0236300004    -0.1904312850
| 21> *
| 22>
| 23>                          ****END OF INPUT****

CARTESIAN COORDINATES (ANGSTROEM)
---------------------------------
  N     -0.079216    1.488812   -0.175184
  C     -0.071974    0.088380   -0.032320
  C     -1.086518   -0.828500    0.108100
  C     -2.464931   -1.386186   -0.206623
  C     -1.710385   -2.757474   -0.388897
  N     -0.520827   -2.069836    0.163800
  N      0.822985   -2.064645   -0.051680
  C      1.081868   -0.761281   -0.083606
  O      2.340451   -0.268750   -0.146411
  H      0.863628    1.855828   -0.122260
  H     -0.641928    1.947654    0.530767
  H     -3.197197   -1.365353    0.604278
  H     -2.924818   -1.001089   -1.118795
  H     -2.045365   -3.617183    0.196468
  H     -1.592165   -3.037031   -1.439476
  H      2.940138   -1.023630   -0.190431

 Total Charge           Charge          ....    0
 Multiplicity           Mult            ....    1
 Number of Electrons    NEL             ....   66
 Basis Dimension        Dim             ....  321

ORBITAL ENERGIES
----------------

  NO   OCC          E(Eh)            E(eV)
   0   2.0000     -20.592125      -560.3402
   1   2.0000     -15.607062      -424.6898
   2   2.0000     -15.569592      -423.6701
   3   2.0000     -15.556999      -423.3275
   4   2.0000     -11.316905      -307.9487
   5   2.0000     -11.286228      -307.1139
   6   2.0000     -11.265981      -306.5629
   7   2.0000     -11.261908      -306.4521
   8   2.0000     -11.257861      -306.3420
   9   2.0000      -1.421184       -38.6724
  10   2.0000      -1.362049       -37.0632
  11   2.0000      -1.199922       -32.6515
  12   2.0000      -1.161663       -31.6105
  13   2.0000      -1.017280       -27.6816
  14   2.0000      -0.956531       -26.0285
  15   2.0000      -0.889535       -24.2055
  16   2.0000      -0.804786       -21.8993
  17   2.0000      -0.769826       -20.9480
  18   2.0000      -0.698656       -19.0114
  19   2.0000      -0.683617       -18.6022
  20   2.0000      -0.680471       -18.5166
  21   2.0000      -0.628812       -17.1109
  22   2.0000      -0.608137       -16.5483
  23   2.0000      -0.602121       -16.3846
  24   2.0000      -0.577365       -15.7109
  25   2.0000      -0.549667       -14.9572
  26   2.0000      -0.533760       -14.5244
  27   2.0000      -0.521043       -14.1783
  28   2.0000      -0.509861       -13.8740
  29   2.0000      -0.472217       -12.8497
  30   2.0000      -0.442168       -12.0320
  31   2.0000      -0.333011        -9.0617
  32   2.0000      -0.299687        -8.1549
  33   0.0000       0.128600         3.4994
  34   0.0000       0.139914         3.8073
  35   0.0000       0.154512         4.2045
  36   0.0000       0.168364         4.5814
  37   0.0000       0.180265         4.9053

MULLIKEN ATOMIC CHARGES
-----------------------
   0 N :   -0.542376
   1 C :    0.000523
   2 C :   -0.045785
   3 C :   -0.194316
   4 C :   -0.124435
   5 N :    0.053681
   6 N :   -0.293831
   7 C :    0.219176
   8 O :   -0.450984
   9 H :    0.256643
  10 H :    0.251798
  11 H :    0.135300
  12 H :    0.139401
  13 H :    0.124939
  14 H :    0.128040
  15 H :    0.342225
Sum of atomic charges:   -0.0000000

LOEWDIN ATOMIC CHARGES
----------------------
   0 N :   -0.100299
   1 C :   -0.250724
   2 C :   -0.199291
   3 C :   -0.198336
   4 C :   -0.192600
   5 N :    0.195464
   6 N :    0.015520
   7 C :   -0.401263
   8 O :    0.061461
   9 H :    0.172202
  10 H :    0.167446
  11 H :    0.134597
  12 H :    0.139457
  13 H :    0.124199
  14 H :    0.132147
  15 H :    0.200020

  Mayer bond orders larger than 0.1
B(  0-N ,  1-C ) :   0.9961 B(  0-N ,  9-H ) :   0.8846 B(  0-N , 10-H ) :   0.8768
B(  1-C ,  2-C ) :   1.4684 B(  1-C ,  7-C ) :   1.2265 B(  2-C ,  3-C ) :   0.9121
B(  2-C ,  5-N ) :   1.1504 B(  2-C ,  6-N ) :   0.1131 B(  3-C ,  4-C ) :   0.9641
B(  3-C , 11-H ) :   0.9229 B(  3-C , 12-H ) :   0.9056 B(  4-C ,  5-N ) :   0.8816
B(  4-C , 13-H ) :   0.9169 B(  4-C , 14-H ) :   0.9132 B(  5-N ,  6-N ) :   1.0041
B(  6-N ,  7-C ) :   1.5324 B(  7-C ,  8-O ) :   1.0724 B(  8-O , 15-H ) :   0.8195

MP2 TOTAL ENERGY:     -433.322754422 Eh
FINAL SINGLE POINT ENERGY      -433.322754421678

DIPOLE MOMENT
-------------
                                X             Y             Z
Electronic contribution:      4.55870      -0.18865       0.93585
Nuclear contribution   :     -5.24945       0.21458      -0.81271
                        -----------------------------------------
Total Dipole Moment    :     -0.69075       0.02593       0.12314
                        -----------------------------------------
Magnitude (a.u.)       :      0.70212
Magnitude (Debye)      :      1.78464

                             ****ORCA TERMINATED NORMALLY****
TOTAL RUN TIME: 0 days 0 hours 18 minutes 10 seconds 26 msec
