                         Program Version 3.0.3 - RELEASE   -
|  1> ! RI-MP2 RIJK def2-TZVP def2-TZVP/C def2-TZVP/JK TIGHTSCF
|  2> % maxcore 2000
|  3> % mp2 density relaxed end
|  4> *xyz 0 1
|  5>  O       -0.0649508862     1.3715030829     0.0646680572
|  6>  C        0.0353843258    -0.0115502709     0.0038447863
|  7>  C        0.3384870708    -0.8191270216    -1.2913781182
|  8>  N       -0.3811674859    -1.9598641632    -0.5997325758
|  9>  C        0.5862191316    -2.2067224504     0.5267496723
| 10>  C        0.9056883448    -0.7641839723     1.0298389662
| 11>  C       -1.2659221026    -0.8870530183    -0.0071896651
| 12>  C       -2.0551462228    -1.1022349327     1.2514074818
| 13>  O       -2.0240272690    -2.0742819679     1.9650191968
| 14>  H        0.7385232269     1.7286633744     0.4555215160
| 15>  H       -0.2225811178    -0.4733884759    -2.1616968119
| 16>  H        1.3786354078    -1.0309537991    -1.5555729524
| 17>  H        0.1158169312    -2.8308513720     1.2827332962
| 18>  H        1.4615925320    -2.7206407507     0.1238298714
| 19>  H        1.9626664389    -0.4926031332     0.9378601544
| 20>  H        0.5904841877    -0.5831857217     2.0610973707
| 21>  H       -1.9545144165    -0.5155614634    -0.7751607683
| 22>  H       -2.7080895868    -0.2332150740     1.4986035825
| 23> *
| 24>
| 25>                          ****END OF INPUT****

CARTESIAN COORDINATES (ANGSTROEM)
---------------------------------
  O     -0.064951    1.371503    0.064668
  C      0.035384   -0.011550    0.003845
  C      0.338487   -0.819127   -1.291378
  N     -0.381167   -1.959864   -0.599733
  C      0.586219   -2.206722    0.526750
  C      0.905688   -0.764184    1.029839
  C     -1.265922   -0.887053   -0.007190
  C     -2.055146   -1.102235    1.251407
  O     -2.024027   -2.074282    1.965019
  H      0.738523    1.728663    0.455522
  H     -0.222581   -0.473388   -2.161697
  H      1.378635   -1.030954   -1.555573
  H      0.115817   -2.830851    1.282733
  H      1.461593   -2.720641    0.123830
  H      1.962666   -0.492603    0.937860
  H      0.590484   -0.583186    2.061097
  H     -1.954514   -0.515561   -0.775161
  H     -2.708090   -0.233215    1.498604

 Total Charge           Charge          ....    0
 Multiplicity           Mult            ....    1
 Number of Electrons    NEL             ....   68
 Basis Dimension        Dim             ....  333

ORBITAL ENERGIES
----------------

  NO   OCC          E(Eh)            E(eV)
   0   2.0000     -20.583457      -560.1044
   1   2.0000     -20.563103      -559.5505
   2   2.0000     -15.570226      -423.6874
   3   2.0000     -11.337148      -308.4995
   4   2.0000     -11.314953      -307.8955
   5   2.0000     -11.274972      -306.8076
   6   2.0000     -11.262116      -306.4578
   7   2.0000     -11.253657      -306.2276
   8   2.0000     -11.239260      -305.8358
   9   2.0000      -1.402746       -38.1707
  10   2.0000      -1.396184       -37.9921
  11   2.0000      -1.281851       -34.8810
  12   2.0000      -1.021072       -27.7848
  13   2.0000      -1.002510       -27.2797
  14   2.0000      -0.966573       -26.3018
  15   2.0000      -0.839080       -22.8325
  16   2.0000      -0.809067       -22.0158
  17   2.0000      -0.758311       -20.6347
  18   2.0000      -0.716320       -19.4920
  19   2.0000      -0.692286       -18.8380
  20   2.0000      -0.663921       -18.0662
  21   2.0000      -0.650083       -17.6897
  22   2.0000      -0.635214       -17.2851
  23   2.0000      -0.606017       -16.4906
  24   2.0000      -0.563242       -15.3266
  25   2.0000      -0.543054       -14.7772
  26   2.0000      -0.536526       -14.5996
  27   2.0000      -0.520703       -14.1690
  28   2.0000      -0.513187       -13.9645
  29   2.0000      -0.499374       -13.5887
  30   2.0000      -0.479614       -13.0510
  31   2.0000      -0.440129       -11.9765
  32   2.0000      -0.411842       -11.2068
  33   2.0000      -0.385287       -10.4842
  34   0.0000       0.117048         3.1850
  35   0.0000       0.126455         3.4410
  36   0.0000       0.149596         4.0707
  37   0.0000       0.161191         4.3862
  38   0.0000       0.178672         4.8619

MULLIKEN ATOMIC CHARGES
-----------------------
   0 O :   -0.442566
   1 C :    0.154022
   2 C :   -0.167799
   3 N :   -0.186400
   4 C :   -0.159299
   5 C :   -0.324691
   6 C :   -0.012638
   7 C :    0.065325
   8 O :   -0.264445
   9 H :    0.331459
  10 H :    0.121608
  11 H :    0.122430
  12 H :    0.157356
  13 H :    0.126855
  14 H :    0.125335
  15 H :    0.139608
  16 H :    0.124210
  17 H :    0.089630
Sum of atomic charges:    0.0000000

LOEWDIN ATOMIC CHARGES
----------------------
   0 O :    0.027161
   1 C :   -0.353780
   2 C :   -0.210707
   3 N :    0.110721
   4 C :   -0.251607
   5 C :   -0.234400
   6 C :   -0.224408
   7 C :   -0.273452
   8 O :    0.141975
   9 H :    0.185848
  10 H :    0.135055
  11 H :    0.125839
  12 H :    0.134997
  13 H :    0.128249
  14 H :    0.134288
  15 H :    0.138006
  16 H :    0.166569
  17 H :    0.119644

  Mayer bond orders larger than 0.1
B(  0-O ,  1-C ) :   1.0786 B(  0-O ,  9-H ) :   0.8318 B(  1-C ,  2-C ) :   0.9159
B(  1-C ,  5-C ) :   0.9173 B(  1-C ,  6-C ) :   0.8836 B(  2-C ,  3-N ) :   0.9154
B(  2-C , 10-H ) :   0.9169 B(  2-C , 11-H ) :   0.9212 B(  3-N ,  4-C ) :   0.9002
B(  3-N ,  6-C ) :   0.9382 B(  4-C ,  5-C ) :   0.9412 B(  4-C , 12-H ) :   0.9198
B(  4-C , 13-H ) :   0.9303 B(  5-C , 14-H ) :   0.9168 B(  5-C , 15-H ) :   0.9196
B(  6-C ,  7-C ) :   0.8499 B(  6-C , 16-H ) :   0.8995 B(  7-C ,  8-O ) :   1.9834
B(  7-C , 17-H ) :   0.9463

MP2 TOTAL ENERGY:     -438.338648709 Eh
FINAL SINGLE POINT ENERGY      -438.338648709233

DIPOLE MOMENT
-------------
                                X             Y             Z
Electronic contribution:     -3.97727       0.00068       1.05550
Nuclear contribution   :      4.90415       0.96872      -1.16441
                        -----------------------------------------
Total Dipole Moment    :      0.92688       0.96940      -0.10890
                        -----------------------------------------
Magnitude (a.u.)       :      1.34562
Magnitude (Debye)      :      3.42029

                             ****ORCA TERMINATED NORMALLY****
TOTAL RUN TIME: 0 days 0 hours 19 minutes 27 seconds 813 msec
