                         Program Version 3.0.3 - RELEASE   -
|  1> ! RI-MP2 RIJK def2-TZVP def2-TZVP/C def2-TZVP/JK TIGHTSCF
|  2> % maxcore 2000
|  3> % mp2 density relaxed end
|  4> *xyz 0 1
|  5>  C        0.4908814846     1.7248099928    -0.2514591570
|  6>  C        0.2642130411     0.2910742077     0.1970423869
|  7>  C        0.3387147338    -0.7715953037    -0.9361911908
|  8>  N        1.5394467643    -1.5694714045    -0.6415036677
|  9>  C        1.9856254902    -1.1274508422     0.4594719267
| 10>  C        3.1936117106    -1.6659113774     1.1771604207
| 11>  C        4.2147061012    -0.6442768220     1.4127533340
| 12>  N        5.0299555576     0.1522334362     1.5974125667
| 13>  O        1.3495962173    -0.1120263135     1.0870644275
| 14>  H        1.4216642649     1.8068389861    -0.8213088987
| 15>  H       -0.3358331230     2.0493808938    -0.8917897235
| 16>  H        0.5487219709     2.3992888228     0.6067506989
| 17>  H       -0.6574392678     0.2114059898     0.7802744113
| 18>  H       -0.5401001206    -1.4243514086    -0.9615850602
| 19>  H        0.4313745366    -0.3090957790    -1.9247751603
| 20>  H        2.8857049795    -2.0783419695     2.1453943264
| 21>  H        3.6115085886    -2.4779996790     0.5785702691
| 22> *
| 23>
| 24>                          ****END OF INPUT****

CARTESIAN COORDINATES (ANGSTROEM)
---------------------------------
  C      0.490881    1.724810   -0.251459
  C      0.264213    0.291074    0.197042
  C      0.338715   -0.771595   -0.936191
  N      1.539447   -1.569471   -0.641504
  C      1.985625   -1.127451    0.459472
  C      3.193612   -1.665911    1.177160
  C      4.214706   -0.644277    1.412753
  N      5.029956    0.152233    1.597413
  O      1.349596   -0.112026    1.087064
  H      1.421664    1.806839   -0.821309
  H     -0.335833    2.049381   -0.891790
  H      0.548722    2.399289    0.606751
  H     -0.657439    0.211406    0.780274
  H     -0.540100   -1.424351   -0.961585
  H      0.431375   -0.309096   -1.924775
  H      2.885705   -2.078342    2.145394
  H      3.611509   -2.478000    0.578570

 Total Charge           Charge          ....    0
 Multiplicity           Mult            ....    1
 Number of Electrons    NEL             ....   66
 Basis Dimension        Dim             ....  327

ORBITAL ENERGIES
----------------

  NO   OCC          E(Eh)            E(eV)
   0   2.0000     -20.606352      -560.7274
   1   2.0000     -15.576275      -423.8520
   2   2.0000     -15.563121      -423.4940
   3   2.0000     -11.357373      -309.0498
   4   2.0000     -11.309066      -307.7353
   5   2.0000     -11.302647      -307.5607
   6   2.0000     -11.282035      -306.9998
   7   2.0000     -11.271929      -306.7248
   8   2.0000     -11.234198      -305.6981
   9   2.0000      -1.453126       -39.5416
  10   2.0000      -1.232006       -33.5246
  11   2.0000      -1.224079       -33.3089
  12   2.0000      -1.102481       -30.0000
  13   2.0000      -1.041274       -28.3345
  14   2.0000      -0.943001       -25.6604
  15   2.0000      -0.848166       -23.0798
  16   2.0000      -0.789675       -21.4882
  17   2.0000      -0.733200       -19.9514
  18   2.0000      -0.694799       -18.9064
  19   2.0000      -0.691846       -18.8261
  20   2.0000      -0.645255       -17.5583
  21   2.0000      -0.610388       -16.6095
  22   2.0000      -0.600898       -16.3513
  23   2.0000      -0.578840       -15.7510
  24   2.0000      -0.567362       -15.4387
  25   2.0000      -0.561939       -15.2911
  26   2.0000      -0.543230       -14.7820
  27   2.0000      -0.521985       -14.2039
  28   2.0000      -0.515573       -14.0295
  29   2.0000      -0.470040       -12.7904
  30   2.0000      -0.466105       -12.6834
  31   2.0000      -0.445337       -12.1182
  32   2.0000      -0.395273       -10.7559
  33   0.0000       0.121809         3.3146
  34   0.0000       0.134306         3.6546
  35   0.0000       0.154508         4.2044
  36   0.0000       0.163739         4.4556
  37   0.0000       0.171934         4.6786

MULLIKEN ATOMIC CHARGES
-----------------------
   0 C :   -0.423501
   1 C :    0.103256
   2 C :   -0.144586
   3 N :   -0.252457
   4 C :    0.175912
   5 C :   -0.105971
   6 C :   -0.174722
   7 N :   -0.060457
   8 O :   -0.267635
   9 H :    0.145627
  10 H :    0.134459
  11 H :    0.147275
  12 H :    0.111963
  13 H :    0.124777
  14 H :    0.131925
  15 H :    0.172038
  16 H :    0.182097
Sum of atomic charges:    0.0000000

LOEWDIN ATOMIC CHARGES
----------------------
   0 C :   -0.292485
   1 C :   -0.280483
   2 C :   -0.251630
   3 N :    0.094272
   4 C :   -0.383021
   5 C :   -0.195209
   6 C :   -0.180717
   7 N :    0.065929
   8 O :    0.262058
   9 H :    0.131583
  10 H :    0.130454
  11 H :    0.130189
  12 H :    0.141061
  13 H :    0.133012
  14 H :    0.136970
  15 H :    0.178094
  16 H :    0.179923

  Mayer bond orders larger than 0.1
B(  0-C ,  1-C ) :   0.9157 B(  0-C ,  9-H ) :   0.9293 B(  0-C , 10-H ) :   0.9298
B(  0-C , 11-H ) :   0.9342 B(  1-C ,  2-C ) :   0.9092 B(  1-C ,  8-O ) :   0.8395
B(  1-C , 12-H ) :   0.9291 B(  2-C ,  3-N ) :   0.9208 B(  2-C , 13-H ) :   0.9240
B(  2-C , 14-H ) :   0.9228 B(  3-N ,  4-C ) :   1.8755 B(  4-C ,  5-C ) :   0.8958
B(  4-C ,  8-O ) :   1.1066 B(  5-C ,  6-C ) :   0.9129 B(  5-C , 15-H ) :   0.9060
B(  5-C , 16-H ) :   0.9134 B(  6-C ,  7-N ) :   2.8528

MP2 TOTAL ENERGY:     -417.336670060 Eh
FINAL SINGLE POINT ENERGY      -417.336670059725

DIPOLE MOMENT
-------------
                                X             Y             Z
Electronic contribution:      6.45111      -3.41670       3.58755
Nuclear contribution   :     -8.01821       3.05710      -3.77457
                        -----------------------------------------
Total Dipole Moment    :     -1.56710      -0.35960      -0.18702
                        -----------------------------------------
Magnitude (a.u.)       :      1.61867
Magnitude (Debye)      :      4.11432

                             ****ORCA TERMINATED NORMALLY****
TOTAL RUN TIME: 0 days 0 hours 15 minutes 47 seconds 174 msec
