                         Program Version 3.0.3 - RELEASE   -
|  1> ! RI-MP2 RIJK def2-TZVP def2-TZVP/C def2-TZVP/JK TIGHTSCF
|  2> % maxcore 2000
|  3> % mp2 density relaxed end
|  4> *xyz 0 1
|  5>  C       -0.1522688601     1.4732242078    -0.1276760142
|  6>  C       -0.0563415066    -0.0357893641     0.0107957722
|  7>  O       -1.3689360930    -0.5725760103     0.0312500942
|  8>  C       -1.4146743447    -1.9780782410     0.1420938610
|  9>  C       -2.8849888772    -2.3680926948    -0.0036418145
| 10>  O       -3.4041173061    -1.8714217270    -1.2175612382
| 11>  C       -3.0550374344    -3.8930953692    -0.0203558091
| 12>  C       -4.4571403925    -4.3033274900    -0.0031893410
| 13>  N       -5.5620777788    -4.6381974169     0.0296999967
| 14>  H        0.8477177991     1.9161111896    -0.1439404049
| 15>  H       -0.6652499880     1.7434511124    -1.0551118945
| 16>  H       -0.7083262637     1.9019185434     0.7106337438
| 17>  H        0.5126550663    -0.4709040181    -0.8268209158
| 18>  H        0.4716381146    -0.3085320162     0.9387322813
| 19>  H       -0.8208323367    -2.4498792917    -0.6588131803
| 20>  H       -1.0115316096    -2.3124748119     1.1121619486
| 21>  H       -3.4355574814    -1.9547618147     0.8561711157
| 22>  H       -3.1152474787    -0.9517061069    -1.2709438691
| 23>  H       -2.5800144850    -4.2931231764    -0.9228607091
| 24>  H       -2.5523980935    -4.3351794040     0.8471674272
| 25> *
| 26>
| 27>                          ****END OF INPUT****

CARTESIAN COORDINATES (ANGSTROEM)
---------------------------------
  C     -0.152269    1.473224   -0.127676
  C     -0.056342   -0.035789    0.010796
  O     -1.368936   -0.572576    0.031250
  C     -1.414674   -1.978078    0.142094
  C     -2.884989   -2.368093   -0.003642
  O     -3.404117   -1.871422   -1.217561
  C     -3.055037   -3.893095   -0.020356
  C     -4.457140   -4.303327   -0.003189
  N     -5.562078   -4.638197    0.029700
  H      0.847718    1.916111   -0.143940
  H     -0.665250    1.743451   -1.055112
  H     -0.708326    1.901919    0.710634
  H      0.512655   -0.470904   -0.826821
  H      0.471638   -0.308532    0.938732
  H     -0.820832   -2.449879   -0.658813
  H     -1.011532   -2.312475    1.112162
  H     -3.435557   -1.954762    0.856171
  H     -3.115247   -0.951706   -1.270944
  H     -2.580014   -4.293123   -0.922861
  H     -2.552398   -4.335179    0.847167

 Total Charge           Charge          ....    0
 Multiplicity           Mult            ....    1
 Number of Electrons    NEL             ....   70
 Basis Dimension        Dim             ....  345

ORBITAL ENERGIES
----------------

  NO   OCC          E(Eh)            E(eV)
   0   2.0000     -20.580836      -560.0330
   1   2.0000     -20.566264      -559.6365
   2   2.0000     -15.562830      -423.4861
   3   2.0000     -11.308905      -307.7309
   4   2.0000     -11.299901      -307.4859
   5   2.0000     -11.295334      -307.3617
   6   2.0000     -11.284073      -307.0552
   7   2.0000     -11.268298      -306.6260
   8   2.0000     -11.230606      -305.6003
   9   2.0000      -1.409246       -38.3475
  10   2.0000      -1.373193       -37.3665
  11   2.0000      -1.212465       -32.9929
  12   2.0000      -1.088693       -29.6248
  13   2.0000      -1.042618       -28.3711
  14   2.0000      -0.963950       -26.2304
  15   2.0000      -0.855311       -23.2742
  16   2.0000      -0.840652       -22.8753
  17   2.0000      -0.730556       -19.8794
  18   2.0000      -0.717251       -19.5174
  19   2.0000      -0.701193       -19.0804
  20   2.0000      -0.675402       -18.3786
  21   2.0000      -0.645771       -17.5723
  22   2.0000      -0.609572       -16.5873
  23   2.0000      -0.597702       -16.2643
  24   2.0000      -0.592580       -16.1249
  25   2.0000      -0.564222       -15.3532
  26   2.0000      -0.551723       -15.0131
  27   2.0000      -0.548576       -14.9275
  28   2.0000      -0.524976       -14.2853
  29   2.0000      -0.512745       -13.9525
  30   2.0000      -0.503604       -13.7038
  31   2.0000      -0.458486       -12.4760
  32   2.0000      -0.454366       -12.3639
  33   2.0000      -0.449981       -12.2446
  34   2.0000      -0.447577       -12.1792
  35   0.0000       0.118544         3.2258
  36   0.0000       0.133211         3.6249
  37   0.0000       0.152508         4.1499
  38   0.0000       0.163117         4.4386
  39   0.0000       0.173638         4.7249

MULLIKEN ATOMIC CHARGES
-----------------------
   0 C :   -0.366742
   1 C :   -0.054505
   2 O :   -0.320192
   3 C :   -0.092245
   4 C :    0.111747
   5 O :   -0.468378
   6 C :   -0.119363
   7 C :   -0.179150
   8 N :   -0.054561
   9 H :    0.128835
  10 H :    0.131171
  11 H :    0.134815
  12 H :    0.100247
  13 H :    0.099654
  14 H :    0.105936
  15 H :    0.103161
  16 H :    0.100808
  17 H :    0.331088
  18 H :    0.153139
  19 H :    0.154536
Sum of atomic charges:    0.0000000

LOEWDIN ATOMIC CHARGES
----------------------
   0 C :   -0.315048
   1 C :   -0.347210
   2 O :    0.149559
   3 C :   -0.316177
   4 C :   -0.349255
   5 O :    0.000241
   6 C :   -0.224567
   7 C :   -0.186772
   8 N :    0.059771
   9 H :    0.127315
  10 H :    0.124461
  11 H :    0.125726
  12 H :    0.118690
  13 H :    0.119248
  14 H :    0.125366
  15 H :    0.124781
  16 H :    0.144742
  17 H :    0.182385
  18 H :    0.169049
  19 H :    0.167695

  Mayer bond orders larger than 0.1
B(  0-C ,  1-C ) :   0.9544 B(  0-C ,  9-H ) :   0.9318 B(  0-C , 10-H ) :   0.9360
B(  0-C , 11-H ) :   0.9353 B(  1-C ,  2-O ) :   0.9034 B(  1-C , 12-H ) :   0.9260
B(  1-C , 13-H ) :   0.9263 B(  2-O ,  3-C ) :   0.9322 B(  3-C ,  4-C ) :   0.9360
B(  3-C , 14-H ) :   0.9214 B(  3-C , 15-H ) :   0.9213 B(  4-C ,  5-O ) :   0.9749
B(  4-C ,  6-C ) :   0.8988 B(  4-C , 16-H ) :   0.9305 B(  5-O , 17-H ) :   0.8224
B(  6-C ,  7-C ) :   0.9558 B(  6-C , 18-H ) :   0.8862 B(  6-C , 19-H ) :   0.9103
B(  7-C ,  8-N ) :   2.8797

MP2 TOTAL ENERGY:     -439.576007273 Eh
FINAL SINGLE POINT ENERGY      -439.576007273151

DIPOLE MOMENT
-------------
                                X             Y             Z
Electronic contribution:    -10.29785      -8.28564      -0.74029
Nuclear contribution   :     12.64763       9.10295       1.11820
                        -----------------------------------------
Total Dipole Moment    :      2.34978       0.81731       0.37791
                        -----------------------------------------
Magnitude (a.u.)       :      2.51640
Magnitude (Debye)      :      6.39619

                             ****ORCA TERMINATED NORMALLY****
TOTAL RUN TIME: 0 days 0 hours 15 minutes 36 seconds 481 msec
