                         Program Version 3.0.3 - RELEASE   -
|  1> ! RI-MP2 RIJK def2-TZVP def2-TZVP/C def2-TZVP/JK TIGHTSCF
|  2> % maxcore 2000
|  3> % mp2 density relaxed end
|  4> *xyz 0 1
|  5>  N        0.0028216704     1.2853970112    -0.0238965347
|  6>  C       -0.0057821557     0.0259488679    -0.0175546796
|  7>  C       -1.2334101420    -0.8547204691    -0.1583186700
|  8>  C       -0.6682478590    -2.2445241241    -0.3888054077
|  9>  O       -0.3496279432    -2.5194709231    -1.7731698847
| 10>  C        1.0637779550    -2.6165932107    -1.4816622795
| 11>  C        0.8339697314    -2.1362636138    -0.0407363409
| 12>  O        1.1145482894    -0.7551598265     0.1565544880
| 13>  H        0.9516025567     1.6418016429     0.1019525525
| 14>  H       -1.8220661059    -0.8073720620     0.7639197034
| 15>  H       -1.8662511597    -0.5215772680    -0.9821885088
| 16>  H       -1.2458711247    -3.0560274065     0.0627567208
| 17>  H        1.4276465149    -3.6483403151    -1.5649223489
| 18>  H        1.6711530264    -1.9540389571    -2.1064486594
| 19>  H        1.2672648761    -2.7094820659     0.7790931994
| 20> *
| 21>
| 22>                          ****END OF INPUT****

CARTESIAN COORDINATES (ANGSTROEM)
---------------------------------
  N      0.002822    1.285397   -0.023897
  C     -0.005782    0.025949   -0.017555
  C     -1.233410   -0.854720   -0.158319
  C     -0.668248   -2.244524   -0.388805
  O     -0.349628   -2.519471   -1.773170
  C      1.063778   -2.616593   -1.481662
  C      0.833970   -2.136264   -0.040736
  O      1.114548   -0.755160    0.156554
  H      0.951603    1.641802    0.101953
  H     -1.822066   -0.807372    0.763920
  H     -1.866251   -0.521577   -0.982189
  H     -1.245871   -3.056027    0.062757
  H      1.427647   -3.648340   -1.564922
  H      1.671153   -1.954039   -2.106449
  H      1.267265   -2.709482    0.779093

 Total Charge           Charge          ....    0
 Multiplicity           Mult            ....    1
 Number of Electrons    NEL             ....   60
 Basis Dimension        Dim             ....  290

ORBITAL ENERGIES
----------------

  NO   OCC          E(Eh)            E(eV)
   0   2.0000     -20.602036      -560.6099
   1   2.0000     -20.567164      -559.6610
   2   2.0000     -15.533795      -422.6960
   3   2.0000     -11.341779      -308.6255
   4   2.0000     -11.309781      -307.7548
   5   2.0000     -11.305614      -307.6414
   6   2.0000     -11.295017      -307.3530
   7   2.0000     -11.248846      -306.0967
   8   2.0000      -1.445761       -39.3412
   9   2.0000      -1.388948       -37.7952
  10   2.0000      -1.199882       -32.6504
  11   2.0000      -1.063648       -28.9433
  12   2.0000      -1.010713       -27.5029
  13   2.0000      -0.912764       -24.8376
  14   2.0000      -0.812940       -22.1212
  15   2.0000      -0.777993       -21.1703
  16   2.0000      -0.731920       -19.9166
  17   2.0000      -0.692222       -18.8363
  18   2.0000      -0.668902       -18.2018
  19   2.0000      -0.641748       -17.4629
  20   2.0000      -0.621727       -16.9181
  21   2.0000      -0.597242       -16.2518
  22   2.0000      -0.578011       -15.7285
  23   2.0000      -0.554685       -15.0937
  24   2.0000      -0.534962       -14.5571
  25   2.0000      -0.475824       -12.9478
  26   2.0000      -0.471778       -12.8377
  27   2.0000      -0.453306       -12.3351
  28   2.0000      -0.428839       -11.6693
  29   2.0000      -0.400524       -10.8988
  30   0.0000       0.135265         3.6807
  31   0.0000       0.155560         4.2330
  32   0.0000       0.164195         4.4680
  33   0.0000       0.169379         4.6090
  34   0.0000       0.181388         4.9358

MULLIKEN ATOMIC CHARGES
-----------------------
   0 N :   -0.368026
   1 C :    0.076889
   2 C :   -0.125639
   3 C :    0.025161
   4 O :   -0.331306
   5 C :   -0.034943
   6 C :    0.045516
   7 O :   -0.264050
   8 H :    0.224933
   9 H :    0.139115
  10 H :    0.146142
  11 H :    0.112874
  12 H :    0.105806
  13 H :    0.117115
  14 H :    0.130412
Sum of atomic charges:    0.0000000

LOEWDIN ATOMIC CHARGES
----------------------
   0 N :   -0.055104
   1 C :   -0.391790
   2 C :   -0.197897
   3 C :   -0.254727
   4 O :    0.136682
   5 C :   -0.248656
   6 C :   -0.252299
   7 O :    0.252482
   8 H :    0.169425
   9 H :    0.158321
  10 H :    0.162463
  11 H :    0.137335
  12 H :    0.122309
  13 H :    0.125908
  14 H :    0.135547

  Mayer bond orders larger than 0.1
B(  0-N ,  1-C ) :   2.0702 B(  0-N ,  8-H ) :   0.8546 B(  1-C ,  2-C ) :   0.9148
B(  1-C ,  7-O ) :   1.0532 B(  2-C ,  3-C ) :   0.9432 B(  2-C ,  9-H ) :   0.9072
B(  2-C , 10-H ) :   0.8930 B(  3-C ,  4-O ) :   0.9740 B(  3-C ,  6-C ) :   0.9325
B(  3-C , 11-H ) :   0.9299 B(  4-O ,  5-C ) :   0.9340 B(  5-C ,  6-C ) :   0.9588
B(  5-C , 12-H ) :   0.9179 B(  5-C , 13-H ) :   0.9014 B(  6-C ,  7-O ) :   0.9087
B(  6-C , 14-H ) :   0.9239

MP2 TOTAL ENERGY:     -399.145509522 Eh
FINAL SINGLE POINT ENERGY      -399.145509521683

DIPOLE MOMENT
-------------
                                X             Y             Z
Electronic contribution:      0.73346       1.20594       0.11024
Nuclear contribution   :     -0.36128      -2.26890       0.37789
                        -----------------------------------------
Total Dipole Moment    :      0.37218      -1.06296       0.48813
                        -----------------------------------------
Magnitude (a.u.)       :      1.22746
Magnitude (Debye)      :      3.11996

                             ****ORCA TERMINATED NORMALLY****
TOTAL RUN TIME: 0 days 0 hours 11 minutes 11 seconds 658 msec
