                         Program Version 3.0.3 - RELEASE   -
|  1> ! RI-MP2 RIJK def2-TZVP def2-TZVP/C def2-TZVP/JK TIGHTSCF
|  2> % maxcore 2000
|  3> % mp2 density relaxed end
|  4> *xyz 0 1
|  5>  C        0.0128847072     1.5165527504     0.0032685868
|  6>  C        0.0253571378     0.0138860273     0.0317970600
|  7>  N       -0.8518620721    -0.7609287678     0.9310194072
|  8>  C        0.6219982477    -0.8331573528     1.0920044376
|  9>  C        1.2998815239    -1.9531157946     0.2797636537
| 10>  C        0.2314096356    -2.8542247807    -0.3691373978
| 11>  O       -0.3140665510    -1.9746782581    -1.3732725538
| 12>  C        0.4398479599    -0.7865053551    -1.2437365137
| 13>  O        1.7456685800    -1.2257813772    -0.8953086367
| 14>  H        0.9239037553     1.9029978634    -0.4659943559
| 15>  H       -0.8450298914     1.8981167546    -0.5620411623
| 16>  H       -0.0414532235     1.9281148471     1.0168597785
| 17>  H       -1.2317189771    -0.1360437197     1.6419425969
| 18>  H        1.0954597261    -0.4290339483     1.9801569735
| 19>  H        2.1401376514    -2.4563783374     0.7534303820
| 20>  H        0.6849140060    -3.7247147272    -0.8546772548
| 21>  H       -0.5546763235    -3.1601040714     0.3229389389
| 22>  H        0.4444244177    -0.2350256823    -2.1836243601
| 23> *
| 24>
| 25>                          ****END OF INPUT****

CARTESIAN COORDINATES (ANGSTROEM)
---------------------------------
  C      0.012885    1.516553    0.003269
  C      0.025357    0.013886    0.031797
  N     -0.851862   -0.760929    0.931019
  C      0.621998   -0.833157    1.092004
  C      1.299882   -1.953116    0.279764
  C      0.231410   -2.854225   -0.369137
  O     -0.314067   -1.974678   -1.373273
  C      0.439848   -0.786505   -1.243737
  O      1.745669   -1.225781   -0.895309
  H      0.923904    1.902998   -0.465994
  H     -0.845030    1.898117   -0.562041
  H     -0.041453    1.928115    1.016860
  H     -1.231719   -0.136044    1.641943
  H      1.095460   -0.429034    1.980157
  H      2.140138   -2.456378    0.753430
  H      0.684914   -3.724715   -0.854677
  H     -0.554676   -3.160104    0.322939
  H      0.444424   -0.235026   -2.183624

 Total Charge           Charge          ....    0
 Multiplicity           Mult            ....    1
 Number of Electrons    NEL             ....   68
 Basis Dimension        Dim             ....  333

ORBITAL ENERGIES
----------------

  NO   OCC          E(Eh)            E(eV)
   0   2.0000     -20.561395      -559.5040
   1   2.0000     -20.552328      -559.2573
   2   2.0000     -15.567867      -423.6232
   3   2.0000     -11.333210      -308.3923
   4   2.0000     -11.292646      -307.2885
   5   2.0000     -11.271757      -306.7201
   6   2.0000     -11.270564      -306.6876
   7   2.0000     -11.264506      -306.5228
   8   2.0000     -11.236229      -305.7533
   9   2.0000      -1.444057       -39.2948
  10   2.0000      -1.321919       -35.9712
  11   2.0000      -1.269064       -34.5330
  12   2.0000      -1.038072       -28.2474
  13   2.0000      -0.996741       -27.1227
  14   2.0000      -0.936836       -25.4926
  15   2.0000      -0.860095       -23.4044
  16   2.0000      -0.808935       -22.0122
  17   2.0000      -0.773154       -21.0386
  18   2.0000      -0.722118       -19.6498
  19   2.0000      -0.690289       -18.7837
  20   2.0000      -0.666557       -18.1379
  21   2.0000      -0.611447       -16.6383
  22   2.0000      -0.591268       -16.0892
  23   2.0000      -0.589100       -16.0302
  24   2.0000      -0.579886       -15.7795
  25   2.0000      -0.552168       -15.0253
  26   2.0000      -0.543662       -14.7938
  27   2.0000      -0.511814       -13.9272
  28   2.0000      -0.493819       -13.4375
  29   2.0000      -0.491044       -13.3620
  30   2.0000      -0.471387       -12.8271
  31   2.0000      -0.443012       -12.0550
  32   2.0000      -0.418794       -11.3960
  33   2.0000      -0.375788       -10.2257
  34   0.0000       0.127326         3.4647
  35   0.0000       0.160097         4.3565
  36   0.0000       0.168727         4.5913
  37   0.0000       0.178242         4.8502
  38   0.0000       0.197637         5.3780

MULLIKEN ATOMIC CHARGES
-----------------------
   0 C :   -0.413851
   1 C :    0.198746
   2 N :   -0.361326
   3 C :   -0.239953
   4 C :    0.096512
   5 C :   -0.044498
   6 O :   -0.314388
   7 C :    0.128713
   8 O :   -0.302878
   9 H :    0.148207
  10 H :    0.148324
  11 H :    0.126142
  12 H :    0.209562
  13 H :    0.133080
  14 H :    0.140451
  15 H :    0.106752
  16 H :    0.112099
  17 H :    0.128306
Sum of atomic charges:   -0.0000000

LOEWDIN ATOMIC CHARGES
----------------------
   0 C :   -0.275721
   1 C :   -0.280641
   2 N :    0.037366
   3 C :   -0.211099
   4 C :   -0.267162
   5 C :   -0.263581
   6 O :    0.172335
   7 C :   -0.339638
   8 O :    0.189159
   9 H :    0.136556
  10 H :    0.131611
  11 H :    0.129372
  12 H :    0.168716
  13 H :    0.136314
  14 H :    0.143694
  15 H :    0.122389
  16 H :    0.130028
  17 H :    0.140303

  Mayer bond orders larger than 0.1
B(  0-C ,  1-C ) :   0.8821 B(  0-C ,  9-H ) :   0.9275 B(  0-C , 10-H ) :   0.9426
B(  0-C , 11-H ) :   0.9285 B(  1-C ,  2-N ) :   0.9082 B(  1-C ,  3-C ) :   0.8995
B(  1-C ,  7-C ) :   0.9350 B(  2-N ,  3-C ) :   1.0498 B(  2-N , 12-H ) :   0.8663
B(  3-C ,  4-C ) :   0.9170 B(  3-C , 13-H ) :   0.9104 B(  4-C ,  5-C ) :   0.9490
B(  4-C ,  8-O ) :   0.9285 B(  4-C , 14-H ) :   0.9111 B(  5-C ,  6-O ) :   0.9243
B(  5-C , 15-H ) :   0.9186 B(  5-C , 16-H ) :   0.9059 B(  6-O ,  7-C ) :   1.0071
B(  7-C ,  8-O ) :   0.9824 B(  7-C , 17-H ) :   0.9213

MP2 TOTAL ENERGY:     -438.338412402 Eh
FINAL SINGLE POINT ENERGY      -438.338412401738

DIPOLE MOMENT
-------------
                                X             Y             Z
Electronic contribution:      0.75391      -3.52575      -2.20327
Nuclear contribution   :     -0.54447       4.15311       3.12354
                        -----------------------------------------
Total Dipole Moment    :      0.20944       0.62736       0.92027
                        -----------------------------------------
Magnitude (a.u.)       :      1.13329
Magnitude (Debye)      :      2.88060

                             ****ORCA TERMINATED NORMALLY****
TOTAL RUN TIME: 0 days 0 hours 22 minutes 0 seconds 928 msec
