                         Program Version 3.0.3 - RELEASE   -
|  1> ! RI-MP2 RIJK def2-TZVP def2-TZVP/C def2-TZVP/JK TIGHTSCF
|  2> % maxcore 2000
|  3> % mp2 density relaxed end
|  4> *xyz 0 1
|  5>  N       -0.1129986024     1.2884882827     0.0283722398
|  6>  C       -0.0931718127     0.0368003156    -0.1042014703
|  7>  O       -1.1283801414    -0.6979689477     0.3783095407
|  8>  C       -1.0721501012    -2.0862399838     0.1411000457
|  9>  C       -2.2436256568    -2.8899622464     0.6733249082
| 10>  C       -3.4793283641    -2.5755112578    -0.0507691519
| 11>  N       -2.5145174845    -3.5134320261    -0.7145659907
| 12>  C       -1.4894714442    -2.6378730243    -1.2510317900
| 13>  O       -1.0978694930    -2.5062083239    -2.3657245427
| 14>  H        0.7297561312     1.6958586052    -0.3714496010
| 15>  H        0.6892311719    -0.5668879321    -0.5801085336
| 16>  H       -0.1038506500    -2.5075948684     0.4409691090
| 17>  H       -2.2119913942    -3.5257151004     1.5482094949
| 18>  H       -4.3890492376    -3.0805209273     0.2539792488
| 19>  H       -3.6220086108    -1.5870295652    -0.4771104869
| 20> *
| 21>
| 22>                          ****END OF INPUT****

CARTESIAN COORDINATES (ANGSTROEM)
---------------------------------
  N     -0.112999    1.288488    0.028372
  C     -0.093172    0.036800   -0.104201
  O     -1.128380   -0.697969    0.378310
  C     -1.072150   -2.086240    0.141100
  C     -2.243626   -2.889962    0.673325
  C     -3.479328   -2.575511   -0.050769
  N     -2.514517   -3.513432   -0.714566
  C     -1.489471   -2.637873   -1.251032
  O     -1.097869   -2.506208   -2.365725
  H      0.729756    1.695859   -0.371450
  H      0.689231   -0.566888   -0.580109
  H     -0.103851   -2.507595    0.440969
  H     -2.211991   -3.525715    1.548209
  H     -4.389049   -3.080521    0.253979
  H     -3.622009   -1.587030   -0.477110

 Total Charge           Charge          ....    0
 Multiplicity           Mult            ....    1
 Number of Electrons    NEL             ....   66
 Basis Dimension        Dim             ....  315

ORBITAL ENERGIES
----------------

  NO   OCC          E(Eh)            E(eV)
   0   2.0000     -20.618007      -561.0445
   1   2.0000     -20.576671      -559.9197
   2   2.0000     -15.605939      -424.6592
   3   2.0000     -15.554262      -423.2530
   4   2.0000     -11.378586      -309.6271
   5   2.0000     -11.352558      -308.9188
   6   2.0000     -11.340957      -308.6031
   7   2.0000     -11.305475      -307.6376
   8   2.0000     -11.303005      -307.5704
   9   2.0000      -1.457688       -39.6657
  10   2.0000      -1.429525       -38.8993
  11   2.0000      -1.326999       -36.1095
  12   2.0000      -1.213792       -33.0290
  13   2.0000      -1.029569       -28.0160
  14   2.0000      -0.971389       -26.4328
  15   2.0000      -0.861037       -23.4300
  16   2.0000      -0.843295       -22.9472
  17   2.0000      -0.785024       -21.3616
  18   2.0000      -0.730685       -19.8829
  19   2.0000      -0.715023       -19.4568
  20   2.0000      -0.706094       -19.2138
  21   2.0000      -0.671990       -18.2858
  22   2.0000      -0.650083       -17.6897
  23   2.0000      -0.610073       -16.6009
  24   2.0000      -0.582313       -15.8456
  25   2.0000      -0.574364       -15.6292
  26   2.0000      -0.565793       -15.3960
  27   2.0000      -0.528059       -14.3692
  28   2.0000      -0.474975       -12.9247
  29   2.0000      -0.461914       -12.5693
  30   2.0000      -0.449480       -12.2310
  31   2.0000      -0.438316       -11.9272
  32   2.0000      -0.400347       -10.8940
  33   0.0000       0.110166         2.9978
  34   0.0000       0.138103         3.7580
  35   0.0000       0.147536         4.0147
  36   0.0000       0.158245         4.3061
  37   0.0000       0.167815         4.5665

MULLIKEN ATOMIC CHARGES
-----------------------
   0 N :   -0.328225
   1 C :    0.059194
   2 O :   -0.207084
   3 C :   -0.004302
   4 C :   -0.069793
   5 C :   -0.144907
   6 N :   -0.191177
   7 C :    0.178201
   8 O :   -0.224583
   9 H :    0.231432
  10 H :    0.100767
  11 H :    0.130153
  12 H :    0.156451
  13 H :    0.153062
  14 H :    0.160812
Sum of atomic charges:    0.0000000

LOEWDIN ATOMIC CHARGES
----------------------
   0 N :   -0.068723
   1 C :   -0.383142
   2 O :    0.264882
   3 C :   -0.267061
   4 C :   -0.172799
   5 C :   -0.203004
   6 N :    0.150593
   7 C :   -0.372748
   8 O :    0.187052
   9 H :    0.171822
  10 H :    0.114136
  11 H :    0.154366
  12 H :    0.141989
  13 H :    0.141798
  14 H :    0.140841

  Mayer bond orders larger than 0.1
B(  0-N ,  1-C ) :   1.9673 B(  0-N ,  9-H ) :   0.8488 B(  1-C ,  2-O ) :   1.0136
B(  1-C , 10-H ) :   0.9257 B(  2-O ,  3-C ) :   0.9229 B(  3-C ,  4-C ) :   0.9443
B(  3-C ,  7-C ) :   0.8702 B(  3-C , 11-H ) :   0.9072 B(  4-C ,  5-C ) :   0.9755
B(  4-C ,  6-N ) :   0.8413 B(  4-C , 12-H ) :   0.9022 B(  5-C ,  6-N ) :   0.8335
B(  5-C , 13-H ) :   0.9237 B(  5-C , 14-H ) :   0.9004 B(  6-N ,  7-C ) :   0.9868
B(  7-C ,  8-O ) :   2.0719

MP2 TOTAL ENERGY:     -453.164372488 Eh
FINAL SINGLE POINT ENERGY      -453.164372488150

DIPOLE MOMENT
-------------
                                X             Y             Z
Electronic contribution:      0.54419      -1.06091      -2.07544
Nuclear contribution   :     -0.22140       0.58185       2.87504
                        -----------------------------------------
Total Dipole Moment    :      0.32278      -0.47906       0.79960
                        -----------------------------------------
Magnitude (a.u.)       :      0.98643
Magnitude (Debye)      :      2.50731

                             ****ORCA TERMINATED NORMALLY****
TOTAL RUN TIME: 0 days 0 hours 14 minutes 1 seconds 263 msec
