                         Program Version 3.0.3 - RELEASE   -
|  1> ! RI-MP2 RIJK def2-TZVP def2-TZVP/C def2-TZVP/JK TIGHTSCF
|  2> % maxcore 2000
|  3> % mp2 density relaxed end
|  4> *xyz 0 1
|  5>  O        0.2823889566     1.3239584949    -0.0724702189
|  6>  C        0.2032250352    -0.0565424953     0.0989760604
|  7>  C        0.2244547382    -0.6526649078     1.5637513487
|  8>  C       -1.1660772493    -1.2261345362     1.2981386632
|  9>  N       -2.0177950302    -0.0560049612     0.9487728144
| 10>  C       -1.1862214149    -0.7011625794    -0.0944110509
| 11>  C       -1.7815612593    -1.2584473667    -1.3607871840
| 12>  C       -2.2583272297    -0.2180863523    -2.2784002518
| 13>  N       -2.6452909036     0.5983464891    -2.9979152079
| 14>  H       -0.4978619272     1.6914305945     0.3652341507
| 15>  H        0.9708187105    -0.5088346025    -0.5343882020
| 16>  H        0.9985637310    -1.4114119200     1.6966403599
| 17>  H        0.2810824890     0.0848330476     2.3673800803
| 18>  H       -1.6131996233    -2.1294618090     1.6948406566
| 19>  H       -2.9772063350    -0.3813297413     0.8340535513
| 20>  H       -1.0390270911    -1.8703708662    -1.8866993549
| 21>  H       -2.6235659469    -1.9212281383    -1.1246963952
| 22> *
| 23>
| 24>                          ****END OF INPUT****

CARTESIAN COORDINATES (ANGSTROEM)
---------------------------------
  O      0.282389    1.323958   -0.072470
  C      0.203225   -0.056542    0.098976
  C      0.224455   -0.652665    1.563751
  C     -1.166077   -1.226135    1.298139
  N     -2.017795   -0.056005    0.948773
  C     -1.186221   -0.701163   -0.094411
  C     -1.781561   -1.258447   -1.360787
  C     -2.258327   -0.218086   -2.278400
  N     -2.645291    0.598346   -2.997915
  H     -0.497862    1.691431    0.365234
  H      0.970819   -0.508835   -0.534388
  H      0.998564   -1.411412    1.696640
  H      0.281082    0.084833    2.367380
  H     -1.613200   -2.129462    1.694841
  H     -2.977206   -0.381330    0.834054
  H     -1.039027   -1.870371   -1.886699
  H     -2.623566   -1.921228   -1.124696

 Total Charge           Charge          ....    0
 Multiplicity           Mult            ....    1
 Number of Electrons    NEL             ....   66
 Basis Dimension        Dim             ....  327

ORBITAL ENERGIES
----------------

  NO   OCC          E(Eh)            E(eV)
   0   2.0000     -20.558154      -559.4158
   1   2.0000     -15.586537      -424.1312
   2   2.0000     -15.574259      -423.7971
   3   2.0000     -11.302961      -307.5692
   4   2.0000     -11.300499      -307.5022
   5   2.0000     -11.294244      -307.3320
   6   2.0000     -11.287746      -307.1552
   7   2.0000     -11.278407      -306.9011
   8   2.0000     -11.242288      -305.9182
   9   2.0000      -1.376928       -37.4681
  10   2.0000      -1.302505       -35.4430
  11   2.0000      -1.222755       -33.2728
  12   2.0000      -1.070502       -29.1298
  13   2.0000      -1.056744       -28.7555
  14   2.0000      -0.900789       -24.5117
  15   2.0000      -0.860170       -23.4064
  16   2.0000      -0.784263       -21.3409
  17   2.0000      -0.743106       -20.2209
  18   2.0000      -0.692535       -18.8448
  19   2.0000      -0.678160       -18.4537
  20   2.0000      -0.648988       -17.6599
  21   2.0000      -0.632937       -17.2231
  22   2.0000      -0.592464       -16.1218
  23   2.0000      -0.574311       -15.6278
  24   2.0000      -0.572591       -15.5810
  25   2.0000      -0.560441       -15.2504
  26   2.0000      -0.526539       -14.3279
  27   2.0000      -0.503146       -13.6913
  28   2.0000      -0.470712       -12.8087
  29   2.0000      -0.467170       -12.7124
  30   2.0000      -0.456719       -12.4280
  31   2.0000      -0.424239       -11.5441
  32   2.0000      -0.392337       -10.6760
  33   0.0000       0.106534         2.8989
  34   0.0000       0.143151         3.8953
  35   0.0000       0.149658         4.0724
  36   0.0000       0.160286         4.3616
  37   0.0000       0.172197         4.6857

MULLIKEN ATOMIC CHARGES
-----------------------
   0 O :   -0.453531
   1 C :    0.032201
   2 C :   -0.146216
   3 C :   -0.133436
   4 N :   -0.404122
   5 C :    0.091275
   6 C :   -0.158651
   7 C :   -0.153790
   8 N :   -0.054578
   9 H :    0.335546
  10 H :    0.109512
  11 H :    0.122331
  12 H :    0.116360
  13 H :    0.147909
  14 H :    0.221210
  15 H :    0.163171
  16 H :    0.164808
Sum of atomic charges:   -0.0000000

LOEWDIN ATOMIC CHARGES
----------------------
   0 O :    0.002723
   1 C :   -0.286773
   2 C :   -0.197796
   3 C :   -0.209638
   4 N :    0.022664
   5 C :   -0.251304
   6 C :   -0.217040
   7 C :   -0.182798
   8 N :    0.066448
   9 H :    0.186208
  10 H :    0.143979
  11 H :    0.136087
  12 H :    0.135207
  13 H :    0.132230
  14 H :    0.174958
  15 H :    0.173626
  16 H :    0.171219

  Mayer bond orders larger than 0.1
B(  0-O ,  1-C ) :   1.0081 B(  0-O ,  9-H ) :   0.8187 B(  1-C ,  2-C ) :   0.9431
B(  1-C ,  5-C ) :   0.9235 B(  1-C , 10-H ) :   0.9451 B(  2-C ,  3-C ) :   0.9530
B(  2-C , 11-H ) :   0.9233 B(  2-C , 12-H ) :   0.8937 B(  3-C ,  4-N ) :   0.9556
B(  3-C ,  5-C ) :   0.8358 B(  3-C , 13-H ) :   0.9067 B(  4-N ,  5-C ) :   0.8552
B(  4-N , 14-H ) :   0.8693 B(  5-C ,  6-C ) :   0.8947 B(  6-C ,  7-C ) :   0.9366
B(  6-C , 15-H ) :   0.8987 B(  6-C , 16-H ) :   0.9119 B(  7-C ,  8-N ) :   2.8542

MP2 TOTAL ENERGY:     -417.273493283 Eh
FINAL SINGLE POINT ENERGY      -417.273493283039

DIPOLE MOMENT
-------------
                                X             Y             Z
Electronic contribution:     -2.32014       2.48190      -4.25510
Nuclear contribution   :      2.31190      -4.37995       5.35501
                        -----------------------------------------
Total Dipole Moment    :     -0.00825      -1.89805       1.09991
                        -----------------------------------------
Magnitude (a.u.)       :      2.19374
Magnitude (Debye)      :      5.57604

                             ****ORCA TERMINATED NORMALLY****
TOTAL RUN TIME: 0 days 0 hours 15 minutes 11 seconds 491 msec
