                         Program Version 3.0.3 - RELEASE   -
|  1> ! RI-MP2 RIJK def2-TZVP def2-TZVP/C def2-TZVP/JK TIGHTSCF
|  2> % maxcore 2000
|  3> % mp2 density relaxed end
|  4> *xyz 0 1
|  5>  N       -0.1559260399     1.2663452477     0.0107165127
|  6>  C       -0.0249670947     0.0181218135     0.0022982644
|  7>  O       -1.1738297858    -0.7396014643     0.0079525670
|  8>  C       -1.0603325270    -2.0730144245    -0.0000701892
|  9>  N       -2.1414953874    -2.8403982125     0.0041102107
| 10>  N       -1.5682577792    -4.0408308799    -0.0068644109
| 11>  N       -0.2508072806    -4.0377669015    -0.0166169745
| 12>  N        0.0993923828    -2.7730709972    -0.0124447521
| 13>  H        0.7602535968     1.7109002847     0.0052368006
| 14>  H        0.8860152035    -0.5808061259    -0.0091218590
| 15>  H       -2.1043034585    -4.8959512001    -0.0074505497
| 16> *
| 17>
| 18>                          ****END OF INPUT****

CARTESIAN COORDINATES (ANGSTROEM)
---------------------------------
  N     -0.155926    1.266345    0.010717
  C     -0.024967    0.018122    0.002298
  O     -1.173830   -0.739601    0.007953
  C     -1.060333   -2.073014   -0.000070
  N     -2.141495   -2.840398    0.004110
  N     -1.568258   -4.040831   -0.006864
  N     -0.250807   -4.037767   -0.016617
  N      0.099392   -2.773071   -0.012445
  H      0.760254    1.710900    0.005237
  H      0.886015   -0.580806   -0.009122
  H     -2.104303   -4.895951   -0.007451

 Total Charge           Charge          ....    0
 Multiplicity           Mult            ....    1
 Number of Electrons    NEL             ....   58
 Basis Dimension        Dim             ....  266

ORBITAL ENERGIES
----------------

  NO   OCC          E(Eh)            E(eV)
   0   2.0000     -20.640334      -561.6520
   1   2.0000     -15.722066      -427.8192
   2   2.0000     -15.696568      -427.1253
   3   2.0000     -15.635539      -425.4646
   4   2.0000     -15.627615      -425.2490
   5   2.0000     -15.564196      -423.5233
   6   2.0000     -11.384399      -309.7853
   7   2.0000     -11.359040      -309.0952
   8   2.0000      -1.531641       -41.6781
   9   2.0000      -1.477187       -40.1963
  10   2.0000      -1.283012       -34.9125
  11   2.0000      -1.234194       -33.5841
  12   2.0000      -1.184981       -32.2450
  13   2.0000      -0.955735       -26.0069
  14   2.0000      -0.924116       -25.1465
  15   2.0000      -0.847857       -23.0714
  16   2.0000      -0.785997       -21.3881
  17   2.0000      -0.749617       -20.3981
  18   2.0000      -0.719429       -19.5766
  19   2.0000      -0.672203       -18.2916
  20   2.0000      -0.645107       -17.5542
  21   2.0000      -0.628793       -17.1103
  22   2.0000      -0.586203       -15.9514
  23   2.0000      -0.517957       -14.0943
  24   2.0000      -0.498989       -13.5782
  25   2.0000      -0.468666       -12.7530
  26   2.0000      -0.463220       -12.6049
  27   2.0000      -0.457108       -12.4385
  28   2.0000      -0.390837       -10.6352
  29   0.0000       0.098477         2.6797
  30   0.0000       0.118460         3.2235
  31   0.0000       0.145635         3.9629
  32   0.0000       0.147235         4.0065
  33   0.0000       0.187973         5.1150

MULLIKEN ATOMIC CHARGES
-----------------------
   0 N :   -0.313527
   1 C :    0.037749
   2 O :   -0.188985
   3 C :    0.271875
   4 N :   -0.195610
   5 N :    0.034519
   6 N :   -0.120884
   7 N :   -0.199560
   8 H :    0.237705
   9 H :    0.151290
  10 H :    0.285428
Sum of atomic charges:   -0.0000000

LOEWDIN ATOMIC CHARGES
----------------------
   0 N :   -0.048564
   1 C :   -0.348035
   2 O :    0.324136
   3 C :   -0.490122
   4 N :    0.050515
   5 N :    0.067418
   6 N :   -0.049469
   7 N :   -0.002864
   8 H :    0.176090
   9 H :    0.124546
  10 H :    0.196349

  Mayer bond orders larger than 0.1
B(  0-N ,  1-C ) :   1.9817 B(  0-N ,  8-H ) :   0.8468 B(  1-C ,  2-O ) :   0.9419
B(  1-C ,  9-H ) :   0.9255 B(  2-O ,  3-C ) :   1.0799 B(  3-C ,  4-N ) :   1.4888
B(  3-C ,  7-N ) :   1.3355 B(  4-N ,  5-N ) :   1.1023 B(  4-N ,  6-N ) :   0.1269
B(  5-N ,  6-N ) :   1.1498 B(  5-N , 10-H ) :   0.8601 B(  6-N ,  7-N ) :   1.2392

MP2 TOTAL ENERGY:     -426.193678841 Eh
FINAL SINGLE POINT ENERGY      -426.193678841062

DIPOLE MOMENT
-------------
                                X             Y             Z
Electronic contribution:     -1.58561      -2.72641      -0.00114
Nuclear contribution   :      1.76780       1.80312      -0.00677
                        -----------------------------------------
Total Dipole Moment    :      0.18219      -0.92330      -0.00791
                        -----------------------------------------
Magnitude (a.u.)       :      0.94113
Magnitude (Debye)      :      2.39217

                             ****ORCA TERMINATED NORMALLY****
TOTAL RUN TIME: 0 days 0 hours 8 minutes 22 seconds 930 msec
