                         Program Version 3.0.3 - RELEASE   -
|  1> ! RI-MP2 RIJK def2-TZVP def2-TZVP/C def2-TZVP/JK TIGHTSCF
|  2> % maxcore 2000
|  3> % mp2 density relaxed end
|  4> *xyz 0 1
|  5>  C       -0.2545327462     1.5827772138     0.1909904187
|  6>  C        0.0352371194     0.1126125498    -0.0151240019
|  7>  C       -1.1580480093    -0.8825297088    -0.0181450154
|  8>  C       -0.4273985281    -1.7764114312     1.0314752021
|  9>  O       -0.0456256836    -3.0737611204     0.6374471020
| 10>  C        0.7736896153    -0.7925315350     1.0660320958
| 11>  C        1.8426041228    -1.0944703277     0.0111365688
| 12>  O        2.8967607254    -1.6572343383     0.0469183296
| 13>  C        1.1271113076    -0.2596373596    -1.0663389569
| 14>  H        0.6675552595     2.1544242000     0.3450863576
| 15>  H       -0.7653069986     2.0071259988    -0.6818384027
| 16>  H       -0.8987861089     1.7454049387     1.0619950640
| 17>  H       -2.0907770270    -0.4522390708     0.3574060738
| 18>  H       -1.3567741913    -1.3748249496    -0.9744123457
| 19>  H       -0.9546820937    -1.7936959557     1.9944563874
| 20>  H       -0.8330815339    -3.6268765188     0.6074972896
| 21>  H        1.1221044592    -0.4637451388     2.0463198503
| 22>  H        0.7975713989    -0.8060812431    -1.9547801188
| 23>  H        1.7417993425     0.5878848466    -1.3902997383
| 24> *
| 25>
| 26>                          ****END OF INPUT****

CARTESIAN COORDINATES (ANGSTROEM)
---------------------------------
  C     -0.254533    1.582777    0.190990
  C      0.035237    0.112613   -0.015124
  C     -1.158048   -0.882530   -0.018145
  C     -0.427399   -1.776411    1.031475
  O     -0.045626   -3.073761    0.637447
  C      0.773690   -0.792532    1.066032
  C      1.842604   -1.094470    0.011137
  O      2.896761   -1.657234    0.046918
  C      1.127111   -0.259637   -1.066339
  H      0.667555    2.154424    0.345086
  H     -0.765307    2.007126   -0.681838
  H     -0.898786    1.745405    1.061995
  H     -2.090777   -0.452239    0.357406
  H     -1.356774   -1.374825   -0.974412
  H     -0.954682   -1.793696    1.994456
  H     -0.833082   -3.626877    0.607497
  H      1.122104   -0.463745    2.046320
  H      0.797571   -0.806081   -1.954780
  H      1.741799    0.587885   -1.390300

 Total Charge           Charge          ....    0
 Multiplicity           Mult            ....    1
 Number of Electrons    NEL             ....   68
 Basis Dimension        Dim             ....  339

ORBITAL ENERGIES
----------------

  NO   OCC          E(Eh)            E(eV)
   0   2.0000     -20.567079      -559.6587
   1   2.0000     -20.542257      -558.9832
   2   2.0000     -11.324342      -308.1510
   3   2.0000     -11.299092      -307.4639
   4   2.0000     -11.253998      -306.2369
   5   2.0000     -11.237016      -305.7747
   6   2.0000     -11.235082      -305.7221
   7   2.0000     -11.233286      -305.6733
   8   2.0000     -11.228830      -305.5520
   9   2.0000      -1.386728       -37.7348
  10   2.0000      -1.374682       -37.4070
  11   2.0000      -1.175349       -31.9829
  12   2.0000      -1.013080       -27.5673
  13   2.0000      -0.991702       -26.9856
  14   2.0000      -0.923745       -25.1364
  15   2.0000      -0.835674       -22.7398
  16   2.0000      -0.765089       -20.8191
  17   2.0000      -0.724360       -19.7108
  18   2.0000      -0.693029       -18.8583
  19   2.0000      -0.662926       -18.0391
  20   2.0000      -0.652024       -17.7425
  21   2.0000      -0.623002       -16.9527
  22   2.0000      -0.613709       -16.6999
  23   2.0000      -0.587786       -15.9945
  24   2.0000      -0.578749       -15.7486
  25   2.0000      -0.569090       -15.4857
  26   2.0000      -0.542377       -14.7588
  27   2.0000      -0.514537       -14.0013
  28   2.0000      -0.509098       -13.8533
  29   2.0000      -0.475293       -12.9334
  30   2.0000      -0.450378       -12.2554
  31   2.0000      -0.441786       -12.0216
  32   2.0000      -0.410934       -11.1821
  33   2.0000      -0.387850       -10.5539
  34   0.0000       0.115861         3.1527
  35   0.0000       0.128802         3.5049
  36   0.0000       0.145815         3.9678
  37   0.0000       0.171171         4.6578
  38   0.0000       0.176789         4.8107

MULLIKEN ATOMIC CHARGES
-----------------------
   0 C :   -0.411745
   1 C :    0.164089
   2 C :   -0.278705
   3 C :   -0.008006
   4 O :   -0.437749
   5 C :   -0.048268
   6 C :    0.094567
   7 O :   -0.245330
   8 C :   -0.267002
   9 H :    0.133806
  10 H :    0.136866
  11 H :    0.129869
  12 H :    0.121445
  13 H :    0.109099
  14 H :    0.089697
  15 H :    0.315710
  16 H :    0.138152
  17 H :    0.130224
  18 H :    0.133284
Sum of atomic charges:   -0.0000000

LOEWDIN ATOMIC CHARGES
----------------------
   0 C :   -0.278591
   1 C :   -0.223829
   2 C :   -0.187632
   3 C :   -0.302460
   4 O :   -0.005014
   5 C :   -0.112859
   6 C :   -0.291426
   7 O :    0.171891
   8 C :   -0.166627
   9 H :    0.128546
  10 H :    0.129994
  11 H :    0.126926
  12 H :    0.134462
  13 H :    0.132909
  14 H :    0.130432
  15 H :    0.177786
  16 H :    0.144072
  17 H :    0.142372
  18 H :    0.149049

  Mayer bond orders larger than 0.1
B(  0-C ,  1-C ) :   0.8819 B(  0-C ,  9-H ) :   0.9356 B(  0-C , 10-H ) :   0.9366
B(  0-C , 11-H ) :   0.9395 B(  1-C ,  2-C ) :   0.9370 B(  1-C ,  5-C ) :   0.8838
B(  1-C ,  8-C ) :   0.9216 B(  2-C ,  3-C ) :   0.9257 B(  2-C , 12-H ) :   0.9115
B(  2-C , 13-H ) :   0.8969 B(  3-C ,  4-O ) :   1.1379 B(  3-C ,  5-C ) :   0.8420
B(  3-C , 14-H ) :   0.9472 B(  4-O , 15-H ) :   0.8414 B(  5-C ,  6-C ) :   0.8444
B(  5-C ,  8-C ) :  -0.1070 B(  5-C , 16-H ) :   0.8949 B(  6-C ,  7-O ) :   2.0466
B(  6-C ,  8-C ) :   0.9259 B(  8-C , 17-H ) :   0.8878 B(  8-C , 18-H ) :   0.8944

MP2 TOTAL ENERGY:     -422.308865153 Eh
FINAL SINGLE POINT ENERGY      -422.308865153086

DIPOLE MOMENT
-------------
                                X             Y             Z
Electronic contribution:      5.71410      -5.98356       0.75143
Nuclear contribution   :     -7.31610       6.61807      -0.66394
                        -----------------------------------------
Total Dipole Moment    :     -1.60199       0.63451       0.08749
                        -----------------------------------------
Magnitude (a.u.)       :      1.72529
Magnitude (Debye)      :      4.38535

                             ****ORCA TERMINATED NORMALLY****
TOTAL RUN TIME: 0 days 0 hours 18 minutes 31 seconds 262 msec
