                         Program Version 3.0.3 - RELEASE   -
|  1> ! RI-MP2 RIJK def2-TZVP def2-TZVP/C def2-TZVP/JK TIGHTSCF
|  2> % maxcore 2000
|  3> % mp2 density relaxed end
|  4> *xyz 0 1
|  5>  O       -0.2199328137     1.3242217963    -0.1454591924
|  6>  C       -0.0248348908    -0.0491540207     0.0317507062
|  7>  C       -0.4777159262    -0.6971166703     1.3273395736
|  8>  C       -1.2857661696    -0.8818007552     0.0527368940
|  9>  O       -2.5242896267    -0.2661156332    -0.0708649005
| 10>  C       -1.0582831192    -2.1481976643    -0.7403850346
| 11>  C        0.4518676940    -2.1663648543    -1.0312190217
| 12>  O        1.0817048157    -3.1232127303    -1.3945074781
| 13>  C        1.0345501639    -0.7620085991    -0.7807847129
| 14>  H        0.3103778472     1.8038197866     0.4993228639
| 15>  H        0.0967478725    -1.5200724687     1.7440583002
| 16>  H       -0.9277191833    -0.0342476145     2.0586811024
| 17>  H       -2.3496826864     0.6802661710    -0.1701117520
| 18>  H       -1.3649557033    -3.0742788529    -0.2466296261
| 19>  H       -1.5985648290    -2.0862539310    -1.6935835057
| 20>  H        1.1574977416    -0.2594041510    -1.7487582117
| 21>  H        2.0228438835    -0.8374296587    -0.3169420846
| 22> *
| 23>
| 24>                          ****END OF INPUT****

CARTESIAN COORDINATES (ANGSTROEM)
---------------------------------
  O     -0.219933    1.324222   -0.145459
  C     -0.024835   -0.049154    0.031751
  C     -0.477716   -0.697117    1.327340
  C     -1.285766   -0.881801    0.052737
  O     -2.524290   -0.266116   -0.070865
  C     -1.058283   -2.148198   -0.740385
  C      0.451868   -2.166365   -1.031219
  O      1.081705   -3.123213   -1.394507
  C      1.034550   -0.762009   -0.780785
  H      0.310378    1.803820    0.499323
  H      0.096748   -1.520072    1.744058
  H     -0.927719   -0.034248    2.058681
  H     -2.349683    0.680266   -0.170112
  H     -1.364956   -3.074279   -0.246630
  H     -1.598565   -2.086254   -1.693584
  H      1.157498   -0.259404   -1.748758
  H      2.022844   -0.837430   -0.316942

 Total Charge           Charge          ....    0
 Multiplicity           Mult            ....    1
 Number of Electrons    NEL             ....   68
 Basis Dimension        Dim             ....  327

ORBITAL ENERGIES
----------------

  NO   OCC          E(Eh)            E(eV)
   0   2.0000     -20.594610      -560.4078
   1   2.0000     -20.570912      -559.7630
   2   2.0000     -20.553777      -559.2967
   3   2.0000     -11.340345      -308.5865
   4   2.0000     -11.307152      -307.6833
   5   2.0000     -11.302739      -307.5632
   6   2.0000     -11.249288      -306.1087
   7   2.0000     -11.243951      -305.9635
   8   2.0000     -11.243894      -305.9619
   9   2.0000      -1.412954       -38.4484
  10   2.0000      -1.398339       -38.0507
  11   2.0000      -1.376938       -37.4684
  12   2.0000      -1.172708       -31.9110
  13   2.0000      -1.025327       -27.9006
  14   2.0000      -0.996281       -27.1102
  15   2.0000      -0.844542       -22.9812
  16   2.0000      -0.798600       -21.7310
  17   2.0000      -0.761057       -20.7094
  18   2.0000      -0.723371       -19.6839
  19   2.0000      -0.684363       -18.6225
  20   2.0000      -0.671946       -18.2846
  21   2.0000      -0.645888       -17.5755
  22   2.0000      -0.632420       -17.2090
  23   2.0000      -0.616882       -16.7862
  24   2.0000      -0.598420       -16.2838
  25   2.0000      -0.580961       -15.8088
  26   2.0000      -0.569178       -15.4881
  27   2.0000      -0.553389       -15.0585
  28   2.0000      -0.541903       -14.7459
  29   2.0000      -0.506275       -13.7764
  30   2.0000      -0.497566       -13.5395
  31   2.0000      -0.424417       -11.5490
  32   2.0000      -0.407685       -11.0937
  33   2.0000      -0.390041       -10.6135
  34   0.0000       0.115928         3.1546
  35   0.0000       0.127897         3.4803
  36   0.0000       0.148955         4.0533
  37   0.0000       0.173867         4.7312
  38   0.0000       0.180880         4.9220

MULLIKEN ATOMIC CHARGES
-----------------------
   0 O :   -0.475836
   1 C :    0.102027
   2 C :   -0.320194
   3 C :    0.161111
   4 O :   -0.453890
   5 C :   -0.164347
   6 C :    0.090848
   7 O :   -0.251007
   8 C :   -0.207019
   9 H :    0.339440
  10 H :    0.138696
  11 H :    0.138468
  12 H :    0.339776
  13 H :    0.142859
  14 H :    0.141029
  15 H :    0.145056
  16 H :    0.132984
Sum of atomic charges:    0.0000000

LOEWDIN ATOMIC CHARGES
----------------------
   0 O :    0.023067
   1 C :   -0.342183
   2 C :   -0.176103
   3 C :   -0.330821
   4 O :    0.033514
   5 C :   -0.176711
   6 C :   -0.295642
   7 O :    0.161081
   8 C :   -0.187256
   9 H :    0.187638
  10 H :    0.139862
  11 H :    0.144237
  12 H :    0.189805
  13 H :    0.152816
  14 H :    0.164421
  15 H :    0.163111
  16 H :    0.149165

  Mayer bond orders larger than 0.1
B(  0-O ,  1-C ) :   1.0137 B(  0-O ,  9-H ) :   0.8324 B(  1-C ,  2-C ) :   0.8974
B(  1-C ,  3-C ) :   0.7998 B(  1-C ,  8-C ) :   0.9061 B(  2-C ,  3-C ) :   0.8547
B(  2-C , 10-H ) :   0.8923 B(  2-C , 11-H ) :   0.9193 B(  3-C ,  4-O ) :   1.1447
B(  3-C ,  5-C ) :   0.8773 B(  4-O , 12-H ) :   0.8156 B(  5-C ,  6-C ) :   0.8958
B(  5-C ,  8-C ) :  -0.1191 B(  5-C , 13-H ) :   0.9074 B(  5-C , 14-H ) :   0.8969
B(  6-C ,  7-O ) :   2.0787 B(  6-C ,  8-C ) :   0.9045 B(  8-C , 15-H ) :   0.8984
B(  8-C , 16-H ) :   0.8948

MP2 TOTAL ENERGY:     -458.240761682 Eh
FINAL SINGLE POINT ENERGY      -458.240761681703

DIPOLE MOMENT
-------------
                                X             Y             Z
Electronic contribution:      0.14096      -0.91390      -1.74323
Nuclear contribution   :      0.17356       1.97963       2.41273
                        -----------------------------------------
Total Dipole Moment    :      0.31452       1.06573       0.66950
                        -----------------------------------------
Magnitude (a.u.)       :      1.29728
Magnitude (Debye)      :      3.29742

                             ****ORCA TERMINATED NORMALLY****
TOTAL RUN TIME: 0 days 0 hours 22 minutes 57 seconds 521 msec
