                         Program Version 3.0.3 - RELEASE   -
|  1> ! RI-MP2 RIJK def2-TZVP def2-TZVP/C def2-TZVP/JK TIGHTSCF
|  2> % maxcore 2000
|  3> % mp2 density relaxed end
|  4> *xyz 0 1
|  5>  O       -0.0516119956     1.4381203948    -0.1683705431
|  6>  C       -0.0223686483     0.0365802651    -0.0830376718
|  7>  C        0.3534823024    -0.5252701296     1.3204387864
|  8>  C       -1.1626755834    -0.6411367527     1.6194872344
|  9>  C       -1.4213080252    -0.6346701507     0.0818890611
| 10>  N       -1.7538193355    -1.5858955766     2.5918364055
| 11>  C       -2.5725973133    -0.5290575299     3.2503312548
| 12>  C       -1.8310637354     0.4959828947     2.3844738756
| 13>  O       -1.7790340071     1.6925473205     2.3042409285
| 14>  H       -0.5467457986     1.7915949483     0.5870303665
| 15>  H        0.5803380931    -0.3084024796    -0.9248947198
| 16>  H        0.8080738196    -1.5182602682     1.2634804630
| 17>  H        0.9536073631     0.1191803912     1.9673245110
| 18>  H       -2.2859418548    -0.0853269736    -0.2989950989
| 19>  H       -1.4301191768    -1.6577401933    -0.3080898917
| 20>  H       -2.2975527358    -2.3291145128     2.1685092792
| 21>  H       -3.6509668928    -0.5507530159     3.0440963449
| 22>  H       -2.4235984255    -0.4462141614     4.3321199542
| 23> *
| 24>
| 25>                          ****END OF INPUT****

CARTESIAN COORDINATES (ANGSTROEM)
---------------------------------
  O     -0.051612    1.438120   -0.168371
  C     -0.022369    0.036580   -0.083038
  C      0.353482   -0.525270    1.320439
  C     -1.162676   -0.641137    1.619487
  C     -1.421308   -0.634670    0.081889
  N     -1.753819   -1.585896    2.591836
  C     -2.572597   -0.529058    3.250331
  C     -1.831064    0.495983    2.384474
  O     -1.779034    1.692547    2.304241
  H     -0.546746    1.791595    0.587030
  H      0.580338   -0.308402   -0.924895
  H      0.808074   -1.518260    1.263480
  H      0.953607    0.119180    1.967325
  H     -2.285942   -0.085327   -0.298995
  H     -1.430119   -1.657740   -0.308090
  H     -2.297553   -2.329115    2.168509
  H     -3.650967   -0.550753    3.044096
  H     -2.423598   -0.446214    4.332120

 Total Charge           Charge          ....    0
 Multiplicity           Mult            ....    1
 Number of Electrons    NEL             ....   68
 Basis Dimension        Dim             ....  333

ORBITAL ENERGIES
----------------

  NO   OCC          E(Eh)            E(eV)
   0   2.0000     -20.575535      -559.8888
   1   2.0000     -20.546827      -559.1076
   2   2.0000     -15.569022      -423.6546
   3   2.0000     -11.349012      -308.8223
   4   2.0000     -11.288513      -307.1761
   5   2.0000     -11.284848      -307.0763
   6   2.0000     -11.282019      -306.9993
   7   2.0000     -11.242538      -305.9250
   8   2.0000     -11.234613      -305.7094
   9   2.0000      -1.418723       -38.6054
  10   2.0000      -1.358964       -36.9793
  11   2.0000      -1.261691       -34.3324
  12   2.0000      -1.115884       -30.3648
  13   2.0000      -0.958963       -26.0947
  14   2.0000      -0.923378       -25.1264
  15   2.0000      -0.911879       -24.8135
  16   2.0000      -0.815767       -22.1981
  17   2.0000      -0.714741       -19.4491
  18   2.0000      -0.708846       -19.2887
  19   2.0000      -0.677677       -18.4405
  20   2.0000      -0.664857       -18.0917
  21   2.0000      -0.655707       -17.8427
  22   2.0000      -0.628431       -17.1005
  23   2.0000      -0.590226       -16.0609
  24   2.0000      -0.572229       -15.5711
  25   2.0000      -0.566996       -15.4288
  26   2.0000      -0.558484       -15.1971
  27   2.0000      -0.533525       -14.5179
  28   2.0000      -0.526821       -14.3355
  29   2.0000      -0.498508       -13.5651
  30   2.0000      -0.459570       -12.5055
  31   2.0000      -0.420381       -11.4392
  32   2.0000      -0.408702       -11.1214
  33   2.0000      -0.394713       -10.7407
  34   0.0000       0.112514         3.0616
  35   0.0000       0.128056         3.4846
  36   0.0000       0.144624         3.9354
  37   0.0000       0.160418         4.3652
  38   0.0000       0.181184         4.9303

MULLIKEN ATOMIC CHARGES
-----------------------
   0 O :   -0.461259
   1 C :    0.038803
   2 C :   -0.211643
   3 C :    0.035682
   4 C :   -0.240540
   5 N :   -0.318616
   6 C :   -0.140963
   7 C :    0.145887
   8 O :   -0.292783
   9 H :    0.328535
  10 H :    0.114422
  11 H :    0.123622
  12 H :    0.133035
  13 H :    0.133865
  14 H :    0.122881
  15 H :    0.214944
  16 H :    0.136882
  17 H :    0.137247
Sum of atomic charges:    0.0000000

LOEWDIN ATOMIC CHARGES
----------------------
   0 O :   -0.007862
   1 C :   -0.319542
   2 C :   -0.180570
   3 C :   -0.269405
   4 C :   -0.185704
   5 N :    0.019483
   6 C :   -0.232372
   7 C :   -0.278165
   8 O :    0.159083
   9 H :    0.174343
  10 H :    0.132338
  11 H :    0.144981
  12 H :    0.135418
  13 H :    0.134169
  14 H :    0.142212
  15 H :    0.161657
  16 H :    0.134866
  17 H :    0.135070

  Mayer bond orders larger than 0.1
B(  0-O ,  1-C ) :   0.9867 B(  0-O ,  9-H ) :   0.8083 B(  1-C ,  2-C ) :   0.9080
B(  1-C ,  4-C ) :   0.9076 B(  1-C , 10-H ) :   0.9483 B(  2-C ,  3-C ) :   0.8530
B(  2-C , 11-H ) :   0.9115 B(  2-C , 12-H ) :   0.9215 B(  3-C ,  4-C ) :   0.8961
B(  3-C ,  5-N ) :   1.0153 B(  3-C ,  7-C ) :   0.8504 B(  4-C , 13-H ) :   0.9176
B(  4-C , 14-H ) :   0.9064 B(  5-N ,  6-C ) :   0.9720 B(  5-N , 15-H ) :   0.8744
B(  6-C ,  7-C ) :   0.9467 B(  6-C , 16-H ) :   0.9044 B(  6-C , 17-H ) :   0.9014
B(  7-C ,  8-O ) :   1.9317

MP2 TOTAL ENERGY:     -438.341818648 Eh
FINAL SINGLE POINT ENERGY      -438.341818647952

DIPOLE MOMENT
-------------
                                X             Y             Z
Electronic contribution:     -0.60375       3.51878       1.41706
Nuclear contribution   :     -0.07842      -4.72319      -1.21712
                        -----------------------------------------
Total Dipole Moment    :     -0.68217      -1.20441       0.19995
                        -----------------------------------------
Magnitude (a.u.)       :      1.39855
Magnitude (Debye)      :      3.55483

                             ****ORCA TERMINATED NORMALLY****
TOTAL RUN TIME: 0 days 0 hours 17 minutes 14 seconds 278 msec
