                         Program Version 3.0.3 - RELEASE   -
|  1> ! RI-MP2 RIJK def2-TZVP def2-TZVP/C def2-TZVP/JK TIGHTSCF
|  2> % maxcore 2000
|  3> % mp2 density relaxed end
|  4> *xyz 0 1
|  5>  C        0.0261599862     1.5137479334     0.1182279076
|  6>  C       -0.0046554547    -0.0168010139     0.1394945475
|  7>  O        0.4873728201    -0.5268752960     1.3707917396
|  8>  C       -1.4107988255    -0.5556588321    -0.1201581995
|  9>  C       -1.6347647044    -2.0783999877    -0.0518492639
| 10>  C       -2.6533699055    -1.7454726937     1.0595197070
| 11>  C       -2.4857762609    -2.3866933480     2.4207113366
| 12>  O       -2.2545937223    -0.3446964749     1.0452832503
| 13>  H        1.0249355052     1.8720055330     0.3797139652
| 14>  H       -0.2369613264     1.9018312418    -0.8716461164
| 15>  H       -0.6888994378     1.9184790997     0.8426207315
| 16>  H        0.6624344106    -0.4115526144    -0.6378201341
| 17>  H       -0.2047682197    -0.3297206351     2.0162960345
| 18>  H       -1.8451231609    -0.0787105233    -1.0094998252
| 19>  H       -2.0273479533    -2.5556944642    -0.9503758052
| 20>  H       -0.7599354493    -2.6209005801     0.3113414485
| 21>  H       -3.6960098544    -1.8312472077     0.7237084654
| 22>  H       -1.4405062033    -2.3434384982     2.7415317115
| 23>  H       -3.1036530611    -1.8756879738     3.1661288733
| 24>  H       -2.7936242926    -3.4375004048     2.3856024760
| 25> *
| 26>
| 27>                          ****END OF INPUT****

CARTESIAN COORDINATES (ANGSTROEM)
---------------------------------
  C      0.026160    1.513748    0.118228
  C     -0.004655   -0.016801    0.139495
  O      0.487373   -0.526875    1.370792
  C     -1.410799   -0.555659   -0.120158
  C     -1.634765   -2.078400   -0.051849
  C     -2.653370   -1.745473    1.059520
  C     -2.485776   -2.386693    2.420711
  O     -2.254594   -0.344696    1.045283
  H      1.024936    1.872006    0.379714
  H     -0.236961    1.901831   -0.871646
  H     -0.688899    1.918479    0.842621
  H      0.662434   -0.411553   -0.637820
  H     -0.204768   -0.329721    2.016296
  H     -1.845123   -0.078711   -1.009500
  H     -2.027348   -2.555694   -0.950376
  H     -0.759935   -2.620901    0.311341
  H     -3.696010   -1.831247    0.723708
  H     -1.440506   -2.343438    2.741532
  H     -3.103653   -1.875688    3.166129
  H     -2.793624   -3.437500    2.385602

 Total Charge           Charge          ....    0
 Multiplicity           Mult            ....    1
 Number of Electrons    NEL             ....   64
 Basis Dimension        Dim             ....  320

ORBITAL ENERGIES
----------------

  NO   OCC          E(Eh)            E(eV)
   0   2.0000     -20.550161      -559.1983
   1   2.0000     -20.547106      -559.1152
   2   2.0000     -11.286182      -307.1126
   3   2.0000     -11.282648      -307.0165
   4   2.0000     -11.277935      -306.8882
   5   2.0000     -11.226826      -305.4975
   6   2.0000     -11.219738      -305.3046
   7   2.0000     -11.212759      -305.1147
   8   2.0000      -1.385982       -37.7145
   9   2.0000      -1.349235       -36.7146
  10   2.0000      -1.038343       -28.2547
  11   2.0000      -1.033980       -28.1360
  12   2.0000      -0.978168       -26.6173
  13   2.0000      -0.888462       -24.1763
  14   2.0000      -0.813254       -22.1298
  15   2.0000      -0.757587       -20.6150
  16   2.0000      -0.694112       -18.8877
  17   2.0000      -0.677665       -18.4402
  18   2.0000      -0.646126       -17.5820
  19   2.0000      -0.610632       -16.6162
  20   2.0000      -0.601454       -16.3664
  21   2.0000      -0.585563       -15.9340
  22   2.0000      -0.557878       -15.1806
  23   2.0000      -0.544525       -14.8173
  24   2.0000      -0.539052       -14.6684
  25   2.0000      -0.528033       -14.3685
  26   2.0000      -0.520645       -14.1675
  27   2.0000      -0.481663       -13.1067
  28   2.0000      -0.471470       -12.8294
  29   2.0000      -0.454297       -12.3620
  30   2.0000      -0.431486       -11.7413
  31   2.0000      -0.412541       -11.2258
  32   0.0000       0.142056         3.8656
  33   0.0000       0.148652         4.0450
  34   0.0000       0.163173         4.4402
  35   0.0000       0.174048         4.7361
  36   0.0000       0.198327         5.3968

MULLIKEN ATOMIC CHARGES
-----------------------
   0 C :   -0.397694
   1 C :    0.103112
   2 O :   -0.480401
   3 C :    0.024786
   4 C :   -0.216050
   5 C :    0.086009
   6 C :   -0.407078
   7 O :   -0.364290
   8 H :    0.143253
   9 H :    0.118704
  10 H :    0.137809
  11 H :    0.095488
  12 H :    0.322065
  13 H :    0.088197
  14 H :    0.131806
  15 H :    0.126205
  16 H :    0.087753
  17 H :    0.129508
  18 H :    0.139593
  19 H :    0.131223
Sum of atomic charges:   -0.0000000

LOEWDIN ATOMIC CHARGES
----------------------
   0 C :   -0.300469
   1 C :   -0.364574
   2 O :   -0.018484
   3 C :   -0.270617
   4 C :   -0.205892
   5 C :   -0.303060
   6 C :   -0.301074
   7 O :    0.138449
   8 H :    0.126061
   9 H :    0.123808
  10 H :    0.127457
  11 H :    0.146773
  12 H :    0.175473
  13 H :    0.138418
  14 H :    0.128814
  15 H :    0.142355
  16 H :    0.134104
  17 H :    0.124427
  18 H :    0.128438
  19 H :    0.129593

  Mayer bond orders larger than 0.1
B(  0-C ,  1-C ) :   0.9384 B(  0-C ,  8-H ) :   0.9400 B(  0-C ,  9-H ) :   0.9297
B(  0-C , 10-H ) :   0.9263 B(  1-C ,  2-O ) :   0.9211 B(  1-C ,  3-C ) :   0.9259
B(  1-C , 11-H ) :   0.9199 B(  2-O , 12-H ) :   0.8239 B(  3-C ,  4-C ) :   0.9220
B(  3-C ,  7-O ) :   0.9387 B(  3-C , 13-H ) :   0.9109 B(  4-C ,  5-C ) :   0.9382
B(  4-C , 14-H ) :   0.9255 B(  4-C , 15-H ) :   0.9163 B(  5-C ,  6-C ) :   0.9330
B(  5-C ,  7-O ) :   0.8907 B(  5-C , 16-H ) :   0.9209 B(  6-C , 17-H ) :   0.9306
B(  6-C , 18-H ) :   0.9366 B(  6-C , 19-H ) :   0.9299

MP2 TOTAL ENERGY:     -385.503473908 Eh
FINAL SINGLE POINT ENERGY      -385.503473908259

DIPOLE MOMENT
-------------
                                X             Y             Z
Electronic contribution:      0.00764       0.40771      -0.20376
Nuclear contribution   :     -0.44631      -0.73542      -0.23847
                        -----------------------------------------
Total Dipole Moment    :     -0.43867      -0.32771      -0.44222
                        -----------------------------------------
Magnitude (a.u.)       :      0.70384
Magnitude (Debye)      :      1.78902

                             ****ORCA TERMINATED NORMALLY****
TOTAL RUN TIME: 0 days 0 hours 13 minutes 16 seconds 275 msec
