                         Program Version 3.0.3 - RELEASE   -
|  1> ! RI-MP2 RIJK def2-TZVP def2-TZVP/C def2-TZVP/JK TIGHTSCF
|  2> % maxcore 2000
|  3> % mp2 density relaxed end
|  4> *xyz 0 1
|  5>  C        0.4630763933     1.0435989735    -0.0007704626
|  6>  C        0.0666087097    -0.3991746098     0.3189090887
|  7>  C       -1.3906140054    -0.6924161842    -0.0989698400
|  8>  O       -1.5689310284    -0.4917474836    -1.4764618292
|  9>  C       -1.8143203723    -2.1078058027     0.2765564076
| 10>  O       -2.1217336651    -2.8949947685    -0.5967055637
| 11>  C       -1.7956183139    -2.5281805871     1.7482812943
| 12>  O       -0.5238262839    -3.0484981083     2.0892095421
| 13>  C       -0.2936395894    -4.3674022613     1.6199643607
| 14>  H        1.5125997391     1.2241640909     0.2500685279
| 15>  H        0.3203506052     1.2521814468    -1.0638003024
| 16>  H       -0.1448541177     1.7560097669     0.5684124696
| 17>  H        0.7163830376    -1.0965855144    -0.2226728507
| 18>  H        0.1972234312    -0.6095760402     1.3852168586
| 19>  H       -2.0514302389    -0.0055109764     0.4617647657
| 20>  H       -1.8293395704    -1.3577785689    -1.8292819129
| 21>  H       -1.9645518259    -1.6680438364     2.4032295272
| 22>  H       -2.5909345433    -3.2702129492     1.9078451394
| 23>  H       -1.0376272172    -5.0666020644     2.0290630997
| 24>  H       -0.3232547956    -4.4316337721     0.5256214755
| 25>  H        0.6998694514    -4.6521836707     1.9727988345
| 26> *
| 27>
| 28>                          ****END OF INPUT****

CARTESIAN COORDINATES (ANGSTROEM)
---------------------------------
  C      0.463076    1.043599   -0.000770
  C      0.066609   -0.399175    0.318909
  C     -1.390614   -0.692416   -0.098970
  O     -1.568931   -0.491747   -1.476462
  C     -1.814320   -2.107806    0.276556
  O     -2.121734   -2.894995   -0.596706
  C     -1.795618   -2.528181    1.748281
  O     -0.523826   -3.048498    2.089210
  C     -0.293640   -4.367402    1.619964
  H      1.512600    1.224164    0.250069
  H      0.320351    1.252181   -1.063800
  H     -0.144854    1.756010    0.568412
  H      0.716383   -1.096586   -0.222673
  H      0.197223   -0.609576    1.385217
  H     -2.051430   -0.005511    0.461765
  H     -1.829340   -1.357779   -1.829282
  H     -1.964552   -1.668044    2.403230
  H     -2.590935   -3.270213    1.907845
  H     -1.037627   -5.066602    2.029063
  H     -0.323255   -4.431634    0.525621
  H      0.699869   -4.652184    1.972799

 Total Charge           Charge          ....    0
 Multiplicity           Mult            ....    1
 Number of Electrons    NEL             ....   72
 Basis Dimension        Dim             ....  351

ORBITAL ENERGIES
----------------

  NO   OCC          E(Eh)            E(eV)
   0   2.0000     -20.579292      -559.9910
   1   2.0000     -20.572006      -559.7927
   2   2.0000     -20.552546      -559.2632
   3   2.0000     -11.344614      -308.7026
   4   2.0000     -11.304359      -307.6072
   5   2.0000     -11.295511      -307.3665
   6   2.0000     -11.279744      -306.9374
   7   2.0000     -11.230816      -305.6060
   8   2.0000     -11.213873      -305.1450
   9   2.0000      -1.423736       -38.7418
  10   2.0000      -1.391239       -37.8575
  11   2.0000      -1.359501       -36.9939
  12   2.0000      -1.068673       -29.0801
  13   2.0000      -1.016379       -27.6571
  14   2.0000      -0.949810       -25.8456
  15   2.0000      -0.902129       -24.5482
  16   2.0000      -0.826379       -22.4869
  17   2.0000      -0.773904       -21.0590
  18   2.0000      -0.725419       -19.7397
  19   2.0000      -0.688653       -18.7392
  20   2.0000      -0.677731       -18.4420
  21   2.0000      -0.663108       -18.0441
  22   2.0000      -0.644212       -17.5299
  23   2.0000      -0.612271       -16.6607
  24   2.0000      -0.598339       -16.2816
  25   2.0000      -0.578081       -15.7304
  26   2.0000      -0.559210       -15.2169
  27   2.0000      -0.543338       -14.7850
  28   2.0000      -0.530752       -14.4425
  29   2.0000      -0.524455       -14.2711
  30   2.0000      -0.513805       -13.9814
  31   2.0000      -0.495043       -13.4708
  32   2.0000      -0.490682       -13.3521
  33   2.0000      -0.473709       -12.8903
  34   2.0000      -0.439787       -11.9672
  35   2.0000      -0.410738       -11.1768
  36   0.0000       0.113629         3.0920
  37   0.0000       0.137092         3.7305
  38   0.0000       0.154142         4.1944
  39   0.0000       0.161148         4.3851
  40   0.0000       0.188378         5.1260

MULLIKEN ATOMIC CHARGES
-----------------------
   0 C :   -0.393179
   1 C :   -0.167145
   2 C :    0.012828
   3 O :   -0.480602
   4 C :    0.192400
   5 O :   -0.317139
   6 C :   -0.018413
   7 O :   -0.317148
   8 C :   -0.221301
   9 H :    0.133755
  10 H :    0.152738
  11 H :    0.114658
  12 H :    0.098248
  13 H :    0.126669
  14 H :    0.097897
  15 H :    0.332914
  16 H :    0.136709
  17 H :    0.120629
  18 H :    0.116886
  19 H :    0.137333
  20 H :    0.141263
Sum of atomic charges:    0.0000000

LOEWDIN ATOMIC CHARGES
----------------------
   0 C :   -0.315272
   1 C :   -0.268055
   2 C :   -0.341818
   3 O :   -0.004611
   4 C :   -0.302564
   5 O :    0.146799
   6 C :   -0.291487
   7 O :    0.137179
   8 C :   -0.345421
   9 H :    0.121509
  10 H :    0.128485
  11 H :    0.120217
  12 H :    0.140899
  13 H :    0.142076
  14 H :    0.151929
  15 H :    0.181377
  16 H :    0.137602
  17 H :    0.133201
  18 H :    0.105662
  19 H :    0.107259
  20 H :    0.115031

  Mayer bond orders larger than 0.1
B(  0-C ,  1-C ) :   0.9088 B(  0-C ,  9-H ) :   0.9396 B(  0-C , 10-H ) :   0.9376
B(  0-C , 11-H ) :   0.9353 B(  1-C ,  2-C ) :   0.8729 B(  1-C , 12-H ) :   0.9166
B(  1-C , 13-H ) :   0.9171 B(  2-C ,  3-O ) :   1.0791 B(  2-C ,  4-C ) :   0.9437
B(  2-C , 14-H ) :   0.9183 B(  3-O , 15-H ) :   0.8025 B(  4-C ,  5-O ) :   1.8845
B(  4-C ,  6-C ) :   0.8580 B(  6-C ,  7-O ) :   0.9013 B(  6-C , 16-H ) :   0.9284
B(  6-C , 17-H ) :   0.9237 B(  7-O ,  8-C ) :   0.8949 B(  8-C , 18-H ) :   0.9360
B(  8-C , 19-H ) :   0.9304 B(  8-C , 20-H ) :   0.9359

MP2 TOTAL ENERGY:     -460.628269480 Eh
FINAL SINGLE POINT ENERGY      -460.628269480148

DIPOLE MOMENT
-------------
                                X             Y             Z
Electronic contribution:     -5.04962      -3.06647      -2.35797
Nuclear contribution   :      5.06430       2.73532       3.15576
                        -----------------------------------------
Total Dipole Moment    :      0.01468      -0.33115       0.79778
                        -----------------------------------------
Magnitude (a.u.)       :      0.86391
Magnitude (Debye)      :      2.19588

                             ****ORCA TERMINATED NORMALLY****
TOTAL RUN TIME: 0 days 0 hours 18 minutes 46 seconds 938 msec
