                         Program Version 3.0.3 - RELEASE   -
|  1> ! RI-MP2 RIJK def2-TZVP def2-TZVP/C def2-TZVP/JK TIGHTSCF
|  2> % maxcore 2000
|  3> % mp2 density relaxed end
|  4> *xyz 0 1
|  5>  O        0.1015351925     1.3603424663    -0.0660223020
|  6>  C        0.0629873211     0.0020423377    -0.0003409121
|  7>  C        0.0111836109    -0.8341942370    -1.0951171926
|  8>  N       -0.0178428687    -2.1779144388    -0.6616638880
|  9>  C        0.0169393182    -2.1312659882     0.6852526566
| 10>  C        0.0664584634    -0.8449697378     1.1515085615
| 11>  N        0.0993248599    -0.8887105184     2.5443736427
| 12>  C        0.0682177537    -2.1523133205     2.8098199246
| 13>  O        0.0160448098    -3.0087661452     1.7111688727
| 14>  H        0.1336258416     1.7018047235     0.8329023987
| 15>  H       -0.0076272653    -0.5970766830    -2.1445041650
| 16>  H       -0.0556971142    -2.9841969941    -1.2575633764
| 17>  H        0.0772690771    -2.6422253245     3.7695860892
| 18> *
| 19>
| 20>                          ****END OF INPUT****

CARTESIAN COORDINATES (ANGSTROEM)
---------------------------------
  O      0.101535    1.360342   -0.066022
  C      0.062987    0.002042   -0.000341
  C      0.011184   -0.834194   -1.095117
  N     -0.017843   -2.177914   -0.661664
  C      0.016939   -2.131266    0.685253
  C      0.066458   -0.844970    1.151509
  N      0.099325   -0.888711    2.544374
  C      0.068218   -2.152313    2.809820
  O      0.016045   -3.008766    1.711169
  H      0.133626    1.701805    0.832902
  H     -0.007627   -0.597077   -2.144504
  H     -0.055697   -2.984197   -1.257563
  H      0.077269   -2.642225    3.769586

 Total Charge           Charge          ....    0
 Multiplicity           Mult            ....    1
 Number of Electrons    NEL             ....   64
 Basis Dimension        Dim             ....  303

ORBITAL ENERGIES
----------------

  NO   OCC          E(Eh)            E(eV)
   0   2.0000     -20.649673      -561.9062
   1   2.0000     -20.584863      -560.1426
   2   2.0000     -15.621145      -425.0730
   3   2.0000     -15.582973      -424.0343
   4   2.0000     -11.340363      -308.5870
   5   2.0000     -11.325768      -308.1898
   6   2.0000     -11.296719      -307.3993
   7   2.0000     -11.251848      -306.1783
   8   2.0000     -11.242737      -305.9304
   9   2.0000      -1.491427       -40.5838
  10   2.0000      -1.400011       -38.0962
  11   2.0000      -1.298161       -35.3248
  12   2.0000      -1.243070       -33.8256
  13   2.0000      -1.048086       -28.5199
  14   2.0000      -0.991787       -26.9879
  15   2.0000      -0.860668       -23.4200
  16   2.0000      -0.821723       -22.3602
  17   2.0000      -0.808440       -21.9988
  18   2.0000      -0.757357       -20.6087
  19   2.0000      -0.706193       -19.2165
  20   2.0000      -0.681803       -18.5528
  21   2.0000      -0.661169       -17.9913
  22   2.0000      -0.633715       -17.2443
  23   2.0000      -0.618575       -16.8323
  24   2.0000      -0.592038       -16.1102
  25   2.0000      -0.581131       -15.8134
  26   2.0000      -0.539587       -14.6829
  27   2.0000      -0.525871       -14.3097
  28   2.0000      -0.473326       -12.8799
  29   2.0000      -0.466586       -12.6965
  30   2.0000      -0.326293        -8.8789
  31   2.0000      -0.291723        -7.9382
  32   0.0000       0.129718         3.5298
  33   0.0000       0.142001         3.8641
  34   0.0000       0.147617         4.0169
  35   0.0000       0.174955         4.7608
  36   0.0000       0.181299         4.9334

MULLIKEN ATOMIC CHARGES
-----------------------
   0 O :   -0.439262
   1 C :    0.073353
   2 C :   -0.121127
   3 N :   -0.301762
   4 C :    0.221991
   5 C :    0.057336
   6 N :   -0.277956
   7 C :    0.104871
   8 O :   -0.229167
   9 H :    0.343858
  10 H :    0.152781
  11 H :    0.257029
  12 H :    0.158055
Sum of atomic charges:    0.0000000

LOEWDIN ATOMIC CHARGES
----------------------
   0 O :    0.061452
   1 C :   -0.291960
   2 C :   -0.203358
   3 N :    0.182989
   4 C :   -0.321560
   5 C :   -0.236289
   6 N :    0.118261
   7 C :   -0.293007
   8 O :    0.321379
   9 H :    0.200034
  10 H :    0.136080
  11 H :    0.193880
  12 H :    0.132098

  Mayer bond orders larger than 0.1
B(  0-O ,  1-C ) :   1.1390 B(  0-O ,  9-H ) :   0.8302 B(  1-C ,  2-C ) :   1.6015
B(  1-C ,  5-C ) :   1.0787 B(  2-C ,  3-N ) :   1.0091 B(  2-C , 10-H ) :   0.9082
B(  3-N ,  4-C ) :   1.1716 B(  3-N , 11-H ) :   0.8668 B(  4-C ,  5-C ) :   1.3182
B(  4-C ,  8-O ) :   1.0640 B(  5-C ,  6-N ) :   1.1781 B(  6-N ,  7-C ) :   1.6791
B(  7-C ,  8-O ) :   1.0082 B(  7-C , 12-H ) :   0.9306

MP2 TOTAL ENERGY:     -452.025650278 Eh
FINAL SINGLE POINT ENERGY      -452.025650277918

DIPOLE MOMENT
-------------
                                X             Y             Z
Electronic contribution:      0.00301      -1.10437       1.44271
Nuclear contribution   :     -0.03919       0.16341      -1.79044
                        -----------------------------------------
Total Dipole Moment    :     -0.03619      -0.94096      -0.34773
                        -----------------------------------------
Magnitude (a.u.)       :      1.00381
Magnitude (Debye)      :      2.55149

                             ****ORCA TERMINATED NORMALLY****
TOTAL RUN TIME: 0 days 0 hours 13 minutes 59 seconds 690 msec
