                         Program Version 3.0.3 - RELEASE   -
|  1> ! RI-MP2 RIJK def2-TZVP def2-TZVP/C def2-TZVP/JK TIGHTSCF
|  2> % maxcore 2000
|  3> % mp2 density relaxed end
|  4> *xyz 0 1
|  5>  C       -0.1162877173     1.5919086671     0.0584373200
|  6>  C       -0.0752570108     0.0901182347     0.0019717872
|  7>  O        0.9508492344    -0.5581835101    -0.0204481688
|  8>  C       -1.4096687889    -0.6412897092    -0.0275271568
|  9>  N       -2.4972917647     0.0151447325    -0.0054455617
| 10>  N       -1.2251408350    -2.0255341176    -0.0781044974
| 11>  C       -2.2117834255    -2.9752883940    -0.1149274686
| 12>  O       -3.4014014152    -2.7467424812    -0.1086347101
| 13>  H        0.9011102596     1.9828453662     0.0685335604
| 14>  H       -0.6731804788     1.9833325097    -0.7976246984
| 15>  H       -0.6636826614     1.9169035886     0.9479605783
| 16>  H       -3.2995893250    -0.6181639481    -0.0302095540
| 17>  H       -0.2513664174    -2.3075106392    -0.0868350794
| 18>  H       -1.7954263641    -3.9989070795    -0.1518957607
| 19> *
| 20>
| 21>                          ****END OF INPUT****

CARTESIAN COORDINATES (ANGSTROEM)
---------------------------------
  C     -0.116288    1.591909    0.058437
  C     -0.075257    0.090118    0.001972
  O      0.950849   -0.558184   -0.020448
  C     -1.409669   -0.641290   -0.027527
  N     -2.497292    0.015145   -0.005446
  N     -1.225141   -2.025534   -0.078104
  C     -2.211783   -2.975288   -0.114927
  O     -3.401401   -2.746742   -0.108635
  H      0.901110    1.982845    0.068534
  H     -0.673180    1.983333   -0.797625
  H     -0.663683    1.916904    0.947961
  H     -3.299589   -0.618164   -0.030210
  H     -0.251366   -2.307511   -0.086835
  H     -1.795426   -3.998907   -0.151896

 Total Charge           Charge          ....    0
 Multiplicity           Mult            ....    1
 Number of Electrons    NEL             ....   60
 Basis Dimension        Dim             ....  284

ORBITAL ENERGIES
----------------

  NO   OCC          E(Eh)            E(eV)
   0   2.0000     -20.581419      -560.0489
   1   2.0000     -20.559119      -559.4421
   2   2.0000     -15.625094      -425.1804
   3   2.0000     -15.567962      -423.6258
   4   2.0000     -11.382248      -309.7267
   5   2.0000     -11.362547      -309.1906
   6   2.0000     -11.344897      -308.7103
   7   2.0000     -11.243417      -305.9489
   8   2.0000      -1.428521       -38.8720
   9   2.0000      -1.417075       -38.5606
  10   2.0000      -1.297292       -35.3011
  11   2.0000      -1.201692       -32.6997
  12   2.0000      -1.030650       -28.0454
  13   2.0000      -0.951469       -25.8908
  14   2.0000      -0.844453       -22.9787
  15   2.0000      -0.786186       -21.3932
  16   2.0000      -0.740698       -20.1554
  17   2.0000      -0.708833       -19.2883
  18   2.0000      -0.667642       -18.1675
  19   2.0000      -0.642275       -17.4772
  20   2.0000      -0.637659       -17.3516
  21   2.0000      -0.631363       -17.1803
  22   2.0000      -0.603533       -16.4230
  23   2.0000      -0.567487       -15.4421
  24   2.0000      -0.533791       -14.5252
  25   2.0000      -0.502652       -13.6778
  26   2.0000      -0.497411       -13.5352
  27   2.0000      -0.470535       -12.8039
  28   2.0000      -0.426843       -11.6150
  29   2.0000      -0.407006       -11.0752
  30   0.0000       0.068640         1.8678
  31   0.0000       0.134328         3.6553
  32   0.0000       0.145216         3.9515
  33   0.0000       0.149125         4.0579
  34   0.0000       0.185942         5.0597

MULLIKEN ATOMIC CHARGES
-----------------------
   0 C :   -0.363928
   1 C :    0.242331
   2 O :   -0.316626
   3 C :    0.117812
   4 N :   -0.355268
   5 N :   -0.297003
   6 C :    0.222085
   7 O :   -0.354475
   8 H :    0.155532
   9 H :    0.159889
  10 H :    0.159321
  11 H :    0.251926
  12 H :    0.270574
  13 H :    0.107831
Sum of atomic charges:    0.0000000

LOEWDIN ATOMIC CHARGES
----------------------
   0 C :   -0.266243
   1 C :   -0.303629
   2 O :    0.147393
   3 C :   -0.327082
   4 N :    0.000463
   5 N :    0.133422
   6 C :   -0.392492
   7 O :    0.081389
   8 H :    0.134514
   9 H :    0.147859
  10 H :    0.147967
  11 H :    0.171527
  12 H :    0.206010
  13 H :    0.118903

  Mayer bond orders larger than 0.1
B(  0-C ,  1-C ) :   0.9577 B(  0-C ,  8-H ) :   0.9356 B(  0-C ,  9-H ) :   0.9041
B(  0-C , 10-H ) :   0.9036 B(  1-C ,  2-O ) :   1.8701 B(  1-C ,  3-C ) :   0.9018
B(  3-C ,  4-N ) :   1.9557 B(  3-C ,  5-N ) :   1.0025 B(  4-N , 11-H ) :   0.8447
B(  5-N ,  6-C ) :   1.0844 B(  5-N , 12-H ) :   0.8341 B(  6-C ,  7-O ) :   1.8561
B(  6-C , 13-H ) :   0.9283

MP2 TOTAL ENERGY:     -415.241444977 Eh
FINAL SINGLE POINT ENERGY      -415.241444976612

DIPOLE MOMENT
-------------
                                X             Y             Z
Electronic contribution:     -0.91223      -4.35286      -0.16640
Nuclear contribution   :      1.62269       4.19617       0.16289
                        -----------------------------------------
Total Dipole Moment    :      0.71046      -0.15669      -0.00351
                        -----------------------------------------
Magnitude (a.u.)       :      0.72754
Magnitude (Debye)      :      1.84926

                             ****ORCA TERMINATED NORMALLY****
TOTAL RUN TIME: 0 days 0 hours 9 minutes 26 seconds 683 msec
