                         Program Version 3.0.3 - RELEASE   -
|  1> ! RI-MP2 RIJK def2-TZVP def2-TZVP/C def2-TZVP/JK TIGHTSCF
|  2> % maxcore 2000
|  3> % mp2 density relaxed end
|  4> *xyz 0 1
|  5>  N       -0.7123502385     1.1882873400     0.4383986551
|  6>  C       -0.1809208298    -0.0504362176     0.1957675584
|  7>  O        0.9984205602    -0.3173904456     0.2295425075
|  8>  O       -1.1747241443    -0.9351756441    -0.0551077914
|  9>  C       -0.7581270414    -2.3076098119    -0.2630801955
| 10>  C       -0.5654353421    -3.0357326129     1.0889601012
| 11>  C       -1.8570852486    -3.8689828478     1.3227099161
| 12>  C       -2.8511336700    -3.3898816043     0.2451721304
| 13>  C       -1.9379403142    -3.0163007434    -0.9326571357
| 14>  H       -0.0636001685     1.9560882066     0.4075780133
| 15>  H       -1.6612907831     1.3659111992     0.1553233878
| 16>  H        0.1524301845    -2.2890831484    -0.8622791674
| 17>  H        0.3233157326    -3.6712961335     1.0528760944
| 18>  H       -0.3923755459    -2.3020293175     1.8787048111
| 19>  H       -1.6461596032    -4.9349155103     1.1831293111
| 20>  H       -2.2504858431    -3.7555707854     2.3362047196
| 21>  H       -3.6010283690    -4.1431973363    -0.0108281287
| 22>  H       -3.3831408561    -2.4960971749     0.5891194718
| 23>  H       -2.4122907999    -2.3904529988    -1.6924345436
| 24>  H       -1.5675219798    -3.9235732331    -1.4252042355
| 25> *
| 26>
| 27>                          ****END OF INPUT****

CARTESIAN COORDINATES (ANGSTROEM)
---------------------------------
  N     -0.712350    1.188287    0.438399
  C     -0.180921   -0.050436    0.195768
  O      0.998421   -0.317390    0.229543
  O     -1.174724   -0.935176   -0.055108
  C     -0.758127   -2.307610   -0.263080
  C     -0.565435   -3.035733    1.088960
  C     -1.857085   -3.868983    1.322710
  C     -2.851134   -3.389882    0.245172
  C     -1.937940   -3.016301   -0.932657
  H     -0.063600    1.956088    0.407578
  H     -1.661291    1.365911    0.155323
  H      0.152430   -2.289083   -0.862279
  H      0.323316   -3.671296    1.052876
  H     -0.392376   -2.302029    1.878705
  H     -1.646160   -4.934916    1.183129
  H     -2.250486   -3.755571    2.336205
  H     -3.601028   -4.143197   -0.010828
  H     -3.383141   -2.496097    0.589119
  H     -2.412291   -2.390453   -1.692435
  H     -1.567522   -3.923573   -1.425204

 Total Charge           Charge          ....    0
 Multiplicity           Mult            ....    1
 Number of Electrons    NEL             ....   70
 Basis Dimension        Dim             ....  345

ORBITAL ENERGIES
----------------

  NO   OCC          E(Eh)            E(eV)
   0   2.0000     -20.591717      -560.3291
   1   2.0000     -20.521773      -558.4258
   2   2.0000     -15.582288      -424.0156
   3   2.0000     -11.397818      -310.1504
   4   2.0000     -11.284334      -307.0623
   5   2.0000     -11.222364      -305.3761
   6   2.0000     -11.219261      -305.2916
   7   2.0000     -11.218671      -305.2756
   8   2.0000     -11.218142      -305.2612
   9   2.0000      -1.456037       -39.6208
  10   2.0000      -1.351238       -36.7690
  11   2.0000      -1.213978       -33.0340
  12   2.0000      -1.116758       -30.3885
  13   2.0000      -0.970138       -26.3988
  14   2.0000      -0.965338       -26.2682
  15   2.0000      -0.841425       -22.8963
  16   2.0000      -0.786665       -21.4062
  17   2.0000      -0.760704       -20.6998
  18   2.0000      -0.742900       -20.2153
  19   2.0000      -0.702391       -19.1130
  20   2.0000      -0.665071       -18.0975
  21   2.0000      -0.650384       -17.6978
  22   2.0000      -0.638452       -17.3732
  23   2.0000      -0.619919       -16.8689
  24   2.0000      -0.577085       -15.7033
  25   2.0000      -0.562727       -15.3126
  26   2.0000      -0.522056       -14.2059
  27   2.0000      -0.502241       -13.6667
  28   2.0000      -0.483928       -13.1683
  29   2.0000      -0.479831       -13.0569
  30   2.0000      -0.469307       -12.7705
  31   2.0000      -0.464946       -12.6518
  32   2.0000      -0.454140       -12.3578
  33   2.0000      -0.438787       -11.9400
  34   2.0000      -0.427385       -11.6297
  35   0.0000       0.128760         3.5037
  36   0.0000       0.143422         3.9027
  37   0.0000       0.167744         4.5645
  38   0.0000       0.177225         4.8225
  39   0.0000       0.182492         4.9658

MULLIKEN ATOMIC CHARGES
-----------------------
   0 N :   -0.510852
   1 C :    0.406220
   2 O :   -0.382204
   3 O :   -0.307005
   4 C :    0.100556
   5 C :   -0.280367
   6 C :   -0.224502
   7 C :   -0.226187
   8 C :   -0.198141
   9 H :    0.267545
  10 H :    0.265183
  11 H :    0.129468
  12 H :    0.124114
  13 H :    0.131530
  14 H :    0.112127
  15 H :    0.121346
  16 H :    0.121147
  17 H :    0.112526
  18 H :    0.123717
  19 H :    0.113780
Sum of atomic charges:    0.0000000

LOEWDIN ATOMIC CHARGES
----------------------
   0 N :   -0.040375
   1 C :   -0.617485
   2 O :    0.073043
   3 O :    0.245010
   4 C :   -0.266819
   5 C :   -0.228803
   6 C :   -0.255383
   7 C :   -0.261255
   8 C :   -0.240860
   9 H :    0.176527
  10 H :    0.173275
  11 H :    0.143474
  12 H :    0.139530
  13 H :    0.143727
  14 H :    0.134266
  15 H :    0.132210
  16 H :    0.130985
  17 H :    0.137703
  18 H :    0.137715
  19 H :    0.143515

  Mayer bond orders larger than 0.1
B(  0-N ,  1-C ) :   1.1508 B(  0-N ,  9-H ) :   0.8679 B(  0-N , 10-H ) :   0.8649
B(  1-C ,  2-O ) :   1.9215 B(  1-C ,  3-O ) :   1.0931 B(  3-O ,  4-C ) :   0.8120
B(  4-C ,  5-C ) :   0.9298 B(  4-C ,  8-C ) :   0.8918 B(  4-C , 11-H ) :   0.9379
B(  5-C ,  6-C ) :   0.9349 B(  5-C , 12-H ) :   0.9300 B(  5-C , 13-H ) :   0.9289
B(  6-C ,  7-C ) :   0.9381 B(  6-C , 14-H ) :   0.9339 B(  6-C , 15-H ) :   0.9321
B(  7-C ,  8-C ) :   0.9384 B(  7-C , 16-H ) :   0.9315 B(  7-C , 17-H ) :   0.9274
B(  8-C , 18-H ) :   0.9242 B(  8-C , 19-H ) :   0.9311

MP2 TOTAL ENERGY:     -439.637279939 Eh
FINAL SINGLE POINT ENERGY      -439.637279938613

DIPOLE MOMENT
-------------
                                X             Y             Z
Electronic contribution:      4.41074       7.62843      -1.03029
Nuclear contribution   :     -5.28006      -7.44359       0.79040
                        -----------------------------------------
Total Dipole Moment    :     -0.86931       0.18485      -0.23989
                        -----------------------------------------
Magnitude (a.u.)       :      0.92056
Magnitude (Debye)      :      2.33987

                             ****ORCA TERMINATED NORMALLY****
TOTAL RUN TIME: 0 days 0 hours 18 minutes 56 seconds 845 msec
