                         Program Version 3.0.3 - RELEASE   -
|  1> ! RI-MP2 RIJK def2-TZVP def2-TZVP/C def2-TZVP/JK TIGHTSCF
|  2> % maxcore 2000
|  3> % mp2 density relaxed end
|  4> *xyz 0 1
|  5>  C        0.0373845905     1.5518737971    -0.0614351536
|  6>  O        1.3896734265     1.6052020039     0.4348765290
|  7>  C        1.4783817509     0.1685116141     0.4876358526
|  8>  C        0.0273079313     0.0048063023    -0.0434597900
|  9>  C       -0.9566808822    -0.6275851205     0.9466642658
| 10>  C       -0.7811039396    -2.1506911681     1.0380345941
| 11>  C       -0.8954819981    -2.8104975115    -0.3432128507
| 12>  C        0.0920789641    -2.1839772729    -1.3374298490
| 13>  C       -0.0870517049    -0.6607351994    -1.4191306818
| 14>  H       -0.6711697732     2.0372100088     0.6233452325
| 15>  H       -0.0547130712     2.0137164690    -1.0537776846
| 16>  H        2.2715631579    -0.2177761228    -0.1664841825
| 17>  H        1.6556784908    -0.1942766880     1.5089973562
| 18>  H       -0.8363102160    -0.1680967463     1.9350592274
| 19>  H       -1.9814089323    -0.3991317991     0.6196410774
| 20>  H        0.2054474133    -2.3773177601     1.4663698556
| 21>  H       -1.5203431058    -2.5723037948     1.7278853812
| 22>  H       -0.7248972584    -3.8899393420    -0.2653826498
| 23>  H       -1.9194540461    -2.6820448136    -0.7214088723
| 24>  H        1.1191150054    -2.4121475765    -1.0192319306
| 25>  H       -0.0283201324    -2.6291790137    -2.3311222837
| 26>  H       -1.0775549123    -0.4335848311    -1.8392604683
| 27>  H        0.6488698417    -0.2247144046    -2.1053147749
| 28> *
| 29>
| 30>                          ****END OF INPUT****

CARTESIAN COORDINATES (ANGSTROEM)
---------------------------------
  C      0.037385    1.551874   -0.061435
  O      1.389673    1.605202    0.434877
  C      1.478382    0.168512    0.487636
  C      0.027308    0.004806   -0.043460
  C     -0.956681   -0.627585    0.946664
  C     -0.781104   -2.150691    1.038035
  C     -0.895482   -2.810498   -0.343213
  C      0.092079   -2.183977   -1.337430
  C     -0.087052   -0.660735   -1.419131
  H     -0.671170    2.037210    0.623345
  H     -0.054713    2.013716   -1.053778
  H      2.271563   -0.217776   -0.166484
  H      1.655678   -0.194277    1.508997
  H     -0.836310   -0.168097    1.935059
  H     -1.981409   -0.399132    0.619641
  H      0.205447   -2.377318    1.466370
  H     -1.520343   -2.572304    1.727885
  H     -0.724897   -3.889939   -0.265383
  H     -1.919454   -2.682045   -0.721409
  H      1.119115   -2.412148   -1.019232
  H     -0.028320   -2.629179   -2.331122
  H     -1.077555   -0.433585   -1.839260
  H      0.648870   -0.224714   -2.105315

 Total Charge           Charge          ....    0
 Multiplicity           Mult            ....    1
 Number of Electrons    NEL             ....   70
 Basis Dimension        Dim             ....  363

ORBITAL ENERGIES
----------------

  NO   OCC          E(Eh)            E(eV)
   0   2.0000     -20.541562      -558.9643
   1   2.0000     -11.270475      -306.6852
   2   2.0000     -11.269945      -306.6708
   3   2.0000     -11.234702      -305.7118
   4   2.0000     -11.223063      -305.3951
   5   2.0000     -11.223044      -305.3945
   6   2.0000     -11.222148      -305.3702
   7   2.0000     -11.222025      -305.3668
   8   2.0000     -11.220783      -305.3330
   9   2.0000      -1.371302       -37.3150
  10   2.0000      -1.122705       -30.5504
  11   2.0000      -1.025751       -27.9121
  12   2.0000      -1.008580       -27.4449
  13   2.0000      -0.929794       -25.3010
  14   2.0000      -0.890336       -24.2273
  15   2.0000      -0.840781       -22.8788
  16   2.0000      -0.787373       -21.4255
  17   2.0000      -0.724387       -19.7116
  18   2.0000      -0.668327       -18.1861
  19   2.0000      -0.665792       -18.1171
  20   2.0000      -0.625907       -17.0318
  21   2.0000      -0.609558       -16.5869
  22   2.0000      -0.597961       -16.2713
  23   2.0000      -0.579329       -15.7643
  24   2.0000      -0.556080       -15.1317
  25   2.0000      -0.552069       -15.0226
  26   2.0000      -0.531319       -14.4579
  27   2.0000      -0.514076       -13.9887
  28   2.0000      -0.492503       -13.4017
  29   2.0000      -0.487406       -13.2630
  30   2.0000      -0.471448       -12.8287
  31   2.0000      -0.438524       -11.9328
  32   2.0000      -0.430909       -11.7256
  33   2.0000      -0.417703       -11.3663
  34   2.0000      -0.405876       -11.0444
  35   0.0000       0.127765         3.4767
  36   0.0000       0.151212         4.1147
  37   0.0000       0.158945         4.3251
  38   0.0000       0.162371         4.4183
  39   0.0000       0.183973         5.0062

MULLIKEN ATOMIC CHARGES
-----------------------
   0 C :   -0.035591
   1 O :   -0.328303
   2 C :   -0.064733
   3 C :    0.127885
   4 C :   -0.288755
   5 C :   -0.224105
   6 C :   -0.217434
   7 C :   -0.224105
   8 C :   -0.288757
   9 H :    0.090540
  10 H :    0.090541
  11 H :    0.090660
  12 H :    0.090659
  13 H :    0.132508
  14 H :    0.109665
  15 H :    0.109927
  16 H :    0.124740
  17 H :    0.124598
  18 H :    0.103217
  19 H :    0.109927
  20 H :    0.124740
  21 H :    0.109665
  22 H :    0.132509
Sum of atomic charges:    0.0000000

LOEWDIN ATOMIC CHARGES
----------------------
   0 C :   -0.231069
   1 O :    0.111881
   2 C :   -0.234871
   3 C :   -0.266602
   4 C :   -0.226290
   5 C :   -0.261233
   6 C :   -0.266269
   7 C :   -0.261233
   8 C :   -0.226290
   9 H :    0.117608
  10 H :    0.117608
  11 H :    0.117419
  12 H :    0.117419
  13 H :    0.142738
  14 H :    0.142495
  15 H :    0.137968
  16 H :    0.136298
  17 H :    0.135522
  18 H :    0.137402
  19 H :    0.137968
  20 H :    0.136298
  21 H :    0.142495
  22 H :    0.142739

  Mayer bond orders larger than 0.1
B(  0-C ,  1-O ) :   0.9718 B(  0-C ,  3-C ) :   0.9463 B(  0-C ,  9-H ) :   0.9022
B(  0-C , 10-H ) :   0.9022 B(  1-O ,  2-C ) :   0.9688 B(  2-C ,  3-C ) :   0.9502
B(  2-C , 11-H ) :   0.9019 B(  2-C , 12-H ) :   0.9019 B(  3-C ,  4-C ) :   0.9124
B(  3-C ,  8-C ) :   0.9124 B(  4-C ,  5-C ) :   0.9271 B(  4-C , 13-H ) :   0.9272
B(  4-C , 14-H ) :   0.9239 B(  5-C ,  6-C ) :   0.9293 B(  5-C , 15-H ) :   0.9324
B(  5-C , 16-H ) :   0.9329 B(  6-C ,  7-C ) :   0.9293 B(  6-C , 17-H ) :   0.9321
B(  6-C , 18-H ) :   0.9298 B(  7-C ,  8-C ) :   0.9271 B(  7-C , 19-H ) :   0.9324
B(  7-C , 20-H ) :   0.9329 B(  8-C , 21-H ) :   0.9239 B(  8-C , 22-H ) :   0.9272

MP2 TOTAL ENERGY:     -387.621117649 Eh
FINAL SINGLE POINT ENERGY      -387.621117649239

DIPOLE MOMENT
-------------
                                X             Y             Z
Electronic contribution:      2.83718       5.36894       0.96762
Nuclear contribution   :     -3.36536      -6.04554      -1.15228
                        -----------------------------------------
Total Dipole Moment    :     -0.52818      -0.67660      -0.18466
                        -----------------------------------------
Magnitude (a.u.)       :      0.87799
Magnitude (Debye)      :      2.23167

                             ****ORCA TERMINATED NORMALLY****
TOTAL RUN TIME: 0 days 0 hours 21 minutes 42 seconds 353 msec
