                         Program Version 3.0.3 - RELEASE   -
|  1> ! RI-MP2 RIJK def2-TZVP def2-TZVP/C def2-TZVP/JK TIGHTSCF
|  2> % maxcore 2000
|  3> % mp2 density relaxed end
|  4> *xyz 0 1
|  5>  C        0.0192694026     1.3167087611     0.1175365805
|  6>  C        0.0844904388    -0.1312287550     0.0144386930
|  7>  C        0.1265481212    -1.3332266124    -0.0717676642
|  8>  C        0.1271959190    -2.7818681655    -0.1411356210
|  9>  O       -0.8491249133    -3.4584022494     0.1142282427
| 10>  N        1.3194555105    -3.3211089306    -0.6038247790
| 11>  C        2.6493892461    -3.0830403289    -0.0859238327
| 12>  C        2.0209611420    -4.4517108655    -0.0326354967
| 13>  C        1.5789803135    -5.0543019196     1.2795725299
| 14>  H        0.9448916893     1.7866984969    -0.2306947900
| 15>  H       -0.8080522694     1.7123635482    -0.4814561009
| 16>  H       -0.1470741489     1.6255035990     1.1553815705
| 17>  H        3.4155166316    -2.8553860900    -0.8226046248
| 18>  H        2.7342090237    -2.5357979370     0.8504800026
| 19>  H        2.3527426763    -5.1725483391    -0.7788081216
| 20>  H        1.3579459064    -4.2803452193     2.0198273001
| 21>  H        0.6739165996    -5.6521803749     1.1458386709
| 22>  H        2.3696375713    -5.6981337880     1.6778636405
| 23> *
| 24>
| 25>                          ****END OF INPUT****

CARTESIAN COORDINATES (ANGSTROEM)
---------------------------------
  C      0.019269    1.316709    0.117537
  C      0.084490   -0.131229    0.014439
  C      0.126548   -1.333227   -0.071768
  C      0.127196   -2.781868   -0.141136
  O     -0.849125   -3.458402    0.114228
  N      1.319456   -3.321109   -0.603825
  C      2.649389   -3.083040   -0.085924
  C      2.020961   -4.451711   -0.032635
  C      1.578980   -5.054302    1.279573
  H      0.944892    1.786698   -0.230695
  H     -0.808052    1.712364   -0.481456
  H     -0.147074    1.625504    1.155382
  H      3.415517   -2.855386   -0.822605
  H      2.734209   -2.535798    0.850480
  H      2.352743   -5.172548   -0.778808
  H      1.357946   -4.280345    2.019827
  H      0.673917   -5.652180    1.145839
  H      2.369638   -5.698134    1.677864

 Total Charge           Charge          ....    0
 Multiplicity           Mult            ....    1
 Number of Electrons    NEL             ....   66
 Basis Dimension        Dim             ....  333

ORBITAL ENERGIES
----------------

  NO   OCC          E(Eh)            E(eV)
   0   2.0000     -20.533163      -558.7358
   1   2.0000     -15.584043      -424.0634
   2   2.0000     -11.373360      -309.4849
   3   2.0000     -11.282459      -307.0113
   4   2.0000     -11.276676      -306.8540
   5   2.0000     -11.262564      -306.4700
   6   2.0000     -11.257914      -306.3434
   7   2.0000     -11.234364      -305.7026
   8   2.0000     -11.226066      -305.4768
   9   2.0000      -1.394668       -37.9508
  10   2.0000      -1.293790       -35.2058
  11   2.0000      -1.082080       -29.4449
  12   2.0000      -1.029485       -28.0137
  13   2.0000      -0.983968       -26.7751
  14   2.0000      -0.950960       -25.8769
  15   2.0000      -0.850388       -23.1402
  16   2.0000      -0.796114       -21.6634
  17   2.0000      -0.708506       -19.2794
  18   2.0000      -0.689220       -18.7546
  19   2.0000      -0.653546       -17.7839
  20   2.0000      -0.642311       -17.4782
  21   2.0000      -0.603822       -16.4308
  22   2.0000      -0.603725       -16.4282
  23   2.0000      -0.584856       -15.9147
  24   2.0000      -0.564166       -15.3517
  25   2.0000      -0.554128       -15.0786
  26   2.0000      -0.526386       -14.3237
  27   2.0000      -0.501118       -13.6361
  28   2.0000      -0.491899       -13.3853
  29   2.0000      -0.437299       -11.8995
  30   2.0000      -0.396862       -10.7992
  31   2.0000      -0.394681       -10.7398
  32   2.0000      -0.389713       -10.6046
  33   0.0000       0.106501         2.8980
  34   0.0000       0.129652         3.5280
  35   0.0000       0.147076         4.0021
  36   0.0000       0.171776         4.6743
  37   0.0000       0.174723         4.7544

MULLIKEN ATOMIC CHARGES
-----------------------
   0 C :   -0.473016
   1 C :    0.014114
   2 C :    0.030529
   3 C :    0.146861
   4 O :   -0.303515
   5 N :   -0.172453
   6 C :   -0.180593
   7 C :   -0.004754
   8 C :   -0.388799
   9 H :    0.165756
  10 H :    0.171738
  11 H :    0.168670
  12 H :    0.133849
  13 H :    0.139266
  14 H :    0.128234
  15 H :    0.130283
  16 H :    0.156878
  17 H :    0.136952
Sum of atomic charges:   -0.0000000

LOEWDIN ATOMIC CHARGES
----------------------
   0 C :   -0.286521
   1 C :   -0.067050
   2 C :   -0.033704
   3 C :   -0.433286
   4 O :    0.136839
   5 N :    0.202593
   6 C :   -0.213446
   7 C :   -0.249838
   8 C :   -0.290564
   9 H :    0.143187
  10 H :    0.146820
  11 H :    0.146001
  12 H :    0.127162
  13 H :    0.131449
  14 H :    0.145090
  15 H :    0.130169
  16 H :    0.135657
  17 H :    0.129441

  Mayer bond orders larger than 0.1
B(  0-C ,  1-C ) :   0.8759 B(  0-C ,  9-H ) :   0.9447 B(  0-C , 10-H ) :   0.9404
B(  0-C , 11-H ) :   0.9410 B(  1-C ,  2-C ) :   2.7115 B(  2-C ,  3-C ) :   0.9589
B(  3-C ,  4-O ) :   2.0031 B(  3-C ,  5-N ) :   1.0998 B(  5-N ,  6-C ) :   0.8540
B(  5-N ,  7-C ) :   0.8702 B(  6-C ,  7-C ) :   0.9282 B(  6-C , 12-H ) :   0.9213
B(  6-C , 13-H ) :   0.9160 B(  7-C ,  8-C ) :   0.9336 B(  7-C , 14-H ) :   0.9142
B(  8-C , 15-H ) :   0.9296 B(  8-C , 16-H ) :   0.9303 B(  8-C , 17-H ) :   0.9285

MP2 TOTAL ENERGY:     -401.215449588 Eh
FINAL SINGLE POINT ENERGY      -401.215449588178

DIPOLE MOMENT
-------------
                                X             Y             Z
Electronic contribution:     -4.14851      -0.67721      -3.20344
Nuclear contribution   :      5.40789       1.43270       3.50365
                        -----------------------------------------
Total Dipole Moment    :      1.25938       0.75549       0.30021
                        -----------------------------------------
Magnitude (a.u.)       :      1.49898
Magnitude (Debye)      :      3.81010

                             ****ORCA TERMINATED NORMALLY****
TOTAL RUN TIME: 0 days 0 hours 16 minutes 6 seconds 365 msec
