                         Program Version 3.0.3 - RELEASE   -
|  1> ! RI-MP2 RIJK def2-TZVP def2-TZVP/C def2-TZVP/JK TIGHTSCF
|  2> % maxcore 2000
|  3> % mp2 density relaxed end
|  4> *xyz 0 1
|  5>  C       -1.2852580654     2.3080316811    -0.8189307626
|  6>  C       -0.8843800392     0.8337390532    -0.7202532841
|  7>  C       -2.0857988053    -0.1112202348    -0.6062855813
|  8>  C       -1.6874894515    -1.5865008215    -0.5086894573
|  9>  C       -2.8721605346    -2.5514125422    -0.3857596834
| 10>  C       -2.4148973137    -4.0144505304    -0.3495507763
| 11>  C       -3.5668057072    -5.0185759596    -0.2757184573
| 12>  O       -3.5942821399    -2.2599042911     0.8156208508
| 13>  C       -4.9327552379    -1.8586901405     0.6342614438
| 14>  H       -0.4079300374     2.9582297661    -0.8944449339
| 15>  H       -1.9110190607     2.4903085585    -1.6999616888
| 16>  H       -1.8575480896     2.6219386245     0.0612506395
| 17>  H       -0.2862993588     0.5567727577    -1.5988565547
| 18>  H       -0.2286630864     0.6893354285     0.1486509446
| 19>  H       -2.6762688456     0.1568746033     0.2780465747
| 20>  H       -2.7429864033     0.0357742420    -1.4756277331
| 21>  H       -1.0976942505    -1.8701121351    -1.3905865456
| 22>  H       -1.0364967263    -1.7330339759     0.3634176113
| 23>  H       -3.5401743695    -2.4091013145    -1.2505125551
| 24>  H       -1.8027137453    -4.2093113432    -1.2389572647
| 25>  H       -1.7568213944    -4.1431327457     0.5189229705
| 26>  H       -3.1925483261    -6.0460806518    -0.2342586199
| 27>  H       -4.1722735986    -4.8448923544     0.6181583320
| 28>  H       -4.2224625272    -4.9402115959    -1.1507069650
| 29>  H       -5.0139040640    -0.9320696420     0.0465778692
| 30>  H       -5.5369557319    -2.6337691415     0.1393602628
| 31>  H       -5.3510057498    -1.6760802648     1.6284334139
| 32> *
| 33>
| 34>                          ****END OF INPUT****

CARTESIAN COORDINATES (ANGSTROEM)
---------------------------------
  C     -1.285258    2.308032   -0.818931
  C     -0.884380    0.833739   -0.720253
  C     -2.085799   -0.111220   -0.606286
  C     -1.687489   -1.586501   -0.508689
  C     -2.872161   -2.551413   -0.385760
  C     -2.414897   -4.014451   -0.349551
  C     -3.566806   -5.018576   -0.275718
  O     -3.594282   -2.259904    0.815621
  C     -4.932755   -1.858690    0.634261
  H     -0.407930    2.958230   -0.894445
  H     -1.911019    2.490309   -1.699962
  H     -1.857548    2.621939    0.061251
  H     -0.286299    0.556773   -1.598857
  H     -0.228663    0.689335    0.148651
  H     -2.676269    0.156875    0.278047
  H     -2.742986    0.035774   -1.475628
  H     -1.097694   -1.870112   -1.390587
  H     -1.036497   -1.733034    0.363418
  H     -3.540174   -2.409101   -1.250513
  H     -1.802714   -4.209311   -1.238957
  H     -1.756821   -4.143133    0.518923
  H     -3.192548   -6.046081   -0.234259
  H     -4.172274   -4.844892    0.618158
  H     -4.222463   -4.940212   -1.150707
  H     -5.013904   -0.932070    0.046578
  H     -5.536956   -2.633769    0.139360
  H     -5.351006   -1.676080    1.628433

 Total Charge           Charge          ....    0
 Multiplicity           Mult            ....    1
 Number of Electrons    NEL             ....   74
 Basis Dimension        Dim             ....  387

ORBITAL ENERGIES
----------------

  NO   OCC          E(Eh)            E(eV)
   0   2.0000     -20.544230      -559.0369
   1   2.0000     -11.272093      -306.7292
   2   2.0000     -11.266683      -306.5820
   3   2.0000     -11.215237      -305.1821
   4   2.0000     -11.214945      -305.1742
   5   2.0000     -11.212917      -305.1190
   6   2.0000     -11.212074      -305.0961
   7   2.0000     -11.209392      -305.0231
   8   2.0000     -11.208670      -305.0034
   9   2.0000      -1.363730       -37.1090
  10   2.0000      -1.081738       -29.4356
  11   2.0000      -1.048299       -28.5257
  12   2.0000      -0.992109       -26.9967
  13   2.0000      -0.935856       -25.4659
  14   2.0000      -0.890025       -24.2188
  15   2.0000      -0.837812       -22.7980
  16   2.0000      -0.786097       -21.3908
  17   2.0000      -0.782442       -21.2913
  18   2.0000      -0.670043       -18.2328
  19   2.0000      -0.649517       -17.6743
  20   2.0000      -0.627097       -17.0642
  21   2.0000      -0.620578       -16.8868
  22   2.0000      -0.584360       -15.9013
  23   2.0000      -0.579769       -15.7763
  24   2.0000      -0.571029       -15.5385
  25   2.0000      -0.559435       -15.2230
  26   2.0000      -0.545756       -14.8508
  27   2.0000      -0.514253       -13.9935
  28   2.0000      -0.511554       -13.9201
  29   2.0000      -0.499373       -13.5886
  30   2.0000      -0.483127       -13.1466
  31   2.0000      -0.478108       -13.0100
  32   2.0000      -0.464325       -12.6349
  33   2.0000      -0.459379       -12.5003
  34   2.0000      -0.456454       -12.4208
  35   2.0000      -0.453060       -12.3284
  36   2.0000      -0.401642       -10.9292
  37   0.0000       0.137120         3.7312
  38   0.0000       0.146739         3.9930
  39   0.0000       0.152349         4.1456
  40   0.0000       0.168336         4.5807
  41   0.0000       0.177924         4.8416

MULLIKEN ATOMIC CHARGES
-----------------------
   0 C :   -0.383379
   1 C :   -0.178828
   2 C :   -0.257941
   3 C :   -0.193270
   4 C :    0.076417
   5 C :   -0.164841
   6 C :   -0.411642
   7 O :   -0.340847
   8 C :   -0.222607
   9 H :    0.132309
  10 H :    0.119505
  11 H :    0.121803
  12 H :    0.101958
  13 H :    0.106370
  14 H :    0.124422
  15 H :    0.098777
  16 H :    0.106466
  17 H :    0.108007
  18 H :    0.078789
  19 H :    0.104046
  20 H :    0.108473
  21 H :    0.134478
  22 H :    0.142215
  23 H :    0.116650
  24 H :    0.118277
  25 H :    0.119347
  26 H :    0.135045
Sum of atomic charges:    0.0000000

LOEWDIN ATOMIC CHARGES
----------------------
   0 C :   -0.322839
   1 C :   -0.297414
   2 C :   -0.273239
   3 C :   -0.250958
   4 C :   -0.321045
   5 C :   -0.276253
   6 C :   -0.321242
   7 O :    0.151646
   8 C :   -0.371033
   9 H :    0.119649
  10 H :    0.119206
  11 H :    0.119992
  12 H :    0.133100
  13 H :    0.134796
  14 H :    0.140790
  15 H :    0.134217
  16 H :    0.141021
  17 H :    0.143247
  18 H :    0.140427
  19 H :    0.138115
  20 H :    0.140840
  21 H :    0.120838
  22 H :    0.124350
  23 H :    0.118366
  24 H :    0.100078
  25 H :    0.100509
  26 H :    0.112836

  Mayer bond orders larger than 0.1
B(  0-C ,  1-C ) :   0.9219 B(  0-C ,  9-H ) :   0.9436 B(  0-C , 10-H ) :   0.9397
B(  0-C , 11-H ) :   0.9401 B(  1-C ,  2-C ) :   0.9387 B(  1-C , 12-H ) :   0.9334
B(  1-C , 13-H ) :   0.9334 B(  2-C ,  3-C ) :   0.9365 B(  2-C , 14-H ) :   0.9287
B(  2-C , 15-H ) :   0.9270 B(  3-C ,  4-C ) :   0.9394 B(  3-C , 16-H ) :   0.9296
B(  3-C , 17-H ) :   0.9162 B(  4-C ,  5-C ) :   0.9342 B(  4-C ,  7-O ) :   0.8305
B(  4-C , 18-H ) :   0.9243 B(  5-C ,  6-C ) :   0.9109 B(  5-C , 19-H ) :   0.9321
B(  5-C , 20-H ) :   0.9272 B(  6-C , 21-H ) :   0.9409 B(  6-C , 22-H ) :   0.9420
B(  6-C , 23-H ) :   0.9377 B(  7-O ,  8-C ) :   0.9132 B(  8-C , 24-H ) :   0.9343
B(  8-C , 25-H ) :   0.9347 B(  8-C , 26-H ) :   0.9407

MP2 TOTAL ENERGY:     -390.015558409 Eh
FINAL SINGLE POINT ENERGY      -390.015558409246

DIPOLE MOMENT
-------------
                                X             Y             Z
Electronic contribution:     -0.51275      -2.40094       2.31793
Nuclear contribution   :      0.35391       2.43024      -2.71409
                        -----------------------------------------
Total Dipole Moment    :     -0.15883       0.02930      -0.39616
                        -----------------------------------------
Magnitude (a.u.)       :      0.42782
Magnitude (Debye)      :      1.08743

                             ****ORCA TERMINATED NORMALLY****
TOTAL RUN TIME: 0 days 0 hours 19 minutes 21 seconds 873 msec
