                         Program Version 3.0.3 - RELEASE   -
|  1> ! RI-MP2 RIJK def2-TZVP def2-TZVP/C def2-TZVP/JK TIGHTSCF
|  2> % maxcore 2000
|  3> % mp2 density relaxed end
|  4> *xyz 0 1
|  5>  O        0.1728661316     1.1156541961     0.6549814589
|  6>  C        0.0695759613    -0.0166491817    -0.1915203809
|  7>  C       -1.3329740961    -0.5921878604    -0.1868895986
|  8>  C       -1.6455123464    -2.0739170450    -0.1724405200
|  9>  C       -0.5857332725    -3.1502973103    -0.0786929873
| 10>  O        0.2751420137    -3.0622745883     1.0755186505
| 11>  C       -0.0696336332    -2.2632098265     2.1055922846
| 12>  N       -1.0083578961    -1.4160528654     2.1968140659
| 13>  C       -1.8789280806    -1.2526182777     1.0694672851
| 14>  H       -0.0610257592     0.8118159986     1.5407959150
| 15>  H        0.3208182333     0.3320247818    -1.1988695823
| 16>  H        0.8129753171    -0.7812074933     0.0726887972
| 17>  H       -2.0575554087     0.0220212754    -0.7146896496
| 18>  H       -2.5145926656    -2.3909892516    -0.7411234905
| 19>  H       -1.0797693266    -4.1271296622    -0.0273334054
| 20>  H        0.0868635083    -3.1600525520    -0.9428582588
| 21>  H        0.6204838567    -2.4160747903     2.9327495899
| 22>  H       -2.8941595868    -1.0025059071     1.3569952963
| 23> *
| 24>
| 25>                          ****END OF INPUT****

CARTESIAN COORDINATES (ANGSTROEM)
---------------------------------
  O      0.172866    1.115654    0.654981
  C      0.069576   -0.016649   -0.191520
  C     -1.332974   -0.592188   -0.186890
  C     -1.645512   -2.073917   -0.172441
  C     -0.585733   -3.150297   -0.078693
  O      0.275142   -3.062275    1.075519
  C     -0.069634   -2.263210    2.105592
  N     -1.008358   -1.416053    2.196814
  C     -1.878928   -1.252618    1.069467
  H     -0.061026    0.811816    1.540796
  H      0.320818    0.332025   -1.198870
  H      0.812975   -0.781207    0.072689
  H     -2.057555    0.022021   -0.714690
  H     -2.514593   -2.390989   -0.741123
  H     -1.079769   -4.127130   -0.027333
  H      0.086864   -3.160053   -0.942858
  H      0.620484   -2.416075    2.932750
  H     -2.894160   -1.002506    1.356995

 Total Charge           Charge          ....    0
 Multiplicity           Mult            ....    1
 Number of Electrons    NEL             ....   68
 Basis Dimension        Dim             ....  333

ORBITAL ENERGIES
----------------

  NO   OCC          E(Eh)            E(eV)
   0   2.0000     -20.606260      -560.7249
   1   2.0000     -20.545859      -559.0812
   2   2.0000     -15.556124      -423.3036
   3   2.0000     -11.343479      -308.6718
   4   2.0000     -11.307397      -307.6899
   5   2.0000     -11.277311      -306.8712
   6   2.0000     -11.269961      -306.6712
   7   2.0000     -11.251474      -306.1682
   8   2.0000     -11.241205      -305.8887
   9   2.0000      -1.437606       -39.1192
  10   2.0000      -1.352575       -36.8054
  11   2.0000      -1.240793       -33.7637
  12   2.0000      -1.145859       -31.1804
  13   2.0000      -0.996189       -27.1077
  14   2.0000      -0.939003       -25.5516
  15   2.0000      -0.895793       -24.3758
  16   2.0000      -0.796084       -21.6626
  17   2.0000      -0.746363       -20.3096
  18   2.0000      -0.716589       -19.4994
  19   2.0000      -0.699253       -19.0276
  20   2.0000      -0.681778       -18.5521
  21   2.0000      -0.662001       -18.0140
  22   2.0000      -0.633743       -17.2450
  23   2.0000      -0.604898       -16.4601
  24   2.0000      -0.602164       -16.3857
  25   2.0000      -0.560246       -15.2451
  26   2.0000      -0.552930       -15.0460
  27   2.0000      -0.510338       -13.8870
  28   2.0000      -0.509909       -13.8753
  29   2.0000      -0.486936       -13.2502
  30   2.0000      -0.448807       -12.2127
  31   2.0000      -0.443215       -12.0605
  32   2.0000      -0.400454       -10.8969
  33   2.0000      -0.367591       -10.0027
  34   0.0000       0.128970         3.5095
  35   0.0000       0.155106         4.2207
  36   0.0000       0.160233         4.3602
  37   0.0000       0.168133         4.5751
  38   0.0000       0.177439         4.8284

MULLIKEN ATOMIC CHARGES
-----------------------
   0 O :   -0.474632
   1 C :   -0.044050
   2 C :   -0.128584
   3 C :   -0.179573
   4 C :   -0.047065
   5 O :   -0.262244
   6 C :    0.103422
   7 N :   -0.326782
   8 C :   -0.007855
   9 H :    0.327509
  10 H :    0.117808
  11 H :    0.120934
  12 H :    0.123745
  13 H :    0.137236
  14 H :    0.129541
  15 H :    0.131784
  16 H :    0.141718
  17 H :    0.137087
Sum of atomic charges:    0.0000000

LOEWDIN ATOMIC CHARGES
----------------------
   0 O :   -0.042827
   1 C :   -0.326541
   2 C :   -0.189906
   3 C :   -0.200288
   4 C :   -0.251896
   5 O :    0.228033
   6 C :   -0.361602
   7 N :    0.082987
   8 C :   -0.236358
   9 H :    0.176972
  10 H :    0.133066
  11 H :    0.125331
  12 H :    0.154167
  13 H :    0.155861
  14 H :    0.137178
  15 H :    0.134060
  16 H :    0.135655
  17 H :    0.146107

  Mayer bond orders larger than 0.1
B(  0-O ,  1-C ) :   0.9275 B(  0-O ,  9-H ) :   0.8333 B(  1-C ,  2-C ) :   0.9394
B(  1-C , 10-H ) :   0.9281 B(  1-C , 11-H ) :   0.9232 B(  2-C ,  3-C ) :   0.8502
B(  2-C ,  8-C ) :   0.8444 B(  2-C , 12-H ) :   0.9182 B(  3-C ,  4-C ) :   0.9431
B(  3-C ,  8-C ) :   0.8648 B(  3-C , 13-H ) :   0.9099 B(  4-C ,  5-O ) :   0.8577
B(  4-C , 14-H ) :   0.9283 B(  4-C , 15-H ) :   0.9317 B(  5-O ,  6-C ) :   1.0792
B(  6-C ,  7-N ) :   1.7739 B(  6-C , 16-H ) :   0.9274 B(  7-N ,  8-C ) :   0.9225
B(  8-C , 17-H ) :   0.9470

MP2 TOTAL ENERGY:     -438.352651166 Eh
FINAL SINGLE POINT ENERGY      -438.352651165612

DIPOLE MOMENT
-------------
                                X             Y             Z
Electronic contribution:      0.62522      -0.77416       3.27585
Nuclear contribution   :     -1.06807      -0.22056      -3.91511
                        -----------------------------------------
Total Dipole Moment    :     -0.44284      -0.99473      -0.63926
                        -----------------------------------------
Magnitude (a.u.)       :      1.26263
Magnitude (Debye)      :      3.20936

                             ****ORCA TERMINATED NORMALLY****
TOTAL RUN TIME: 0 days 0 hours 27 minutes 44 seconds 893 msec
