                         Program Version 3.0.3 - RELEASE   -
|  1> ! RI-MP2 RIJK def2-TZVP def2-TZVP/C def2-TZVP/JK TIGHTSCF
|  2> % maxcore 2000
|  3> % mp2 density relaxed end
|  4> *xyz 0 1
|  5>  C        0.7580072909     1.4982883928    -0.0043330422
|  6>  C       -0.0566319529     0.2080877269     0.0020918560
|  7>  C        0.4933117544    -0.9283956476    -0.9101654446
|  8>  C        1.0188686639    -1.6860077088     0.3500815143
|  9>  C        0.1736094359    -0.7158546696     1.2347986572
| 10>  O        0.6350839544    -3.0573332676     0.4287832865
| 11>  C        1.7629250537    -3.8897660997     0.6792325277
| 12>  C        2.9290868689    -2.9468379328     0.7596414941
| 13>  C        2.5025241167    -1.7034652103     0.5729268340
| 14>  H        1.8229243477     1.3082768518     0.1732169075
| 15>  H        0.6732925371     2.0136803962    -0.9674666636
| 16>  H        0.4134979663     2.1863951153     0.7755733530
| 17>  H       -1.1080563618     0.4482977494    -0.1784224523
| 18>  H       -0.2978822581    -1.5116955952    -1.3868253052
| 19>  H        1.2344128810    -0.6492300490    -1.6653307099
| 20>  H        0.6726663125    -0.2757794585     2.1035422534
| 21>  H       -0.7378969481    -1.2191712335     1.5653439158
| 22>  H        1.6130468395    -4.4555208272     1.6124238664
| 23>  H        1.8728088324    -4.6280898845    -0.1308274197
| 24>  H        3.9459256460    -3.2697588839     0.9431523867
| 25>  H        3.1041114397    -0.8035511442     0.5734456449
| 26> *
| 27>
| 28>                          ****END OF INPUT****

CARTESIAN COORDINATES (ANGSTROEM)
---------------------------------
  C      0.758007    1.498288   -0.004333
  C     -0.056632    0.208088    0.002092
  C      0.493312   -0.928396   -0.910165
  C      1.018869   -1.686008    0.350082
  C      0.173609   -0.715855    1.234799
  O      0.635084   -3.057333    0.428783
  C      1.762925   -3.889766    0.679233
  C      2.929087   -2.946838    0.759641
  C      2.502524   -1.703465    0.572927
  H      1.822924    1.308277    0.173217
  H      0.673293    2.013680   -0.967467
  H      0.413498    2.186395    0.775573
  H     -1.108056    0.448298   -0.178422
  H     -0.297882   -1.511696   -1.386825
  H      1.234413   -0.649230   -1.665331
  H      0.672666   -0.275779    2.103542
  H     -0.737897   -1.219171    1.565344
  H      1.613047   -4.455521    1.612424
  H      1.872809   -4.628090   -0.130827
  H      3.945926   -3.269759    0.943152
  H      3.104111   -0.803551    0.573446

 Total Charge           Charge          ....    0
 Multiplicity           Mult            ....    1
 Number of Electrons    NEL             ....   68
 Basis Dimension        Dim             ....  351

ORBITAL ENERGIES
----------------

  NO   OCC          E(Eh)            E(eV)
   0   2.0000     -20.546078      -559.0872
   1   2.0000     -11.282523      -307.0131
   2   2.0000     -11.276246      -306.8423
   3   2.0000     -11.231716      -305.6305
   4   2.0000     -11.228657      -305.5473
   5   2.0000     -11.224643      -305.4381
   6   2.0000     -11.214391      -305.1591
   7   2.0000     -11.213089      -305.1237
   8   2.0000     -11.213069      -305.1231
   9   2.0000      -1.374175       -37.3932
  10   2.0000      -1.126561       -30.6553
  11   2.0000      -1.066996       -29.0344
  12   2.0000      -0.988339       -26.8941
  13   2.0000      -0.921913       -25.0865
  14   2.0000      -0.900193       -24.4955
  15   2.0000      -0.804336       -21.8871
  16   2.0000      -0.768507       -20.9121
  17   2.0000      -0.728891       -19.8341
  18   2.0000      -0.682287       -18.5660
  19   2.0000      -0.643739       -17.5170
  20   2.0000      -0.641620       -17.4594
  21   2.0000      -0.610664       -16.6170
  22   2.0000      -0.576539       -15.6884
  23   2.0000      -0.568621       -15.4730
  24   2.0000      -0.551652       -15.0112
  25   2.0000      -0.536430       -14.5970
  26   2.0000      -0.512936       -13.9577
  27   2.0000      -0.510538       -13.8924
  28   2.0000      -0.488372       -13.2893
  29   2.0000      -0.463472       -12.6117
  30   2.0000      -0.434782       -11.8310
  31   2.0000      -0.429506       -11.6874
  32   2.0000      -0.419039       -11.4026
  33   2.0000      -0.343202        -9.3390
  34   0.0000       0.140784         3.8309
  35   0.0000       0.149926         4.0797
  36   0.0000       0.156516         4.2590
  37   0.0000       0.167593         4.5604
  38   0.0000       0.184762         5.0276

MULLIKEN ATOMIC CHARGES
-----------------------
   0 C :   -0.430736
   1 C :   -0.042996
   2 C :   -0.243269
   3 C :    0.314917
   4 C :   -0.243264
   5 O :   -0.327919
   6 C :    0.013745
   7 C :   -0.171738
   8 C :   -0.298104
   9 H :    0.114905
  10 H :    0.131257
  11 H :    0.131257
  12 H :    0.095125
  13 H :    0.122743
  14 H :    0.114184
  15 H :    0.114184
  16 H :    0.122744
  17 H :    0.105390
  18 H :    0.105382
  19 H :    0.136951
  20 H :    0.135239
Sum of atomic charges:    0.0000000

LOEWDIN ATOMIC CHARGES
----------------------
   0 C :   -0.300572
   1 C :   -0.253152
   2 C :   -0.176167
   3 C :   -0.295550
   4 C :   -0.176168
   5 O :    0.193896
   6 C :   -0.285333
   7 C :   -0.160104
   8 C :   -0.129229
   9 H :    0.119962
  10 H :    0.123520
  11 H :    0.123520
  12 H :    0.139647
  13 H :    0.140884
  14 H :    0.129411
  15 H :    0.129411
  16 H :    0.140885
  17 H :    0.126249
  18 H :    0.126249
  19 H :    0.139747
  20 H :    0.142894

  Mayer bond orders larger than 0.1
B(  0-C ,  1-C ) :   0.9104 B(  0-C ,  9-H ) :   0.9321 B(  0-C , 10-H ) :   0.9422
B(  0-C , 11-H ) :   0.9422 B(  1-C ,  2-C ) :   0.9256 B(  1-C ,  4-C ) :   0.9256
B(  1-C , 12-H ) :   0.9220 B(  2-C ,  3-C ) :   0.8804 B(  2-C , 13-H ) :   0.9055
B(  2-C , 14-H ) :   0.9260 B(  3-C ,  4-C ) :   0.8804 B(  3-C ,  5-O ) :   0.9955
B(  3-C ,  8-C ) :   0.9433 B(  4-C , 15-H ) :   0.9260 B(  4-C , 16-H ) :   0.9055
B(  5-O ,  6-C ) :   0.9379 B(  6-C ,  7-C ) :   0.9800 B(  6-C , 17-H ) :   0.9117
B(  6-C , 18-H ) :   0.9117 B(  7-C ,  8-C ) :   1.8111 B(  7-C , 19-H ) :   0.9188
B(  8-C , 20-H ) :   0.9069

MP2 TOTAL ENERGY:     -386.402314272 Eh
FINAL SINGLE POINT ENERGY      -386.402314272042

DIPOLE MOMENT
-------------
                                X             Y             Z
Electronic contribution:      0.65354      -6.11735       0.70372
Nuclear contribution   :     -0.17647       6.28537      -0.64932
                        -----------------------------------------
Total Dipole Moment    :      0.47707       0.16803       0.05440
                        -----------------------------------------
Magnitude (a.u.)       :      0.50872
Magnitude (Debye)      :      1.29305

                             ****ORCA TERMINATED NORMALLY****
TOTAL RUN TIME: 0 days 0 hours 19 minutes 27 seconds 478 msec
