                         Program Version 3.0.3 - RELEASE   -
|  1> ! RI-MP2 RIJK def2-TZVP def2-TZVP/C def2-TZVP/JK TIGHTSCF
|  2> % maxcore 2000
|  3> % mp2 density relaxed end
|  4> *xyz 0 1
|  5>  C       -0.0088584605     1.4121096878     0.0956728770
|  6>  O        0.6658789168     0.1697884462    -0.1688246640
|  7>  C        0.9272291803    -0.5793103145     0.8912760721
|  8>  C        0.7209059690    -1.8737419977     1.1408077597
|  9>  N        0.1049312272    -2.8739766221     0.4183002240
| 10>  O        1.3260988589    -2.1481883107     2.3982455018
| 11>  C        1.8480813359    -0.9935803148     2.8735284940
| 12>  O        2.4076668403    -0.8381781982     3.9112426980
| 13>  O        1.6216272621    -0.0035490982     1.9446908135
| 14>  H        0.5919289540     2.0484160138     0.7506444588
| 15>  H       -0.1378616292     1.8911937759    -0.8744894566
| 16>  H       -0.9866179315     1.2247383916     0.5525692763
| 17>  H       -0.6473754610    -3.3254106406     0.9277429963
| 18>  H        0.7488122778    -3.5849102987     0.0863089591
| 19> *
| 20>
| 21>                          ****END OF INPUT****

CARTESIAN COORDINATES (ANGSTROEM)
---------------------------------
  C     -0.008858    1.412110    0.095673
  O      0.665879    0.169788   -0.168825
  C      0.927229   -0.579310    0.891276
  C      0.720906   -1.873742    1.140808
  N      0.104931   -2.873977    0.418300
  O      1.326099   -2.148188    2.398246
  C      1.848081   -0.993580    2.873528
  O      2.407667   -0.838178    3.911243
  O      1.621627   -0.003549    1.944691
  H      0.591929    2.048416    0.750644
  H     -0.137862    1.891194   -0.874489
  H     -0.986618    1.224738    0.552569
  H     -0.647375   -3.325411    0.927743
  H      0.748812   -3.584910    0.086309

 Total Charge           Charge          ....    0
 Multiplicity           Mult            ....    1
 Number of Electrons    NEL             ....   68
 Basis Dimension        Dim             ....  309

ORBITAL ENERGIES
----------------

  NO   OCC          E(Eh)            E(eV)
   0   2.0000     -20.646994      -561.8333
   1   2.0000     -20.638193      -561.5938
   2   2.0000     -20.618166      -561.0488
   3   2.0000     -20.553862      -559.2990
   4   2.0000     -15.589500      -424.2119
   5   2.0000     -11.446588      -311.4775
   6   2.0000     -11.375760      -309.5502
   7   2.0000     -11.336764      -308.4890
   8   2.0000     -11.305205      -307.6303
   9   2.0000      -1.551050       -42.2062
  10   2.0000      -1.456814       -39.6419
  11   2.0000      -1.406687       -38.2779
  12   2.0000      -1.395660       -37.9778
  13   2.0000      -1.231186       -33.5023
  14   2.0000      -1.042871       -28.3780
  15   2.0000      -0.961679       -26.1686
  16   2.0000      -0.880990       -23.9730
  17   2.0000      -0.853200       -23.2168
  18   2.0000      -0.755931       -20.5699
  19   2.0000      -0.739216       -20.1151
  20   2.0000      -0.719657       -19.5829
  21   2.0000      -0.689227       -18.7548
  22   2.0000      -0.674751       -18.3609
  23   2.0000      -0.664802       -18.0902
  24   2.0000      -0.663435       -18.0530
  25   2.0000      -0.619710       -16.8632
  26   2.0000      -0.593474       -16.1492
  27   2.0000      -0.577667       -15.7191
  28   2.0000      -0.553801       -15.0697
  29   2.0000      -0.524870       -14.2824
  30   2.0000      -0.504779       -13.7357
  31   2.0000      -0.489497       -13.3199
  32   2.0000      -0.456247       -12.4151
  33   2.0000      -0.348689        -9.4883
  34   0.0000       0.118358         3.2207
  35   0.0000       0.140792         3.8311
  36   0.0000       0.170130         4.6295
  37   0.0000       0.182853         4.9757
  38   0.0000       0.195325         5.3151

MULLIKEN ATOMIC CHARGES
-----------------------
   0 C :   -0.207539
   1 O :   -0.279604
   2 C :    0.253343
   3 C :    0.115402
   4 N :   -0.508529
   5 O :   -0.203977
   6 C :    0.372901
   7 O :   -0.281248
   8 O :   -0.218686
   9 H :    0.155021
  10 H :    0.153709
  11 H :    0.129178
  12 H :    0.259659
  13 H :    0.260370
Sum of atomic charges:    0.0000000

LOEWDIN ATOMIC CHARGES
----------------------
   0 C :   -0.294481
   1 O :    0.246677
   2 C :   -0.386444
   3 C :   -0.355663
   4 N :   -0.078425
   5 O :    0.296121
   6 C :   -0.567533
   7 O :    0.135694
   8 O :    0.308766
   9 H :    0.115006
  10 H :    0.119327
  11 H :    0.111577
  12 H :    0.174630
  13 H :    0.174748

  Mayer bond orders larger than 0.1
B(  0-C ,  1-O ) :   0.8315 B(  0-C ,  9-H ) :   0.9366 B(  0-C , 10-H ) :   0.9369
B(  0-C , 11-H ) :   0.9271 B(  1-O ,  2-C ) :   1.1505 B(  2-C ,  3-C ) :   1.6723
B(  2-C ,  8-O ) :   0.9845 B(  3-C ,  4-N ) :   1.1909 B(  3-C ,  5-O ) :   0.9340
B(  4-N , 12-H ) :   0.8726 B(  4-N , 13-H ) :   0.8753 B(  5-O ,  6-C ) :   1.1069
B(  6-C ,  7-O ) :   2.0623 B(  6-C ,  8-O ) :   1.0407

MP2 TOTAL ENERGY:     -510.202957776 Eh
FINAL SINGLE POINT ENERGY      -510.202957776273

DIPOLE MOMENT
-------------
                                X             Y             Z
Electronic contribution:      4.26720      -2.45920       4.52982
Nuclear contribution   :     -5.36674       2.35201      -5.66189
                        -----------------------------------------
Total Dipole Moment    :     -1.09954      -0.10719      -1.13207
                        -----------------------------------------
Magnitude (a.u.)       :      1.58179
Magnitude (Debye)      :      4.02059

                             ****ORCA TERMINATED NORMALLY****
TOTAL RUN TIME: 0 days 0 hours 11 minutes 34 seconds 321 msec
