                         Program Version 3.0.3 - RELEASE   -
|  1> ! RI-MP2 RIJK def2-TZVP def2-TZVP/C def2-TZVP/JK TIGHTSCF
|  2> % maxcore 2000
|  3> % mp2 density relaxed end
|  4> *xyz 0 1
|  5>  C       -0.0528756784     1.6303346175     0.1340350284
|  6>  C        0.0193216205     0.1027563929     0.0560496500
|  7>  C       -1.3641438089    -0.5443379880    -0.0732478282
|  8>  C       -1.3683727700    -2.0790316813    -0.0614546519
|  9>  O       -0.7439704611    -2.4522973862     1.1807786504
| 10>  C       -2.8084472698    -2.6663365015    -0.1838769602
| 11>  C       -2.7165879051    -3.8838277130    -1.1375934350
| 12>  C       -1.3555006278    -3.7238593305    -1.7699794944
| 13>  C       -0.6458241608    -2.7397337752    -1.2198187412
| 14>  H        0.9443470885     2.0724173815     0.2254845764
| 15>  H       -0.5236904703     2.0549171793    -0.7601873855
| 16>  H       -0.6407639149     1.9547300688     1.0001023150
| 17>  H        0.6443969640    -0.1845438521    -0.7990115279
| 18>  H        0.5118906814    -0.2966787107     0.9475901204
| 19>  H       -1.9975440928    -0.2062625652     0.7580702143
| 20>  H       -1.8509100555    -0.2057324317    -0.9961913693
| 21>  H       -0.5545495089    -3.3952385417     1.1339640287
| 22>  H       -3.1886431365    -2.9191491110     0.8085353397
| 23>  H       -3.4785555882    -1.9128124514    -0.6081729658
| 24>  H       -2.7944081566    -4.8448225161    -0.6111648120
| 25>  H       -3.5202762419    -3.8872089183    -1.8829446847
| 26>  H       -1.0105722881    -4.3656613138    -2.5745154563
| 27>  H        0.3656880912    -2.4638555722    -1.4950925510
| 28> *
| 29>
| 30>                          ****END OF INPUT****

CARTESIAN COORDINATES (ANGSTROEM)
---------------------------------
  C     -0.052876    1.630335    0.134035
  C      0.019322    0.102756    0.056050
  C     -1.364144   -0.544338   -0.073248
  C     -1.368373   -2.079032   -0.061455
  O     -0.743970   -2.452297    1.180779
  C     -2.808447   -2.666337   -0.183877
  C     -2.716588   -3.883828   -1.137593
  C     -1.355501   -3.723859   -1.769979
  C     -0.645824   -2.739734   -1.219819
  H      0.944347    2.072417    0.225485
  H     -0.523690    2.054917   -0.760187
  H     -0.640764    1.954730    1.000102
  H      0.644397   -0.184544   -0.799012
  H      0.511891   -0.296679    0.947590
  H     -1.997544   -0.206263    0.758070
  H     -1.850910   -0.205732   -0.996191
  H     -0.554550   -3.395239    1.133964
  H     -3.188643   -2.919149    0.808535
  H     -3.478556   -1.912812   -0.608173
  H     -2.794408   -4.844823   -0.611165
  H     -3.520276   -3.887209   -1.882945
  H     -1.010572   -4.365661   -2.574515
  H      0.365688   -2.463856   -1.495093

 Total Charge           Charge          ....    0
 Multiplicity           Mult            ....    1
 Number of Electrons    NEL             ....   70
 Basis Dimension        Dim             ....  363

ORBITAL ENERGIES
----------------

  NO   OCC          E(Eh)            E(eV)
   0   2.0000     -20.545956      -559.0839
   1   2.0000     -11.283379      -307.0364
   2   2.0000     -11.234045      -305.6939
   3   2.0000     -11.229375      -305.5668
   4   2.0000     -11.221998      -305.3661
   5   2.0000     -11.218220      -305.2633
   6   2.0000     -11.213002      -305.1213
   7   2.0000     -11.209103      -305.0152
   8   2.0000     -11.206375      -304.9410
   9   2.0000      -1.353341       -36.8263
  10   2.0000      -1.127909       -30.6920
  11   2.0000      -1.055485       -28.7212
  12   2.0000      -0.976284       -26.5660
  13   2.0000      -0.967731       -26.3333
  14   2.0000      -0.889000       -24.1909
  15   2.0000      -0.802264       -21.8307
  16   2.0000      -0.777776       -21.1644
  17   2.0000      -0.736130       -20.0311
  18   2.0000      -0.693450       -18.8697
  19   2.0000      -0.642231       -17.4760
  20   2.0000      -0.631012       -17.1707
  21   2.0000      -0.604184       -16.4407
  22   2.0000      -0.583388       -15.8748
  23   2.0000      -0.567579       -15.4446
  24   2.0000      -0.542107       -14.7515
  25   2.0000      -0.526463       -14.3258
  26   2.0000      -0.523588       -14.2475
  27   2.0000      -0.516540       -14.0558
  28   2.0000      -0.493774       -13.4363
  29   2.0000      -0.491793       -13.3824
  30   2.0000      -0.468818       -12.7572
  31   2.0000      -0.461236       -12.5509
  32   2.0000      -0.449357       -12.2276
  33   2.0000      -0.418956       -11.4004
  34   2.0000      -0.359505        -9.7826
  35   0.0000       0.131638         3.5820
  36   0.0000       0.143988         3.9181
  37   0.0000       0.157619         4.2890
  38   0.0000       0.168773         4.5925
  39   0.0000       0.177710         4.8357

MULLIKEN ATOMIC CHARGES
-----------------------
   0 C :   -0.385138
   1 C :   -0.225733
   2 C :   -0.248626
   3 C :    0.388498
   4 O :   -0.470821
   5 C :   -0.344170
   6 C :   -0.156314
   7 C :   -0.142200
   8 C :   -0.327689
   9 H :    0.131764
  10 H :    0.117934
  11 H :    0.123315
  12 H :    0.098960
  13 H :    0.134144
  14 H :    0.114712
  15 H :    0.113595
  16 H :    0.310969
  17 H :    0.136939
  18 H :    0.123689
  19 H :    0.119270
  20 H :    0.123519
  21 H :    0.128768
  22 H :    0.134616
Sum of atomic charges:   -0.0000000

LOEWDIN ATOMIC CHARGES
----------------------
   0 C :   -0.322266
   1 C :   -0.291818
   2 C :   -0.231395
   3 C :   -0.347421
   4 O :    0.000280
   5 C :   -0.201891
   6 C :   -0.245686
   7 C :   -0.152342
   8 C :   -0.137834
   9 H :    0.119737
  10 H :    0.118529
  11 H :    0.120221
  12 H :    0.131997
  13 H :    0.140752
  14 H :    0.146858
  15 H :    0.143084
  16 H :    0.173378
  17 H :    0.138411
  18 H :    0.142064
  19 H :    0.138887
  20 H :    0.138967
  21 H :    0.136614
  22 H :    0.140874

  Mayer bond orders larger than 0.1
B(  0-C ,  1-C ) :   0.9167 B(  0-C ,  9-H ) :   0.9444 B(  0-C , 10-H ) :   0.9382
B(  0-C , 11-H ) :   0.9416 B(  1-C ,  2-C ) :   0.9452 B(  1-C , 12-H ) :   0.9304
B(  1-C , 13-H ) :   0.9363 B(  2-C ,  3-C ) :   0.8902 B(  2-C , 14-H ) :   0.9273
B(  2-C , 15-H ) :   0.9257 B(  3-C ,  4-O ) :   0.9397 B(  3-C ,  5-C ) :   0.8701
B(  3-C ,  8-C ) :   0.9098 B(  4-O , 16-H ) :   0.8426 B(  5-C ,  6-C ) :   0.9556
B(  5-C , 17-H ) :   0.9409 B(  5-C , 18-H ) :   0.9283 B(  6-C ,  7-C ) :   0.9313
B(  6-C , 19-H ) :   0.9110 B(  6-C , 20-H ) :   0.9275 B(  7-C ,  8-C ) :   1.7671
B(  7-C , 21-H ) :   0.9282 B(  8-C , 22-H ) :   0.9356

MP2 TOTAL ENERGY:     -387.633255906 Eh
FINAL SINGLE POINT ENERGY      -387.633255906375

DIPOLE MOMENT
-------------
                                X             Y             Z
Electronic contribution:     -0.04591      -6.41054       0.21322
Nuclear contribution   :     -0.13150       5.95591      -0.66846
                        -----------------------------------------
Total Dipole Moment    :     -0.17741      -0.45463      -0.45524
                        -----------------------------------------
Magnitude (a.u.)       :      0.66739
Magnitude (Debye)      :      1.69636

                             ****ORCA TERMINATED NORMALLY****
TOTAL RUN TIME: 0 days 0 hours 19 minutes 24 seconds 589 msec
