                         Program Version 3.0.3 - RELEASE   -
|  1> ! RI-MP2 RIJK def2-TZVP def2-TZVP/C def2-TZVP/JK TIGHTSCF
|  2> % maxcore 2000
|  3> % mp2 density relaxed end
|  4> *xyz 0 1
|  5>  C       -0.0121230345     1.4031466830     0.0181651285
|  6>  C        1.4196781546     1.9445415143     0.0080565891
|  7>  N        2.1465556668     1.2776647510    -1.0602058545
|  8>  C        3.3500056927     1.6183161886    -1.6427623768
|  9>  C        3.6146828348     0.6169992033    -2.5391596563
| 10>  N        2.6173765382    -0.3319862339    -2.5197324803
| 11>  C        1.7597067594     0.0935387938    -1.6190510570
| 12>  C        0.4633569453    -0.5416427900    -1.2107060436
| 13>  O       -0.0117238689    -0.0102937836     0.0196418847
| 14>  H       -0.5283865252     1.7246203396     0.9262813977
| 15>  H       -0.5657065421     1.7909446505    -0.8524772010
| 16>  H        1.4201132759     3.0266661947    -0.1595973967
| 17>  H        1.9039986484     1.7450423191     0.9713118741
| 18>  H        3.8808941852     2.5137185536    -1.3642949666
| 19>  H        4.4651806622     0.5243961931    -3.1973660409
| 20>  H       -0.2941519802    -0.4018123606    -2.0004860966
| 21>  H        0.5966994975    -1.6163257166    -1.0657742238
| 22> *
| 23>
| 24>                          ****END OF INPUT****

CARTESIAN COORDINATES (ANGSTROEM)
---------------------------------
  C     -0.012123    1.403147    0.018165
  C      1.419678    1.944542    0.008057
  N      2.146556    1.277665   -1.060206
  C      3.350006    1.618316   -1.642762
  C      3.614683    0.616999   -2.539160
  N      2.617377   -0.331986   -2.519732
  C      1.759707    0.093539   -1.619051
  C      0.463357   -0.541643   -1.210706
  O     -0.011724   -0.010294    0.019642
  H     -0.528387    1.724620    0.926281
  H     -0.565707    1.790945   -0.852477
  H      1.420113    3.026666   -0.159597
  H      1.903999    1.745042    0.971312
  H      3.880894    2.513719   -1.364295
  H      4.465181    0.524396   -3.197366
  H     -0.294152   -0.401812   -2.000486
  H      0.596699   -1.616326   -1.065774

 Total Charge           Charge          ....    0
 Multiplicity           Mult            ....    1
 Number of Electrons    NEL             ....   66
 Basis Dimension        Dim             ....  327

ORBITAL ENERGIES
----------------

  NO   OCC          E(Eh)            E(eV)
   0   2.0000     -20.575670      -559.8924
   1   2.0000     -15.617100      -424.9629
   2   2.0000     -15.537219      -422.7892
   3   2.0000     -11.299527      -307.4758
   4   2.0000     -11.296055      -307.3813
   5   2.0000     -11.294224      -307.3314
   6   2.0000     -11.288933      -307.1875
   7   2.0000     -11.252747      -306.2028
   8   2.0000     -11.240226      -305.8621
   9   2.0000      -1.402825       -38.1728
  10   2.0000      -1.339557       -36.4512
  11   2.0000      -1.185548       -32.2604
  12   2.0000      -1.040964       -28.3261
  13   2.0000      -1.033802       -28.1312
  14   2.0000      -0.921326       -25.0706
  15   2.0000      -0.879053       -23.9202
  16   2.0000      -0.810376       -22.0514
  17   2.0000      -0.749423       -20.3928
  18   2.0000      -0.719947       -19.5908
  19   2.0000      -0.685494       -18.6532
  20   2.0000      -0.655013       -17.8238
  21   2.0000      -0.644172       -17.5288
  22   2.0000      -0.620218       -16.8770
  23   2.0000      -0.604093       -16.4382
  24   2.0000      -0.599477       -16.3126
  25   2.0000      -0.559317       -15.2198
  26   2.0000      -0.546841       -14.8803
  27   2.0000      -0.523466       -14.2442
  28   2.0000      -0.494264       -13.4496
  29   2.0000      -0.452675       -12.3179
  30   2.0000      -0.426189       -11.5972
  31   2.0000      -0.383671       -10.4402
  32   2.0000      -0.311915        -8.4876
  33   0.0000       0.131590         3.5808
  34   0.0000       0.149619         4.0713
  35   0.0000       0.155330         4.2267
  36   0.0000       0.174537         4.7494
  37   0.0000       0.184960         5.0330

MULLIKEN ATOMIC CHARGES
-----------------------
   0 C :   -0.066486
   1 C :   -0.177359
   2 N :   -0.017614
   3 C :   -0.133017
   4 C :   -0.108000
   5 N :   -0.287593
   6 C :    0.077466
   7 C :   -0.044914
   8 O :   -0.310057
   9 H :    0.137694
  10 H :    0.111511
  11 H :    0.135347
  12 H :    0.133980
  13 H :    0.147217
  14 H :    0.133034
  15 H :    0.120716
  16 H :    0.148074
Sum of atomic charges:    0.0000000

LOEWDIN ATOMIC CHARGES
----------------------
   0 C :   -0.312045
   1 C :   -0.238107
   2 N :    0.265839
   3 C :   -0.227030
   4 C :   -0.259930
   5 N :    0.105726
   6 C :   -0.312420
   7 C :   -0.272101
   8 O :    0.159759
   9 H :    0.135710
  10 H :    0.127027
  11 H :    0.141587
  12 H :    0.140265
  13 H :    0.135869
  14 H :    0.132144
  15 H :    0.132383
  16 H :    0.145323

  Mayer bond orders larger than 0.1
B(  0-C ,  1-C ) :   0.9453 B(  0-C ,  8-O ) :   0.9293 B(  0-C ,  9-H ) :   0.9261
B(  0-C , 10-H ) :   0.9313 B(  1-C ,  2-N ) :   0.8719 B(  1-C , 11-H ) :   0.9191
B(  1-C , 12-H ) :   0.9116 B(  2-N ,  3-C ) :   1.1048 B(  2-N ,  6-C ) :   1.1840
B(  3-C ,  4-C ) :   1.5142 B(  3-C , 13-H ) :   0.9115 B(  4-C ,  5-N ) :   1.2753
B(  4-C , 14-H ) :   0.9410 B(  5-N ,  6-C ) :   1.5719 B(  6-C ,  7-C ) :   0.8784
B(  7-C ,  8-O ) :   0.9334 B(  7-C , 15-H ) :   0.9646 B(  7-C , 16-H ) :   0.9225

MP2 TOTAL ENERGY:     -417.339279254 Eh
FINAL SINGLE POINT ENERGY      -417.339279253693

DIPOLE MOMENT
-------------
                                X             Y             Z
Electronic contribution:      1.85249      -2.30955      -1.46484
Nuclear contribution   :     -2.19016       3.63259       2.18027
                        -----------------------------------------
Total Dipole Moment    :     -0.33767       1.32303       0.71543
                        -----------------------------------------
Magnitude (a.u.)       :      1.54152
Magnitude (Debye)      :      3.91823

                             ****ORCA TERMINATED NORMALLY****
TOTAL RUN TIME: 0 days 0 hours 17 minutes 52 seconds 725 msec
