                         Program Version 3.0.3 - RELEASE   -
|  1> ! RI-MP2 RIJK def2-TZVP def2-TZVP/C def2-TZVP/JK TIGHTSCF
|  2> % maxcore 2000
|  3> % mp2 density relaxed end
|  4> *xyz 0 1
|  5>  C        0.2141471270     1.5350251634     0.0262073419
|  6>  O        1.1728444695     0.5063430064    -0.2090268170
|  7>  C       -0.1892470254     0.1165004010     0.0135270403
|  8>  C       -0.4670862866    -0.6411642878     1.2474722357
|  9>  C       -1.5195893801    -1.5011615093     1.4954861824
| 10>  N       -1.3575421480    -1.9477065933     2.7643516015
| 11>  N       -0.2620273692    -1.4491216578     3.3672173611
| 12>  C        0.2808557804    -0.6554223287     2.4508708776
| 13>  H        0.3021274712     2.0493869870     0.9820487984
| 14>  H       -0.0135036312     2.1704209758    -0.8293837941
| 15>  H       -0.6984218812    -0.2443512041    -0.8807788130
| 16>  H       -2.3479062302    -1.8164821041     0.8805777825
| 17>  H       -1.9402907332    -2.5936479045     3.2689576185
| 18>  H        1.2000954569    -0.1307925640     2.6629397240
| 19> *
| 20>
| 21>                          ****END OF INPUT****

CARTESIAN COORDINATES (ANGSTROEM)
---------------------------------
  C      0.214147    1.535025    0.026207
  O      1.172844    0.506343   -0.209027
  C     -0.189247    0.116500    0.013527
  C     -0.467086   -0.641164    1.247472
  C     -1.519589   -1.501162    1.495486
  N     -1.357542   -1.947707    2.764352
  N     -0.262027   -1.449122    3.367217
  C      0.280856   -0.655422    2.450871
  H      0.302127    2.049387    0.982049
  H     -0.013504    2.170421   -0.829384
  H     -0.698422   -0.244351   -0.880779
  H     -2.347906   -1.816482    0.880578
  H     -1.940291   -2.593648    3.268958
  H      1.200095   -0.130793    2.662940

 Total Charge           Charge          ....    0
 Multiplicity           Mult            ....    1
 Number of Electrons    NEL             ....   58
 Basis Dimension        Dim             ....  284

ORBITAL ENERGIES
----------------

  NO   OCC          E(Eh)            E(eV)
   0   2.0000     -20.571406      -559.7764
   1   2.0000     -15.641859      -425.6366
   2   2.0000     -15.591202      -424.2582
   3   2.0000     -11.299078      -307.4635
   4   2.0000     -11.285373      -307.0906
   5   2.0000     -11.282768      -307.0197
   6   2.0000     -11.254282      -306.2446
   7   2.0000     -11.233189      -305.6706
   8   2.0000      -1.414619       -38.4937
   9   2.0000      -1.378663       -37.5153
  10   2.0000      -1.101561       -29.9750
  11   2.0000      -1.075584       -29.2681
  12   2.0000      -0.937811       -25.5191
  13   2.0000      -0.883046       -24.0289
  14   2.0000      -0.825734       -22.4694
  15   2.0000      -0.785712       -21.3803
  16   2.0000      -0.740281       -20.1441
  17   2.0000      -0.696619       -18.9560
  18   2.0000      -0.649957       -17.6862
  19   2.0000      -0.614990       -16.7347
  20   2.0000      -0.611384       -16.6366
  21   2.0000      -0.576537       -15.6884
  22   2.0000      -0.552132       -15.0243
  23   2.0000      -0.543035       -14.7767
  24   2.0000      -0.472607       -12.8603
  25   2.0000      -0.466970       -12.7069
  26   2.0000      -0.452123       -12.3029
  27   2.0000      -0.366070        -9.9613
  28   2.0000      -0.338262        -9.2046
  29   0.0000       0.131990         3.5916
  30   0.0000       0.142227         3.8702
  31   0.0000       0.158216         4.3053
  32   0.0000       0.172461         4.6929
  33   0.0000       0.182945         4.9782

MULLIKEN ATOMIC CHARGES
-----------------------
   0 C :   -0.061540
   1 O :   -0.323549
   2 C :   -0.014279
   3 C :    0.033942
   4 C :   -0.143208
   5 N :   -0.091651
   6 N :   -0.210446
   7 C :   -0.125634
   8 H :    0.125031
   9 H :    0.119528
  10 H :    0.132765
  11 H :    0.155840
  12 H :    0.257088
  13 H :    0.146113
Sum of atomic charges:    0.0000000

LOEWDIN ATOMIC CHARGES
----------------------
   0 C :   -0.258653
   1 O :    0.151905
   2 C :   -0.255666
   3 C :   -0.196320
   4 C :   -0.212883
   5 N :    0.130054
   6 N :    0.023739
   7 C :   -0.235686
   8 H :    0.122188
   9 H :    0.118580
  10 H :    0.144112
  11 H :    0.139367
  12 H :    0.188731
  13 H :    0.140532

  Mayer bond orders larger than 0.1
B(  0-C ,  1-O ) :   0.8881 B(  0-C ,  2-C ) :   0.9743 B(  0-C ,  8-H ) :   0.9111
B(  0-C ,  9-H ) :   0.9233 B(  1-O ,  2-C ) :   0.9407 B(  2-C ,  3-C ) :   0.9262
B(  2-C , 10-H ) :   0.9218 B(  3-C ,  4-C ) :   1.3858 B(  3-C ,  7-C ) :   1.2733
B(  4-C ,  5-N ) :   1.2089 B(  4-C ,  6-N ) :   0.1217 B(  4-C , 11-H ) :   0.9017
B(  5-N ,  6-N ) :   1.0763 B(  5-N , 12-H ) :   0.8747 B(  6-N ,  7-C ) :   1.5344
B(  7-C , 13-H ) :   0.9307

MP2 TOTAL ENERGY:     -378.075465394 Eh
FINAL SINGLE POINT ENERGY      -378.075465393811

DIPOLE MOMENT
-------------
                                X             Y             Z
Electronic contribution:      0.49734      -2.31597       1.73241
Nuclear contribution   :     -1.85399       2.22191      -2.04295
                        -----------------------------------------
Total Dipole Moment    :     -1.35665      -0.09406      -0.31055
                        -----------------------------------------
Magnitude (a.u.)       :      1.39492
Magnitude (Debye)      :      3.54559

                             ****ORCA TERMINATED NORMALLY****
TOTAL RUN TIME: 0 days 0 hours 10 minutes 22 seconds 826 msec
