                         Program Version 3.0.3 - RELEASE   -
|  1> ! RI-MP2 RIJK def2-TZVP def2-TZVP/C def2-TZVP/JK TIGHTSCF
|  2> % maxcore 2000
|  3> % mp2 density relaxed end
|  4> *xyz 0 1
|  5>  N        0.0951290157     1.4122135091     0.0762938694
|  6>  C       -0.0024203693     0.0261543005     0.0157783276
|  7>  C       -1.1269091109    -0.7777792290     0.0159934963
|  8>  N       -2.4559355482    -0.2770664322    -0.0130843345
|  9>  C       -0.6135759474    -2.1086809655     0.0194594781
| 10>  N        0.7232834625    -2.1240185517     0.0158801127
| 11>  N        1.0638364189    -0.8122235419     0.0282072654
| 12>  C       -1.3842977018    -3.2974688498     0.0024624733
| 13>  C       -2.0955581979    -4.2690673178    -0.0131216667
| 14>  H        0.7321882605     1.8065198620    -0.6064506369
| 15>  H       -0.8297066509     1.8108581839    -0.0512936006
| 16>  H       -2.9154195003    -0.3933619934     0.8862008172
| 17>  H       -3.0182049941    -0.7884316923    -0.6867203822
| 18>  H        2.0377355292    -0.5662444565     0.0768280821
| 19>  H       -2.7025591959    -5.1399712455    -0.0250495511
| 20> *
| 21>
| 22>                          ****END OF INPUT****

CARTESIAN COORDINATES (ANGSTROEM)
---------------------------------
  N      0.095129    1.412214    0.076294
  C     -0.002420    0.026154    0.015778
  C     -1.126909   -0.777779    0.015993
  N     -2.455936   -0.277066   -0.013084
  C     -0.613576   -2.108681    0.019459
  N      0.723283   -2.124019    0.015880
  N      1.063836   -0.812224    0.028207
  C     -1.384298   -3.297469    0.002462
  C     -2.095558   -4.269067   -0.013122
  H      0.732188    1.806520   -0.606451
  H     -0.829707    1.810858   -0.051294
  H     -2.915420   -0.393362    0.886201
  H     -3.018205   -0.788432   -0.686720
  H      2.037736   -0.566244    0.076828
  H     -2.702559   -5.139971   -0.025050

 Total Charge           Charge          ....    0
 Multiplicity           Mult            ....    1
 Number of Electrons    NEL             ....   64
 Basis Dimension        Dim             ....  315

ORBITAL ENERGIES
----------------

  NO   OCC          E(Eh)            E(eV)
   0   2.0000     -15.634040      -425.4239
   1   2.0000     -15.586494      -424.1301
   2   2.0000     -15.582277      -424.0153
   3   2.0000     -15.559997      -423.4091
   4   2.0000     -11.312367      -307.8252
   5   2.0000     -11.276346      -306.8450
   6   2.0000     -11.246163      -306.0236
   7   2.0000     -11.239148      -305.8328
   8   2.0000     -11.231260      -305.6181
   9   2.0000      -1.377219       -37.4760
  10   2.0000      -1.230627       -33.4871
  11   2.0000      -1.194391       -32.5010
  12   2.0000      -1.104426       -30.0529
  13   2.0000      -1.026618       -27.9357
  14   2.0000      -1.007027       -27.4026
  15   2.0000      -0.863296       -23.4915
  16   2.0000      -0.800195       -21.7744
  17   2.0000      -0.752240       -20.4695
  18   2.0000      -0.715959       -19.4822
  19   2.0000      -0.680316       -18.5123
  20   2.0000      -0.664378       -18.0786
  21   2.0000      -0.646024       -17.5792
  22   2.0000      -0.636844       -17.3294
  23   2.0000      -0.614411       -16.7190
  24   2.0000      -0.589598       -16.0438
  25   2.0000      -0.494031       -13.4433
  26   2.0000      -0.482426       -13.1275
  27   2.0000      -0.441678       -12.0187
  28   2.0000      -0.423038       -11.5115
  29   2.0000      -0.397386       -10.8134
  30   2.0000      -0.335639        -9.1332
  31   2.0000      -0.312256        -8.4969
  32   0.0000       0.117761         3.2045
  33   0.0000       0.125277         3.4090
  34   0.0000       0.137413         3.7392
  35   0.0000       0.160879         4.3777
  36   0.0000       0.165720         4.5095

MULLIKEN ATOMIC CHARGES
-----------------------
   0 N :   -0.526876
   1 C :    0.120154
   2 C :    0.042529
   3 N :   -0.581212
   4 C :   -0.045805
   5 N :   -0.222413
   6 N :   -0.132468
   7 C :    0.008235
   8 C :   -0.140808
   9 H :    0.250821
  10 H :    0.271317
  11 H :    0.253581
  12 H :    0.255439
  13 H :    0.255636
  14 H :    0.191870
Sum of atomic charges:   -0.0000000

LOEWDIN ATOMIC CHARGES
----------------------
   0 N :   -0.083672
   1 C :   -0.320634
   2 C :   -0.252976
   3 N :   -0.118257
   4 C :   -0.272520
   5 N :    0.057304
   6 N :    0.143930
   7 C :   -0.072692
   8 C :   -0.084393
   9 H :    0.169201
  10 H :    0.182121
  11 H :    0.168061
  12 H :    0.168946
  13 H :    0.188759
  14 H :    0.126823

  Mayer bond orders larger than 0.1
B(  0-N ,  1-C ) :   1.0713 B(  0-N ,  9-H ) :   0.8701 B(  0-N , 10-H ) :   0.8614
B(  1-C ,  2-C ) :   1.4183 B(  1-C ,  5-N ) :   0.1247 B(  1-C ,  6-N ) :   1.2224
B(  2-C ,  3-N ) :   1.0264 B(  2-C ,  4-C ) :   1.1729 B(  3-N ,  4-C ) :  -0.1010
B(  3-N , 11-H ) :   0.8844 B(  3-N , 12-H ) :   0.8880 B(  4-C ,  5-N ) :   1.5338
B(  4-C ,  7-C ) :   1.1989 B(  4-C ,  8-C ) :  -0.1450 B(  5-N ,  6-N ) :   1.0302
B(  6-N , 13-H ) :   0.8687 B(  7-C ,  8-C ) :   2.6031 B(  8-C , 14-H ) :   0.8724

MP2 TOTAL ENERGY:     -412.257773697 Eh
FINAL SINGLE POINT ENERGY      -412.257773696609

DIPOLE MOMENT
-------------
                                X             Y             Z
Electronic contribution:      2.53293      -3.02338       0.15069
Nuclear contribution   :     -2.69845       4.03630      -0.45389
                        -----------------------------------------
Total Dipole Moment    :     -0.16552       1.01292      -0.30321
                        -----------------------------------------
Magnitude (a.u.)       :      1.07021
Magnitude (Debye)      :      2.72026

                             ****ORCA TERMINATED NORMALLY****
TOTAL RUN TIME: 0 days 0 hours 16 minutes 14 seconds 265 msec
