                         Program Version 3.0.3 - RELEASE   -
|  1> ! RI-MP2 RIJK def2-TZVP def2-TZVP/C def2-TZVP/JK TIGHTSCF
|  2> % maxcore 2000
|  3> % mp2 density relaxed end
|  4> *xyz 0 1
|  5>  C       -0.1071455084     1.4787894267    -0.0239943237
|  6>  C       -0.0017449879    -0.0120868816    -0.0742696011
|  7>  C        0.8947444853    -0.8636999397    -0.9760356847
|  8>  C        0.0872113524    -2.0746838983    -0.4277123185
|  9>  O       -0.1305634263    -3.2212797682    -1.1720646892
| 10>  C        0.4692889177    -2.0749691124     1.0646010073
| 11>  N       -0.2537542192    -0.7681452708     1.2147677672
| 12>  C       -1.0481339989    -1.0621631549    -0.0148258768
| 13>  H        0.8319840380     1.9259717281     0.3211689330
| 14>  H       -0.3345392690     1.8904972562    -1.0131264152
| 15>  H       -0.8970682271     1.7797213888     0.6693988919
| 16>  H        0.6658382713    -0.6818302739    -2.0297620318
| 17>  H        1.9796145370    -0.8524739885    -0.8138538759
| 18>  H        0.7181752361    -3.5542734398    -1.4839089713
| 19>  H       -0.0662564533    -2.8358924827     1.6381485730
| 20>  H        1.5307025469    -2.0644086022     1.3425172734
| 21>  H       -2.1290211346    -1.0635006769    -0.0670058575
| 22> *
| 23>
| 24>                          ****END OF INPUT****

CARTESIAN COORDINATES (ANGSTROEM)
---------------------------------
  C     -0.107146    1.478789   -0.023994
  C     -0.001745   -0.012087   -0.074270
  C      0.894744   -0.863700   -0.976036
  C      0.087211   -2.074684   -0.427712
  O     -0.130563   -3.221280   -1.172065
  C      0.469289   -2.074969    1.064601
  N     -0.253754   -0.768145    1.214768
  C     -1.048134   -1.062163   -0.014826
  H      0.831984    1.925972    0.321169
  H     -0.334539    1.890497   -1.013126
  H     -0.897068    1.779721    0.669399
  H      0.665838   -0.681830   -2.029762
  H      1.979615   -0.852474   -0.813854
  H      0.718175   -3.554273   -1.483909
  H     -0.066256   -2.835892    1.638149
  H      1.530703   -2.064409    1.342517
  H     -2.129021   -1.063501   -0.067006

 Total Charge           Charge          ....    0
 Multiplicity           Mult            ....    1
 Number of Electrons    NEL             ....   60
 Basis Dimension        Dim             ....  302

ORBITAL ENERGIES
----------------

  NO   OCC          E(Eh)            E(eV)
   0   2.0000     -20.573180      -559.8247
   1   2.0000     -15.559478      -423.3949
   2   2.0000     -11.301451      -307.5281
   3   2.0000     -11.269111      -306.6481
   4   2.0000     -11.256580      -306.3071
   5   2.0000     -11.250245      -306.1347
   6   2.0000     -11.233575      -305.6811
   7   2.0000     -11.221287      -305.3467
   8   2.0000      -1.387515       -37.7562
   9   2.0000      -1.308919       -35.6175
  10   2.0000      -1.032917       -28.1071
  11   2.0000      -1.010822       -27.5059
  12   2.0000      -0.938232       -25.5306
  13   2.0000      -0.872939       -23.7539
  14   2.0000      -0.755692       -20.5634
  15   2.0000      -0.738437       -20.0939
  16   2.0000      -0.707965       -19.2647
  17   2.0000      -0.659467       -17.9450
  18   2.0000      -0.629028       -17.1167
  19   2.0000      -0.612808       -16.6754
  20   2.0000      -0.593861       -16.1598
  21   2.0000      -0.565749       -15.3948
  22   2.0000      -0.549791       -14.9606
  23   2.0000      -0.535378       -14.5684
  24   2.0000      -0.513776       -13.9806
  25   2.0000      -0.478328       -13.0160
  26   2.0000      -0.436101       -11.8669
  27   2.0000      -0.426295       -11.6001
  28   2.0000      -0.412442       -11.2231
  29   2.0000      -0.359123        -9.7722
  30   0.0000       0.129904         3.5349
  31   0.0000       0.146903         3.9974
  32   0.0000       0.174047         4.7361
  33   0.0000       0.184227         5.0131
  34   0.0000       0.190814         5.1923

MULLIKEN ATOMIC CHARGES
-----------------------
   0 C :   -0.421117
   1 C :    0.054830
   2 C :   -0.209541
   3 C :    0.195981
   4 O :   -0.456524
   5 C :   -0.118226
   6 N :   -0.249093
   7 C :   -0.135437
   8 H :    0.132057
   9 H :    0.129666
  10 H :    0.146681
  11 H :    0.123053
  12 H :    0.111344
  13 H :    0.326012
  14 H :    0.116791
  15 H :    0.102215
  16 H :    0.151308
Sum of atomic charges:   -0.0000000

LOEWDIN ATOMIC CHARGES
----------------------
   0 C :   -0.271551
   1 C :   -0.263375
   2 C :   -0.176282
   3 C :   -0.337842
   4 O :    0.025137
   5 C :   -0.221805
   6 N :    0.137576
   7 C :   -0.130462
   8 H :    0.130452
   9 H :    0.128606
  10 H :    0.136522
  11 H :    0.145425
  12 H :    0.125413
  13 H :    0.185387
  14 H :    0.135165
  15 H :    0.118145
  16 H :    0.133490

  Mayer bond orders larger than 0.1
B(  0-C ,  1-C ) :   0.8768 B(  0-C ,  8-H ) :   0.9408 B(  0-C ,  9-H ) :   0.9390
B(  0-C , 10-H ) :   0.9388 B(  1-C ,  2-C ) :   0.9218 B(  1-C ,  6-N ) :   0.8588
B(  1-C ,  7-C ) :   0.8560 B(  2-C ,  3-C ) :   0.9363 B(  2-C , 11-H ) :   0.9127
B(  2-C , 12-H ) :   0.9028 B(  3-C ,  4-O ) :   1.0194 B(  3-C ,  5-C ) :   0.9553
B(  3-C ,  7-C ) :   0.8905 B(  4-O , 13-H ) :   0.8322 B(  5-C ,  6-N ) :   0.9290
B(  5-C , 14-H ) :   0.9205 B(  5-C , 15-H ) :   0.9140 B(  6-N ,  7-C ) :   0.8856
B(  7-C , 16-H ) :   0.8905

MP2 TOTAL ENERGY:     -363.181473359 Eh
FINAL SINGLE POINT ENERGY      -363.181473358632

DIPOLE MOMENT
-------------
                                X             Y             Z
Electronic contribution:     -1.48629      -4.25108       0.11177
Nuclear contribution   :      2.13807       4.20766      -0.70211
                        -----------------------------------------
Total Dipole Moment    :      0.65178      -0.04342      -0.59034
                        -----------------------------------------
Magnitude (a.u.)       :      0.88045
Magnitude (Debye)      :      2.23793

                             ****ORCA TERMINATED NORMALLY****
TOTAL RUN TIME: 0 days 0 hours 13 minutes 10 seconds 103 msec
