                         Program Version 3.0.3 - RELEASE   -
|  1> ! RI-MP2 RIJK def2-TZVP def2-TZVP/C def2-TZVP/JK TIGHTSCF
|  2> % maxcore 2000
|  3> % mp2 density relaxed end
|  4> *xyz 0 1
|  5>  C       -0.0392686162     1.5108372589    -0.5259243093
|  6>  C        0.0222989257     0.1227681853     0.1241221426
|  7>  C       -1.3513335669    -0.5116823349     0.2241304143
|  8>  C       -1.8961354407    -1.3705033659    -0.8840470731
|  9>  O       -1.0298734084    -1.6255408822    -1.9503191863
| 10>  C       -1.5860700338    -1.9967708073     0.4608590106
| 11>  C       -0.4338656266    -2.9884703542     0.5687943945
| 12>  C       -0.6981773694    -4.1971504190    -0.2172876424
| 13>  N       -0.9353161078    -5.1225174881    -0.8687781881
| 14>  H        0.9550444253     1.9645886277    -0.5779162365
| 15>  H       -0.4343639337     1.4428799096    -1.5439939440
| 16>  H       -0.6863406200     2.1883585372     0.0420781149
| 17>  H        0.6855178299    -0.5114091188    -0.4699964256
| 18>  H        0.4625457534     0.2018988448     1.1264508822
| 19>  H       -2.0875722644     0.1286124726     0.7049327723
| 20>  H       -2.9431123439    -1.2562575382    -1.1619999277
| 21>  H       -1.1992627524    -2.5200059753    -2.2693174808
| 22>  H       -2.4411568117    -2.2592585513     1.0763440818
| 23>  H        0.5020678930    -2.5559464864     0.2078506397
| 24>  H       -0.2685577113    -3.2743069944     1.6129705710
| 25> *
| 26>
| 27>                          ****END OF INPUT****

CARTESIAN COORDINATES (ANGSTROEM)
---------------------------------
  C     -0.039269    1.510837   -0.525924
  C      0.022299    0.122768    0.124122
  C     -1.351334   -0.511682    0.224130
  C     -1.896135   -1.370503   -0.884047
  O     -1.029873   -1.625541   -1.950319
  C     -1.586070   -1.996771    0.460859
  C     -0.433866   -2.988470    0.568794
  C     -0.698177   -4.197150   -0.217288
  N     -0.935316   -5.122517   -0.868778
  H      0.955044    1.964589   -0.577916
  H     -0.434364    1.442880   -1.543994
  H     -0.686341    2.188359    0.042078
  H      0.685518   -0.511409   -0.469996
  H      0.462546    0.201899    1.126451
  H     -2.087572    0.128612    0.704933
  H     -2.943112   -1.256258   -1.162000
  H     -1.199263   -2.520006   -2.269317
  H     -2.441157   -2.259259    1.076344
  H      0.502068   -2.555946    0.207851
  H     -0.268558   -3.274307    1.612971

 Total Charge           Charge          ....    0
 Multiplicity           Mult            ....    1
 Number of Electrons    NEL             ....   68
 Basis Dimension        Dim             ....  345

ORBITAL ENERGIES
----------------

  NO   OCC          E(Eh)            E(eV)
   0   2.0000     -20.573079      -559.8219
   1   2.0000     -15.571352      -423.7180
   2   2.0000     -11.294073      -307.3273
   3   2.0000     -11.286356      -307.1174
   4   2.0000     -11.277189      -306.8679
   5   2.0000     -11.255447      -306.2763
   6   2.0000     -11.246292      -306.0272
   7   2.0000     -11.232517      -305.6523
   8   2.0000     -11.217870      -305.2538
   9   2.0000      -1.384266       -37.6678
  10   2.0000      -1.222636       -33.2696
  11   2.0000      -1.161657       -31.6103
  12   2.0000      -1.052202       -28.6319
  13   2.0000      -1.017936       -27.6994
  14   2.0000      -0.877181       -23.8693
  15   2.0000      -0.823862       -22.4184
  16   2.0000      -0.776728       -21.1358
  17   2.0000      -0.726442       -19.7675
  18   2.0000      -0.701333       -19.0842
  19   2.0000      -0.682097       -18.5608
  20   2.0000      -0.637176       -17.3384
  21   2.0000      -0.610157       -16.6032
  22   2.0000      -0.601684       -16.3727
  23   2.0000      -0.564693       -15.3661
  24   2.0000      -0.563034       -15.3209
  25   2.0000      -0.560307       -15.2467
  26   2.0000      -0.538189       -14.6449
  27   2.0000      -0.510668       -13.8960
  28   2.0000      -0.502239       -13.6666
  29   2.0000      -0.485162       -13.2019
  30   2.0000      -0.466388       -12.6911
  31   2.0000      -0.459212       -12.4958
  32   2.0000      -0.414653       -11.2833
  33   2.0000      -0.405900       -11.0451
  34   0.0000       0.120786         3.2868
  35   0.0000       0.145651         3.9634
  36   0.0000       0.147771         4.0210
  37   0.0000       0.158376         4.3096
  38   0.0000       0.175515         4.7760

MULLIKEN ATOMIC CHARGES
-----------------------
   0 C :   -0.409104
   1 C :   -0.200635
   2 C :   -0.112496
   3 C :   -0.001006
   4 O :   -0.474215
   5 C :   -0.088597
   6 C :   -0.126607
   7 C :   -0.208665
   8 N :   -0.066342
   9 H :    0.134234
  10 H :    0.145308
  11 H :    0.119766
  12 H :    0.122182
  13 H :    0.119181
  14 H :    0.125467
  15 H :    0.120978
  16 H :    0.337422
  17 H :    0.132194
  18 H :    0.165529
  19 H :    0.165408
Sum of atomic charges:    0.0000000

LOEWDIN ATOMIC CHARGES
----------------------
   0 C :   -0.309995
   1 C :   -0.272919
   2 C :   -0.190089
   3 C :   -0.295433
   4 O :    0.011398
   5 C :   -0.186018
   6 C :   -0.224058
   7 C :   -0.194310
   8 N :    0.048281
   9 H :    0.121495
  10 H :    0.127077
  11 H :    0.119791
  12 H :    0.141808
  13 H :    0.138420
  14 H :    0.154787
  15 H :    0.132456
  16 H :    0.187736
  17 H :    0.152419
  18 H :    0.170375
  19 H :    0.166780

  Mayer bond orders larger than 0.1
B(  0-C ,  1-C ) :   0.9158 B(  0-C ,  9-H ) :   0.9398 B(  0-C , 10-H ) :   0.9411
B(  0-C , 11-H ) :   0.9380 B(  1-C ,  2-C ) :   0.9207 B(  1-C , 12-H ) :   0.9258
B(  1-C , 13-H ) :   0.9331 B(  2-C ,  3-C ) :   0.8768 B(  2-C ,  5-C ) :   0.8761
B(  2-C , 14-H ) :   0.9204 B(  3-C ,  4-O ) :   1.0134 B(  3-C ,  5-C ) :   0.8819
B(  3-C , 15-H ) :   0.9559 B(  4-O , 16-H ) :   0.8306 B(  5-C ,  6-C ) :   0.8792
B(  5-C , 17-H ) :   0.9165 B(  6-C ,  7-C ) :   0.9286 B(  6-C , 18-H ) :   0.9117
B(  6-C , 19-H ) :   0.9086 B(  7-C ,  8-N ) :   2.8577

MP2 TOTAL ENERGY:     -402.459734544 Eh
FINAL SINGLE POINT ENERGY      -402.459734543735

DIPOLE MOMENT
-------------
                                X             Y             Z
Electronic contribution:     -2.06143     -10.86789      -1.82140
Nuclear contribution   :      1.98550      11.86612       2.72585
                        -----------------------------------------
Total Dipole Moment    :     -0.07593       0.99824       0.90446
                        -----------------------------------------
Magnitude (a.u.)       :      1.34918
Magnitude (Debye)      :      3.42934

                             ****ORCA TERMINATED NORMALLY****
TOTAL RUN TIME: 0 days 0 hours 16 minutes 53 seconds 900 msec
