                         Program Version 3.0.3 - RELEASE   -
|  1> ! RI-MP2 RIJK def2-TZVP def2-TZVP/C def2-TZVP/JK TIGHTSCF
|  2> % maxcore 2000
|  3> % mp2 density relaxed end
|  4> *xyz 0 1
|  5>  N        0.0576074464    -1.0981383114     0.0596276643
|  6>  C        0.0276840341     0.0561048510     0.0212186335
|  7>  C       -0.0339811346     1.5105814165     0.0119122768
|  8>  C       -0.8526094617     2.1260278973     1.1778092565
|  9>  O       -1.0828660504     3.4692247748     0.7301508753
| 10>  C       -0.4862740361     3.5759666059    -0.5724408388
| 11>  C        1.0386987553     3.5685644648    -0.3980105465
| 12>  N        1.3028885977     2.1382406582    -0.0607226141
| 13>  C       -0.7393852159     2.1921327373    -1.1845177927
| 14>  H       -1.8071100130     1.6119246695     1.3483275269
| 15>  H       -0.2788294099     2.1252182274     2.1120576546
| 16>  H       -0.9070367033     4.4446567762    -1.0770127615
| 17>  H        1.5683582801     3.8530874512    -1.3153069962
| 18>  H        1.3336744655     4.2532934907     0.4025096593
| 19>  H        1.7947370431     2.0408342919     0.8203644221
| 20>  H       -0.2215250752     2.0075099622    -2.1258317180
| 21>  H       -1.7975930720     1.9417570665    -1.2622373415
| 22> *
| 23>
| 24>                          ****END OF INPUT****

CARTESIAN COORDINATES (ANGSTROEM)
---------------------------------
  N      0.057607   -1.098138    0.059628
  C      0.027684    0.056105    0.021219
  C     -0.033981    1.510581    0.011912
  C     -0.852609    2.126028    1.177809
  O     -1.082866    3.469225    0.730151
  C     -0.486274    3.575967   -0.572441
  C      1.038699    3.568564   -0.398011
  N      1.302889    2.138241   -0.060723
  C     -0.739385    2.192133   -1.184518
  H     -1.807110    1.611925    1.348328
  H     -0.278829    2.125218    2.112058
  H     -0.907037    4.444657   -1.077013
  H      1.568358    3.853087   -1.315307
  H      1.333674    4.253293    0.402510
  H      1.794737    2.040834    0.820364
  H     -0.221525    2.007510   -2.125832
  H     -1.797593    1.941757   -1.262237

 Total Charge           Charge          ....    0
 Multiplicity           Mult            ....    1
 Number of Electrons    NEL             ....   66
 Basis Dimension        Dim             ....  327

ORBITAL ENERGIES
----------------

  NO   OCC          E(Eh)            E(eV)
   0   2.0000     -20.574918      -559.8720
   1   2.0000     -15.577612      -423.8884
   2   2.0000     -15.575037      -423.8183
   3   2.0000     -11.323076      -308.1166
   4   2.0000     -11.305326      -307.6336
   5   2.0000     -11.303222      -307.5763
   6   2.0000     -11.277549      -306.8777
   7   2.0000     -11.271897      -306.7239
   8   2.0000     -11.255853      -306.2873
   9   2.0000      -1.406760       -38.2799
  10   2.0000      -1.254160       -34.1274
  11   2.0000      -1.217474       -33.1291
  12   2.0000      -1.062352       -28.9081
  13   2.0000      -1.050779       -28.5931
  14   2.0000      -0.920892       -25.0588
  15   2.0000      -0.868304       -23.6277
  16   2.0000      -0.808278       -21.9944
  17   2.0000      -0.765042       -20.8178
  18   2.0000      -0.711968       -19.3736
  19   2.0000      -0.679601       -18.4929
  20   2.0000      -0.620856       -16.8943
  21   2.0000      -0.606150       -16.4942
  22   2.0000      -0.592014       -16.1095
  23   2.0000      -0.567237       -15.4353
  24   2.0000      -0.559674       -15.2295
  25   2.0000      -0.550350       -14.9758
  26   2.0000      -0.545014       -14.8306
  27   2.0000      -0.532872       -14.5002
  28   2.0000      -0.526766       -14.3340
  29   2.0000      -0.468623       -12.7519
  30   2.0000      -0.466121       -12.6838
  31   2.0000      -0.433199       -11.7879
  32   2.0000      -0.392457       -10.6793
  33   0.0000       0.118368         3.2210
  34   0.0000       0.144944         3.9441
  35   0.0000       0.156092         4.2475
  36   0.0000       0.169999         4.6259
  37   0.0000       0.173626         4.7246

MULLIKEN ATOMIC CHARGES
-----------------------
   0 N :   -0.036979
   1 C :   -0.233344
   2 C :    0.216966
   3 C :   -0.047793
   4 O :   -0.317920
   5 C :    0.101950
   6 C :   -0.200015
   7 N :   -0.319300
   8 C :   -0.302213
   9 H :    0.116887
  10 H :    0.109934
  11 H :    0.142019
  12 H :    0.119705
  13 H :    0.136893
  14 H :    0.217107
  15 H :    0.151051
  16 H :    0.145053
Sum of atomic charges:    0.0000000

LOEWDIN ATOMIC CHARGES
----------------------
   0 N :    0.076866
   1 C :   -0.142740
   2 C :   -0.324515
   3 C :   -0.236410
   4 O :    0.164106
   5 C :   -0.294222
   6 C :   -0.253309
   7 N :    0.038170
   8 C :   -0.165876
   9 H :    0.130565
  10 H :    0.128261
  11 H :    0.144119
  12 H :    0.130078
  13 H :    0.132228
  14 H :    0.170896
  15 H :    0.152340
  16 H :    0.149444

  Mayer bond orders larger than 0.1
B(  0-N ,  1-C ) :   2.8928 B(  1-C ,  2-C ) :   0.8601 B(  2-C ,  3-C ) :   0.9902
B(  2-C ,  7-N ) :   0.9449 B(  2-C ,  8-C ) :   0.8844 B(  3-C ,  4-O ) :   0.9508
B(  3-C ,  9-H ) :   0.9171 B(  3-C , 10-H ) :   0.9022 B(  4-O ,  5-C ) :   0.9323
B(  5-C ,  6-C ) :   0.9089 B(  5-C ,  8-C ) :   0.9535 B(  5-C , 11-H ) :   0.9170
B(  6-C ,  7-N ) :   0.9428 B(  6-C , 12-H ) :   0.9198 B(  6-C , 13-H ) :   0.9343
B(  7-N , 14-H ) :   0.8763 B(  8-C , 15-H ) :   0.9168 B(  8-C , 16-H ) :   0.9118

MP2 TOTAL ENERGY:     -417.317078029 Eh
FINAL SINGLE POINT ENERGY      -417.317078028852

DIPOLE MOMENT
-------------
                                X             Y             Z
Electronic contribution:     -0.38639      -4.46714       0.89420
Nuclear contribution   :      0.37195       5.85072      -0.97129
                        -----------------------------------------
Total Dipole Moment    :     -0.01444       1.38358      -0.07710
                        -----------------------------------------
Magnitude (a.u.)       :      1.38580
Magnitude (Debye)      :      3.52244

                             ****ORCA TERMINATED NORMALLY****
TOTAL RUN TIME: 0 days 0 hours 18 minutes 30 seconds 25 msec
