                         Program Version 3.0.3 - RELEASE   -
|  1> ! RI-MP2 RIJK def2-TZVP def2-TZVP/C def2-TZVP/JK TIGHTSCF
|  2> % maxcore 2000
|  3> % mp2 density relaxed end
|  4> *xyz 0 1
|  5>  O       -0.0638087301     1.4607014487     0.0107270536
|  6>  C        0.0281481455     0.0450968267     0.0027838908
|  7>  C       -1.3963707548    -0.5147650118     0.0119191222
|  8>  C       -1.4147857015    -2.0247115916     0.0042549013
|  9>  C       -1.4147732954    -2.7358365955    -1.1999033169
| 10>  C       -1.3978724072    -4.1279981037    -1.2102618879
| 11>  C       -1.3806345811    -4.8357016596    -0.0106471349
| 12>  C       -1.3818337977    -4.1405618715     1.1963947297
| 13>  C       -1.3987802735    -2.7483510694     1.2008016109
| 14>  H        0.8280076003     1.8201945229     0.0052850632
| 15>  H        0.5596203922    -0.3207674269    -0.8901767821
| 16>  H        0.5744791116    -0.3297810101     0.8829400655
| 17>  H       -1.9088620528    -0.1277255245     0.8990666863
| 18>  H       -1.9237402076    -0.1185590766    -0.8623805828
| 19>  H       -1.4351325659    -2.1903053183    -2.1392538045
| 20>  H       -1.4032765859    -4.6601999535    -2.1560939349
| 21>  H       -1.3711328651    -5.9205800476    -0.0163704506
| 22>  H       -1.3746542370    -4.6825970500     2.1366144770
| 23>  H       -1.4065261742    -2.2126628779     2.1459847039
| 24> *
| 25>
| 26>                          ****END OF INPUT****

CARTESIAN COORDINATES (ANGSTROEM)
---------------------------------
  O     -0.063809    1.460701    0.010727
  C      0.028148    0.045097    0.002784
  C     -1.396371   -0.514765    0.011919
  C     -1.414786   -2.024712    0.004255
  C     -1.414773   -2.735837   -1.199903
  C     -1.397872   -4.127998   -1.210262
  C     -1.380635   -4.835702   -0.010647
  C     -1.381834   -4.140562    1.196395
  C     -1.398780   -2.748351    1.200802
  H      0.828008    1.820195    0.005285
  H      0.559620   -0.320767   -0.890177
  H      0.574479   -0.329781    0.882940
  H     -1.908862   -0.127726    0.899067
  H     -1.923740   -0.118559   -0.862381
  H     -1.435133   -2.190305   -2.139254
  H     -1.403277   -4.660200   -2.156094
  H     -1.371133   -5.920580   -0.016370
  H     -1.374654   -4.682597    2.136614
  H     -1.406526   -2.212663    2.145985

 Total Charge           Charge          ....    0
 Multiplicity           Mult            ....    1
 Number of Electrons    NEL             ....   66
 Basis Dimension        Dim             ....  339

ORBITAL ENERGIES
----------------

  NO   OCC          E(Eh)            E(eV)
   0   2.0000     -20.556312      -559.3657
   1   2.0000     -11.277274      -306.8702
   2   2.0000     -11.239832      -305.8514
   3   2.0000     -11.233713      -305.6849
   4   2.0000     -11.233499      -305.6790
   5   2.0000     -11.230458      -305.5963
   6   2.0000     -11.230116      -305.5870
   7   2.0000     -11.229982      -305.5833
   8   2.0000     -11.225557      -305.4629
   9   2.0000      -1.360673       -37.0258
  10   2.0000      -1.154644       -31.4195
  11   2.0000      -1.059593       -28.8330
  12   2.0000      -1.012770       -27.5589
  13   2.0000      -0.973707       -26.4959
  14   2.0000      -0.854178       -23.2434
  15   2.0000      -0.826425       -22.4882
  16   2.0000      -0.790605       -21.5134
  17   2.0000      -0.708941       -19.2913
  18   2.0000      -0.682675       -18.5765
  19   2.0000      -0.657454       -17.8902
  20   2.0000      -0.628724       -17.1084
  21   2.0000      -0.616489       -16.7755
  22   2.0000      -0.584347       -15.9009
  23   2.0000      -0.583987       -15.8911
  24   2.0000      -0.561178       -15.2704
  25   2.0000      -0.524105       -14.2616
  26   2.0000      -0.510119       -13.8810
  27   2.0000      -0.486671       -13.2430
  28   2.0000      -0.486331       -13.2337
  29   2.0000      -0.479427       -13.0459
  30   2.0000      -0.444954       -12.1078
  31   2.0000      -0.336423        -9.1545
  32   2.0000      -0.327627        -8.9152
  33   0.0000       0.122523         3.3340
  34   0.0000       0.124374         3.3844
  35   0.0000       0.136400         3.7116
  36   0.0000       0.151924         4.1341
  37   0.0000       0.169590         4.6148

MULLIKEN ATOMIC CHARGES
-----------------------
   0 O :   -0.464285
   1 C :   -0.076507
   2 C :   -0.221701
   3 C :    0.196281
   4 C :   -0.230985
   5 C :   -0.107143
   6 C :   -0.139667
   7 C :   -0.107099
   8 C :   -0.230959
   9 H :    0.316623
  10 H :    0.099902
  11 H :    0.099914
  12 H :    0.126205
  13 H :    0.126225
  14 H :    0.121615
  15 H :    0.123167
  16 H :    0.123664
  17 H :    0.123168
  18 H :    0.121582
Sum of atomic charges:   -0.0000000

LOEWDIN ATOMIC CHARGES
----------------------
   0 O :   -0.051397
   1 C :   -0.344586
   2 C :   -0.223347
   3 C :   -0.145380
   4 C :   -0.116069
   5 C :   -0.145347
   6 C :   -0.146133
   7 C :   -0.145345
   8 C :   -0.116076
   9 H :    0.172651
  10 H :    0.116079
  11 H :    0.116088
  12 H :    0.147126
  13 H :    0.147141
  14 H :    0.149026
  15 H :    0.145647
  16 H :    0.145255
  17 H :    0.145647
  18 H :    0.149020

  Mayer bond orders larger than 0.1
B(  0-O ,  1-C ) :   1.0072 B(  0-O ,  9-H ) :   0.8480 B(  1-C ,  2-C ) :   0.9278
B(  1-C , 10-H ) :   0.9302 B(  1-C , 11-H ) :   0.9302 B(  2-C ,  3-C ) :   0.8250
B(  2-C , 12-H ) :   0.9331 B(  2-C , 13-H ) :   0.9330 B(  3-C ,  4-C ) :   1.3033
B(  3-C ,  8-C ) :   1.3035 B(  4-C ,  5-C ) :   1.3429 B(  4-C , 14-H ) :   0.9332
B(  5-C ,  6-C ) :   1.3226 B(  5-C , 15-H ) :   0.9341 B(  6-C ,  7-C ) :   1.3227
B(  6-C , 16-H ) :   0.9329 B(  7-C ,  8-C ) :   1.3428 B(  7-C , 17-H ) :   0.9341
B(  8-C , 18-H ) :   0.9332

MP2 TOTAL ENERGY:     -385.269374165 Eh
FINAL SINGLE POINT ENERGY      -385.269374164836

DIPOLE MOMENT
-------------
                                X             Y             Z
Electronic contribution:     -0.91149      -1.78650      -0.00170
Nuclear contribution   :      1.46497       1.57007      -0.00391
                        -----------------------------------------
Total Dipole Moment    :      0.55348      -0.21643      -0.00561
                        -----------------------------------------
Magnitude (a.u.)       :      0.59431
Magnitude (Debye)      :      1.51062

                             ****ORCA TERMINATED NORMALLY****
TOTAL RUN TIME: 0 days 0 hours 16 minutes 48 seconds 987 msec
