                         Program Version 3.0.3 - RELEASE   -
|  1> ! RI-MP2 RIJK def2-TZVP def2-TZVP/C def2-TZVP/JK TIGHTSCF
|  2> % maxcore 2000
|  3> % mp2 density relaxed end
|  4> *xyz 0 1
|  5>  C        0.9193205841     1.0640613731     0.2581914311
|  6>  C       -0.1785361661     0.0323851485    -0.0203458677
|  7>  C        0.0225649109    -0.7079485580    -1.3671692032
|  8>  C        1.1929637444    -1.6618159169    -1.2664262974
|  9>  C        1.3002457360    -2.3215621720    -0.1222648451
| 10>  C        2.3593643413    -2.9974386827     0.7237284225
| 11>  C        1.7297141106    -2.2303502643     1.9386507083
| 12>  C        0.4320400358    -2.0504350047     1.0743114735
| 13>  O       -0.3345823312    -0.8696226528     1.0855086505
| 14>  H        1.9145418412     0.6118872335     0.2215494660
| 15>  H        0.8841590116     1.8714581951    -0.4815921464
| 16>  H        0.7741055926     1.5003183961     1.2501272751
| 17>  H       -1.1396754394     0.5580054361    -0.0594928194
| 18>  H       -0.9044720132    -1.2376358828    -1.6212206216
| 19>  H        0.1842414551     0.0337001144    -2.1559478722
| 20>  H        1.9373173052    -1.7117889250    -2.0555568423
| 21>  H        2.2222577362    -4.0805159007     0.8100973280
| 22>  H        3.4046416162    -2.7959456013     0.4799504522
| 23>  H        1.6301440137    -2.7662937154     2.8849366439
| 24>  H        2.2262053419    -1.2725899887     2.1052074739
| 25>  H       -0.2550641069    -2.8809954013     1.2902087004
| 26> *
| 27>
| 28>                          ****END OF INPUT****

CARTESIAN COORDINATES (ANGSTROEM)
---------------------------------
  C      0.919321    1.064061    0.258191
  C     -0.178536    0.032385   -0.020346
  C      0.022565   -0.707949   -1.367169
  C      1.192964   -1.661816   -1.266426
  C      1.300246   -2.321562   -0.122265
  C      2.359364   -2.997439    0.723728
  C      1.729714   -2.230350    1.938651
  C      0.432040   -2.050435    1.074311
  O     -0.334582   -0.869623    1.085509
  H      1.914542    0.611887    0.221549
  H      0.884159    1.871458   -0.481592
  H      0.774106    1.500318    1.250127
  H     -1.139675    0.558005   -0.059493
  H     -0.904472   -1.237636   -1.621221
  H      0.184241    0.033700   -2.155948
  H      1.937317   -1.711789   -2.055557
  H      2.222258   -4.080516    0.810097
  H      3.404642   -2.795946    0.479950
  H      1.630144   -2.766294    2.884937
  H      2.226205   -1.272590    2.105207
  H     -0.255064   -2.880995    1.290209

 Total Charge           Charge          ....    0
 Multiplicity           Mult            ....    1
 Number of Electrons    NEL             ....   68
 Basis Dimension        Dim             ....  351

ORBITAL ENERGIES
----------------

  NO   OCC          E(Eh)            E(eV)
   0   2.0000     -20.545697      -559.0769
   1   2.0000     -11.278752      -306.9105
   2   2.0000     -11.275484      -306.8215
   3   2.0000     -11.233540      -305.6802
   4   2.0000     -11.227951      -305.5281
   5   2.0000     -11.226594      -305.4912
   6   2.0000     -11.226482      -305.4881
   7   2.0000     -11.221294      -305.3469
   8   2.0000     -11.209418      -305.0238
   9   2.0000      -1.366392       -37.1814
  10   2.0000      -1.139905       -31.0184
  11   2.0000      -1.071986       -29.1702
  12   2.0000      -0.993580       -27.0367
  13   2.0000      -0.911395       -24.8003
  14   2.0000      -0.897040       -24.4097
  15   2.0000      -0.822904       -22.3923
  16   2.0000      -0.802184       -21.8285
  17   2.0000      -0.696386       -18.9496
  18   2.0000      -0.667829       -18.1726
  19   2.0000      -0.650317       -17.6960
  20   2.0000      -0.642130       -17.4732
  21   2.0000      -0.592178       -16.1140
  22   2.0000      -0.585315       -15.9272
  23   2.0000      -0.561651       -15.2833
  24   2.0000      -0.555624       -15.1193
  25   2.0000      -0.532873       -14.5002
  26   2.0000      -0.515478       -14.0269
  27   2.0000      -0.510619       -13.8947
  28   2.0000      -0.495601       -13.4860
  29   2.0000      -0.483489       -13.1564
  30   2.0000      -0.465213       -12.6591
  31   2.0000      -0.416947       -11.3457
  32   2.0000      -0.399088       -10.8597
  33   2.0000      -0.341126        -9.2825
  34   0.0000       0.136833         3.7234
  35   0.0000       0.139935         3.8078
  36   0.0000       0.153715         4.1828
  37   0.0000       0.166741         4.5373
  38   0.0000       0.177872         4.8402

MULLIKEN ATOMIC CHARGES
-----------------------
   0 C :   -0.432257
   1 C :    0.128271
   2 C :   -0.189690
   3 C :   -0.236694
   4 C :   -0.074265
   5 C :   -0.208107
   6 C :   -0.226995
   7 C :    0.105254
   8 O :   -0.315303
   9 H :    0.131381
  10 H :    0.123424
  11 H :    0.138463
  12 H :    0.094334
  13 H :    0.126586
  14 H :    0.121723
  15 H :    0.124395
  16 H :    0.125853
  17 H :    0.123374
  18 H :    0.120198
  19 H :    0.122339
  20 H :    0.097716
Sum of atomic charges:    0.0000000

LOEWDIN ATOMIC CHARGES
----------------------
   0 C :   -0.298043
   1 C :   -0.320519
   2 C :   -0.229304
   3 C :   -0.149878
   4 C :   -0.160714
   5 C :   -0.197820
   6 C :   -0.202258
   7 C :   -0.260902
   8 O :    0.192535
   9 H :    0.122844
  10 H :    0.124036
  11 H :    0.126048
  12 H :    0.143024
  13 H :    0.146534
  14 H :    0.145235
  15 H :    0.139328
  16 H :    0.140550
  17 H :    0.131507
  18 H :    0.122536
  19 H :    0.136421
  20 H :    0.148840

  Mayer bond orders larger than 0.1
B(  0-C ,  1-C ) :   0.9103 B(  0-C ,  9-H ) :   0.9309 B(  0-C , 10-H ) :   0.9294
B(  0-C , 11-H ) :   0.9406 B(  1-C ,  2-C ) :   0.9147 B(  1-C ,  8-O ) :   0.9181
B(  1-C , 12-H ) :   0.9268 B(  2-C ,  3-C ) :   0.9253 B(  2-C , 13-H ) :   0.9109
B(  2-C , 14-H ) :   0.9271 B(  3-C ,  4-C ) :   1.7863 B(  3-C , 15-H ) :   0.9347
B(  4-C ,  5-C ) :   0.9123 B(  4-C ,  7-C ) :   0.9143 B(  5-C ,  6-C ) :   0.9280
B(  5-C , 16-H ) :   0.9140 B(  5-C , 17-H ) :   0.9143 B(  6-C ,  7-C ) :   0.8852
B(  6-C , 18-H ) :   0.9279 B(  6-C , 19-H ) :   0.9163 B(  7-C ,  8-O ) :   0.9846
B(  7-C , 20-H ) :   0.9350

MP2 TOTAL ENERGY:     -386.397133375 Eh
FINAL SINGLE POINT ENERGY      -386.397133374675

DIPOLE MOMENT
-------------
                                X             Y             Z
Electronic contribution:     -2.54763      -2.79035       0.31246
Nuclear contribution   :      2.90464       2.80090      -0.63006
                        -----------------------------------------
Total Dipole Moment    :      0.35702       0.01056      -0.31760
                        -----------------------------------------
Magnitude (a.u.)       :      0.47796
Magnitude (Debye)      :      1.21487

                             ****ORCA TERMINATED NORMALLY****
TOTAL RUN TIME: 0 days 0 hours 20 minutes 44 seconds 562 msec
