                         Program Version 3.0.3 - RELEASE   -
|  1> ! RI-MP2 RIJK def2-TZVP def2-TZVP/C def2-TZVP/JK TIGHTSCF
|  2> % maxcore 2000
|  3> % mp2 density relaxed end
|  4> *xyz 0 1
|  5>  N       -0.0131085718     1.3304442952    -0.0739028259
|  6>  C       -0.0175532781     0.0733501628     0.0242010023
|  7>  O       -1.1617295792    -0.6155404788    -0.1634405953
|  8>  C       -1.1056628031    -2.0310089282    -0.1290603695
|  9>  C       -2.2450477033    -2.7670625463     0.5297556056
| 10>  C       -3.3198165985    -2.9710121144    -0.4845235096
| 11>  C       -2.9025357835    -2.3125040403    -1.7880853620
| 12>  C       -1.4994525037    -2.8082963690    -1.3977113132
| 13>  N       -2.1361683367    -3.8984209206    -0.4727395352
| 14>  H        0.9211860121     1.6896739357     0.1104370089
| 15>  H        0.8426806138    -0.5678770317     0.2643332176
| 16>  H       -0.1408525739    -2.3733013141     0.2611825503
| 17>  H       -2.3903009297    -2.9613519147     1.5855031675
| 18>  H       -4.3031911141    -3.3204773865    -0.1918449124
| 19>  H       -3.2893304901    -2.8678226114    -2.6455679441
| 20>  H       -3.0527739223    -1.2387976196    -1.9241529984
| 21>  H       -0.7557730579    -3.0929385582    -2.1386991866
| 22> *
| 23>
| 24>                          ****END OF INPUT****

CARTESIAN COORDINATES (ANGSTROEM)
---------------------------------
  N     -0.013109    1.330444   -0.073903
  C     -0.017553    0.073350    0.024201
  O     -1.161730   -0.615540   -0.163441
  C     -1.105663   -2.031009   -0.129060
  C     -2.245048   -2.767063    0.529756
  C     -3.319817   -2.971012   -0.484524
  C     -2.902536   -2.312504   -1.788085
  C     -1.499453   -2.808296   -1.397711
  N     -2.136168   -3.898421   -0.472740
  H      0.921186    1.689674    0.110437
  H      0.842681   -0.567877    0.264333
  H     -0.140853   -2.373301    0.261183
  H     -2.390301   -2.961352    1.585503
  H     -4.303191   -3.320477   -0.191845
  H     -3.289330   -2.867823   -2.645568
  H     -3.052774   -1.238798   -1.924153
  H     -0.755773   -3.092939   -2.138699

 Total Charge           Charge          ....    0
 Multiplicity           Mult            ....    1
 Number of Electrons    NEL             ....   66
 Basis Dimension        Dim             ....  327

ORBITAL ENERGIES
----------------

  NO   OCC          E(Eh)            E(eV)
   0   2.0000     -20.598870      -560.5238
   1   2.0000     -15.575537      -423.8319
   2   2.0000     -15.543835      -422.9693
   3   2.0000     -11.344234      -308.6923
   4   2.0000     -11.313021      -307.8429
   5   2.0000     -11.278535      -306.9045
   6   2.0000     -11.274991      -306.8081
   7   2.0000     -11.273310      -306.7624
   8   2.0000     -11.239731      -305.8486
   9   2.0000      -1.437571       -39.1183
  10   2.0000      -1.328141       -36.1406
  11   2.0000      -1.202792       -32.7296
  12   2.0000      -1.011287       -27.5185
  13   2.0000      -1.005181       -27.3524
  14   2.0000      -0.922872       -25.1126
  15   2.0000      -0.837749       -22.7963
  16   2.0000      -0.792217       -21.5573
  17   2.0000      -0.755818       -20.5669
  18   2.0000      -0.728347       -19.8193
  19   2.0000      -0.706834       -19.2339
  20   2.0000      -0.663109       -18.0441
  21   2.0000      -0.654909       -17.8210
  22   2.0000      -0.612192       -16.6586
  23   2.0000      -0.593022       -16.1369
  24   2.0000      -0.558204       -15.1895
  25   2.0000      -0.532488       -14.4897
  26   2.0000      -0.515441       -14.0259
  27   2.0000      -0.482998       -13.1430
  28   2.0000      -0.449078       -12.2200
  29   2.0000      -0.442761       -12.0481
  30   2.0000      -0.426861       -11.6155
  31   2.0000      -0.403513       -10.9801
  32   2.0000      -0.394424       -10.7328
  33   0.0000       0.137185         3.7330
  34   0.0000       0.154471         4.2034
  35   0.0000       0.155921         4.2428
  36   0.0000       0.160530         4.3682
  37   0.0000       0.174432         4.7465

MULLIKEN ATOMIC CHARGES
-----------------------
   0 N :   -0.333676
   1 C :    0.057283
   2 O :   -0.218693
   3 C :    0.098962
   4 C :   -0.114031
   5 C :   -0.121638
   6 C :   -0.185131
   7 C :   -0.054549
   8 N :   -0.230103
   9 H :    0.226090
  10 H :    0.076654
  11 H :    0.109780
  12 H :    0.145039
  13 H :    0.137443
  14 H :    0.126592
  15 H :    0.137572
  16 H :    0.142406
Sum of atomic charges:   -0.0000000

LOEWDIN ATOMIC CHARGES
----------------------
   0 N :   -0.080841
   1 C :   -0.399600
   2 O :    0.273776
   3 C :   -0.275378
   4 C :   -0.187813
   5 C :   -0.208074
   6 C :   -0.207327
   7 C :   -0.169922
   8 N :    0.146221
   9 H :    0.168475
  10 H :    0.105475
  11 H :    0.146592
  12 H :    0.138542
  13 H :    0.137814
  14 H :    0.144498
  15 H :    0.136287
  16 H :    0.131274

  Mayer bond orders larger than 0.1
B(  0-N ,  1-C ) :   1.9747 B(  0-N ,  9-H ) :   0.8495 B(  1-C ,  2-O ) :   1.0469
B(  1-C , 10-H ) :   0.9221 B(  2-O ,  3-C ) :   0.8972 B(  3-C ,  4-C ) :   0.9349
B(  3-C ,  7-C ) :   0.9758 B(  3-C , 11-H ) :   0.8878 B(  4-C ,  5-C ) :   0.9173
B(  4-C ,  8-N ) :   0.8506 B(  4-C , 12-H ) :   0.9077 B(  5-C ,  6-C ) :   0.9648
B(  5-C ,  8-N ) :   0.8952 B(  5-C , 13-H ) :   0.9220 B(  6-C ,  7-C ) :   0.9573
B(  6-C , 14-H ) :   0.9245 B(  6-C , 15-H ) :   0.8931 B(  7-C ,  8-N ) :   0.9114
B(  7-C , 16-H ) :   0.9047

MP2 TOTAL ENERGY:     -417.232747041 Eh
FINAL SINGLE POINT ENERGY      -417.232747040917

DIPOLE MOMENT
-------------
                                X             Y             Z
Electronic contribution:      0.23155       0.38477       1.20253
Nuclear contribution   :      0.33376      -0.82598      -1.12093
                        -----------------------------------------
Total Dipole Moment    :      0.56530      -0.44121       0.08160
                        -----------------------------------------
Magnitude (a.u.)       :      0.72173
Magnitude (Debye)      :      1.83449

                             ****ORCA TERMINATED NORMALLY****
TOTAL RUN TIME: 0 days 0 hours 15 minutes 19 seconds 981 msec
