                         Program Version 3.0.3 - RELEASE   -
|  1> ! RI-MP2 RIJK def2-TZVP def2-TZVP/C def2-TZVP/JK TIGHTSCF
|  2> % maxcore 2000
|  3> % mp2 density relaxed end
|  4> *xyz 0 1
|  5>  O        0.0463331653     0.0400708036    -0.3788842582
|  6>  C        0.0356595739     1.2096650386    -0.1181695901
|  7>  C       -1.0224861362     2.2147355102     0.3810465700
|  8>  N        0.0430598401     3.2670354321     0.4335850783
|  9>  C        1.0430124726     2.3259561411    -0.1179725173
| 10>  C        2.4850452148     2.3547939455     0.3327367284
| 11>  C        3.2206200811     1.1011439913    -0.1559480883
| 12>  C        2.8411132904     1.4780852609    -1.6290860521
| 13>  C        2.1139595139     2.7222063570    -1.1017542559
| 14>  H       -1.8283403434     2.3939340470    -0.3398011996
| 15>  H       -1.4617396673     1.9870465879     1.3573718579
| 16>  H       -0.1577065992     4.0254296854    -0.2112292493
| 17>  H        2.7472123416     2.9973566535     1.1647330858
| 18>  H        4.2971369127     1.1499911498     0.0199568104
| 19>  H        2.8405425178     0.1469520872     0.2157855762
| 20>  H        3.7165098835     1.7321026778    -2.2304579969
| 21>  H        2.2287036803     0.7578254367    -2.1761775323
| 22>  H        2.0636681180     3.6957979245    -1.5783844568
| 23> *
| 24>
| 25>                          ****END OF INPUT****

CARTESIAN COORDINATES (ANGSTROEM)
---------------------------------
  O      0.046333    0.040071   -0.378884
  C      0.035660    1.209665   -0.118170
  C     -1.022486    2.214736    0.381047
  N      0.043060    3.267035    0.433585
  C      1.043012    2.325956   -0.117973
  C      2.485045    2.354794    0.332737
  C      3.220620    1.101144   -0.155948
  C      2.841113    1.478085   -1.629086
  C      2.113960    2.722206   -1.101754
  H     -1.828340    2.393934   -0.339801
  H     -1.461740    1.987047    1.357372
  H     -0.157707    4.025430   -0.211229
  H      2.747212    2.997357    1.164733
  H      4.297137    1.149991    0.019957
  H      2.840543    0.146952    0.215786
  H      3.716510    1.732103   -2.230458
  H      2.228704    0.757825   -2.176178
  H      2.063668    3.695798   -1.578384

 Total Charge           Charge          ....    0
 Multiplicity           Mult            ....    1
 Number of Electrons    NEL             ....   66
 Basis Dimension        Dim             ....  333

ORBITAL ENERGIES
----------------

  NO   OCC          E(Eh)            E(eV)
   0   2.0000     -20.555201      -559.3355
   1   2.0000     -15.563130      -423.4943
   2   2.0000     -11.335175      -308.4458
   3   2.0000     -11.275769      -306.8293
   4   2.0000     -11.270626      -306.6893
   5   2.0000     -11.250512      -306.1420
   6   2.0000     -11.244731      -305.9847
   7   2.0000     -11.232413      -305.6495
   8   2.0000     -11.230060      -305.5855
   9   2.0000      -1.398296       -38.0496
  10   2.0000      -1.260295       -34.2944
  11   2.0000      -1.177382       -32.0382
  12   2.0000      -0.981715       -26.7138
  13   2.0000      -0.947263       -25.7763
  14   2.0000      -0.901084       -24.5198
  15   2.0000      -0.863673       -23.5017
  16   2.0000      -0.747955       -20.3529
  17   2.0000      -0.710833       -19.3428
  18   2.0000      -0.696091       -18.9416
  19   2.0000      -0.664842       -18.0913
  20   2.0000      -0.646774       -17.5996
  21   2.0000      -0.635676       -17.2976
  22   2.0000      -0.602391       -16.3919
  23   2.0000      -0.563714       -15.3394
  24   2.0000      -0.541947       -14.7471
  25   2.0000      -0.536089       -14.5877
  26   2.0000      -0.509955       -13.8766
  27   2.0000      -0.496637       -13.5142
  28   2.0000      -0.475675       -12.9438
  29   2.0000      -0.461096       -12.5471
  30   2.0000      -0.441060       -12.0019
  31   2.0000      -0.372423       -10.1341
  32   2.0000      -0.366003        -9.9594
  33   0.0000       0.124528         3.3886
  34   0.0000       0.137654         3.7458
  35   0.0000       0.151458         4.1214
  36   0.0000       0.159481         4.3397
  37   0.0000       0.168789         4.5930

MULLIKEN ATOMIC CHARGES
-----------------------
   0 O :   -0.269410
   1 C :    0.148772
   2 C :   -0.141779
   3 N :   -0.313225
   4 C :    0.055898
   5 C :   -0.140656
   6 C :   -0.218240
   7 C :   -0.218294
   8 C :   -0.168370
   9 H :    0.135748
  10 H :    0.132256
  11 H :    0.213338
  12 H :    0.139818
  13 H :    0.126100
  14 H :    0.129657
  15 H :    0.124990
  16 H :    0.127795
  17 H :    0.135602
Sum of atomic charges:    0.0000000

LOEWDIN ATOMIC CHARGES
----------------------
   0 O :    0.160278
   1 C :   -0.287790
   2 C :   -0.226968
   3 N :    0.019168
   4 C :   -0.222557
   5 C :   -0.134709
   6 C :   -0.204485
   7 C :   -0.203990
   8 C :   -0.145339
   9 H :    0.132202
  10 H :    0.134251
  11 H :    0.162848
  12 H :    0.142194
  13 H :    0.134938
  14 H :    0.133620
  15 H :    0.134862
  16 H :    0.132940
  17 H :    0.138537

  Mayer bond orders larger than 0.1
B(  0-O ,  1-C ) :   2.0024 B(  1-C ,  2-C ) :   0.9405 B(  1-C ,  4-C ) :   0.8532
B(  2-C ,  3-N ) :   0.9597 B(  2-C ,  9-H ) :   0.9127 B(  2-C , 10-H ) :   0.8998
B(  3-N ,  4-C ) :   0.9864 B(  3-N , 11-H ) :   0.8723 B(  4-C ,  5-C ) :   0.8045
B(  4-C ,  8-C ) :   0.8439 B(  5-C ,  6-C ) :   0.9514 B(  5-C ,  8-C ) :   0.8547
B(  5-C , 12-H ) :   0.9232 B(  6-C ,  7-C ) :   0.9822 B(  6-C , 13-H ) :   0.9248
B(  6-C , 14-H ) :   0.9136 B(  7-C ,  8-C ) :   0.9445 B(  7-C , 15-H ) :   0.9208
B(  7-C , 16-H ) :   0.9116 B(  8-C , 17-H ) :   0.9110

MP2 TOTAL ENERGY:     -401.204300176 Eh
FINAL SINGLE POINT ENERGY      -401.204300175528

DIPOLE MOMENT
-------------
                                X             Y             Z
Electronic contribution:     -3.45715      -1.34479       0.94909
Nuclear contribution   :      3.61425       2.17338      -1.29823
                        -----------------------------------------
Total Dipole Moment    :      0.15711       0.82858      -0.34914
                        -----------------------------------------
Magnitude (a.u.)       :      0.91276
Magnitude (Debye)      :      2.32006

                             ****ORCA TERMINATED NORMALLY****
TOTAL RUN TIME: 0 days 0 hours 18 minutes 18 seconds 478 msec
