                         Program Version 3.0.3 - RELEASE   -
|  1> ! RI-MP2 RIJK def2-TZVP def2-TZVP/C def2-TZVP/JK TIGHTSCF
|  2> % maxcore 2000
|  3> % mp2 density relaxed end
|  4> *xyz 0 1
|  5>  C       -0.0788538016     1.5137782256     0.0432255568
|  6>  C        0.0445808385    -0.0178218996     0.0123432480
|  7>  C        0.6802935638    -0.4985311148    -1.2179672947
|  8>  N        1.2031105398    -0.9186380838    -2.1605739695
|  9>  C        0.8223068570    -0.5581001286     1.2271705285
| 10>  N        0.0796874897    -0.3925997000     2.4957704660
| 11>  C        0.2184185327    -1.8371337242     2.8234114115
| 12>  C        0.8146351657    -2.1110644901     1.4260224016
| 13>  O       -0.0713543596    -2.8431717492     0.6145647763
| 14>  H        0.9038348512     1.9911024636    -0.0179640502
| 15>  H       -0.6888849180     1.8789383804    -0.7864815909
| 16>  H       -0.5561209343     1.8053706945     0.9822921616
| 17>  H       -0.9539037407    -0.4651474226     0.0537372850
| 18>  H        1.8361598373    -0.1355569714     1.2269156192
| 19>  H        0.5095828652     0.2370390856     3.1620100457
| 20>  H        0.9035737823    -2.0628672517     3.6483037779
| 21>  H       -0.7378313551    -2.3372325886     3.0055875934
| 22>  H        1.8139411708    -2.5601124972     1.4313385183
| 23>  H        0.3406966153    -2.9731578279    -0.2473773645
| 24> *
| 25>
| 26>                          ****END OF INPUT****

CARTESIAN COORDINATES (ANGSTROEM)
---------------------------------
  C     -0.078854    1.513778    0.043226
  C      0.044581   -0.017822    0.012343
  C      0.680294   -0.498531   -1.217967
  N      1.203111   -0.918638   -2.160574
  C      0.822307   -0.558100    1.227171
  N      0.079687   -0.392600    2.495770
  C      0.218419   -1.837134    2.823411
  C      0.814635   -2.111064    1.426022
  O     -0.071354   -2.843172    0.614565
  H      0.903835    1.991102   -0.017964
  H     -0.688885    1.878938   -0.786482
  H     -0.556121    1.805371    0.982292
  H     -0.953904   -0.465147    0.053737
  H      1.836160   -0.135557    1.226916
  H      0.509583    0.237039    3.162010
  H      0.903574   -2.062867    3.648304
  H     -0.737831   -2.337233    3.005588
  H      1.813941   -2.560112    1.431339
  H      0.340697   -2.973158   -0.247377

 Total Charge           Charge          ....    0
 Multiplicity           Mult            ....    1
 Number of Electrons    NEL             ....   68
 Basis Dimension        Dim             ....  339

ORBITAL ENERGIES
----------------

  NO   OCC          E(Eh)            E(eV)
   0   2.0000     -20.570236      -559.7446
   1   2.0000     -15.571115      -423.7116
   2   2.0000     -15.558383      -423.3651
   3   2.0000     -11.296653      -307.3976
   4   2.0000     -11.280818      -306.9667
   5   2.0000     -11.278696      -306.9089
   6   2.0000     -11.274303      -306.7894
   7   2.0000     -11.262420      -306.4660
   8   2.0000     -11.240344      -305.8653
   9   2.0000      -1.381088       -37.5813
  10   2.0000      -1.246038       -33.9064
  11   2.0000      -1.220964       -33.2241
  12   2.0000      -1.090471       -29.6732
  13   2.0000      -0.975937       -26.5566
  14   2.0000      -0.941217       -25.6118
  15   2.0000      -0.880507       -23.9598
  16   2.0000      -0.776755       -21.1366
  17   2.0000      -0.743616       -20.2348
  18   2.0000      -0.707421       -19.2499
  19   2.0000      -0.688966       -18.7477
  20   2.0000      -0.631618       -17.1872
  21   2.0000      -0.618342       -16.8259
  22   2.0000      -0.583815       -15.8864
  23   2.0000      -0.579929       -15.7807
  24   2.0000      -0.557262       -15.1639
  25   2.0000      -0.553600       -15.0642
  26   2.0000      -0.539213       -14.6727
  27   2.0000      -0.529764       -14.4156
  28   2.0000      -0.526888       -14.3373
  29   2.0000      -0.487713       -13.2713
  30   2.0000      -0.464637       -12.6434
  31   2.0000      -0.456101       -12.4112
  32   2.0000      -0.434019       -11.8103
  33   2.0000      -0.386523       -10.5178
  34   0.0000       0.117454         3.1961
  35   0.0000       0.142566         3.8794
  36   0.0000       0.144539         3.9331
  37   0.0000       0.164479         4.4757
  38   0.0000       0.172676         4.6988

MULLIKEN ATOMIC CHARGES
-----------------------
   0 C :   -0.396599
   1 C :    0.094964
   2 C :   -0.269059
   3 N :   -0.059409
   4 C :   -0.046042
   5 N :   -0.350473
   6 C :   -0.137609
   7 C :    0.064296
   8 O :   -0.466670
   9 H :    0.131759
  10 H :    0.150776
  11 H :    0.154756
  12 H :    0.136991
  13 H :    0.109499
  14 H :    0.211589
  15 H :    0.115562
  16 H :    0.115281
  17 H :    0.107218
  18 H :    0.333172
Sum of atomic charges:   -0.0000000

LOEWDIN ATOMIC CHARGES
----------------------
   0 C :   -0.267080
   1 C :   -0.254908
   2 C :   -0.177704
   3 N :    0.051117
   4 C :   -0.235467
   5 N :   -0.002790
   6 C :   -0.243952
   7 C :   -0.306936
   8 O :    0.001072
   9 H :    0.128067
  10 H :    0.130744
  11 H :    0.132519
  12 H :    0.183762
  13 H :    0.141927
  14 H :    0.157863
  15 H :    0.120951
  16 H :    0.128664
  17 H :    0.128147
  18 H :    0.184003

  Mayer bond orders larger than 0.1
B(  0-C ,  1-C ) :   0.8790 B(  0-C ,  9-H ) :   0.9249 B(  0-C , 10-H ) :   0.9364
B(  0-C , 11-H ) :   0.9382 B(  1-C ,  2-C ) :   0.9032 B(  1-C ,  4-C ) :   0.8464
B(  1-C , 12-H ) :   0.9043 B(  2-C ,  3-N ) :   2.8725 B(  4-C ,  5-N ) :   1.0737
B(  4-C ,  7-C ) :   0.9231 B(  4-C , 13-H ) :   0.9109 B(  5-N ,  6-C ) :   0.9636
B(  5-N , 14-H ) :   0.8769 B(  6-C ,  7-C ) :   0.9150 B(  6-C , 15-H ) :   0.9219
B(  6-C , 16-H ) :   0.9078 B(  7-C ,  8-O ) :   1.0371 B(  7-C , 17-H ) :   0.9544
B(  8-O , 18-H ) :   0.8343

MP2 TOTAL ENERGY:     -418.498228157 Eh
FINAL SINGLE POINT ENERGY      -418.498228156594

DIPOLE MOMENT
-------------
                                X             Y             Z
Electronic contribution:      0.90130      -3.36178      -4.53919
Nuclear contribution   :     -0.57984       3.86651       5.81531
                        -----------------------------------------
Total Dipole Moment    :      0.32146       0.50473       1.27612
                        -----------------------------------------
Magnitude (a.u.)       :      1.40946
Magnitude (Debye)      :      3.58256

                             ****ORCA TERMINATED NORMALLY****
TOTAL RUN TIME: 0 days 0 hours 20 minutes 16 seconds 854 msec
