                         Program Version 3.0.3 - RELEASE   -
|  1> ! RI-MP2 RIJK def2-TZVP def2-TZVP/C def2-TZVP/JK TIGHTSCF
|  2> % maxcore 2000
|  3> % mp2 density relaxed end
|  4> *xyz 0 1
|  5>  C        0.0376746894     1.6172129842     0.0098150520
|  6>  C       -0.1226237748     0.1027190732     0.1631447472
|  7>  C        0.9272698968    -0.5031700029     1.1051605134
|  8>  C        0.8427885963    -2.0206244624     1.2380972709
|  9>  C        1.3168292344    -2.6971480714     2.4951421047
| 10>  N       -0.0884507084    -2.7134135784     2.1455859496
| 11>  C       -1.0223901534    -1.9505448324     2.9616628486
| 12>  C        1.0360389525    -2.7264410451    -0.0182911086
| 13>  N        1.2148038004    -3.2608038108    -1.0279749226
| 14>  H        1.0211825194     1.8711892476    -0.4005788135
| 15>  H       -0.7199654855     2.0279996412    -0.6637827993
| 16>  H       -0.0609176889     2.1289371482     0.9738461733
| 17>  H       -1.1272297390    -0.1270521752     0.5383722517
| 18>  H       -0.0448402036    -0.3794820052    -0.8181629663
| 19>  H        1.9315910254    -0.2561099743     0.7384670864
| 20>  H        0.8484463806    -0.0504946015     2.0985322081
| 21>  H        1.8381545369    -3.6488667564     2.4464184592
| 22>  H        1.6467468726    -2.0273611342     3.2896657810
| 23>  H       -0.6126194756    -1.0229297630     3.3876907548
| 24>  H       -1.9056198342    -1.7035770982     2.3661014397
| 25>  H       -1.3406371614    -2.5890426431     3.7912375796
| 26> *
| 27>
| 28>                          ****END OF INPUT****

CARTESIAN COORDINATES (ANGSTROEM)
---------------------------------
  C      0.037675    1.617213    0.009815
  C     -0.122624    0.102719    0.163145
  C      0.927270   -0.503170    1.105161
  C      0.842789   -2.020624    1.238097
  C      1.316829   -2.697148    2.495142
  N     -0.088451   -2.713414    2.145586
  C     -1.022390   -1.950545    2.961663
  C      1.036039   -2.726441   -0.018291
  N      1.214804   -3.260804   -1.027975
  H      1.021183    1.871189   -0.400579
  H     -0.719965    2.028000   -0.663783
  H     -0.060918    2.128937    0.973846
  H     -1.127230   -0.127052    0.538372
  H     -0.044840   -0.379482   -0.818163
  H      1.931591   -0.256110    0.738467
  H      0.848446   -0.050495    2.098532
  H      1.838155   -3.648867    2.446418
  H      1.646747   -2.027361    3.289666
  H     -0.612619   -1.022930    3.387691
  H     -1.905620   -1.703577    2.366101
  H     -1.340637   -2.589043    3.791238

 Total Charge           Charge          ....    0
 Multiplicity           Mult            ....    1
 Number of Electrons    NEL             ....   68
 Basis Dimension        Dim             ....  351

ORBITAL ENERGIES
----------------

  NO   OCC          E(Eh)            E(eV)
   0   2.0000     -15.588109      -424.1740
   1   2.0000     -15.564976      -423.5445
   2   2.0000     -11.314901      -307.8941
   3   2.0000     -11.282604      -307.0153
   4   2.0000     -11.267448      -306.6029
   5   2.0000     -11.266416      -306.5748
   6   2.0000     -11.251833      -306.1779
   7   2.0000     -11.234794      -305.7143
   8   2.0000     -11.224839      -305.4434
   9   2.0000      -1.308051       -35.5939
  10   2.0000      -1.209566       -32.9140
  11   2.0000      -1.088129       -29.6095
  12   2.0000      -1.028884       -27.9973
  13   2.0000      -0.969297       -26.3759
  14   2.0000      -0.883229       -24.0339
  15   2.0000      -0.850296       -23.1377
  16   2.0000      -0.820165       -22.3178
  17   2.0000      -0.716311       -19.4918
  18   2.0000      -0.676630       -18.4120
  19   2.0000      -0.646272       -17.5860
  20   2.0000      -0.619557       -16.8590
  21   2.0000      -0.603333       -16.4175
  22   2.0000      -0.583588       -15.8803
  23   2.0000      -0.577646       -15.7185
  24   2.0000      -0.557042       -15.1579
  25   2.0000      -0.550204       -14.9718
  26   2.0000      -0.536565       -14.6007
  27   2.0000      -0.507234       -13.8025
  28   2.0000      -0.497227       -13.5302
  29   2.0000      -0.488523       -13.2934
  30   2.0000      -0.483454       -13.1555
  31   2.0000      -0.447922       -12.1886
  32   2.0000      -0.440545       -11.9878
  33   2.0000      -0.391430       -10.6514
  34   0.0000       0.123350         3.3565
  35   0.0000       0.147783         4.0214
  36   0.0000       0.153762         4.1841
  37   0.0000       0.161536         4.3956
  38   0.0000       0.166826         4.5396

MULLIKEN ATOMIC CHARGES
-----------------------
   0 C :   -0.390915
   1 C :   -0.223093
   2 C :   -0.234434
   3 C :    0.250845
   4 C :   -0.180563
   5 N :   -0.222928
   6 C :   -0.311137
   7 C :   -0.228423
   8 N :   -0.053261
   9 H :    0.128547
  10 H :    0.141028
  11 H :    0.122794
  12 H :    0.113525
  13 H :    0.141991
  14 H :    0.142071
  15 H :    0.119388
  16 H :    0.147151
  17 H :    0.125892
  18 H :    0.111925
  19 H :    0.146268
  20 H :    0.153327
Sum of atomic charges:   -0.0000000

LOEWDIN ATOMIC CHARGES
----------------------
   0 C :   -0.316755
   1 C :   -0.283807
   2 C :   -0.217714
   3 C :   -0.272617
   4 C :   -0.200400
   5 N :    0.128474
   6 C :   -0.321148
   7 C :   -0.145444
   8 N :    0.066813
   9 H :    0.122737
  10 H :    0.123836
  11 H :    0.120450
  12 H :    0.136483
  13 H :    0.145334
  14 H :    0.154352
  15 H :    0.143495
  16 H :    0.133919
  17 H :    0.129725
  18 H :    0.106416
  19 H :    0.121293
  20 H :    0.124559

  Mayer bond orders larger than 0.1
B(  0-C ,  1-C ) :   0.9164 B(  0-C ,  9-H ) :   0.9382 B(  0-C , 10-H ) :   0.9422
B(  0-C , 11-H ) :   0.9392 B(  1-C ,  2-C ) :   0.9178 B(  1-C , 12-H ) :   0.9345
B(  1-C , 13-H ) :   0.9267 B(  2-C ,  3-C ) :   0.9171 B(  2-C , 14-H ) :   0.9205
B(  2-C , 15-H ) :   0.9304 B(  3-C ,  4-C ) :   0.8951 B(  3-C ,  5-N ) :   0.7821
B(  3-C ,  7-C ) :   0.9035 B(  4-C ,  5-N ) :   0.9381 B(  4-C , 16-H ) :   0.9048
B(  4-C , 17-H ) :   0.9155 B(  5-N ,  6-C ) :   0.8776 B(  6-C , 18-H ) :   0.9264
B(  6-C , 19-H ) :   0.9368 B(  6-C , 20-H ) :   0.9323 B(  7-C ,  8-N ) :   2.8763

MP2 TOTAL ENERGY:     -382.578454878 Eh
FINAL SINGLE POINT ENERGY      -382.578454877844

DIPOLE MOMENT
-------------
                                X             Y             Z
Electronic contribution:      3.32920     -10.35487      -3.45528
Nuclear contribution   :     -3.46388      11.58266       4.94282
                        -----------------------------------------
Total Dipole Moment    :     -0.13469       1.22779       1.48755
                        -----------------------------------------
Magnitude (a.u.)       :      1.93350
Magnitude (Debye)      :      4.91456

                             ****ORCA TERMINATED NORMALLY****
TOTAL RUN TIME: 0 days 0 hours 19 minutes 45 seconds 395 msec
