                         Program Version 3.0.3 - RELEASE   -
|  1> ! RI-MP2 RIJK def2-TZVP def2-TZVP/C def2-TZVP/JK TIGHTSCF
|  2> % maxcore 2000
|  3> % mp2 density relaxed end
|  4> *xyz 0 1
|  5>  C       -0.2891113606     1.5313957325     0.0636298470
|  6>  C        0.0800275964     0.0643762298    -0.0240625424
|  7>  O        1.3556831986    -0.1553839597    -0.6785418836
|  8>  C        1.8984890667    -0.8305197563     0.4755661987
|  9>  C        0.5826049456    -0.6562315372     1.2475182428
| 10>  O        0.6291945601     0.1992561839     2.3894394348
| 11>  C        1.1684583778    -0.3512252463     3.5031574582
| 12>  C        1.1297622876     0.6227599233     4.6541815501
| 13>  O        1.6101955868    -1.4714810263     3.5378220707
| 14>  H        0.4690807364     2.0962963945     0.6098647331
| 15>  H       -0.3752172021     1.9433325509    -0.9462713890
| 16>  H       -1.2508932944     1.6576795370     0.5712256866
| 17>  H       -0.7121057944    -0.4971697930    -0.5377087136
| 18>  H        2.1845290922    -1.8658312182     0.2610299138
| 19>  H        2.7542695753    -0.2981727632     0.9063209224
| 20>  H        0.0709702702    -1.5818081005     1.5128250322
| 21>  H        0.0939277081     0.8892853462     4.8833041640
| 22>  H        1.5986053603     0.1710939385     5.5273325693
| 23>  H        1.6499774195     1.5457573242     4.3836034951
| 24> *
| 25>
| 26>                          ****END OF INPUT****

CARTESIAN COORDINATES (ANGSTROEM)
---------------------------------
  C     -0.289111    1.531396    0.063630
  C      0.080028    0.064376   -0.024063
  O      1.355683   -0.155384   -0.678542
  C      1.898489   -0.830520    0.475566
  C      0.582605   -0.656232    1.247518
  O      0.629195    0.199256    2.389439
  C      1.168458   -0.351225    3.503157
  C      1.129762    0.622760    4.654182
  O      1.610196   -1.471481    3.537822
  H      0.469081    2.096296    0.609865
  H     -0.375217    1.943333   -0.946271
  H     -1.250893    1.657680    0.571226
  H     -0.712106   -0.497170   -0.537709
  H      2.184529   -1.865831    0.261030
  H      2.754270   -0.298173    0.906321
  H      0.070970   -1.581808    1.512825
  H      0.093928    0.889285    4.883304
  H      1.598605    0.171094    5.527333
  H      1.649977    1.545757    4.383603

 Total Charge           Charge          ....    0
 Multiplicity           Mult            ....    1
 Number of Electrons    NEL             ....   70
 Basis Dimension        Dim             ....  339

ORBITAL ENERGIES
----------------

  NO   OCC          E(Eh)            E(eV)
   0   2.0000     -20.609680      -560.8179
   1   2.0000     -20.551225      -559.2273
   2   2.0000     -20.550001      -559.1940
   3   2.0000     -11.388457      -309.8957
   4   2.0000     -11.299032      -307.4623
   5   2.0000     -11.290680      -307.2350
   6   2.0000     -11.281107      -306.9745
   7   2.0000     -11.247975      -306.0730
   8   2.0000     -11.220045      -305.3129
   9   2.0000      -1.470533       -40.0152
  10   2.0000      -1.385486       -37.7010
  11   2.0000      -1.363667       -37.1073
  12   2.0000      -1.054246       -28.6875
  13   2.0000      -1.018479       -27.7142
  14   2.0000      -0.985105       -26.8061
  15   2.0000      -0.886419       -24.1207
  16   2.0000      -0.820920       -22.3384
  17   2.0000      -0.749517       -20.3954
  18   2.0000      -0.715669       -19.4744
  19   2.0000      -0.691633       -18.8203
  20   2.0000      -0.687554       -18.7093
  21   2.0000      -0.646469       -17.5913
  22   2.0000      -0.627936       -17.0870
  23   2.0000      -0.611575       -16.6418
  24   2.0000      -0.589133       -16.0311
  25   2.0000      -0.576273       -15.6812
  26   2.0000      -0.562406       -15.3038
  27   2.0000      -0.547188       -14.8897
  28   2.0000      -0.537742       -14.6327
  29   2.0000      -0.526836       -14.3359
  30   2.0000      -0.500623       -13.6226
  31   2.0000      -0.468019       -12.7354
  32   2.0000      -0.453728       -12.3466
  33   2.0000      -0.445565       -12.1244
  34   2.0000      -0.420394       -11.4395
  35   0.0000       0.127495         3.4693
  36   0.0000       0.152544         4.1509
  37   0.0000       0.159965         4.3529
  38   0.0000       0.167725         4.5640
  39   0.0000       0.174020         4.7353

MULLIKEN ATOMIC CHARGES
-----------------------
   0 C :   -0.390225
   1 C :    0.133225
   2 O :   -0.331864
   3 C :   -0.027159
   4 C :    0.002199
   5 O :   -0.254360
   6 C :    0.307861
   7 C :   -0.395496
   8 O :   -0.329524
   9 H :    0.132790
  10 H :    0.141180
  11 H :    0.125912
  12 H :    0.089349
  13 H :    0.108663
  14 H :    0.100987
  15 H :    0.125208
  16 H :    0.151998
  17 H :    0.156798
  18 H :    0.152459
Sum of atomic charges:   -0.0000000

LOEWDIN ATOMIC CHARGES
----------------------
   0 C :   -0.294471
   1 C :   -0.284885
   2 O :    0.130304
   3 C :   -0.253324
   4 C :   -0.256350
   5 O :    0.268681
   6 C :   -0.495123
   7 C :   -0.270469
   8 O :    0.126940
   9 H :    0.127300
  10 H :    0.130529
  11 H :    0.128914
  12 H :    0.136930
  13 H :    0.123183
  14 H :    0.124086
  15 H :    0.140487
  16 H :    0.140435
  17 H :    0.136969
  18 H :    0.139864

  Mayer bond orders larger than 0.1
B(  0-C ,  1-C ) :   0.9178 B(  0-C ,  9-H ) :   0.9302 B(  0-C , 10-H ) :   0.9322
B(  0-C , 11-H ) :   0.9274 B(  1-C ,  2-O ) :   0.9551 B(  1-C ,  4-C ) :   0.9271
B(  1-C , 12-H ) :   0.9188 B(  2-O ,  3-C ) :   0.9569 B(  3-C ,  4-C ) :   0.9989
B(  3-C , 13-H ) :   0.9141 B(  3-C , 14-H ) :   0.8982 B(  4-C ,  5-O ) :   0.8688
B(  4-C , 15-H ) :   0.9397 B(  5-O ,  6-C ) :   1.0788 B(  6-C ,  7-C ) :   0.9288
B(  6-C ,  8-O ) :   1.9285 B(  7-C , 16-H ) :   0.9154 B(  7-C , 17-H ) :   0.9427
B(  7-C , 18-H ) :   0.9167

MP2 TOTAL ENERGY:     -459.443144465 Eh
FINAL SINGLE POINT ENERGY      -459.443144464668

DIPOLE MOMENT
-------------
                                X             Y             Z
Electronic contribution:      1.91797      -4.30674       0.25959
Nuclear contribution   :     -2.47962       4.81511       0.22186
                        -----------------------------------------
Total Dipole Moment    :     -0.56164       0.50837       0.48144
                        -----------------------------------------
Magnitude (a.u.)       :      0.89759
Magnitude (Debye)      :      2.28150

                             ****ORCA TERMINATED NORMALLY****
TOTAL RUN TIME: 0 days 0 hours 16 minutes 45 seconds 101 msec
