                         Program Version 3.0.3 - RELEASE   -
|  1> ! RI-MP2 RIJK def2-TZVP def2-TZVP/C def2-TZVP/JK TIGHTSCF
|  2> % maxcore 2000
|  3> % mp2 density relaxed end
|  4> *xyz 0 1
|  5>  C       -0.0194846678     1.4583408021     0.0143348648
|  6>  C       -0.0004066770    -0.0356597528    -0.0174435637
|  7>  C       -0.0370834105    -0.8317687526    -1.1073564080
|  8>  C        0.0015414677    -2.2213541678    -0.6716766305
|  9>  N       -0.0063363362    -3.4221919755    -1.2346363119
| 10>  N        0.0524773236    -4.2506215256    -0.1594588982
| 11>  C        0.0962159304    -3.6012720323     1.0453236148
| 12>  C        0.0642022263    -2.2651169521     0.7425372425
| 13>  C        0.0677442882    -0.8624775624     1.2727458741
| 14>  H        0.8785524000     1.8613158208     0.5006430338
| 15>  H       -0.0736971522     1.8777831686    -0.9938005157
| 16>  H       -0.8773155595     1.8371544862     0.5852086397
| 17>  H       -0.0870012098    -0.4943947327    -2.1345726809
| 18>  H        0.0595994206    -5.2436619251    -0.3153352658
| 19>  H        0.1445557783    -4.1535040153     1.9708171682
| 20>  H        0.9682526344    -0.6143945252     1.8505101210
| 21>  H       -0.7854968266    -0.6389881882     1.9271954358
| 22> *
| 23>
| 24>                          ****END OF INPUT****

CARTESIAN COORDINATES (ANGSTROEM)
---------------------------------
  C     -0.019485    1.458341    0.014335
  C     -0.000407   -0.035660   -0.017444
  C     -0.037083   -0.831769   -1.107356
  C      0.001541   -2.221354   -0.671677
  N     -0.006336   -3.422192   -1.234636
  N      0.052477   -4.250622   -0.159459
  C      0.096216   -3.601272    1.045324
  C      0.064202   -2.265117    0.742537
  C      0.067744   -0.862478    1.272746
  H      0.878552    1.861316    0.500643
  H     -0.073697    1.877783   -0.993801
  H     -0.877316    1.837154    0.585209
  H     -0.087001   -0.494395   -2.134573
  H      0.059599   -5.243662   -0.315335
  H      0.144556   -4.153504    1.970817
  H      0.968253   -0.614395    1.850510
  H     -0.785497   -0.638988    1.927195

 Total Charge           Charge          ....    0
 Multiplicity           Mult            ....    1
 Number of Electrons    NEL             ....   64
 Basis Dimension        Dim             ....  327

ORBITAL ENERGIES
----------------

  NO   OCC          E(Eh)            E(eV)
   0   2.0000     -15.622465      -425.1089
   1   2.0000     -15.574181      -423.7950
   2   2.0000     -11.272533      -306.7412
   3   2.0000     -11.245258      -305.9990
   4   2.0000     -11.242291      -305.9183
   5   2.0000     -11.240600      -305.8723
   6   2.0000     -11.228557      -305.5446
   7   2.0000     -11.224852      -305.4438
   8   2.0000     -11.211685      -305.0855
   9   2.0000      -1.356612       -36.9153
  10   2.0000      -1.150864       -31.3166
  11   2.0000      -1.079731       -29.3810
  12   2.0000      -1.032396       -28.0929
  13   2.0000      -0.952469       -25.9180
  14   2.0000      -0.946162       -25.7464
  15   2.0000      -0.799112       -21.7449
  16   2.0000      -0.765236       -20.8231
  17   2.0000      -0.731106       -19.8944
  18   2.0000      -0.695443       -18.9240
  19   2.0000      -0.634836       -17.2748
  20   2.0000      -0.620745       -16.8913
  21   2.0000      -0.599432       -16.3114
  22   2.0000      -0.583044       -15.8654
  23   2.0000      -0.551524       -15.0077
  24   2.0000      -0.549971       -14.9655
  25   2.0000      -0.544087       -14.8053
  26   2.0000      -0.515750       -14.0343
  27   2.0000      -0.489097       -13.3090
  28   2.0000      -0.437645       -11.9089
  29   2.0000      -0.412245       -11.2178
  30   2.0000      -0.334305        -9.0969
  31   2.0000      -0.300108        -8.1663
  32   0.0000       0.131149         3.5688
  33   0.0000       0.134874         3.6701
  34   0.0000       0.142776         3.8851
  35   0.0000       0.158795         4.3210
  36   0.0000       0.170858         4.6493

MULLIKEN ATOMIC CHARGES
-----------------------
   0 C :   -0.425400
   1 C :    0.102765
   2 C :   -0.338220
   3 C :    0.171739
   4 N :   -0.205409
   5 N :   -0.086970
   6 C :   -0.123033
   7 C :   -0.102102
   8 C :   -0.195871
   9 H :    0.138197
  10 H :    0.140529
  11 H :    0.138103
  12 H :    0.126579
  13 H :    0.251194
  14 H :    0.147849
  15 H :    0.130028
  16 H :    0.130023
Sum of atomic charges:   -0.0000000

LOEWDIN ATOMIC CHARGES
----------------------
   0 C :   -0.278585
   1 C :   -0.161432
   2 C :   -0.094807
   3 C :   -0.251314
   4 N :    0.040873
   5 N :    0.127192
   6 C :   -0.223953
   7 C :   -0.152053
   8 C :   -0.170510
   9 H :    0.130968
  10 H :    0.131943
  11 H :    0.130926
  12 H :    0.144229
  13 H :    0.183934
  14 H :    0.135412
  15 H :    0.153586
  16 H :    0.153589

  Mayer bond orders larger than 0.1
B(  0-C ,  1-C ) :   0.8770 B(  0-C ,  9-H ) :   0.9314 B(  0-C , 10-H ) :   0.9482
B(  0-C , 11-H ) :   0.9316 B(  1-C ,  2-C ) :   1.6809 B(  1-C ,  8-C ) :   0.9871
B(  2-C ,  3-C ) :   1.0517 B(  2-C , 12-H ) :   0.9247 B(  3-C ,  4-N ) :   1.6178
B(  3-C ,  7-C ) :   1.1745 B(  4-N ,  5-N ) :   1.0713 B(  4-N ,  6-C ) :   0.1191
B(  5-N ,  6-C ) :   1.2113 B(  5-N , 13-H ) :   0.8738 B(  6-C ,  7-C ) :   1.4110
B(  6-C , 14-H ) :   0.8959 B(  7-C ,  8-C ) :   0.9948 B(  8-C , 15-H ) :   0.8771
B(  8-C , 16-H ) :   0.8769

MP2 TOTAL ENERGY:     -380.220195055 Eh
FINAL SINGLE POINT ENERGY      -380.220195054866

DIPOLE MOMENT
-------------
                                X             Y             Z
Electronic contribution:      0.01149      -8.17322      -2.32715
Nuclear contribution   :      0.02909       8.08843       3.22051
                        -----------------------------------------
Total Dipole Moment    :      0.04058      -0.08479       0.89337
                        -----------------------------------------
Magnitude (a.u.)       :      0.89830
Magnitude (Debye)      :      2.28329

                             ****ORCA TERMINATED NORMALLY****
TOTAL RUN TIME: 0 days 0 hours 18 minutes 45 seconds 793 msec
