                         Program Version 3.0.3 - RELEASE   -
|  1> ! RI-MP2 RIJK def2-TZVP def2-TZVP/C def2-TZVP/JK TIGHTSCF
|  2> % maxcore 2000
|  3> % mp2 density relaxed end
|  4> *xyz 0 1
|  5>  O       -0.0789692055     0.1818503557    -0.8698598842
|  6>  C       -0.0898358856     1.1944907106    -0.2232235826
|  7>  C       -1.3708396488     1.9012169895     0.2275595105
|  8>  C       -1.0946255506     2.8533652535     1.4062288049
|  9>  C       -0.0339658977     3.8400258779     0.9607299737
| 10>  C        1.3053026006     3.9542254408     1.6267541929
| 11>  N        1.1517784610     3.2261199184     0.3758724544
| 12>  C        1.2365231478     1.8411730534     0.2751499902
| 13>  O        2.2174243229     1.1878124672     0.5260561824
| 14>  H       -1.7555309754     2.4663876210    -0.6322396750
| 15>  H       -2.1179717168     1.1371748344     0.4606921898
| 16>  H       -2.0068103997     3.3673904062     1.7213173878
| 17>  H       -0.7352977859     2.2787569632     2.2687594332
| 18>  H       -0.3978094575     4.7064408795     0.4099738286
| 19>  H        1.8616059333     4.8845478920     1.5649677796
| 20>  H        1.4908211179     3.3612875069     2.5186134038
| 21> *
| 22>
| 23>                          ****END OF INPUT****

CARTESIAN COORDINATES (ANGSTROEM)
---------------------------------
  O     -0.078969    0.181850   -0.869860
  C     -0.089836    1.194491   -0.223224
  C     -1.370840    1.901217    0.227560
  C     -1.094626    2.853365    1.406229
  C     -0.033966    3.840026    0.960730
  C      1.305303    3.954225    1.626754
  N      1.151778    3.226120    0.375872
  C      1.236523    1.841173    0.275150
  O      2.217424    1.187812    0.526056
  H     -1.755531    2.466388   -0.632240
  H     -2.117972    1.137175    0.460692
  H     -2.006810    3.367390    1.721317
  H     -0.735298    2.278757    2.268759
  H     -0.397809    4.706441    0.409974
  H      1.861606    4.884548    1.564968
  H      1.490821    3.361288    2.518613

 Total Charge           Charge          ....    0
 Multiplicity           Mult            ....    1
 Number of Electrons    NEL             ....   66
 Basis Dimension        Dim             ....  321

ORBITAL ENERGIES
----------------

  NO   OCC          E(Eh)            E(eV)
   0   2.0000     -20.573252      -559.8266
   1   2.0000     -20.555492      -559.3434
   2   2.0000     -15.600539      -424.5123
   3   2.0000     -11.369585      -309.3821
   4   2.0000     -11.352945      -308.9293
   5   2.0000     -11.301268      -307.5231
   6   2.0000     -11.296578      -307.3955
   7   2.0000     -11.267595      -306.6068
   8   2.0000     -11.264368      -306.5190
   9   2.0000      -1.427039       -38.8317
  10   2.0000      -1.398862       -38.0650
  11   2.0000      -1.317130       -35.8409
  12   2.0000      -1.097486       -29.8641
  13   2.0000      -1.028396       -27.9841
  14   2.0000      -0.927997       -25.2521
  15   2.0000      -0.861069       -23.4309
  16   2.0000      -0.845433       -23.0054
  17   2.0000      -0.735106       -20.0032
  18   2.0000      -0.712347       -19.3839
  19   2.0000      -0.693133       -18.8611
  20   2.0000      -0.673713       -18.3327
  21   2.0000      -0.652795       -17.7634
  22   2.0000      -0.619434       -16.8557
  23   2.0000      -0.594033       -16.1645
  24   2.0000      -0.586217       -15.9518
  25   2.0000      -0.552462       -15.0333
  26   2.0000      -0.542397       -14.7594
  27   2.0000      -0.529426       -14.4064
  28   2.0000      -0.521019       -14.1776
  29   2.0000      -0.501131       -13.6365
  30   2.0000      -0.469592       -12.7783
  31   2.0000      -0.416280       -11.3276
  32   2.0000      -0.400843       -10.9075
  33   0.0000       0.075219         2.0468
  34   0.0000       0.124570         3.3897
  35   0.0000       0.145109         3.9486
  36   0.0000       0.151596         4.1251
  37   0.0000       0.170214         4.6318

MULLIKEN ATOMIC CHARGES
-----------------------
   0 O :   -0.233376
   1 C :    0.149223
   2 C :   -0.208110
   3 C :   -0.250856
   4 C :   -0.055603
   5 C :   -0.169526
   6 N :   -0.156572
   7 C :    0.178856
   8 O :   -0.263993
   9 H :    0.143705
  10 H :    0.155059
  11 H :    0.140660
  12 H :    0.144214
  13 H :    0.139688
  14 H :    0.143022
  15 H :    0.143606
Sum of atomic charges:    0.0000000

LOEWDIN ATOMIC CHARGES
----------------------
   0 O :    0.196285
   1 C :   -0.280498
   2 C :   -0.224436
   3 C :   -0.239738
   4 C :   -0.231114
   5 C :   -0.201016
   6 N :    0.192975
   7 C :   -0.399001
   8 O :    0.163886
   9 H :    0.159106
  10 H :    0.152632
  11 H :    0.146291
  12 H :    0.150085
  13 H :    0.146674
  14 H :    0.132869
  15 H :    0.135001

  Mayer bond orders larger than 0.1
B(  0-O ,  1-C ) :   1.9935 B(  1-C ,  2-C ) :   0.8963 B(  1-C ,  7-C ) :   0.8709
B(  2-C ,  3-C ) :   0.8988 B(  2-C ,  9-H ) :   0.9061 B(  2-C , 10-H ) :   0.9120
B(  3-C ,  4-C ) :   0.9238 B(  3-C , 11-H ) :   0.9248 B(  3-C , 12-H ) :   0.9311
B(  4-C ,  5-C ) :   0.9511 B(  4-C ,  6-N ) :   0.8543 B(  4-C , 13-H ) :   0.9100
B(  5-C ,  6-N ) :   0.8653 B(  5-C , 14-H ) :   0.9238 B(  5-C , 15-H ) :   0.9093
B(  6-N ,  7-C ) :   1.0170 B(  7-C ,  8-O ) :   2.0162

MP2 TOTAL ENERGY:     -437.174468751 Eh
FINAL SINGLE POINT ENERGY      -437.174468750619

DIPOLE MOMENT
-------------
                                X             Y             Z
Electronic contribution:      4.52060      -4.66627      -3.71466
Nuclear contribution   :     -5.82841       6.26911       4.65734
                        -----------------------------------------
Total Dipole Moment    :     -1.30782       1.60283       0.94268
                        -----------------------------------------
Magnitude (a.u.)       :      2.27335
Magnitude (Debye)      :      5.77840

                             ****ORCA TERMINATED NORMALLY****
TOTAL RUN TIME: 0 days 0 hours 17 minutes 54 seconds 741 msec
