                         Program Version 3.0.3 - RELEASE   -
|  1> ! RI-MP2 RIJK def2-TZVP def2-TZVP/C def2-TZVP/JK TIGHTSCF
|  2> % maxcore 2000
|  3> % mp2 density relaxed end
|  4> *xyz 0 1
|  5>  C        0.2166330719     1.4841201538     0.2154540550
|  6>  C       -0.0301673808    -0.0167779983    -0.0216686431
|  7>  C        0.7234044535    -0.5227874229    -1.2732549045
|  8>  C        2.1719390093    -0.8115558054    -0.8073559880
|  9>  C        2.1054496985    -0.9665552473     0.7402139483
| 10>  C        0.6090102372    -0.8755004159     1.0995837605
| 11>  C       -1.5311744292    -0.2465636871    -0.0713654088
| 12>  C       -2.3230652938    -0.3146386858    -1.3059212609
| 13>  O       -2.0055451028    -1.4999240215    -0.5684746015
| 14>  H        1.2845947047     1.7049083128     0.3034702123
| 15>  H       -0.1799514102     2.0828376793    -0.6116478152
| 16>  H       -0.2672113205     1.8244844553     1.1381104107
| 17>  H        0.2436988795    -1.4459867461    -1.6130888945
| 18>  H        0.6888008718     0.1925482204    -2.1008109161
| 19>  H        2.5672654256    -1.7089210453    -1.2909450163
| 20>  H        2.8430216332     0.0071794443    -1.0834028542
| 21>  H        2.5463331341    -1.9063324124     1.0832575898
| 22>  H        2.6679621377    -0.1649580801     1.2288515227
| 23>  H        0.4323568334    -0.4628902631     2.0982603164
| 24>  H        0.1528891899    -1.8714100227     1.0719020332
| 25>  H       -2.0555191375     0.0827962902     0.8295927492
| 26>  H       -3.3734173047    -0.0265312620    -1.2941051041
| 27>  H       -1.8291415308    -0.2245951201    -2.2714459709
| 28> *
| 29>
| 30>                          ****END OF INPUT****

CARTESIAN COORDINATES (ANGSTROEM)
---------------------------------
  C      0.216633    1.484120    0.215454
  C     -0.030167   -0.016778   -0.021669
  C      0.723404   -0.522787   -1.273255
  C      2.171939   -0.811556   -0.807356
  C      2.105450   -0.966555    0.740214
  C      0.609010   -0.875500    1.099584
  C     -1.531174   -0.246564   -0.071365
  C     -2.323065   -0.314639   -1.305921
  O     -2.005545   -1.499924   -0.568475
  H      1.284595    1.704908    0.303470
  H     -0.179951    2.082838   -0.611648
  H     -0.267211    1.824484    1.138110
  H      0.243699   -1.445987   -1.613089
  H      0.688801    0.192548   -2.100811
  H      2.567265   -1.708921   -1.290945
  H      2.843022    0.007179   -1.083403
  H      2.546333   -1.906332    1.083258
  H      2.667962   -0.164958    1.228852
  H      0.432357   -0.462890    2.098260
  H      0.152889   -1.871410    1.071902
  H     -2.055519    0.082796    0.829593
  H     -3.373417   -0.026531   -1.294105
  H     -1.829142   -0.224595   -2.271446

 Total Charge           Charge          ....    0
 Multiplicity           Mult            ....    1
 Number of Electrons    NEL             ....   70
 Basis Dimension        Dim             ....  363

ORBITAL ENERGIES
----------------

  NO   OCC          E(Eh)            E(eV)
   0   2.0000     -20.562159      -559.5248
   1   2.0000     -11.280646      -306.9620
   2   2.0000     -11.277785      -306.8841
   3   2.0000     -11.235141      -305.7237
   4   2.0000     -11.217855      -305.2533
   5   2.0000     -11.215525      -305.1900
   6   2.0000     -11.214921      -305.1735
   7   2.0000     -11.213516      -305.1353
   8   2.0000     -11.212845      -305.1170
   9   2.0000      -1.405462       -38.2446
  10   2.0000      -1.130776       -30.7700
  11   2.0000      -1.016892       -27.6710
  12   2.0000      -0.960923       -26.1480
  13   2.0000      -0.921212       -25.0675
  14   2.0000      -0.906479       -24.6666
  15   2.0000      -0.849595       -23.1186
  16   2.0000      -0.776087       -21.1184
  17   2.0000      -0.733327       -19.9548
  18   2.0000      -0.689353       -18.7582
  19   2.0000      -0.666022       -18.1234
  20   2.0000      -0.641028       -17.4433
  21   2.0000      -0.601807       -16.3760
  22   2.0000      -0.593623       -16.1533
  23   2.0000      -0.564527       -15.3616
  24   2.0000      -0.551211       -14.9992
  25   2.0000      -0.539474       -14.6798
  26   2.0000      -0.525659       -14.3039
  27   2.0000      -0.486748       -13.2451
  28   2.0000      -0.474805       -12.9201
  29   2.0000      -0.471569       -12.8320
  30   2.0000      -0.467482       -12.7208
  31   2.0000      -0.454871       -12.3777
  32   2.0000      -0.448889       -12.2149
  33   2.0000      -0.431720       -11.7477
  34   2.0000      -0.416649       -11.3376
  35   0.0000       0.128897         3.5075
  36   0.0000       0.160119         4.3571
  37   0.0000       0.167504         4.5580
  38   0.0000       0.170168         4.6305
  39   0.0000       0.181899         4.9497

MULLIKEN ATOMIC CHARGES
-----------------------
   0 C :   -0.465965
   1 C :    0.178018
   2 C :   -0.301069
   3 C :   -0.239031
   4 C :   -0.253053
   5 C :   -0.273791
   6 C :    0.021545
   7 C :   -0.073269
   8 O :   -0.340354
   9 H :    0.140804
  10 H :    0.135006
  11 H :    0.132554
  12 H :    0.139312
  13 H :    0.116824
  14 H :    0.120908
  15 H :    0.117539
  16 H :    0.122465
  17 H :    0.117324
  18 H :    0.116875
  19 H :    0.131077
  20 H :    0.119640
  21 H :    0.116375
  22 H :    0.120267
Sum of atomic charges:   -0.0000000

LOEWDIN ATOMIC CHARGES
----------------------
   0 C :   -0.258735
   1 C :   -0.289149
   2 C :   -0.214776
   3 C :   -0.250224
   4 C :   -0.254659
   5 C :   -0.211597
   6 C :   -0.257866
   7 C :   -0.262853
   8 O :    0.144814
   9 H :    0.129525
  10 H :    0.126807
  11 H :    0.126198
  12 H :    0.146603
  13 H :    0.134138
  14 H :    0.132573
  15 H :    0.131787
  16 H :    0.132081
  17 H :    0.131735
  18 H :    0.135192
  19 H :    0.146426
  20 H :    0.142356
  21 H :    0.118274
  22 H :    0.121350

  Mayer bond orders larger than 0.1
B(  0-C ,  1-C ) :   0.9063 B(  0-C ,  9-H ) :   0.9294 B(  0-C , 10-H ) :   0.9375
B(  0-C , 11-H ) :   0.9365 B(  1-C ,  2-C ) :   0.8877 B(  1-C ,  5-C ) :   0.8964
B(  1-C ,  6-C ) :   0.8889 B(  2-C ,  3-C ) :   0.9485 B(  2-C , 12-H ) :   0.9258
B(  2-C , 13-H ) :   0.9202 B(  3-C ,  4-C ) :   0.9251 B(  3-C , 14-H ) :   0.9372
B(  3-C , 15-H ) :   0.9394 B(  4-C ,  5-C ) :   0.9473 B(  4-C , 16-H ) :   0.9338
B(  4-C , 17-H ) :   0.9379 B(  5-C , 18-H ) :   0.9237 B(  5-C , 19-H ) :   0.9278
B(  6-C ,  7-C ) :   0.9723 B(  6-C ,  8-O ) :   0.8750 B(  6-C , 20-H ) :   0.9171
B(  7-C ,  8-O ) :   0.9086 B(  7-C , 21-H ) :   0.9214 B(  7-C , 22-H ) :   0.9075

MP2 TOTAL ENERGY:     -387.615079263 Eh
FINAL SINGLE POINT ENERGY      -387.615079262664

DIPOLE MOMENT
-------------
                                X             Y             Z
Electronic contribution:     -5.49358      -3.07044      -0.68372
Nuclear contribution   :      5.65020       3.72236       0.62888
                        -----------------------------------------
Total Dipole Moment    :      0.15662       0.65192      -0.05484
                        -----------------------------------------
Magnitude (a.u.)       :      0.67271
Magnitude (Debye)      :      1.70988

                             ****ORCA TERMINATED NORMALLY****
TOTAL RUN TIME: 0 days 0 hours 21 minutes 19 seconds 873 msec
