                         Program Version 3.0.3 - RELEASE   -
|  1> ! RI-MP2 RIJK def2-TZVP def2-TZVP/C def2-TZVP/JK TIGHTSCF
|  2> % maxcore 2000
|  3> % mp2 density relaxed end
|  4> *xyz 0 1
|  5>  C       -1.0248783261     0.6222367453     0.5429862769
|  6>  C        0.2700507748     0.1989752537    -0.1043790245
|  7>  O        1.3586785575     0.4901539761     0.3074675266
|  8>  C        0.1537723996    -0.7086963017    -1.4052044931
|  9>  C        1.5364729617    -0.8354224284    -2.0845096091
| 10>  C       -0.3448812144    -2.0158651155    -0.9697859092
| 11>  C       -0.7157615782    -3.0860516847    -0.5702531687
| 12>  C       -0.8062541056    -0.0854569701    -2.3314700246
| 13>  N       -1.5406931403     0.4404734600    -3.0522878721
| 14>  H       -1.5307212956     1.3525492348    -0.0976354399
| 15>  H       -1.6993552504    -0.2312624987     0.6528183333
| 16>  H       -0.8149341118     1.0721469803     1.5133795634
| 17>  H        2.2463258447    -1.2525100413    -1.3703248981
| 18>  H        1.4643305697    -1.4882625322    -2.9557888314
| 19>  H        1.8905247103     0.1490739318    -2.3955831617
| 20>  H       -1.0514913863    -4.0367064693    -0.2344155278
| 21> *
| 22>
| 23>                          ****END OF INPUT****

CARTESIAN COORDINATES (ANGSTROEM)
---------------------------------
  C     -1.024878    0.622237    0.542986
  C      0.270051    0.198975   -0.104379
  O      1.358679    0.490154    0.307468
  C      0.153772   -0.708696   -1.405204
  C      1.536473   -0.835422   -2.084510
  C     -0.344881   -2.015865   -0.969786
  C     -0.715762   -3.086052   -0.570253
  C     -0.806254   -0.085457   -2.331470
  N     -1.540693    0.440473   -3.052288
  H     -1.530721    1.352549   -0.097635
  H     -1.699355   -0.231262    0.652818
  H     -0.814934    1.072147    1.513380
  H      2.246326   -1.252510   -1.370325
  H      1.464331   -1.488263   -2.955789
  H      1.890525    0.149074   -2.395583
  H     -1.051491   -4.036706   -0.234416

 Total Charge           Charge          ....    0
 Multiplicity           Mult            ....    1
 Number of Electrons    NEL             ....   64
 Basis Dimension        Dim             ....  321

ORBITAL ENERGIES
----------------

  NO   OCC          E(Eh)            E(eV)
   0   2.0000     -20.579682      -560.0016
   1   2.0000     -15.589691      -424.2171
   2   2.0000     -11.369822      -309.3886
   3   2.0000     -11.338303      -308.5309
   4   2.0000     -11.292501      -307.2846
   5   2.0000     -11.269543      -306.6599
   6   2.0000     -11.260661      -306.4182
   7   2.0000     -11.253350      -306.2192
   8   2.0000     -11.251742      -306.1755
   9   2.0000      -1.428191       -38.8631
  10   2.0000      -1.240837       -33.7649
  11   2.0000      -1.148552       -31.2537
  12   2.0000      -1.039873       -28.2964
  13   2.0000      -1.029499       -28.0141
  14   2.0000      -0.930992       -25.3336
  15   2.0000      -0.800345       -21.7785
  16   2.0000      -0.785875       -21.3848
  17   2.0000      -0.720869       -19.6159
  18   2.0000      -0.702308       -19.1108
  19   2.0000      -0.660342       -17.9688
  20   2.0000      -0.618978       -16.8432
  21   2.0000      -0.609855       -16.5950
  22   2.0000      -0.588546       -16.0152
  23   2.0000      -0.579791       -15.7769
  24   2.0000      -0.561091       -15.2681
  25   2.0000      -0.551331       -15.0025
  26   2.0000      -0.527631       -14.3576
  27   2.0000      -0.502983       -13.6869
  28   2.0000      -0.480660       -13.0794
  29   2.0000      -0.455092       -12.3837
  30   2.0000      -0.425375       -11.5750
  31   2.0000      -0.407864       -11.0985
  32   0.0000       0.107790         2.9331
  33   0.0000       0.117623         3.2007
  34   0.0000       0.139618         3.7992
  35   0.0000       0.144820         3.9407
  36   0.0000       0.155772         4.2388

MULLIKEN ATOMIC CHARGES
-----------------------
   0 C :   -0.439819
   1 C :    0.182669
   2 O :   -0.247740
   3 C :    0.182999
   4 C :   -0.390941
   5 C :   -0.106138
   6 C :   -0.118634
   7 C :   -0.204344
   8 N :   -0.044520
   9 H :    0.176426
  10 H :    0.172344
  11 H :    0.161604
  12 H :    0.161656
  13 H :    0.154551
  14 H :    0.155023
  15 H :    0.204863
Sum of atomic charges:    0.0000000

LOEWDIN ATOMIC CHARGES
----------------------
   0 C :   -0.262056
   1 C :   -0.275128
   2 O :    0.194311
   3 C :   -0.250397
   4 C :   -0.219579
   5 C :   -0.056798
   6 C :   -0.058131
   7 C :   -0.136464
   8 N :    0.079584
   9 H :    0.151428
  10 H :    0.146782
  11 H :    0.138780
  12 H :    0.140169
  13 H :    0.136640
  14 H :    0.137770
  15 H :    0.133090

  Mayer bond orders larger than 0.1
B(  0-C ,  1-C ) :   0.9501 B(  0-C ,  9-H ) :   0.8976 B(  0-C , 10-H ) :   0.9138
B(  0-C , 11-H ) :   0.9317 B(  1-C ,  2-O ) :   2.0137 B(  1-C ,  3-C ) :   0.7320
B(  3-C ,  4-C ) :   0.8914 B(  3-C ,  5-C ) :   1.1534 B(  3-C ,  7-C ) :   0.8855
B(  4-C , 12-H ) :   0.9261 B(  4-C , 13-H ) :   0.9250 B(  4-C , 14-H ) :   0.9252
B(  5-C ,  6-C ) :   2.5783 B(  6-C , 15-H ) :   0.8771 B(  7-C ,  8-N ) :   2.8556

MP2 TOTAL ENERGY:     -400.041941313 Eh
FINAL SINGLE POINT ENERGY      -400.041941312783

DIPOLE MOMENT
-------------
                                X             Y             Z
Electronic contribution:     -0.97701       0.06670      -1.56462
Nuclear contribution   :      1.05729      -0.80962       2.24925
                        -----------------------------------------
Total Dipole Moment    :      0.08028      -0.74292       0.68462
                        -----------------------------------------
Magnitude (a.u.)       :      1.01345
Magnitude (Debye)      :      2.57599

                             ****ORCA TERMINATED NORMALLY****
TOTAL RUN TIME: 0 days 0 hours 17 minutes 27 seconds 317 msec
