                         Program Version 3.0.3 - RELEASE   -
|  1> ! RI-MP2 RIJK def2-TZVP def2-TZVP/C def2-TZVP/JK TIGHTSCF
|  2> % maxcore 2000
|  3> % mp2 density relaxed end
|  4> *xyz 0 1
|  5>  O        0.0846389860     1.3465751352    -0.1856174594
|  6>  C       -0.0266080215    -0.0341046473     0.1155495500
|  7>  C       -1.4477813998    -0.5129510190     0.1081967189
|  8>  C       -2.5933920337    -0.1677708761     1.0603847776
|  9>  N       -3.3536154035    -1.3711001127     0.5100200339
| 10>  C       -2.0081909692    -1.8785072342    -0.0322660738
| 11>  C       -2.1622032265    -0.9443204211    -1.2232607655
| 12>  C       -3.6109219737    -0.8832641216    -0.8799490152
| 13>  O       -4.6409184391    -0.6562442871    -1.4270196866
| 14>  H       -0.2927243128     1.4896115335    -1.0601849518
| 15>  H        0.5817957156    -0.6553358250    -0.5614668737
| 16>  H        0.3912245594    -0.1505086328     1.1218438614
| 17>  H       -2.3315811498    -0.3388392516     2.1076961357
| 18>  H       -3.1212578969     0.7847909188     0.9527164271
| 19>  H       -1.6471913662    -2.8941988435     0.0241469049
| 20>  H       -1.6502574382    -0.9510767055    -2.1768998734
| 21> *
| 22>
| 23>                          ****END OF INPUT****

CARTESIAN COORDINATES (ANGSTROEM)
---------------------------------
  O      0.084639    1.346575   -0.185617
  C     -0.026608   -0.034105    0.115550
  C     -1.447781   -0.512951    0.108197
  C     -2.593392   -0.167771    1.060385
  N     -3.353615   -1.371100    0.510020
  C     -2.008191   -1.878507   -0.032266
  C     -2.162203   -0.944320   -1.223261
  C     -3.610922   -0.883264   -0.879949
  O     -4.640918   -0.656244   -1.427020
  H     -0.292724    1.489612   -1.060185
  H      0.581796   -0.655336   -0.561467
  H      0.391225   -0.150509    1.121844
  H     -2.331581   -0.338839    2.107696
  H     -3.121258    0.784791    0.952716
  H     -1.647191   -2.894199    0.024147
  H     -1.650257   -0.951077   -2.176900

 Total Charge           Charge          ....    0
 Multiplicity           Mult            ....    1
 Number of Electrons    NEL             ....   66
 Basis Dimension        Dim             ....  321

ORBITAL ENERGIES
----------------

  NO   OCC          E(Eh)            E(eV)
   0   2.0000     -20.578193      -559.9611
   1   2.0000     -20.558230      -559.4179
   2   2.0000     -15.588828      -424.1936
   3   2.0000     -11.367805      -309.3337
   4   2.0000     -11.307923      -307.7042
   5   2.0000     -11.302191      -307.5483
   6   2.0000     -11.286851      -307.1308
   7   2.0000     -11.285580      -307.0962
   8   2.0000     -11.276054      -306.8370
   9   2.0000      -1.417936       -38.5840
  10   2.0000      -1.383813       -37.6555
  11   2.0000      -1.331099       -36.2211
  12   2.0000      -1.082512       -29.4566
  13   2.0000      -1.017541       -27.6887
  14   2.0000      -0.933883       -25.4122
  15   2.0000      -0.894983       -24.3537
  16   2.0000      -0.780695       -21.2438
  17   2.0000      -0.741815       -20.1858
  18   2.0000      -0.723224       -19.6799
  19   2.0000      -0.683796       -18.6070
  20   2.0000      -0.678382       -18.4597
  21   2.0000      -0.664732       -18.0883
  22   2.0000      -0.632205       -17.2032
  23   2.0000      -0.616900       -16.7867
  24   2.0000      -0.577307       -15.7093
  25   2.0000      -0.553468       -15.0606
  26   2.0000      -0.543468       -14.7885
  27   2.0000      -0.511594       -13.9212
  28   2.0000      -0.492173       -13.3927
  29   2.0000      -0.461434       -12.5563
  30   2.0000      -0.437241       -11.8979
  31   2.0000      -0.427355       -11.6289
  32   2.0000      -0.395531       -10.7630
  33   0.0000       0.116905         3.1811
  34   0.0000       0.141114         3.8399
  35   0.0000       0.149761         4.0752
  36   0.0000       0.159774         4.3477
  37   0.0000       0.170002         4.6260

MULLIKEN ATOMIC CHARGES
-----------------------
   0 O :   -0.456168
   1 C :   -0.007594
   2 C :   -0.145561
   3 C :   -0.065949
   4 N :   -0.179184
   5 C :   -0.044969
   6 C :   -0.218655
   7 C :    0.196601
   8 O :   -0.230046
   9 H :    0.318652
  10 H :    0.112685
  11 H :    0.124978
  12 H :    0.127787
  13 H :    0.127663
  14 H :    0.175097
  15 H :    0.164666
Sum of atomic charges:    0.0000000

LOEWDIN ATOMIC CHARGES
----------------------
   0 O :   -0.037012
   1 C :   -0.309224
   2 C :   -0.202990
   3 C :   -0.178411
   4 N :    0.142467
   5 C :   -0.119975
   6 C :   -0.114057
   7 C :   -0.365731
   8 O :    0.179151
   9 H :    0.177165
  10 H :    0.127863
  11 H :    0.141227
  12 H :    0.138645
  13 H :    0.131512
  14 H :    0.142148
  15 H :    0.147223

  Mayer bond orders larger than 0.1
B(  0-O ,  1-C ) :   0.9085 B(  0-O ,  9-H ) :   0.8426 B(  1-C ,  2-C ) :   0.9423
B(  1-C , 10-H ) :   0.9231 B(  1-C , 11-H ) :   0.9193 B(  2-C ,  3-C ) :   0.9681
B(  2-C ,  5-C ) :   0.8450 B(  2-C ,  6-C ) :   0.7799 B(  3-C ,  4-N ) :   0.9102
B(  3-C , 12-H ) :   0.9118 B(  3-C , 13-H ) :   0.9183 B(  4-N ,  5-C ) :   0.9273
B(  4-N ,  7-C ) :   0.8965 B(  5-C ,  6-C ) :   0.8187 B(  5-C , 14-H ) :   0.8892
B(  6-C ,  7-C ) :   0.9550 B(  6-C , 15-H ) :   0.8973 B(  7-C ,  8-O ) :   2.0821

MP2 TOTAL ENERGY:     -437.106268044 Eh
FINAL SINGLE POINT ENERGY      -437.106268043658

DIPOLE MOMENT
-------------
                                X             Y             Z
Electronic contribution:     -5.16536      -1.11812      -1.98395
Nuclear contribution   :      6.60671       0.83180       1.86387
                        -----------------------------------------
Total Dipole Moment    :      1.44135      -0.28632      -0.12007
                        -----------------------------------------
Magnitude (a.u.)       :      1.47441
Magnitude (Debye)      :      3.74764

                             ****ORCA TERMINATED NORMALLY****
TOTAL RUN TIME: 0 days 0 hours 16 minutes 24 seconds 952 msec
