                         Program Version 3.0.3 - RELEASE   -
|  1> ! RI-MP2 RIJK def2-TZVP def2-TZVP/C def2-TZVP/JK TIGHTSCF
|  2> % maxcore 2000
|  3> % mp2 density relaxed end
|  4> *xyz 0 1
|  5>  N       -0.0900323910     1.2930959441    -0.2322698025
|  6>  C       -0.0070081597     0.0690598847     0.0706882840
|  7>  C       -1.2621295952    -0.7812674648     0.1480214422
|  8>  O       -1.1553566282    -1.8921237631     1.0183314839
|  9>  C        0.0029860564    -2.6444019844     0.7160140613
| 10>  C        1.2309997659    -1.7923513258     0.9716221244
| 11>  O        1.1907782803    -0.5641295809     0.2269187193
| 12>  H        0.8434467074     1.7038988600    -0.3058763378
| 13>  H       -2.0859745723    -0.1594917345     0.4977773873
| 14>  H       -1.4981312348    -1.1217240592    -0.8750999476
| 15>  H        0.0048377180    -3.5202745470     1.3709832857
| 16>  H       -0.0174326240    -2.9883040477    -0.3315289271
| 17>  H        1.2985633241    -1.5527895010     2.0403263933
| 18>  H        2.1487240631    -2.3013345704     0.6644333836
| 19> *
| 20>
| 21>                          ****END OF INPUT****

CARTESIAN COORDINATES (ANGSTROEM)
---------------------------------
  N     -0.090032    1.293096   -0.232270
  C     -0.007008    0.069060    0.070688
  C     -1.262130   -0.781267    0.148021
  O     -1.155357   -1.892124    1.018331
  C      0.002986   -2.644402    0.716014
  C      1.231000   -1.792351    0.971622
  O      1.190778   -0.564130    0.226919
  H      0.843447    1.703899   -0.305876
  H     -2.085975   -0.159492    0.497777
  H     -1.498131   -1.121724   -0.875100
  H      0.004838   -3.520275    1.370983
  H     -0.017433   -2.988304   -0.331529
  H      1.298563   -1.552790    2.040326
  H      2.148724   -2.301335    0.664433

 Total Charge           Charge          ....    0
 Multiplicity           Mult            ....    1
 Number of Electrons    NEL             ....   54
 Basis Dimension        Dim             ....  259

ORBITAL ENERGIES
----------------

  NO   OCC          E(Eh)            E(eV)
   0   2.0000     -20.598636      -560.5174
   1   2.0000     -20.578142      -559.9597
   2   2.0000     -15.535055      -422.7303
   3   2.0000     -11.340509      -308.5909
   4   2.0000     -11.302989      -307.5700
   5   2.0000     -11.297497      -307.4205
   6   2.0000     -11.296667      -307.3979
   7   2.0000      -1.438622       -39.1469
   8   2.0000      -1.390881       -37.8478
   9   2.0000      -1.201744       -32.7011
  10   2.0000      -1.041096       -28.3297
  11   2.0000      -0.964419       -26.2432
  12   2.0000      -0.888927       -24.1889
  13   2.0000      -0.770032       -20.9536
  14   2.0000      -0.712564       -19.3899
  15   2.0000      -0.707900       -19.2629
  16   2.0000      -0.673762       -18.3340
  17   2.0000      -0.657038       -17.8789
  18   2.0000      -0.636027       -17.3072
  19   2.0000      -0.590340       -16.0640
  20   2.0000      -0.578831       -15.7508
  21   2.0000      -0.552837       -15.0435
  22   2.0000      -0.514423       -13.9982
  23   2.0000      -0.487237       -13.2584
  24   2.0000      -0.457414       -12.4469
  25   2.0000      -0.426293       -11.6000
  26   2.0000      -0.399550       -10.8723
  27   0.0000       0.133751         3.6396
  28   0.0000       0.156759         4.2656
  29   0.0000       0.170530         4.6404
  30   0.0000       0.173323         4.7163
  31   0.0000       0.189651         5.1607

MULLIKEN ATOMIC CHARGES
-----------------------
   0 N :   -0.373342
   1 C :    0.111992
   2 C :   -0.009079
   3 O :   -0.310841
   4 C :   -0.082441
   5 C :   -0.035077
   6 O :   -0.268026
   7 H :    0.220833
   8 H :    0.154924
   9 H :    0.114044
  10 H :    0.135050
  11 H :    0.106029
  12 H :    0.109908
  13 H :    0.126024
Sum of atomic charges:    0.0000000

LOEWDIN ATOMIC CHARGES
----------------------
   0 N :   -0.051289
   1 C :   -0.419729
   2 C :   -0.279305
   3 O :    0.158299
   4 C :   -0.327280
   5 C :   -0.288910
   6 O :    0.229273
   7 H :    0.167455
   8 H :    0.148039
   9 H :    0.136429
  10 H :    0.137419
  11 H :    0.125449
  12 H :    0.130218
  13 H :    0.133933

  Mayer bond orders larger than 0.1
B(  0-N ,  1-C ) :   2.0178 B(  0-N ,  7-H ) :   0.8543 B(  1-C ,  2-C ) :   0.9097
B(  1-C ,  6-O ) :   1.0830 B(  2-C ,  3-O ) :   0.9270 B(  2-C ,  8-H ) :   0.9165
B(  2-C ,  9-H ) :   0.9260 B(  3-O ,  4-C ) :   0.9176 B(  4-C ,  5-C ) :   0.9550
B(  4-C , 10-H ) :   0.9191 B(  4-C , 11-H ) :   0.9330 B(  5-C ,  6-O ) :   0.8668
B(  5-C , 12-H ) :   0.9221 B(  5-C , 13-H ) :   0.9201

MP2 TOTAL ENERGY:     -361.133737457 Eh
FINAL SINGLE POINT ENERGY      -361.133737457461

DIPOLE MOMENT
-------------
                                X             Y             Z
Electronic contribution:     -0.07721       2.25344      -0.00981
Nuclear contribution   :      0.67838      -3.27845       0.10367
                        -----------------------------------------
Total Dipole Moment    :      0.60118      -1.02501       0.09386
                        -----------------------------------------
Magnitude (a.u.)       :      1.19200
Magnitude (Debye)      :      3.02983

                             ****ORCA TERMINATED NORMALLY****
TOTAL RUN TIME: 0 days 0 hours 7 minutes 23 seconds 44 msec
