                         Program Version 3.0.3 - RELEASE   -
|  1> ! RI-MP2 RIJK def2-TZVP def2-TZVP/C def2-TZVP/JK TIGHTSCF
|  2> % maxcore 2000
|  3> % mp2 density relaxed end
|  4> *xyz 0 1
|  5>  C       -0.2855863174     1.5286170544    -0.0025339606
|  6>  C        0.0202889926     0.0456479982     0.0716150270
|  7>  C        1.3213435566    -0.6228628138    -0.3199553114
|  8>  C        2.5988350151     0.2087244329    -0.3891299149
|  9>  C        2.7343383878     0.9019526223     0.9884429410
| 10>  C        1.8181768611     0.1198666702     1.9659804932
| 11>  O        1.1011267026     0.9509253031     2.8764048597
| 12>  C        0.8407700634    -0.6819129099     1.1195382766
| 13>  C        0.2731638080    -1.9297707044     1.7577456235
| 14>  H        0.5958953922     2.1628463419     0.0903481436
| 15>  H       -0.7542171606     1.7638703515    -0.9650938279
| 16>  H       -0.9810085574     1.8210238115     0.7903596306
| 17>  H       -0.8451052353    -0.5487912786    -0.2176451512
| 18>  H        1.2647199215    -1.5022631992    -0.9548839320
| 19>  H        3.4479939796    -0.4601174939    -0.5675297225
| 20>  H        2.5937348441     0.9319557760    -1.2128058450
| 21>  H        3.7725683303     0.9188088865     1.3343824965
| 22>  H        2.3970054992     1.9405329221     0.9562416330
| 23>  H        2.4253229321    -0.6018219279     2.5369073422
| 24>  H        1.7372722785     1.3569477452     3.4735796409
| 25>  H       -0.3240624667    -1.6759724227     2.6407786129
| 26>  H       -0.3720170183    -2.4769452094     1.0633542148
| 27>  H        1.0698469807    -2.6116436761     2.0806014301
| 28> *
| 29>
| 30>                          ****END OF INPUT****

CARTESIAN COORDINATES (ANGSTROEM)
---------------------------------
  C     -0.285586    1.528617   -0.002534
  C      0.020289    0.045648    0.071615
  C      1.321344   -0.622863   -0.319955
  C      2.598835    0.208724   -0.389130
  C      2.734338    0.901953    0.988443
  C      1.818177    0.119867    1.965980
  O      1.101127    0.950925    2.876405
  C      0.840770   -0.681913    1.119538
  C      0.273164   -1.929771    1.757746
  H      0.595895    2.162846    0.090348
  H     -0.754217    1.763870   -0.965094
  H     -0.981009    1.821024    0.790360
  H     -0.845105   -0.548791   -0.217645
  H      1.264720   -1.502263   -0.954884
  H      3.447994   -0.460117   -0.567530
  H      2.593735    0.931956   -1.212806
  H      3.772568    0.918809    1.334382
  H      2.397005    1.940533    0.956242
  H      2.425323   -0.601822    2.536907
  H      1.737272    1.356948    3.473580
  H     -0.324062   -1.675972    2.640779
  H     -0.372017   -2.476945    1.063354
  H      1.069847   -2.611644    2.080601

 Total Charge           Charge          ....    0
 Multiplicity           Mult            ....    1
 Number of Electrons    NEL             ....   70
 Basis Dimension        Dim             ....  363

ORBITAL ENERGIES
----------------

  NO   OCC          E(Eh)            E(eV)
   0   2.0000     -20.549283      -559.1744
   1   2.0000     -11.274878      -306.8050
   2   2.0000     -11.222720      -305.3857
   3   2.0000     -11.221550      -305.3539
   4   2.0000     -11.221087      -305.3413
   5   2.0000     -11.219300      -305.2927
   6   2.0000     -11.216897      -305.2273
   7   2.0000     -11.209238      -305.0189
   8   2.0000     -11.205342      -304.9129
   9   2.0000      -1.354294       -36.8522
  10   2.0000      -1.168277       -31.7904
  11   2.0000      -1.031266       -28.0622
  12   2.0000      -0.988028       -26.8856
  13   2.0000      -0.947157       -25.7735
  14   2.0000      -0.906168       -24.6581
  15   2.0000      -0.825518       -22.4635
  16   2.0000      -0.743018       -20.2186
  17   2.0000      -0.724370       -19.7111
  18   2.0000      -0.689143       -18.7525
  19   2.0000      -0.651977       -17.7412
  20   2.0000      -0.611435       -16.6380
  21   2.0000      -0.593458       -16.1488
  22   2.0000      -0.586836       -15.9686
  23   2.0000      -0.561625       -15.2826
  24   2.0000      -0.549781       -14.9603
  25   2.0000      -0.542488       -14.7618
  26   2.0000      -0.530110       -14.4250
  27   2.0000      -0.519320       -14.1314
  28   2.0000      -0.509829       -13.8732
  29   2.0000      -0.485562       -13.2128
  30   2.0000      -0.472173       -12.8485
  31   2.0000      -0.446375       -12.1465
  32   2.0000      -0.427982       -11.6460
  33   2.0000      -0.381461       -10.3801
  34   2.0000      -0.375472       -10.2171
  35   0.0000       0.131636         3.5820
  36   0.0000       0.148987         4.0542
  37   0.0000       0.158495         4.3129
  38   0.0000       0.167607         4.5608
  39   0.0000       0.184147         5.0109

MULLIKEN ATOMIC CHARGES
-----------------------
   0 C :   -0.370585
   1 C :   -0.159384
   2 C :   -0.115032
   3 C :   -0.249743
   4 C :   -0.282922
   5 C :    0.037950
   6 O :   -0.464122
   7 C :    0.155449
   8 C :   -0.418302
   9 H :    0.117006
  10 H :    0.125620
  11 H :    0.137758
  12 H :    0.107808
  13 H :    0.118289
  14 H :    0.118527
  15 H :    0.115363
  16 H :    0.119342
  17 H :    0.127739
  18 H :    0.078338
  19 H :    0.309717
  20 H :    0.146307
  21 H :    0.124505
  22 H :    0.120373
Sum of atomic charges:   -0.0000000

LOEWDIN ATOMIC CHARGES
----------------------
   0 C :   -0.289107
   1 C :   -0.186926
   2 C :   -0.163594
   3 C :   -0.233101
   4 C :   -0.238350
   5 C :   -0.289709
   6 O :   -0.020083
   7 C :   -0.214744
   8 C :   -0.268716
   9 H :    0.122827
  10 H :    0.123673
  11 H :    0.129572
  12 H :    0.155143
  13 H :    0.142419
  14 H :    0.138823
  15 H :    0.136287
  16 H :    0.130703
  17 H :    0.134090
  18 H :    0.138024
  19 H :    0.171331
  20 H :    0.131620
  21 H :    0.126369
  22 H :    0.123449

  Mayer bond orders larger than 0.1
B(  0-C ,  1-C ) :   0.9101 B(  0-C ,  9-H ) :   0.9372 B(  0-C , 10-H ) :   0.9347
B(  0-C , 11-H ) :   0.9358 B(  1-C ,  2-C ) :   0.9076 B(  1-C ,  7-C ) :   0.8682
B(  1-C , 12-H ) :   0.9353 B(  2-C ,  3-C ) :   0.9354 B(  2-C ,  7-C ) :   0.8271
B(  2-C , 13-H ) :   0.9235 B(  3-C ,  4-C ) :   0.9406 B(  3-C , 14-H ) :   0.9247
B(  3-C , 15-H ) :   0.9254 B(  4-C ,  5-C ) :   0.9041 B(  4-C , 16-H ) :   0.9277
B(  4-C , 17-H ) :   0.9360 B(  5-C ,  6-O ) :   1.0651 B(  5-C ,  7-C ) :   0.8977
B(  5-C , 18-H ) :   0.9426 B(  6-O , 19-H ) :   0.8467 B(  7-C ,  8-C ) :   0.8884
B(  8-C , 20-H ) :   0.9435 B(  8-C , 21-H ) :   0.9353 B(  8-C , 22-H ) :   0.9367

MP2 TOTAL ENERGY:     -387.624041499 Eh
FINAL SINGLE POINT ENERGY      -387.624041499292

DIPOLE MOMENT
-------------
                                X             Y             Z
Electronic contribution:      0.70457       0.13314       2.06535
Nuclear contribution   :     -0.13112      -0.18483      -2.04466
                        -----------------------------------------
Total Dipole Moment    :      0.57345      -0.05169       0.02069
                        -----------------------------------------
Magnitude (a.u.)       :      0.57614
Magnitude (Debye)      :      1.46444

                             ****ORCA TERMINATED NORMALLY****
TOTAL RUN TIME: 0 days 0 hours 21 minutes 46 seconds 854 msec
