                         Program Version 3.0.3 - RELEASE   -
|  1> ! RI-MP2 RIJK def2-TZVP def2-TZVP/C def2-TZVP/JK TIGHTSCF
|  2> % maxcore 2000
|  3> % mp2 density relaxed end
|  4> *xyz 0 1
|  5>  C       -0.1820829397     1.5162685341     0.0798147188
|  6>  C        0.0308361652     0.0194054393    -0.0032677283
|  7>  N       -0.7562206465    -0.8594038226     0.9007449083
|  8>  C        0.7045169817    -0.7043030873     1.1059383965
|  9>  C        1.5599518266    -1.9272596400     0.7938513657
| 10>  C        2.2236117828    -1.8516947060    -0.5942501874
| 11>  O        2.7974292145    -3.1015120560    -0.9630446877
| 12>  C        1.2559744611    -1.3528399624    -1.6450045026
| 13>  C        0.2486170984    -0.5247123054    -1.3755227411
| 14>  H        0.6538611783     2.0605003501    -0.3725276675
| 15>  H       -1.0947990607     1.8115035517    -0.4514341864
| 16>  H       -0.2748083139     1.8430879286     1.1210473516
| 17>  H       -1.2572414415    -0.2810709369     1.5740294378
| 18>  H        1.0175175401    -0.1046822967     1.9578723465
| 19>  H        2.3307931517    -2.0733385557     1.5564781731
| 20>  H        0.9114386224    -2.8107378031     0.8112441915
| 21>  H        3.0843885365    -1.1703678398    -0.5501222228
| 22>  H        2.0775552427    -3.7396896247    -1.0258105427
| 23>  H        1.4337016811    -1.7171812539    -2.6538466365
| 24>  H       -0.4321047608    -0.1978343834    -2.1588027971
| 25> *
| 26>
| 27>                          ****END OF INPUT****

CARTESIAN COORDINATES (ANGSTROEM)
---------------------------------
  C     -0.182083    1.516269    0.079815
  C      0.030836    0.019405   -0.003268
  N     -0.756221   -0.859404    0.900745
  C      0.704517   -0.704303    1.105938
  C      1.559952   -1.927260    0.793851
  C      2.223612   -1.851695   -0.594250
  O      2.797429   -3.101512   -0.963045
  C      1.255974   -1.352840   -1.645005
  C      0.248617   -0.524712   -1.375523
  H      0.653861    2.060500   -0.372528
  H     -1.094799    1.811504   -0.451434
  H     -0.274808    1.843088    1.121047
  H     -1.257241   -0.281071    1.574029
  H      1.017518   -0.104682    1.957872
  H      2.330793   -2.073339    1.556478
  H      0.911439   -2.810738    0.811244
  H      3.084389   -1.170368   -0.550122
  H      2.077555   -3.739690   -1.025811
  H      1.433702   -1.717181   -2.653847
  H     -0.432105   -0.197834   -2.158803

 Total Charge           Charge          ....    0
 Multiplicity           Mult            ....    1
 Number of Electrons    NEL             ....   68
 Basis Dimension        Dim             ....  345

ORBITAL ENERGIES
----------------

  NO   OCC          E(Eh)            E(eV)
   0   2.0000     -20.554393      -559.3135
   1   2.0000     -15.557171      -423.3322
   2   2.0000     -11.283849      -307.0491
   3   2.0000     -11.270036      -306.6733
   4   2.0000     -11.260861      -306.4236
   5   2.0000     -11.231172      -305.6157
   6   2.0000     -11.231075      -305.6131
   7   2.0000     -11.228221      -305.5354
   8   2.0000     -11.224699      -305.4396
   9   2.0000      -1.361047       -37.0360
  10   2.0000      -1.267699       -34.4959
  11   2.0000      -1.081155       -29.4197
  12   2.0000      -1.024843       -27.8874
  13   2.0000      -0.979718       -26.6595
  14   2.0000      -0.904022       -24.5997
  15   2.0000      -0.825301       -22.4576
  16   2.0000      -0.819364       -22.2960
  17   2.0000      -0.731318       -19.9002
  18   2.0000      -0.672063       -18.2878
  19   2.0000      -0.662991       -18.0409
  20   2.0000      -0.640735       -17.4353
  21   2.0000      -0.624396       -16.9907
  22   2.0000      -0.606825       -16.5125
  23   2.0000      -0.578170       -15.7328
  24   2.0000      -0.561120       -15.2689
  25   2.0000      -0.547410       -14.8958
  26   2.0000      -0.535376       -14.5683
  27   2.0000      -0.503930       -13.7126
  28   2.0000      -0.496592       -13.5130
  29   2.0000      -0.470902       -12.8139
  30   2.0000      -0.456885       -12.4325
  31   2.0000      -0.431602       -11.7445
  32   2.0000      -0.385728       -10.4962
  33   2.0000      -0.352981        -9.6051
  34   0.0000       0.127582         3.4717
  35   0.0000       0.135508         3.6874
  36   0.0000       0.164301         4.4709
  37   0.0000       0.166464         4.5297
  38   0.0000       0.170030         4.6268

MULLIKEN ATOMIC CHARGES
-----------------------
   0 C :   -0.393642
   1 C :    0.248909
   2 N :   -0.398378
   3 C :   -0.125533
   4 C :   -0.226903
   5 C :    0.138051
   6 O :   -0.471255
   7 C :   -0.203188
   8 C :   -0.219281
   9 H :    0.140241
  10 H :    0.139020
  11 H :    0.123980
  12 H :    0.210499
  13 H :    0.129056
  14 H :    0.123812
  15 H :    0.118916
  16 H :    0.105682
  17 H :    0.312344
  18 H :    0.129373
  19 H :    0.118297
Sum of atomic charges:   -0.0000000

LOEWDIN ATOMIC CHARGES
----------------------
   0 C :   -0.269514
   1 C :   -0.297837
   2 N :    0.024738
   3 C :   -0.223604
   4 C :   -0.223029
   5 C :   -0.324980
   6 O :   -0.021385
   7 C :   -0.144546
   8 C :   -0.119192
   9 H :    0.132749
  10 H :    0.129493
  11 H :    0.126553
  12 H :    0.164299
  13 H :    0.138044
  14 H :    0.141308
  15 H :    0.147370
  16 H :    0.151634
  17 H :    0.174170
  18 H :    0.146651
  19 H :    0.147076

  Mayer bond orders larger than 0.1
B(  0-C ,  1-C ) :   0.9210 B(  0-C ,  9-H ) :   0.9257 B(  0-C , 10-H ) :   0.9397
B(  0-C , 11-H ) :   0.9250 B(  1-C ,  2-N ) :   0.8488 B(  1-C ,  3-C ) :   0.8936
B(  1-C ,  8-C ) :   0.9316 B(  2-N ,  3-C ) :   0.9888 B(  2-N , 12-H ) :   0.8685
B(  3-C ,  4-C ) :   0.8610 B(  3-C , 13-H ) :   0.9249 B(  4-C ,  5-C ) :   0.9587
B(  4-C , 14-H ) :   0.9358 B(  4-C , 15-H ) :   0.9114 B(  5-C ,  6-O ) :   0.8863
B(  5-C ,  7-C ) :   0.9588 B(  5-C , 16-H ) :   0.9018 B(  6-O , 17-H ) :   0.8423
B(  7-C ,  8-C ) :   1.7855 B(  7-C , 18-H ) :   0.9330 B(  8-C , 19-H ) :   0.9232

MP2 TOTAL ENERGY:     -402.445608328 Eh
FINAL SINGLE POINT ENERGY      -402.445608328458

DIPOLE MOMENT
-------------
                                X             Y             Z
Electronic contribution:      1.03512      -3.64407      -1.36460
Nuclear contribution   :     -1.35675       4.37639       1.68293
                        -----------------------------------------
Total Dipole Moment    :     -0.32163       0.73232       0.31833
                        -----------------------------------------
Magnitude (a.u.)       :      0.86086
Magnitude (Debye)      :      2.18812

                             ****ORCA TERMINATED NORMALLY****
TOTAL RUN TIME: 0 days 0 hours 19 minutes 7 seconds 104 msec
