                         Program Version 3.0.3 - RELEASE   -
|  1> ! RI-MP2 RIJK def2-TZVP def2-TZVP/C def2-TZVP/JK TIGHTSCF
|  2> % maxcore 2000
|  3> % mp2 density relaxed end
|  4> *xyz 0 1
|  5>  O        0.0816880501     1.2916727535     0.3703763828
|  6>  C       -0.0254432024    -0.0665614558     0.0504117728
|  7>  C       -1.4740607038    -0.5114395275    -0.0023682386
|  8>  O       -2.1616020320    -0.1923792290    -1.2157524459
|  9>  C       -1.9060104234    -1.5723483446    -0.9293046217
| 10>  C       -0.9565330008    -2.2682700655    -1.8864811707
| 11>  C        0.5154025320    -1.7968180843    -1.7752050046
| 12>  C        0.6338882563    -0.3663980653    -1.2984392804
| 13>  O        1.2159319735     0.5125655566    -1.8911510953
| 14>  H        0.5510316633     1.6918950585    -0.3799162307
| 15>  H        0.4924611819    -0.6762106129     0.8132809663
| 16>  H       -2.0465142899    -0.3231369295     0.9055474627
| 17>  H       -2.8015515140    -2.1373903095    -0.6689299630
| 18>  H       -1.0061106229    -3.3495441483    -1.7240242894
| 19>  H       -1.3271515161    -2.0868881477    -2.9012157503
| 20>  H        1.0305546648    -2.4177172196    -1.0304900422
| 21>  H        1.0467008333    -1.9027969189    -2.7228638816
| 22> *
| 23>
| 24>                          ****END OF INPUT****

CARTESIAN COORDINATES (ANGSTROEM)
---------------------------------
  O      0.081688    1.291673    0.370376
  C     -0.025443   -0.066561    0.050412
  C     -1.474061   -0.511440   -0.002368
  O     -2.161602   -0.192379   -1.215752
  C     -1.906010   -1.572348   -0.929305
  C     -0.956533   -2.268270   -1.886481
  C      0.515403   -1.796818   -1.775205
  C      0.633888   -0.366398   -1.298439
  O      1.215932    0.512566   -1.891151
  H      0.551032    1.691895   -0.379916
  H      0.492461   -0.676211    0.813281
  H     -2.046514   -0.323137    0.905547
  H     -2.801552   -2.137390   -0.668930
  H     -1.006111   -3.349544   -1.724024
  H     -1.327152   -2.086888   -2.901216
  H      1.030555   -2.417717   -1.030490
  H      1.046701   -1.902797   -2.722864

 Total Charge           Charge          ....    0
 Multiplicity           Mult            ....    1
 Number of Electrons    NEL             ....   68
 Basis Dimension        Dim             ....  327

ORBITAL ENERGIES
----------------

  NO   OCC          E(Eh)            E(eV)
   0   2.0000     -20.580140      -560.0141
   1   2.0000     -20.567193      -559.6618
   2   2.0000     -20.559364      -559.4487
   3   2.0000     -11.346584      -308.7562
   4   2.0000     -11.306387      -307.6624
   5   2.0000     -11.305286      -307.6325
   6   2.0000     -11.302795      -307.5647
   7   2.0000     -11.259185      -306.3780
   8   2.0000     -11.258362      -306.3556
   9   2.0000      -1.432447       -38.9789
  10   2.0000      -1.415302       -38.5123
  11   2.0000      -1.364896       -37.1407
  12   2.0000      -1.102410       -29.9981
  13   2.0000      -1.021525       -27.7971
  14   2.0000      -0.966532       -26.3007
  15   2.0000      -0.868706       -23.6387
  16   2.0000      -0.836682       -22.7673
  17   2.0000      -0.759918       -20.6784
  18   2.0000      -0.715857       -19.4794
  19   2.0000      -0.711854       -19.3705
  20   2.0000      -0.666591       -18.1389
  21   2.0000      -0.653663       -17.7871
  22   2.0000      -0.640715       -17.4347
  23   2.0000      -0.612092       -16.6559
  24   2.0000      -0.591510       -16.0958
  25   2.0000      -0.572593       -15.5810
  26   2.0000      -0.562133       -15.2964
  27   2.0000      -0.540821       -14.7165
  28   2.0000      -0.510978       -13.9044
  29   2.0000      -0.507646       -13.8138
  30   2.0000      -0.476217       -12.9585
  31   2.0000      -0.448240       -12.1972
  32   2.0000      -0.444431       -12.0936
  33   2.0000      -0.427122       -11.6226
  34   0.0000       0.109890         2.9903
  35   0.0000       0.147352         4.0097
  36   0.0000       0.150240         4.0882
  37   0.0000       0.165261         4.4970
  38   0.0000       0.178433         4.8554

MULLIKEN ATOMIC CHARGES
-----------------------
   0 O :   -0.477987
   1 C :    0.085635
   2 C :   -0.012429
   3 O :   -0.322753
   4 C :    0.025494
   5 C :   -0.212834
   6 C :   -0.224065
   7 C :    0.183725
   8 O :   -0.302362
   9 H :    0.339059
  10 H :    0.100222
  11 H :    0.139406
  12 H :    0.130350
  13 H :    0.126596
  14 H :    0.137475
  15 H :    0.139926
  16 H :    0.144543
Sum of atomic charges:    0.0000000

LOEWDIN ATOMIC CHARGES
----------------------
   0 O :    0.002724
   1 C :   -0.325085
   2 C :   -0.237905
   3 O :    0.179063
   4 C :   -0.259658
   5 C :   -0.233883
   6 C :   -0.212663
   7 C :   -0.300246
   8 O :    0.154568
   9 H :    0.187010
  10 H :    0.156251
  11 H :    0.143772
  12 H :    0.140078
  13 H :    0.145622
  14 H :    0.152828
  15 H :    0.157414
  16 H :    0.150111

  Mayer bond orders larger than 0.1
B(  0-O ,  1-C ) :   1.0801 B(  0-O ,  9-H ) :   0.8018 B(  1-C ,  2-C ) :   0.8859
B(  1-C ,  7-C ) :   0.8913 B(  1-C , 10-H ) :   0.9192 B(  2-C ,  3-O ) :   0.9105
B(  2-C ,  4-C ) :   0.9513 B(  2-C , 11-H ) :   0.9221 B(  3-O ,  4-C ) :   0.8693
B(  4-C ,  5-C ) :   0.9131 B(  4-C , 12-H ) :   0.9163 B(  5-C ,  6-C ) :   0.9324
B(  5-C , 13-H ) :   0.9268 B(  5-C , 14-H ) :   0.9156 B(  6-C ,  7-C ) :   0.9138
B(  6-C , 15-H ) :   0.9080 B(  6-C , 16-H ) :   0.9234 B(  7-C ,  8-O ) :   1.9458

MP2 TOTAL ENERGY:     -458.239326695 Eh
FINAL SINGLE POINT ENERGY      -458.239326694907

DIPOLE MOMENT
-------------
                                X             Y             Z
Electronic contribution:      0.46780       5.01110       0.28783
Nuclear contribution   :     -0.49285      -6.68141      -0.10068
                        -----------------------------------------
Total Dipole Moment    :     -0.02505      -1.67030       0.18715
                        -----------------------------------------
Magnitude (a.u.)       :      1.68094
Magnitude (Debye)      :      4.27262

                             ****ORCA TERMINATED NORMALLY****
TOTAL RUN TIME: 0 days 0 hours 16 minutes 22 seconds 720 msec
