                         Program Version 3.0.3 - RELEASE   -
|  1> ! RI-MP2 RIJK def2-TZVP def2-TZVP/C def2-TZVP/JK TIGHTSCF
|  2> % maxcore 2000
|  3> % mp2 density relaxed end
|  4> *xyz 0 1
|  5>  C       -0.1601513199     1.0923094502    -0.4545000934
|  6>  C        1.2081533459     0.9633202461     0.1208940978
|  7>  N        0.2901906250    -0.1685010817     0.1197626413
|  8>  C       -0.2390150458    -0.6318215345     1.3864737415
|  9>  C       -0.8822410069     0.2746038167     2.4965473794
| 10>  C       -1.9608486030    -0.8298942536     2.7110287068
| 11>  C       -1.5523379546    -1.4196046682     1.3596277080
| 12>  C       -2.3901955718    -1.6507197097     0.1637794622
| 13>  N       -1.7826948860    -2.7803826321     0.9025921200
| 14>  H       -0.8762996732     1.7003990283     0.0922324763
| 15>  H       -0.3052258470     1.0859101070    -1.5312745682
| 16>  H        2.0773445906     0.8741367509    -0.5252049540
| 17>  H        1.3922072121     1.4701064411     1.0666721131
| 18>  H        0.5474800048    -1.2447711141     1.8455727335
| 19>  H       -0.2511243315     0.5317224967     3.3491896507
| 20>  H       -1.3229871760     1.1899982034     2.0952597671
| 21>  H       -1.7142514889    -1.5012691808     3.5384880133
| 22>  H       -2.9959140973    -0.4996419778     2.8208773991
| 23>  H       -3.4731528280    -1.5885850689     0.2382209367
| 24>  H       -1.9760887925    -1.3849571121    -0.8045708412
| 25>  H       -0.9638655760    -3.1132497872     0.3965199399
| 26> *
| 27>
| 28>                          ****END OF INPUT****

CARTESIAN COORDINATES (ANGSTROEM)
---------------------------------
  C     -0.160151    1.092309   -0.454500
  C      1.208153    0.963320    0.120894
  N      0.290191   -0.168501    0.119763
  C     -0.239015   -0.631822    1.386474
  C     -0.882241    0.274604    2.496547
  C     -1.960849   -0.829894    2.711029
  C     -1.552338   -1.419605    1.359628
  C     -2.390196   -1.650720    0.163779
  N     -1.782695   -2.780383    0.902592
  H     -0.876300    1.700399    0.092232
  H     -0.305226    1.085910   -1.531275
  H      2.077345    0.874137   -0.525205
  H      1.392207    1.470106    1.066672
  H      0.547480   -1.244771    1.845573
  H     -0.251124    0.531722    3.349190
  H     -1.322987    1.189998    2.095260
  H     -1.714251   -1.501269    3.538488
  H     -2.995914   -0.499642    2.820877
  H     -3.473153   -1.588585    0.238221
  H     -1.976089   -1.384957   -0.804571
  H     -0.963866   -3.113250    0.396520

 Total Charge           Charge          ....    0
 Multiplicity           Mult            ....    1
 Number of Electrons    NEL             ....   68
 Basis Dimension        Dim             ....  351

ORBITAL ENERGIES
----------------

  NO   OCC          E(Eh)            E(eV)
   0   2.0000     -15.562887      -423.4877
   1   2.0000     -15.547669      -423.0736
   2   2.0000     -11.261364      -306.4373
   3   2.0000     -11.257895      -306.3429
   4   2.0000     -11.257067      -306.3204
   5   2.0000     -11.255730      -306.2840
   6   2.0000     -11.245778      -306.0132
   7   2.0000     -11.226952      -305.5009
   8   2.0000     -11.222497      -305.3797
   9   2.0000      -1.281351       -34.8673
  10   2.0000      -1.252510       -34.0825
  11   2.0000      -1.106614       -30.1125
  12   2.0000      -0.962179       -26.1822
  13   2.0000      -0.883468       -24.0404
  14   2.0000      -0.855920       -23.2908
  15   2.0000      -0.845997       -23.0207
  16   2.0000      -0.824328       -22.4311
  17   2.0000      -0.730554       -19.8794
  18   2.0000      -0.699573       -19.0364
  19   2.0000      -0.674849       -18.3636
  20   2.0000      -0.657677       -17.8963
  21   2.0000      -0.623609       -16.9693
  22   2.0000      -0.579053       -15.7568
  23   2.0000      -0.549873       -14.9628
  24   2.0000      -0.534146       -14.5349
  25   2.0000      -0.519301       -14.1309
  26   2.0000      -0.511700       -13.9241
  27   2.0000      -0.498522       -13.5655
  28   2.0000      -0.476429       -12.9643
  29   2.0000      -0.457603       -12.4520
  30   2.0000      -0.439780       -11.9670
  31   2.0000      -0.417868       -11.3708
  32   2.0000      -0.379176       -10.3179
  33   2.0000      -0.369339       -10.0502
  34   0.0000       0.140652         3.8273
  35   0.0000       0.149827         4.0770
  36   0.0000       0.156370         4.2550
  37   0.0000       0.165742         4.5101
  38   0.0000       0.187191         5.0937

MULLIKEN ATOMIC CHARGES
-----------------------
   0 C :   -0.184885
   1 C :   -0.168372
   2 N :   -0.227088
   3 C :   -0.001408
   4 C :   -0.274269
   5 C :   -0.166813
   6 C :    0.083458
   7 C :   -0.230923
   8 N :   -0.389897
   9 H :    0.120629
  10 H :    0.131880
  11 H :    0.130906
  12 H :    0.125204
  13 H :    0.100178
  14 H :    0.123961
  15 H :    0.110398
  16 H :    0.119403
  17 H :    0.116730
  18 H :    0.118053
  19 H :    0.137854
  20 H :    0.224999
Sum of atomic charges:    0.0000000

LOEWDIN ATOMIC CHARGES
----------------------
   0 C :   -0.268402
   1 C :   -0.261411
   2 N :    0.113126
   3 C :   -0.245449
   4 C :   -0.216582
   5 C :   -0.193447
   6 C :   -0.287137
   7 C :   -0.237303
   8 N :    0.003151
   9 H :    0.120333
  10 H :    0.123840
  11 H :    0.123608
  12 H :    0.124831
  13 H :    0.154566
  14 H :    0.123717
  15 H :    0.132377
  16 H :    0.139773
  17 H :    0.129578
  18 H :    0.124254
  19 H :    0.125820
  20 H :    0.170759

  Mayer bond orders larger than 0.1
B(  0-C ,  1-C ) :   0.9382 B(  0-C ,  2-N ) :   0.8650 B(  0-C ,  9-H ) :   0.9214
B(  0-C , 10-H ) :   0.9294 B(  1-C ,  2-N ) :   0.8891 B(  1-C , 11-H ) :   0.9251
B(  1-C , 12-H ) :   0.9248 B(  2-N ,  3-C ) :   0.9557 B(  3-C ,  4-C ) :   0.9380
B(  3-C ,  6-C ) :   0.9189 B(  3-C , 13-H ) :   0.9167 B(  4-C ,  5-C ) :   0.9503
B(  4-C , 14-H ) :   0.9302 B(  4-C , 15-H ) :   0.9097 B(  5-C ,  6-C ) :   0.8647
B(  5-C , 16-H ) :   0.9179 B(  5-C , 17-H ) :   0.9254 B(  6-C ,  7-C ) :   0.9242
B(  6-C ,  8-N ) :   0.9264 B(  7-C ,  8-N ) :   0.9609 B(  7-C , 18-H ) :   0.9188
B(  7-C , 19-H ) :   0.9136 B(  8-N , 20-H ) :   0.8711

MP2 TOTAL ENERGY:     -382.515192194 Eh
FINAL SINGLE POINT ENERGY      -382.515192193807

DIPOLE MOMENT
-------------
                                X             Y             Z
Electronic contribution:      0.25784      -3.15598      -0.91841
Nuclear contribution   :      0.05273       4.03169       0.87568
                        -----------------------------------------
Total Dipole Moment    :      0.31057       0.87571      -0.04273
                        -----------------------------------------
Magnitude (a.u.)       :      0.93014
Magnitude (Debye)      :      2.36422

                             ****ORCA TERMINATED NORMALLY****
TOTAL RUN TIME: 0 days 0 hours 18 minutes 26 seconds 599 msec
