                         Program Version 3.0.3 - RELEASE   -
|  1> ! RI-MP2 RIJK def2-TZVP def2-TZVP/C def2-TZVP/JK TIGHTSCF
|  2> % maxcore 2000
|  3> % mp2 density relaxed end
|  4> *xyz 0 1
|  5>  C       -0.5385789779     1.0831163320    -0.0719532758
|  6>  O        0.3897580539     0.0315681754     0.1488031445
|  7>  C        0.9103727323    -0.5376997723    -1.0416358826
|  8>  C        2.3109136837    -1.1150749074    -0.7588073287
|  9>  O        2.3557104442    -2.3914192148    -1.3756648234
| 10>  C        1.0657151378    -2.9538369443    -1.2078028470
| 11>  C        0.0810627375    -1.7987164648    -1.4833394533
| 12>  O       -1.1479638092    -1.9111187980    -0.8067600985
| 13>  H       -0.0732783942     1.9072811936    -0.6312869838
| 14>  H       -1.4240436596     0.7359333082    -0.6179438505
| 15>  H       -0.8420289899     1.4500436506     0.9115680338
| 16>  H        0.9335924308     0.2200831261    -1.8329531934
| 17>  H        3.1283388918    -0.5151540766    -1.1645026385
| 18>  H        2.4316166068    -1.1890192291     0.3333677937
| 19>  H        0.9686753482    -3.7965940106    -1.8954018355
| 20>  H        0.9111083266    -3.3179656290    -0.1776781409
| 21>  H       -0.1461711885    -1.7467602492    -2.5516917524
| 22>  H       -0.9860959343    -1.5698345400     0.0835989521
| 23> *
| 24>
| 25>                          ****END OF INPUT****

CARTESIAN COORDINATES (ANGSTROEM)
---------------------------------
  C     -0.538579    1.083116   -0.071953
  O      0.389758    0.031568    0.148803
  C      0.910373   -0.537700   -1.041636
  C      2.310914   -1.115075   -0.758807
  O      2.355710   -2.391419   -1.375665
  C      1.065715   -2.953837   -1.207803
  C      0.081063   -1.798716   -1.483339
  O     -1.147964   -1.911119   -0.806760
  H     -0.073278    1.907281   -0.631287
  H     -1.424044    0.735933   -0.617944
  H     -0.842029    1.450044    0.911568
  H      0.933592    0.220083   -1.832953
  H      3.128339   -0.515154   -1.164503
  H      2.431617   -1.189019    0.333368
  H      0.968675   -3.796594   -1.895402
  H      0.911108   -3.317966   -0.177678
  H     -0.146171   -1.746760   -2.551692
  H     -0.986096   -1.569835    0.083599

 Total Charge           Charge          ....    0
 Multiplicity           Mult            ....    1
 Number of Electrons    NEL             ....   64
 Basis Dimension        Dim             ....  308

ORBITAL ENERGIES
----------------

  NO   OCC          E(Eh)            E(eV)
   0   2.0000     -20.574599      -559.8633
   1   2.0000     -20.559561      -559.4541
   2   2.0000     -20.557787      -559.4058
   3   2.0000     -11.290897      -307.2409
   4   2.0000     -11.283626      -307.0431
   5   2.0000     -11.282049      -307.0002
   6   2.0000     -11.277239      -306.8693
   7   2.0000     -11.272674      -306.7450
   8   2.0000      -1.405430       -38.2437
   9   2.0000      -1.380200       -37.5572
  10   2.0000      -1.359559       -36.9955
  11   2.0000      -1.039121       -28.2759
  12   2.0000      -0.994289       -27.0560
  13   2.0000      -0.925607       -25.1871
  14   2.0000      -0.836169       -22.7533
  15   2.0000      -0.807226       -21.9657
  16   2.0000      -0.729963       -19.8633
  17   2.0000      -0.690652       -18.7936
  18   2.0000      -0.668396       -18.1880
  19   2.0000      -0.652686       -17.7605
  20   2.0000      -0.633482       -17.2379
  21   2.0000      -0.612503       -16.6671
  22   2.0000      -0.606219       -16.4961
  23   2.0000      -0.584763       -15.9122
  24   2.0000      -0.548421       -14.9233
  25   2.0000      -0.530576       -14.4377
  26   2.0000      -0.511483       -13.9182
  27   2.0000      -0.503965       -13.7136
  28   2.0000      -0.481176       -13.0935
  29   2.0000      -0.456908       -12.4331
  30   2.0000      -0.431447       -11.7403
  31   2.0000      -0.407663       -11.0931
  32   0.0000       0.139117         3.7856
  33   0.0000       0.160442         4.3659
  34   0.0000       0.161571         4.3966
  35   0.0000       0.179359         4.8806
  36   0.0000       0.187856         5.1118

MULLIKEN ATOMIC CHARGES
-----------------------
   0 C :   -0.241544
   1 O :   -0.352172
   2 C :    0.038595
   3 C :   -0.021630
   4 O :   -0.315793
   5 C :   -0.023298
   6 C :    0.044001
   7 O :   -0.475707
   8 H :    0.121762
   9 H :    0.144931
  10 H :    0.143549
  11 H :    0.087933
  12 H :    0.119502
  13 H :    0.096961
  14 H :    0.123122
  15 H :    0.081583
  16 H :    0.098859
  17 H :    0.329347
Sum of atomic charges:    0.0000000

LOEWDIN ATOMIC CHARGES
----------------------
   0 C :   -0.354918
   1 O :    0.140709
   2 C :   -0.300605
   3 C :   -0.287276
   4 O :    0.151529
   5 C :   -0.296087
   6 C :   -0.329342
   7 O :   -0.010093
   8 H :    0.104999
   9 H :    0.107926
  10 H :    0.114684
  11 H :    0.135202
  12 H :    0.127519
  13 H :    0.127587
  14 H :    0.127737
  15 H :    0.121724
  16 H :    0.140955
  17 H :    0.177752

  Mayer bond orders larger than 0.1
B(  0-C ,  1-O ) :   0.8747 B(  0-C ,  8-H ) :   0.9335 B(  0-C ,  9-H ) :   0.9315
B(  0-C , 10-H ) :   0.9391 B(  1-O ,  2-C ) :   0.9509 B(  2-C ,  3-C ) :   0.9470
B(  2-C ,  6-C ) :   0.9229 B(  2-C , 11-H ) :   0.9382 B(  3-C ,  4-O ) :   0.9449
B(  3-C , 12-H ) :   0.9228 B(  3-C , 13-H ) :   0.9160 B(  4-O ,  5-C ) :   0.9222
B(  5-C ,  6-C ) :   0.9174 B(  5-C , 14-H ) :   0.9274 B(  5-C , 15-H ) :   0.9134
B(  6-C ,  7-O ) :   0.9924 B(  6-C , 16-H ) :   0.9243 B(  7-O , 17-H ) :   0.8148

MP2 TOTAL ENERGY:     -421.401571784 Eh
FINAL SINGLE POINT ENERGY      -421.401571783915

DIPOLE MOMENT
-------------
                                X             Y             Z
Electronic contribution:      1.37015      -2.98265      -0.41422
Nuclear contribution   :     -1.48151       3.78072       0.46984
                        -----------------------------------------
Total Dipole Moment    :     -0.11136       0.79807       0.05563
                        -----------------------------------------
Magnitude (a.u.)       :      0.80772
Magnitude (Debye)      :      2.05307

                             ****ORCA TERMINATED NORMALLY****
TOTAL RUN TIME: 0 days 0 hours 11 minutes 27 seconds 998 msec
