                         Program Version 3.0.3 - RELEASE   -
|  1> ! RI-MP2 RIJK def2-TZVP def2-TZVP/C def2-TZVP/JK TIGHTSCF
|  2> % maxcore 2000
|  3> % mp2 density relaxed end
|  4> *xyz 0 1
|  5>  O       -0.0708302051     1.3319687257    -0.0977837277
|  6>  C        0.0031596964    -0.0672270179     0.0288320353
|  7>  C        0.6879430137    -0.6903422181    -1.2081660532
|  8>  N        0.0036444165    -0.1877224787    -2.3967937151
|  9>  C        0.7278878452    -0.3540750474    -3.6515005048
| 10>  C        0.0815425465     0.4650642103    -4.7593067385
| 11>  O        0.0848648360     0.1516176579    -5.9188356446
| 12>  C        0.7494025547    -0.4111903038     1.2483419784
| 13>  N        1.3364993632    -0.7247820165     2.1919050385
| 14>  H       -0.2053247534     1.4737254539    -1.0488957718
| 15>  H       -1.0042427385    -0.5084260483     0.1329195585
| 16>  H        1.7252069890    -0.3424970318    -1.2395141363
| 17>  H        0.7019911165    -1.7868739323    -1.1218490421
| 18>  H       -0.9128181074    -0.6205071424    -2.4717506535
| 19>  H        1.7418950811     0.0488867490    -3.5157012435
| 20>  H        0.8366682774    -1.3937102195    -3.9935878025
| 21>  H       -0.3923618018     1.4060710999    -4.3985328872
| 22> *
| 23>
| 24>                          ****END OF INPUT****

CARTESIAN COORDINATES (ANGSTROEM)
---------------------------------
  O     -0.070830    1.331969   -0.097784
  C      0.003160   -0.067227    0.028832
  C      0.687943   -0.690342   -1.208166
  N      0.003644   -0.187722   -2.396794
  C      0.727888   -0.354075   -3.651501
  C      0.081543    0.465064   -4.759307
  O      0.084865    0.151618   -5.918836
  C      0.749403   -0.411190    1.248342
  N      1.336499   -0.724782    2.191905
  H     -0.205325    1.473725   -1.048896
  H     -1.004243   -0.508426    0.132920
  H      1.725207   -0.342497   -1.239514
  H      0.701991   -1.786874   -1.121849
  H     -0.912818   -0.620507   -2.471751
  H      1.741895    0.048887   -3.515701
  H      0.836668   -1.393710   -3.993588
  H     -0.392362    1.406071   -4.398533

 Total Charge           Charge          ....    0
 Multiplicity           Mult            ....    1
 Number of Electrons    NEL             ....   68
 Basis Dimension        Dim             ....  327

ORBITAL ENERGIES
----------------

  NO   OCC          E(Eh)            E(eV)
   0   2.0000     -20.587836      -560.2235
   1   2.0000     -20.579895      -560.0074
   2   2.0000     -15.603458      -424.5917
   3   2.0000     -15.583325      -424.0438
   4   2.0000     -11.352877      -308.9275
   5   2.0000     -11.351461      -308.8890
   6   2.0000     -11.303698      -307.5893
   7   2.0000     -11.298657      -307.4521
   8   2.0000     -11.281289      -306.9795
   9   2.0000      -1.419513       -38.6269
  10   2.0000      -1.405452       -38.2443
  11   2.0000      -1.262343       -34.3501
  12   2.0000      -1.227964       -33.4146
  13   2.0000      -1.068924       -29.0869
  14   2.0000      -0.993710       -27.0402
  15   2.0000      -0.897061       -24.4103
  16   2.0000      -0.827709       -22.5231
  17   2.0000      -0.752837       -20.4857
  18   2.0000      -0.724449       -19.7132
  19   2.0000      -0.709228       -19.2991
  20   2.0000      -0.695210       -18.9176
  21   2.0000      -0.672116       -18.2892
  22   2.0000      -0.640930       -17.4406
  23   2.0000      -0.633137       -17.2285
  24   2.0000      -0.599048       -16.3009
  25   2.0000      -0.575267       -15.6538
  26   2.0000      -0.569748       -15.5036
  27   2.0000      -0.547313       -14.8931
  28   2.0000      -0.529589       -14.4109
  29   2.0000      -0.505085       -13.7441
  30   2.0000      -0.480184       -13.0665
  31   2.0000      -0.466933       -12.7059
  32   2.0000      -0.442803       -12.0493
  33   2.0000      -0.431796       -11.7498
  34   0.0000       0.096524         2.6266
  35   0.0000       0.111935         3.0459
  36   0.0000       0.132555         3.6070
  37   0.0000       0.136308         3.7091
  38   0.0000       0.149632         4.0717

MULLIKEN ATOMIC CHARGES
-----------------------
   0 O :   -0.450251
   1 C :    0.214049
   2 C :   -0.193280
   3 N :   -0.425153
   4 C :   -0.077561
   5 C :    0.081197
   6 O :   -0.249012
   7 C :   -0.162316
   8 N :   -0.055035
   9 H :    0.333459
  10 H :    0.116072
  11 H :    0.151112
  12 H :    0.133155
  13 H :    0.224877
  14 H :    0.141334
  15 H :    0.130894
  16 H :    0.086462
Sum of atomic charges:   -0.0000000

LOEWDIN ATOMIC CHARGES
----------------------
   0 O :    0.004774
   1 C :   -0.351876
   2 C :   -0.278026
   3 N :   -0.025268
   4 C :   -0.304619
   5 C :   -0.298100
   6 O :    0.144572
   7 C :   -0.158556
   8 N :    0.076712
   9 H :    0.178345
  10 H :    0.155949
  11 H :    0.146327
  12 H :    0.133165
  13 H :    0.178417
  14 H :    0.152666
  15 H :    0.133965
  16 H :    0.111555

  Mayer bond orders larger than 0.1
B(  0-O ,  1-C ) :   1.0361 B(  0-O ,  9-H ) :   0.8024 B(  1-C ,  2-C ) :   0.9134
B(  1-C ,  7-C ) :   0.8971 B(  1-C , 10-H ) :   0.9208 B(  2-C ,  3-N ) :   0.9016
B(  2-C , 11-H ) :   0.9339 B(  2-C , 12-H ) :   0.9159 B(  3-N ,  4-C ) :   0.8868
B(  3-N , 13-H ) :   0.8722 B(  4-C ,  5-C ) :   0.8797 B(  4-C , 14-H ) :   0.9078
B(  4-C , 15-H ) :   0.8977 B(  5-C ,  6-O ) :   2.0108 B(  5-C , 16-H ) :   0.9326
B(  7-C ,  8-N ) :   2.8493

MP2 TOTAL ENERGY:     -454.406574230 Eh
FINAL SINGLE POINT ENERGY      -454.406574230279

DIPOLE MOMENT
-------------
                                X             Y             Z
Electronic contribution:     -0.05456       0.96963       2.87015
Nuclear contribution   :     -0.51352      -1.39448      -3.86851
                        -----------------------------------------
Total Dipole Moment    :     -0.56809      -0.42485      -0.99836
                        -----------------------------------------
Magnitude (a.u.)       :      1.22473
Magnitude (Debye)      :      3.11301

                             ****ORCA TERMINATED NORMALLY****
TOTAL RUN TIME: 0 days 0 hours 14 minutes 34 seconds 995 msec
