                         Program Version 3.0.3 - RELEASE   -
|  1> ! RI-MP2 RIJK def2-TZVP def2-TZVP/C def2-TZVP/JK TIGHTSCF
|  2> % maxcore 2000
|  3> % mp2 density relaxed end
|  4> *xyz 0 1
|  5>  C       -0.4145775370     1.5847889791    -0.1558360762
|  6>  C       -0.2600053112     0.1401530659    -0.1276639766
|  7>  C       -0.1112029641    -1.0568515127    -0.1043625256
|  8>  C       -0.0286931225    -2.4751922565    -0.0672453931
|  9>  C       -1.3109483997    -3.2693142479     0.0917438782
| 10>  C       -1.5350896431    -3.6809105866     1.5428240188
| 11>  O       -2.5708857027    -3.5226194382     2.1318323113
| 12>  N        1.1434466834    -3.0055468794    -0.1479624945
| 13>  O        1.0759725683    -4.4002091975    -0.0811284925
| 14>  H        0.2646514279     2.0672649791     0.5554148566
| 15>  H       -0.1930941797     1.9853942498    -1.1513460106
| 16>  H       -1.4372414293     1.8781318089     0.1036390673
| 17>  H       -2.1738268683    -2.6959730822    -0.2475225841
| 18>  H       -1.2218170281    -4.1913982295    -0.4952315090
| 19>  H       -0.6546425618    -4.1563551407     2.0231918918
| 20>  H        1.9991063578    -4.6545377217    -0.1875166618
| 21> *
| 22>
| 23>                          ****END OF INPUT****

CARTESIAN COORDINATES (ANGSTROEM)
---------------------------------
  C     -0.414578    1.584789   -0.155836
  C     -0.260005    0.140153   -0.127664
  C     -0.111203   -1.056852   -0.104363
  C     -0.028693   -2.475192   -0.067245
  C     -1.310948   -3.269314    0.091744
  C     -1.535090   -3.680911    1.542824
  O     -2.570886   -3.522619    2.131832
  N      1.143447   -3.005547   -0.147962
  O      1.075973   -4.400209   -0.081128
  H      0.264651    2.067265    0.555415
  H     -0.193094    1.985394   -1.151346
  H     -1.437241    1.878132    0.103639
  H     -2.173827   -2.695973   -0.247523
  H     -1.221817   -4.191398   -0.495232
  H     -0.654643   -4.156355    2.023192
  H      1.999106   -4.654538   -0.187517

 Total Charge           Charge          ....    0
 Multiplicity           Mult            ....    1
 Number of Electrons    NEL             ....   66
 Basis Dimension        Dim             ....  321

ORBITAL ENERGIES
----------------

  NO   OCC          E(Eh)            E(eV)
   0   2.0000     -20.615267      -560.9699
   1   2.0000     -20.562181      -559.5254
   2   2.0000     -15.643440      -425.6797
   3   2.0000     -11.339061      -308.5515
   4   2.0000     -11.317441      -307.9632
   5   2.0000     -11.260688      -306.4189
   6   2.0000     -11.258722      -306.3654
   7   2.0000     -11.254752      -306.2574
   8   2.0000     -11.237921      -305.7994
   9   2.0000      -1.445733       -39.3404
  10   2.0000      -1.401720       -38.1427
  11   2.0000      -1.194476       -32.5033
  12   2.0000      -1.073230       -29.2041
  13   2.0000      -1.037287       -28.2260
  14   2.0000      -0.979641       -26.6574
  15   2.0000      -0.858203       -23.3529
  16   2.0000      -0.803230       -21.8570
  17   2.0000      -0.732510       -19.9326
  18   2.0000      -0.692172       -18.8350
  19   2.0000      -0.667477       -18.1630
  20   2.0000      -0.651392       -17.7253
  21   2.0000      -0.646467       -17.5913
  22   2.0000      -0.618958       -16.8427
  23   2.0000      -0.602819       -16.4035
  24   2.0000      -0.600778       -16.3480
  25   2.0000      -0.599641       -16.3171
  26   2.0000      -0.573734       -15.6121
  27   2.0000      -0.518253       -14.1024
  28   2.0000      -0.474314       -12.9067
  29   2.0000      -0.460813       -12.5394
  30   2.0000      -0.423814       -11.5326
  31   2.0000      -0.395943       -10.7741
  32   2.0000      -0.358166        -9.7462
  33   0.0000       0.091190         2.4814
  34   0.0000       0.129746         3.5306
  35   0.0000       0.134025         3.6470
  36   0.0000       0.138566         3.7706
  37   0.0000       0.167670         4.5625

MULLIKEN ATOMIC CHARGES
-----------------------
   0 C :   -0.474789
   1 C :    0.082610
   2 C :    0.043551
   3 C :   -0.100669
   4 C :   -0.157555
   5 C :    0.063089
   6 O :   -0.256123
   7 N :   -0.085825
   8 O :   -0.368560
   9 H :    0.168995
  10 H :    0.167839
  11 H :    0.168707
  12 H :    0.147364
  13 H :    0.152346
  14 H :    0.105207
  15 H :    0.343813
Sum of atomic charges:    0.0000000

LOEWDIN ATOMIC CHARGES
----------------------
   0 C :   -0.287283
   1 C :   -0.062840
   2 C :   -0.048653
   3 C :   -0.279043
   4 C :   -0.215905
   5 C :   -0.281644
   6 O :    0.139158
   7 N :    0.048633
   8 O :   -0.061175
   9 H :    0.145435
  10 H :    0.144981
  11 H :    0.144638
  12 H :    0.156212
  13 H :    0.164840
  14 H :    0.116861
  15 H :    0.175783

  Mayer bond orders larger than 0.1
B(  0-C ,  1-C ) :   0.8565 B(  0-C ,  9-H ) :   0.9406 B(  0-C , 10-H ) :   0.9427
B(  0-C , 11-H ) :   0.9444 B(  1-C ,  2-C ) :   2.6362 B(  1-C ,  3-C ) :  -0.1217
B(  2-C ,  3-C ) :   1.1425 B(  3-C ,  4-C ) :   0.8972 B(  3-C ,  7-N ) :   1.7747
B(  4-C ,  5-C ) :   0.8580 B(  4-C , 12-H ) :   0.9045 B(  4-C , 13-H ) :   0.9021
B(  5-C ,  6-O ) :   1.9938 B(  5-C , 14-H ) :   0.9367 B(  7-N ,  8-O ) :   0.8269
B(  8-O , 15-H ) :   0.8400

MP2 TOTAL ENERGY:     -437.088198198 Eh
FINAL SINGLE POINT ENERGY      -437.088198198448

DIPOLE MOMENT
-------------
                                X             Y             Z
Electronic contribution:      0.91548      -5.36394       1.19356
Nuclear contribution   :     -0.30292       5.68189      -1.80825
                        -----------------------------------------
Total Dipole Moment    :      0.61256       0.31795      -0.61469
                        -----------------------------------------
Magnitude (a.u.)       :      0.92421
Magnitude (Debye)      :      2.34916

                             ****ORCA TERMINATED NORMALLY****
TOTAL RUN TIME: 0 days 0 hours 13 minutes 23 seconds 287 msec
