                         Program Version 3.0.3 - RELEASE   -
|  1> ! RI-MP2 RIJK def2-TZVP def2-TZVP/C def2-TZVP/JK TIGHTSCF
|  2> % maxcore 2000
|  3> % mp2 density relaxed end
|  4> *xyz 0 1
|  5>  C       -0.0182024681     1.5478644145     0.0115108736
|  6>  C       -0.0017222924     0.0406227945    -0.0008597627
|  7>  C        0.7173174717    -0.8216392932    -1.1017605324
|  8>  C       -0.2405057367    -1.9698802474    -0.6357641969
|  9>  C        0.2556792501    -2.2115028602     0.7980990243
| 10>  O        1.4781986525    -2.9267702759     0.7493671649
| 11>  C        0.4101911344    -0.7247315484     1.2816875489
| 12>  C       -1.2253032596    -0.8058464377    -0.4108855256
| 13>  O       -2.3777466668    -0.5887712795    -0.6430413977
| 14>  H        0.9804400852     1.9560275297     0.2015106833
| 15>  H       -0.3725293171     1.9461152150    -0.9442541778
| 16>  H       -0.6866704666     1.9220421907     0.7942155636
| 17>  H        0.5114342543    -0.4752670862    -2.1159630075
| 18>  H        1.7810168002    -1.0127085466    -0.9548639002
| 19>  H       -0.4771066985    -2.8381831108    -1.2453436925
| 20>  H       -0.4857565000    -2.7613142739     1.3929577882
| 21>  H        1.8076755315    -3.0163061265     1.6496500498
| 22>  H        1.4507120879    -0.5203325317     1.5545210011
| 23>  H       -0.2292866220    -0.4823726563     2.1359702256
| 24> *
| 25>
| 26>                          ****END OF INPUT****

CARTESIAN COORDINATES (ANGSTROEM)
---------------------------------
  C     -0.018202    1.547864    0.011511
  C     -0.001722    0.040623   -0.000860
  C      0.717317   -0.821639   -1.101761
  C     -0.240506   -1.969880   -0.635764
  C      0.255679   -2.211503    0.798099
  O      1.478199   -2.926770    0.749367
  C      0.410191   -0.724732    1.281688
  C     -1.225303   -0.805846   -0.410886
  O     -2.377747   -0.588771   -0.643041
  H      0.980440    1.956028    0.201511
  H     -0.372529    1.946115   -0.944254
  H     -0.686670    1.922042    0.794216
  H      0.511434   -0.475267   -2.115963
  H      1.781017   -1.012709   -0.954864
  H     -0.477107   -2.838183   -1.245344
  H     -0.485756   -2.761314    1.392958
  H      1.807676   -3.016306    1.649650
  H      1.450712   -0.520333    1.554521
  H     -0.229287   -0.482373    2.135970

 Total Charge           Charge          ....    0
 Multiplicity           Mult            ....    1
 Number of Electrons    NEL             ....   68
 Basis Dimension        Dim             ....  339

ORBITAL ENERGIES
----------------

  NO   OCC          E(Eh)            E(eV)
   0   2.0000     -20.568693      -559.7026
   1   2.0000     -20.551028      -559.2219
   2   2.0000     -11.330464      -308.3176
   3   2.0000     -11.300359      -307.4984
   4   2.0000     -11.255485      -306.2773
   5   2.0000     -11.246508      -306.0330
   6   2.0000     -11.242832      -305.9330
   7   2.0000     -11.242076      -305.9124
   8   2.0000     -11.226034      -305.4759
   9   2.0000      -1.395754       -37.9804
  10   2.0000      -1.376730       -37.4627
  11   2.0000      -1.195944       -32.5433
  12   2.0000      -1.016512       -27.6607
  13   2.0000      -0.985426       -26.8148
  14   2.0000      -0.909336       -24.7443
  15   2.0000      -0.859236       -23.3810
  16   2.0000      -0.782036       -21.2803
  17   2.0000      -0.725459       -19.7407
  18   2.0000      -0.689260       -18.7557
  19   2.0000      -0.679141       -18.4804
  20   2.0000      -0.645894       -17.5757
  21   2.0000      -0.633340       -17.2341
  22   2.0000      -0.612261       -16.6605
  23   2.0000      -0.578978       -15.7548
  24   2.0000      -0.563089       -15.3224
  25   2.0000      -0.550177       -14.9711
  26   2.0000      -0.536285       -14.5931
  27   2.0000      -0.530897       -14.4464
  28   2.0000      -0.510252       -13.8846
  29   2.0000      -0.499564       -13.5938
  30   2.0000      -0.471771       -12.8375
  31   2.0000      -0.449700       -12.2370
  32   2.0000      -0.436398       -11.8750
  33   2.0000      -0.382601       -10.4111
  34   0.0000       0.125637         3.4188
  35   0.0000       0.139761         3.8031
  36   0.0000       0.151141         4.1128
  37   0.0000       0.166086         4.5194
  38   0.0000       0.180979         4.9247

MULLIKEN ATOMIC CHARGES
-----------------------
   0 C :   -0.396964
   1 C :    0.115632
   2 C :   -0.312885
   3 C :    0.039865
   4 C :   -0.005939
   5 O :   -0.460444
   6 C :   -0.265830
   7 C :    0.029088
   8 O :   -0.248415
   9 H :    0.138626
  10 H :    0.140262
  11 H :    0.139199
  12 H :    0.135349
  13 H :    0.141035
  14 H :    0.144160
  15 H :    0.105079
  16 H :    0.316481
  17 H :    0.118756
  18 H :    0.126944
Sum of atomic charges:    0.0000000

LOEWDIN ATOMIC CHARGES
----------------------
   0 C :   -0.269339
   1 C :   -0.233679
   2 C :   -0.155062
   3 C :   -0.150391
   4 C :   -0.306187
   5 O :   -0.015594
   6 C :   -0.185347
   7 C :   -0.260247
   8 O :    0.165318
   9 H :    0.130113
  10 H :    0.132808
  11 H :    0.133754
  12 H :    0.142537
  13 H :    0.140697
  14 H :    0.142740
  15 H :    0.134008
  16 H :    0.175072
  17 H :    0.140347
  18 H :    0.138454

  Mayer bond orders larger than 0.1
B(  0-C ,  1-C ) :   0.8596 B(  0-C ,  9-H ) :   0.9439 B(  0-C , 10-H ) :   0.9381
B(  0-C , 11-H ) :   0.9359 B(  1-C ,  2-C ) :   0.8971 B(  1-C ,  3-C ) :  -0.1300
B(  1-C ,  6-C ) :   0.8893 B(  1-C ,  7-C ) :   0.8123 B(  2-C ,  3-C ) :   0.8968
B(  2-C , 12-H ) :   0.9207 B(  2-C , 13-H ) :   0.9027 B(  3-C ,  4-C ) :   0.8535
B(  3-C ,  7-C ) :   0.8532 B(  3-C , 14-H ) :   0.9016 B(  4-C ,  5-O ) :   1.0571
B(  4-C ,  6-C ) :   0.9266 B(  4-C , 15-H ) :   0.9558 B(  5-O , 16-H ) :   0.8428
B(  6-C , 17-H ) :   0.9069 B(  6-C , 18-H ) :   0.9161 B(  7-C ,  8-O ) :   2.0691

MP2 TOTAL ENERGY:     -422.335212771 Eh
FINAL SINGLE POINT ENERGY      -422.335212771113

DIPOLE MOMENT
-------------
                                X             Y             Z
Electronic contribution:     -3.94830      -3.90762      -1.33161
Nuclear contribution   :      4.84572       4.01647       2.05679
                        -----------------------------------------
Total Dipole Moment    :      0.89742       0.10886       0.72518
                        -----------------------------------------
Magnitude (a.u.)       :      1.15892
Magnitude (Debye)      :      2.94574

                             ****ORCA TERMINATED NORMALLY****
TOTAL RUN TIME: 0 days 0 hours 18 minutes 34 seconds 923 msec
