                         Program Version 3.0.3 - RELEASE   -
|  1> ! RI-MP2 RIJK def2-TZVP def2-TZVP/C def2-TZVP/JK TIGHTSCF
|  2> % maxcore 2000
|  3> % mp2 density relaxed end
|  4> *xyz 0 1
|  5>  O        0.0679211248     1.4074452868    -0.0701556938
|  6>  C       -0.0161874088     0.0251415581    -0.0234353410
|  7>  C       -0.4411525674    -0.6907676580     1.2360337636
|  8>  C       -0.8917536007     0.1376581491     2.3730594292
|  9>  C       -1.9775573951     0.9182355674     2.2659349384
| 10>  N       -2.7781598959     0.9349906659     1.1302288783
| 11>  C       -2.6249534577     0.0963099492     0.0334974936
| 12>  O       -3.4891223037     0.0175143531    -0.8156443682
| 13>  C       -1.3601292479    -0.6876717762    -0.0052403389
| 14>  H       -0.0850492227     1.7422472231     0.8245182416
| 15>  H        0.7497530074    -0.4511597978    -0.6279799928
| 16>  H        0.0731833376    -1.6156607569     1.4756580024
| 17>  H       -0.3249439030     0.1311566804     3.2953468276
| 18>  H       -2.3128543682     1.5658738595     3.0674708562
| 19>  H       -3.6428616812     1.4547960624     1.1361801467
| 20>  H       -1.4460759074    -1.5876200160    -0.6018640231
| 21> *
| 22>
| 23>                          ****END OF INPUT****

CARTESIAN COORDINATES (ANGSTROEM)
---------------------------------
  O      0.067921    1.407445   -0.070156
  C     -0.016187    0.025142   -0.023435
  C     -0.441153   -0.690768    1.236034
  C     -0.891754    0.137658    2.373059
  C     -1.977557    0.918236    2.265935
  N     -2.778160    0.934991    1.130229
  C     -2.624953    0.096310    0.033497
  O     -3.489122    0.017514   -0.815644
  C     -1.360129   -0.687672   -0.005240
  H     -0.085049    1.742247    0.824518
  H      0.749753   -0.451160   -0.627980
  H      0.073183   -1.615661    1.475658
  H     -0.324944    0.131157    3.295347
  H     -2.312854    1.565874    3.067471
  H     -3.642862    1.454796    1.136180
  H     -1.446076   -1.587620   -0.601864

 Total Charge           Charge          ....    0
 Multiplicity           Mult            ....    1
 Number of Electrons    NEL             ....   66
 Basis Dimension        Dim             ....  321

ORBITAL ENERGIES
----------------

  NO   OCC          E(Eh)            E(eV)
   0   2.0000     -20.571217      -559.7713
   1   2.0000     -20.526254      -558.5478
   2   2.0000     -15.606272      -424.6683
   3   2.0000     -11.362034      -309.1767
   4   2.0000     -11.307439      -307.6911
   5   2.0000     -11.300246      -307.4953
   6   2.0000     -11.263718      -306.5013
   7   2.0000     -11.252297      -306.1906
   8   2.0000     -11.245379      -306.0023
   9   2.0000      -1.395546       -37.9747
  10   2.0000      -1.384610       -37.6772
  11   2.0000      -1.265935       -34.4478
  12   2.0000      -1.156973       -31.4828
  13   2.0000      -1.050174       -28.5767
  14   2.0000      -0.913048       -24.8453
  15   2.0000      -0.892034       -24.2735
  16   2.0000      -0.817997       -22.2588
  17   2.0000      -0.756334       -20.5809
  18   2.0000      -0.724431       -19.7128
  19   2.0000      -0.699434       -19.0326
  20   2.0000      -0.676766       -18.4157
  21   2.0000      -0.649892       -17.6845
  22   2.0000      -0.629364       -17.1259
  23   2.0000      -0.607925       -16.5425
  24   2.0000      -0.585085       -15.9210
  25   2.0000      -0.579293       -15.7634
  26   2.0000      -0.549153       -14.9432
  27   2.0000      -0.528034       -14.3685
  28   2.0000      -0.493839       -13.4380
  29   2.0000      -0.458971       -12.4892
  30   2.0000      -0.428987       -11.6733
  31   2.0000      -0.403900       -10.9907
  32   2.0000      -0.332801        -9.0560
  33   0.0000       0.121499         3.3061
  34   0.0000       0.130096         3.5401
  35   0.0000       0.148212         4.0331
  36   0.0000       0.164327         4.4716
  37   0.0000       0.175878         4.7859

MULLIKEN ATOMIC CHARGES
-----------------------
   0 O :   -0.449875
   1 C :    0.020855
   2 C :   -0.043727
   3 C :   -0.287813
   4 C :   -0.061856
   5 N :   -0.258285
   6 C :    0.222361
   7 O :   -0.325343
   8 C :   -0.117644
   9 H :    0.341644
  10 H :    0.134559
  11 H :    0.139807
  12 H :    0.140073
  13 H :    0.148285
  14 H :    0.245682
  15 H :    0.151279
Sum of atomic charges:   -0.0000000

LOEWDIN ATOMIC CHARGES
----------------------
   0 O :    0.021709
   1 C :   -0.282387
   2 C :   -0.174976
   3 C :   -0.197547
   4 C :   -0.222919
   5 N :    0.152967
   6 C :   -0.408966
   7 O :    0.104888
   8 C :   -0.136045
   9 H :    0.185146
  10 H :    0.145261
  11 H :    0.154742
  12 H :    0.151278
  13 H :    0.145466
  14 H :    0.199448
  15 H :    0.161935

  Mayer bond orders larger than 0.1
B(  0-O ,  1-C ) :   1.0409 B(  0-O ,  9-H ) :   0.8150 B(  1-C ,  2-C ) :   0.8710
B(  1-C ,  8-C ) :   0.8089 B(  1-C , 10-H ) :   0.9465 B(  2-C ,  3-C ) :   0.9373
B(  2-C ,  8-C ) :   0.7666 B(  2-C , 11-H ) :   0.9087 B(  3-C ,  4-C ) :   1.7136
B(  3-C , 12-H ) :   0.9343 B(  4-C ,  5-N ) :   1.0416 B(  4-C , 13-H ) :   0.9148
B(  5-N ,  6-C ) :   1.0817 B(  5-N , 14-H ) :   0.8601 B(  6-C ,  7-O ) :   1.9908
B(  6-C ,  8-C ) :   0.9696 B(  8-C , 15-H ) :   0.9151

MP2 TOTAL ENERGY:     -437.191845277 Eh
FINAL SINGLE POINT ENERGY      -437.191845277032

DIPOLE MOMENT
-------------
                                X             Y             Z
Electronic contribution:     -2.81315       0.59483      -2.23757
Nuclear contribution   :      3.32434      -0.64323       3.76293
                        -----------------------------------------
Total Dipole Moment    :      0.51119      -0.04841       1.52536
                        -----------------------------------------
Magnitude (a.u.)       :      1.60947
Magnitude (Debye)      :      4.09094

                             ****ORCA TERMINATED NORMALLY****
TOTAL RUN TIME: 0 days 0 hours 16 minutes 49 seconds 900 msec
