                         Program Version 3.0.3 - RELEASE   -
|  1> ! RI-MP2 RIJK def2-TZVP def2-TZVP/C def2-TZVP/JK TIGHTSCF
|  2> % maxcore 2000
|  3> % mp2 density relaxed end
|  4> *xyz 0 1
|  5>  C        0.2529027206     1.4267914389     0.3525005310
|  6>  C       -0.1338075254    -0.0222865486    -0.0227775559
|  7>  C        0.4678958041    -0.9336358459     1.0684419286
|  8>  O       -0.1447247905    -1.4835706377     1.9389159768
|  9>  C       -1.5892346091    -0.1632453785    -0.0935952352
| 10>  C       -2.7821110788    -0.2718167926    -0.1964200734
| 11>  N        0.5986017714    -0.3718870757    -1.2550143950
| 12>  C        0.0779746227    -1.4214648725    -2.1286127023
| 13>  C        0.0365661919     0.0071700838    -2.5475004461
| 14>  H        1.3393303225     1.5049457861     0.4492844531
| 15>  H       -0.0749140770     2.1079928131    -0.4367313649
| 16>  H       -0.2220091506     1.7205244948     1.2912119431
| 17>  H        1.5720295228    -1.0119933715     0.9654972271
| 18>  H       -3.8376121121    -0.3741781017    -0.2613355854
| 19>  H        0.8266563745    -2.0963086261    -2.5323585964
| 20>  H       -0.8732582407    -1.8785340531    -1.8682780099
| 21>  H       -0.9431066070     0.4789848135    -2.5602995103
| 22>  H        0.7511184406     0.3970361138    -3.2665066650
| 23> *
| 24>
| 25>                          ****END OF INPUT****

CARTESIAN COORDINATES (ANGSTROEM)
---------------------------------
  C      0.252903    1.426791    0.352501
  C     -0.133808   -0.022287   -0.022778
  C      0.467896   -0.933636    1.068442
  O     -0.144725   -1.483571    1.938916
  C     -1.589235   -0.163245   -0.093595
  C     -2.782111   -0.271817   -0.196420
  N      0.598602   -0.371887   -1.255014
  C      0.077975   -1.421465   -2.128613
  C      0.036566    0.007170   -2.547500
  H      1.339330    1.504946    0.449284
  H     -0.074914    2.107993   -0.436731
  H     -0.222009    1.720524    1.291212
  H      1.572030   -1.011993    0.965497
  H     -3.837612   -0.374178   -0.261336
  H      0.826656   -2.096309   -2.532359
  H     -0.873258   -1.878534   -1.868278
  H     -0.943107    0.478985   -2.560300
  H      0.751118    0.397036   -3.266507

 Total Charge           Charge          ....    0
 Multiplicity           Mult            ....    1
 Number of Electrons    NEL             ....   66
 Basis Dimension        Dim             ....  333

ORBITAL ENERGIES
----------------

  NO   OCC          E(Eh)            E(eV)
   0   2.0000     -20.563590      -559.5637
   1   2.0000     -15.580273      -423.9608
   2   2.0000     -11.335659      -308.4590
   3   2.0000     -11.310261      -307.7679
   4   2.0000     -11.265845      -306.5592
   5   2.0000     -11.263927      -306.5070
   6   2.0000     -11.241344      -305.8925
   7   2.0000     -11.239342      -305.8381
   8   2.0000     -11.235108      -305.7228
   9   2.0000      -1.405009       -38.2322
  10   2.0000      -1.293073       -35.1863
  11   2.0000      -1.107208       -30.1287
  12   2.0000      -1.020418       -27.7670
  13   2.0000      -0.933249       -25.3950
  14   2.0000      -0.867079       -23.5944
  15   2.0000      -0.848116       -23.0784
  16   2.0000      -0.825922       -22.4745
  17   2.0000      -0.722399       -19.6575
  18   2.0000      -0.706045       -19.2125
  19   2.0000      -0.684833       -18.6353
  20   2.0000      -0.656237       -17.8571
  21   2.0000      -0.642410       -17.4809
  22   2.0000      -0.600925       -16.3520
  23   2.0000      -0.566978       -15.4283
  24   2.0000      -0.558501       -15.1976
  25   2.0000      -0.538234       -14.6461
  26   2.0000      -0.520785       -14.1713
  27   2.0000      -0.494558       -13.4576
  28   2.0000      -0.475763       -12.9462
  29   2.0000      -0.430006       -11.7011
  30   2.0000      -0.411124       -11.1873
  31   2.0000      -0.395770       -10.7694
  32   2.0000      -0.390959       -10.6385
  33   0.0000       0.124119         3.3774
  34   0.0000       0.147649         4.0177
  35   0.0000       0.158553         4.3144
  36   0.0000       0.161565         4.3964
  37   0.0000       0.171030         4.6540

MULLIKEN ATOMIC CHARGES
-----------------------
   0 C :   -0.409482
   1 C :    0.163211
   2 C :    0.042453
   3 O :   -0.230790
   4 C :   -0.056102
   5 C :   -0.189056
   6 N :   -0.233301
   7 C :   -0.194631
   8 C :   -0.188775
   9 H :    0.149578
  10 H :    0.143425
  11 H :    0.151536
  12 H :    0.103010
  13 H :    0.194025
  14 H :    0.136167
  15 H :    0.146728
  16 H :    0.137024
  17 H :    0.134979
Sum of atomic charges:    0.0000000

LOEWDIN ATOMIC CHARGES
----------------------
   0 C :   -0.237096
   1 C :   -0.339687
   2 C :   -0.240343
   3 O :    0.163458
   4 C :   -0.072489
   5 C :   -0.076778
   6 N :    0.142123
   7 C :   -0.253314
   8 C :   -0.256594
   9 H :    0.132962
  10 H :    0.133934
  11 H :    0.135417
  12 H :    0.123546
  13 H :    0.129344
  14 H :    0.125890
  15 H :    0.132944
  16 H :    0.131253
  17 H :    0.125428

  Mayer bond orders larger than 0.1
B(  0-C ,  1-C ) :   0.8911 B(  0-C ,  9-H ) :   0.9263 B(  0-C , 10-H ) :   0.9244
B(  0-C , 11-H ) :   0.9343 B(  1-C ,  2-C ) :   0.7790 B(  1-C ,  3-O ) :  -0.1533
B(  1-C ,  4-C ) :   1.0485 B(  1-C ,  6-N ) :   0.8528 B(  2-C ,  3-O ) :   2.0684
B(  2-C , 12-H ) :   0.9515 B(  4-C ,  5-C ) :   2.6333 B(  5-C , 13-H ) :   0.8829
B(  6-N ,  7-C ) :   0.8680 B(  6-N ,  8-C ) :   0.8745 B(  7-C ,  8-C ) :   0.9444
B(  7-C , 14-H ) :   0.9271 B(  7-C , 15-H ) :   0.9182 B(  8-C , 16-H ) :   0.9192
B(  8-C , 17-H ) :   0.9246

MP2 TOTAL ENERGY:     -401.184559373 Eh
FINAL SINGLE POINT ENERGY      -401.184559373394

DIPOLE MOMENT
-------------
                                X             Y             Z
Electronic contribution:     -1.40233      -3.33490       4.22183
Nuclear contribution   :      1.34321       3.84037      -5.09876
                        -----------------------------------------
Total Dipole Moment    :     -0.05912       0.50547      -0.87693
                        -----------------------------------------
Magnitude (a.u.)       :      1.01390
Magnitude (Debye)      :      2.57713

                             ****ORCA TERMINATED NORMALLY****
TOTAL RUN TIME: 0 days 0 hours 19 minutes 57 seconds 719 msec
