                         Program Version 3.0.3 - RELEASE   -
|  1> ! RI-MP2 RIJK def2-TZVP def2-TZVP/C def2-TZVP/JK TIGHTSCF
|  2> % maxcore 2000
|  3> % mp2 density relaxed end
|  4> *xyz 0 1
|  5>  C        0.1030885574     1.5079053032    -0.0147856210
|  6>  C       -0.0795064706    -0.0081825143     0.0067614093
|  7>  C       -1.5160559557    -0.4477558061     0.0293623570
|  8>  N       -2.5089045801     0.3468434290     0.0308218370
|  9>  C       -3.8108156820    -0.3258140886     0.0547341214
| 10>  C       -3.7800137020    -1.4468525756     1.1379751543
| 11>  C       -3.0008091162    -2.2525962474     0.0699033957
| 12>  C       -3.8051410112    -1.4742469949    -0.9998548023
| 13>  O       -1.6301188889    -1.8096134723     0.0481236026
| 14>  H        1.1669837276     1.7618019566    -0.0304874897
| 15>  H       -0.3736152178     1.9465533955    -0.8945629627
| 16>  H       -0.3530418199     1.9690622895     0.8643869378
| 17>  H        0.3982751801    -0.4740487566    -0.8647052116
| 18>  H        0.4188623074    -0.4517632499     0.8783235053
| 19>  H       -4.6170359986     0.4071800735     0.0548149021
| 20>  H       -3.2776854575    -1.2281807496     2.0823006954
| 21>  H       -4.7656783086    -1.8813701911     1.3168120398
| 22>  H       -2.9697852097    -3.3415660868     0.0834926062
| 23>  H       -4.7946048558    -1.9129073169    -1.1442911811
| 24>  H       -3.3252063380    -1.2799921573    -1.9610151555
| 25> *
| 26>
| 27>                          ****END OF INPUT****

CARTESIAN COORDINATES (ANGSTROEM)
---------------------------------
  C      0.103089    1.507905   -0.014786
  C     -0.079506   -0.008183    0.006761
  C     -1.516056   -0.447756    0.029362
  N     -2.508905    0.346843    0.030822
  C     -3.810816   -0.325814    0.054734
  C     -3.780014   -1.446853    1.137975
  C     -3.000809   -2.252596    0.069903
  C     -3.805141   -1.474247   -0.999855
  O     -1.630119   -1.809613    0.048124
  H      1.166984    1.761802   -0.030487
  H     -0.373615    1.946553   -0.894563
  H     -0.353042    1.969062    0.864387
  H      0.398275   -0.474049   -0.864705
  H      0.418862   -0.451763    0.878324
  H     -4.617036    0.407180    0.054815
  H     -3.277685   -1.228181    2.082301
  H     -4.765678   -1.881370    1.316812
  H     -2.969785   -3.341566    0.083493
  H     -4.794605   -1.912907   -1.144291
  H     -3.325206   -1.279992   -1.961015

 Total Charge           Charge          ....    0
 Multiplicity           Mult            ....    1
 Number of Electrons    NEL             ....   68
 Basis Dimension        Dim             ....  345

ORBITAL ENERGIES
----------------

  NO   OCC          E(Eh)            E(eV)
   0   2.0000     -20.587087      -560.2031
   1   2.0000     -15.531866      -422.6436
   2   2.0000     -11.325898      -308.1933
   3   2.0000     -11.296768      -307.4007
   4   2.0000     -11.261691      -306.4462
   5   2.0000     -11.231307      -305.6194
   6   2.0000     -11.229611      -305.5733
   7   2.0000     -11.229601      -305.5730
   8   2.0000     -11.208891      -305.0094
   9   2.0000      -1.426369       -38.8135
  10   2.0000      -1.214856       -33.0579
  11   2.0000      -1.129860       -30.7451
  12   2.0000      -1.031493       -28.0683
  13   2.0000      -0.912657       -24.8347
  14   2.0000      -0.901015       -24.5179
  15   2.0000      -0.881470       -23.9860
  16   2.0000      -0.806927       -21.9576
  17   2.0000      -0.715454       -19.4685
  18   2.0000      -0.682454       -18.5705
  19   2.0000      -0.646245       -17.5852
  20   2.0000      -0.645185       -17.5564
  21   2.0000      -0.610380       -16.6093
  22   2.0000      -0.595866       -16.2143
  23   2.0000      -0.594387       -16.1741
  24   2.0000      -0.548974       -14.9383
  25   2.0000      -0.543689       -14.7945
  26   2.0000      -0.511672       -13.9233
  27   2.0000      -0.511580       -13.9208
  28   2.0000      -0.504852       -13.7377
  29   2.0000      -0.486171       -13.2294
  30   2.0000      -0.467255       -12.7147
  31   2.0000      -0.443457       -12.0671
  32   2.0000      -0.390564       -10.6278
  33   2.0000      -0.367946       -10.0123
  34   0.0000       0.137950         3.7538
  35   0.0000       0.151901         4.1334
  36   0.0000       0.156252         4.2518
  37   0.0000       0.174904         4.7594
  38   0.0000       0.185872         5.0578

MULLIKEN ATOMIC CHARGES
-----------------------
   0 C :   -0.356501
   1 C :   -0.241982
   2 C :    0.195417
   3 N :   -0.295257
   4 C :    0.049495
   5 C :   -0.277298
   6 C :    0.080136
   7 C :   -0.277302
   8 O :   -0.277780
   9 H :    0.129208
  10 H :    0.128489
  11 H :    0.128495
  12 H :    0.127223
  13 H :    0.127223
  14 H :    0.123089
  15 H :    0.127781
  16 H :    0.126580
  17 H :    0.128623
  18 H :    0.126581
  19 H :    0.127781
Sum of atomic charges:   -0.0000000

LOEWDIN ATOMIC CHARGES
----------------------
   0 C :   -0.309360
   1 C :   -0.254999
   2 C :   -0.369939
   3 N :    0.115870
   4 C :   -0.252052
   5 C :   -0.206248
   6 C :   -0.252764
   7 C :   -0.206247
   8 O :    0.257122
   9 H :    0.119528
  10 H :    0.125522
  11 H :    0.125524
  12 H :    0.149327
  13 H :    0.149325
  14 H :    0.130776
  15 H :    0.132342
  16 H :    0.141433
  17 H :    0.131064
  18 H :    0.141434
  19 H :    0.132342

  Mayer bond orders larger than 0.1
B(  0-C ,  1-C ) :   0.9452 B(  0-C ,  9-H ) :   0.9353 B(  0-C , 10-H ) :   0.9349
B(  0-C , 11-H ) :   0.9349 B(  1-C ,  2-C ) :   0.9401 B(  1-C , 12-H ) :   0.9229
B(  1-C , 13-H ) :   0.9229 B(  2-C ,  3-N ) :   1.8279 B(  2-C ,  8-O ) :   1.0688
B(  3-N ,  4-C ) :   0.9011 B(  4-C ,  5-C ) :   0.9198 B(  4-C ,  7-C ) :   0.9198
B(  4-C , 14-H ) :   0.9420 B(  5-C ,  6-C ) :   0.9253 B(  5-C , 15-H ) :   0.9139
B(  5-C , 16-H ) :   0.9280 B(  6-C ,  7-C ) :   0.9253 B(  6-C ,  8-O ) :   0.8503
B(  6-C , 17-H ) :   0.9261 B(  7-C , 18-H ) :   0.9280 B(  7-C , 19-H ) :   0.9139

MP2 TOTAL ENERGY:     -402.462927133 Eh
FINAL SINGLE POINT ENERGY      -402.462927132853

DIPOLE MOMENT
-------------
                                X             Y             Z
Electronic contribution:     -1.89096      -3.12029       0.06237
Nuclear contribution   :      1.55614       2.54397      -0.05107
                        -----------------------------------------
Total Dipole Moment    :     -0.33482      -0.57632       0.01130
                        -----------------------------------------
Magnitude (a.u.)       :      0.66661
Magnitude (Debye)      :      1.69439

                             ****ORCA TERMINATED NORMALLY****
TOTAL RUN TIME: 0 days 0 hours 19 minutes 8 seconds 849 msec
