                         Program Version 3.0.3 - RELEASE   -
|  1> ! RI-MP2 RIJK def2-TZVP def2-TZVP/C def2-TZVP/JK TIGHTSCF
|  2> % maxcore 2000
|  3> % mp2 density relaxed end
|  4> *xyz 0 1
|  5>  O       -0.0440797208    -0.0661998876     0.0043259273
|  6>  C        0.0244654961     1.1404583237     0.0092798600
|  7>  N       -1.1495538755     1.9342781973     0.0284574217
|  8>  C       -1.1601940442     3.2841191865     0.0352595227
|  9>  N       -0.0904715582     4.0238560225     0.0250442563
| 10>  C        1.0944964349     3.3502215694     0.0063807343
| 11>  C        1.2193038907     1.9829050871    -0.0019758083
| 12>  C        2.4978751443     1.3568709661    -0.0215752529
| 13>  N        3.5487785406     0.8719196033    -0.0375434366
| 14>  H       -2.0166069687     1.4108304034     0.0371196993
| 15>  H       -2.1395721440     3.7555771346     0.0502870676
| 16>  H        1.9869879048     3.9688664637    -0.0021045214
| 17> *
| 18>
| 19>                          ****END OF INPUT****

CARTESIAN COORDINATES (ANGSTROEM)
---------------------------------
  O     -0.044080   -0.066200    0.004326
  C      0.024465    1.140458    0.009280
  N     -1.149554    1.934278    0.028457
  C     -1.160194    3.284119    0.035260
  N     -0.090472    4.023856    0.025044
  C      1.094496    3.350222    0.006381
  C      1.219304    1.982905   -0.001976
  C      2.497875    1.356871   -0.021575
  N      3.548779    0.871920   -0.037543
  H     -2.016607    1.410830    0.037120
  H     -2.139572    3.755577    0.050287
  H      1.986988    3.968866   -0.002105

 Total Charge           Charge          ....    0
 Multiplicity           Mult            ....    1
 Number of Electrons    NEL             ....   62
 Basis Dimension        Dim             ....  297

ORBITAL ENERGIES
----------------

  NO   OCC          E(Eh)            E(eV)
   0   2.0000     -20.557465      -559.3971
   1   2.0000     -15.669640      -426.3926
   2   2.0000     -15.602576      -424.5677
   3   2.0000     -15.576335      -423.8536
   4   2.0000     -11.401848      -310.2601
   5   2.0000     -11.391131      -309.9684
   6   2.0000     -11.345661      -308.7311
   7   2.0000     -11.298901      -307.4587
   8   2.0000     -11.281352      -306.9812
   9   2.0000      -1.432462       -38.9793
  10   2.0000      -1.357914       -36.9507
  11   2.0000      -1.252290       -34.0765
  12   2.0000      -1.222959       -33.2784
  13   2.0000      -1.120232       -30.4831
  14   2.0000      -0.966303       -26.2944
  15   2.0000      -0.927773       -25.2460
  16   2.0000      -0.832205       -22.6454
  17   2.0000      -0.772577       -21.0229
  18   2.0000      -0.748698       -20.3731
  19   2.0000      -0.717254       -19.5175
  20   2.0000      -0.664230       -18.0746
  21   2.0000      -0.654486       -17.8095
  22   2.0000      -0.623579       -16.9684
  23   2.0000      -0.562716       -15.3123
  24   2.0000      -0.554549       -15.0900
  25   2.0000      -0.527355       -14.3500
  26   2.0000      -0.496254       -13.5038
  27   2.0000      -0.475114       -12.9285
  28   2.0000      -0.464516       -12.6401
  29   2.0000      -0.463711       -12.6182
  30   2.0000      -0.370102       -10.0710
  31   0.0000       0.038574         1.0497
  32   0.0000       0.104337         2.8391
  33   0.0000       0.111165         3.0250
  34   0.0000       0.147833         4.0227
  35   0.0000       0.159386         4.3371

MULLIKEN ATOMIC CHARGES
-----------------------
   0 O :   -0.297808
   1 C :    0.186604
   2 N :   -0.224772
   3 C :    0.123944
   4 N :   -0.275837
   5 C :   -0.043335
   6 C :    0.127291
   7 C :   -0.163321
   8 N :   -0.034977
   9 H :    0.267530
  10 H :    0.167295
  11 H :    0.167386
Sum of atomic charges:   -0.0000000

LOEWDIN ATOMIC CHARGES
----------------------
   0 O :    0.125260
   1 C :   -0.385977
   2 N :    0.203444
   3 C :   -0.253008
   4 N :    0.110656
   5 C :   -0.134584
   6 C :   -0.136014
   7 C :   -0.141367
   8 N :    0.095841
   9 H :    0.212746
  10 H :    0.145812
  11 H :    0.157191

  Mayer bond orders larger than 0.1
B(  0-O ,  1-C ) :   2.0400 B(  1-C ,  2-N ) :   1.0449 B(  1-C ,  6-C ) :   1.0017
B(  2-N ,  3-C ) :   1.1897 B(  2-N ,  9-H ) :   0.8460 B(  3-C ,  4-N ) :   1.5713
B(  3-C , 10-H ) :   0.9170 B(  4-N ,  5-C ) :   1.2176 B(  5-C ,  6-C ) :   1.4640
B(  5-C , 11-H ) :   0.9404 B(  6-C ,  7-C ) :   0.9178 B(  7-C ,  8-N ) :   2.8347

MP2 TOTAL ENERGY:     -431.012527824 Eh
FINAL SINGLE POINT ENERGY      -431.012527824347

DIPOLE MOMENT
-------------
                                X             Y             Z
Electronic contribution:      1.70030      -1.82912      -0.03112
Nuclear contribution   :     -3.75260       3.03021       0.06356
                        -----------------------------------------
Total Dipole Moment    :     -2.05230       1.20109       0.03243
                        -----------------------------------------
Magnitude (a.u.)       :      2.37815
Magnitude (Debye)      :      6.04478

                             ****ORCA TERMINATED NORMALLY****
TOTAL RUN TIME: 0 days 0 hours 14 minutes 10 seconds 195 msec
