                         Program Version 3.0.3 - RELEASE   -
|  1> ! RI-MP2 RIJK def2-TZVP def2-TZVP/C def2-TZVP/JK TIGHTSCF
|  2> % maxcore 2000
|  3> % mp2 density relaxed end
|  4> *xyz 0 1
|  5>  O       -0.6558151160     0.6119702699     0.6907292763
|  6>  C        0.1910365507     0.9145590539    -0.1089446972
|  7>  C        1.1612670956     2.0311126174     0.0937098154
|  8>  O        2.3900540117     1.9126216764    -0.6571696294
|  9>  C        1.4952349703     2.9184556087    -1.0361417394
| 10>  C        0.8963684019     3.0987113732    -2.4300477951
| 11>  O        1.1660334355     4.5155232994    -2.3624605240
| 12>  C        1.8030539165     4.4124894656    -1.0699043674
| 13>  H        0.3207919045     0.3826584540    -1.0777932036
| 14>  H        1.2574847821     2.4041247331     1.1118996029
| 15>  H        1.4615602281     2.5981631990    -3.2260805662
| 16>  H       -0.1726301649     2.8865374818    -2.5464735607
| 17>  H        1.3118549581     5.0348740150    -0.3133173393
| 18>  H        2.8741461159     4.6468999526    -1.1057777222
| 19> *
| 20>
| 21>                          ****END OF INPUT****

CARTESIAN COORDINATES (ANGSTROEM)
---------------------------------
  O     -0.655815    0.611970    0.690729
  C      0.191037    0.914559   -0.108945
  C      1.161267    2.031113    0.093710
  O      2.390054    1.912622   -0.657170
  C      1.495235    2.918456   -1.036142
  C      0.896368    3.098711   -2.430048
  O      1.166033    4.515523   -2.362461
  C      1.803054    4.412489   -1.069904
  H      0.320792    0.382658   -1.077793
  H      1.257485    2.404125    1.111900
  H      1.461560    2.598163   -3.226081
  H     -0.172630    2.886537   -2.546474
  H      1.311855    5.034874   -0.313317
  H      2.874146    4.646900   -1.105778

 Total Charge           Charge          ....    0
 Multiplicity           Mult            ....    1
 Number of Electrons    NEL             ....   60
 Basis Dimension        Dim             ....  284

ORBITAL ENERGIES
----------------

  NO   OCC          E(Eh)            E(eV)
   0   2.0000     -20.610128      -560.8301
   1   2.0000     -20.579726      -560.0028
   2   2.0000     -20.574499      -559.8606
   3   2.0000     -11.353803      -308.9527
   4   2.0000     -11.330856      -308.3283
   5   2.0000     -11.320373      -308.0430
   6   2.0000     -11.306646      -307.6695
   7   2.0000     -11.304887      -307.6216
   8   2.0000      -1.461852       -39.7790
   9   2.0000      -1.416539       -38.5460
  10   2.0000      -1.400495       -38.1094
  11   2.0000      -1.016485       -27.6600
  12   2.0000      -0.989028       -26.9128
  13   2.0000      -0.968551       -26.3556
  14   2.0000      -0.839214       -22.8362
  15   2.0000      -0.783923       -21.3316
  16   2.0000      -0.730974       -19.8908
  17   2.0000      -0.703295       -19.1376
  18   2.0000      -0.699705       -19.0399
  19   2.0000      -0.671765       -18.2797
  20   2.0000      -0.624090       -16.9824
  21   2.0000      -0.610056       -16.6005
  22   2.0000      -0.592221       -16.1152
  23   2.0000      -0.562221       -15.2988
  24   2.0000      -0.554980       -15.1018
  25   2.0000      -0.523765       -14.2524
  26   2.0000      -0.473878       -12.8949
  27   2.0000      -0.467119       -12.7110
  28   2.0000      -0.449031       -12.2188
  29   2.0000      -0.430254       -11.7078
  30   0.0000       0.098961         2.6929
  31   0.0000       0.142481         3.8771
  32   0.0000       0.149616         4.0713
  33   0.0000       0.156521         4.2591
  34   0.0000       0.184312         5.0154

MULLIKEN ATOMIC CHARGES
-----------------------
   0 O :   -0.250750
   1 C :    0.055846
   2 C :    0.068478
   3 O :   -0.305769
   4 C :    0.047988
   5 C :   -0.003638
   6 O :   -0.321456
   7 C :   -0.005781
   8 H :    0.102073
   9 H :    0.151092
  10 H :    0.114041
  11 H :    0.117968
  12 H :    0.114845
  13 H :    0.115063
Sum of atomic charges:    0.0000000

LOEWDIN ATOMIC CHARGES
----------------------
   0 O :    0.149000
   1 C :   -0.281159
   2 C :   -0.225633
   3 O :    0.215266
   4 C :   -0.305169
   5 C :   -0.230308
   6 O :    0.122441
   7 C :   -0.223872
   8 H :    0.120615
   9 H :    0.149603
  10 H :    0.128735
  11 H :    0.125723
  12 H :    0.126054
  13 H :    0.128704

  Mayer bond orders larger than 0.1
B(  0-O ,  1-C ) :   1.9799 B(  1-C ,  2-C ) :   0.8608 B(  1-C ,  8-H ) :   0.9443
B(  2-C ,  3-O ) :   0.8624 B(  2-C ,  4-C ) :   0.8706 B(  2-C ,  9-H ) :   0.9021
B(  3-O ,  4-C ) :   0.9399 B(  4-C ,  5-C ) :   0.9641 B(  4-C ,  7-C ) :   0.9559
B(  5-C ,  6-O ) :   0.9577 B(  5-C , 10-H ) :   0.9009 B(  5-C , 11-H ) :   0.9093
B(  6-O ,  7-C ) :   0.9555 B(  7-C , 12-H ) :   0.9106 B(  7-C , 13-H ) :   0.9040

MP2 TOTAL ENERGY:     -418.957585093 Eh
FINAL SINGLE POINT ENERGY      -418.957585093405

DIPOLE MOMENT
-------------
                                X             Y             Z
Electronic contribution:     -0.39167      -2.20443       1.69844
Nuclear contribution   :      0.68651       2.45893      -1.81987
                        -----------------------------------------
Total Dipole Moment    :      0.29483       0.25451      -0.12143
                        -----------------------------------------
Magnitude (a.u.)       :      0.40798
Magnitude (Debye)      :      1.03700

                             ****ORCA TERMINATED NORMALLY****
TOTAL RUN TIME: 0 days 0 hours 9 minutes 55 seconds 510 msec
