                         Program Version 3.0.3 - RELEASE   -
|  1> ! RI-MP2 RIJK def2-TZVP def2-TZVP/C def2-TZVP/JK TIGHTSCF
|  2> % maxcore 2000
|  3> % mp2 density relaxed end
|  4> *xyz 0 1
|  5>  C       -0.0353123294     1.4414891399     0.0815304621
|  6>  C       -0.0424099739    -0.0401044079    -0.0406335972
|  7>  N       -1.0575956490    -0.8287781185    -0.2084896590
|  8>  C       -0.4603047162    -2.0751362349    -0.2438949142
|  9>  N       -1.1993455890    -3.2185038150    -0.4331026192
| 10>  C       -0.7719999552    -4.2995664513     0.1122466287
| 11>  N       -1.3462157570    -5.4966036728    -0.1344330809
| 12>  N        0.8525409183    -2.0495673074    -0.1257895722
| 13>  O        1.1340511566    -0.6803220251     0.0221588019
| 14>  H        0.5731398901     1.8905123832    -0.7093226532
| 15>  H       -1.0572086919     1.8122100253     0.0057427994
| 16>  H        0.3914339066     1.7484363833     1.0412836085
| 17>  H        0.0838389956    -4.3332381335     0.7938257007
| 18>  H       -1.1361652206    -6.2914226290     0.4418348596
| 19>  H       -2.1805764750    -5.5215375664    -0.6991409650
| 20> *
| 21>
| 22>                          ****END OF INPUT****

CARTESIAN COORDINATES (ANGSTROEM)
---------------------------------
  C     -0.035312    1.441489    0.081530
  C     -0.042410   -0.040104   -0.040634
  N     -1.057596   -0.828778   -0.208490
  C     -0.460305   -2.075136   -0.243895
  N     -1.199346   -3.218504   -0.433103
  C     -0.772000   -4.299566    0.112247
  N     -1.346216   -5.496604   -0.134433
  N      0.852541   -2.049567   -0.125790
  O      1.134051   -0.680322    0.022159
  H      0.573140    1.890512   -0.709323
  H     -1.057209    1.812210    0.005743
  H      0.391434    1.748436    1.041284
  H      0.083839   -4.333238    0.793826
  H     -1.136165   -6.291423    0.441835
  H     -2.180576   -5.521538   -0.699141

 Total Charge           Charge          ....    0
 Multiplicity           Mult            ....    1
 Number of Electrons    NEL             ....   66
 Basis Dimension        Dim             ....  315

ORBITAL ENERGIES
----------------

  NO   OCC          E(Eh)            E(eV)
   0   2.0000     -20.635224      -561.5130
   1   2.0000     -15.600726      -424.5173
   2   2.0000     -15.595586      -424.3775
   3   2.0000     -15.554271      -423.2532
   4   2.0000     -15.548060      -423.0842
   5   2.0000     -11.349716      -308.8415
   6   2.0000     -11.343756      -308.6793
   7   2.0000     -11.327820      -308.2457
   8   2.0000     -11.248645      -306.0912
   9   2.0000      -1.498272       -40.7701
  10   2.0000      -1.301522       -35.4162
  11   2.0000      -1.244635       -33.8682
  12   2.0000      -1.194941       -32.5160
  13   2.0000      -1.122746       -30.5515
  14   2.0000      -1.003406       -27.3041
  15   2.0000      -0.896662       -24.3994
  16   2.0000      -0.813815       -22.1450
  17   2.0000      -0.805162       -21.9096
  18   2.0000      -0.754560       -20.5326
  19   2.0000      -0.692610       -18.8469
  20   2.0000      -0.676446       -18.4070
  21   2.0000      -0.659406       -17.9433
  22   2.0000      -0.620093       -16.8736
  23   2.0000      -0.587766       -15.9939
  24   2.0000      -0.581259       -15.8169
  25   2.0000      -0.574448       -15.6315
  26   2.0000      -0.550264       -14.9734
  27   2.0000      -0.500801       -13.6275
  28   2.0000      -0.483617       -13.1599
  29   2.0000      -0.452600       -12.3159
  30   2.0000      -0.426896       -11.6164
  31   2.0000      -0.406034       -11.0488
  32   2.0000      -0.350246        -9.5307
  33   0.0000       0.118228         3.2171
  34   0.0000       0.124973         3.4007
  35   0.0000       0.144073         3.9204
  36   0.0000       0.163719         4.4550
  37   0.0000       0.166038         4.5181

MULLIKEN ATOMIC CHARGES
-----------------------
   0 C :   -0.424625
   1 C :    0.242116
   2 N :   -0.282023
   3 C :    0.192354
   4 N :   -0.279027
   5 C :    0.161491
   6 N :   -0.452623
   7 N :   -0.180594
   8 O :   -0.111752
   9 H :    0.157702
  10 H :    0.168119
  11 H :    0.156270
  12 H :    0.117688
  13 H :    0.266944
  14 H :    0.267960
Sum of atomic charges:   -0.0000000

LOEWDIN ATOMIC CHARGES
----------------------
   0 C :   -0.263928
   1 C :   -0.395361
   2 N :    0.132375
   3 C :   -0.444778
   4 N :    0.101114
   5 C :   -0.307383
   6 N :   -0.021292
   7 N :    0.019840
   8 O :    0.273645
   9 H :    0.141067
  10 H :    0.144791
  11 H :    0.140485
  12 H :    0.129387
  13 H :    0.172543
  14 H :    0.177494

  Mayer bond orders larger than 0.1
B(  0-C ,  1-C ) :   0.8637 B(  0-C ,  9-H ) :   0.9293 B(  0-C , 10-H ) :   0.9468
B(  0-C , 11-H ) :   0.9286 B(  1-C ,  2-N ) :   1.6393 B(  1-C ,  8-O ) :   1.1516
B(  2-N ,  3-C ) :   1.2131 B(  3-C ,  4-N ) :   1.2007 B(  3-C ,  7-N ) :   1.5602
B(  4-N ,  5-C ) :   1.6433 B(  5-C ,  6-N ) :   1.1824 B(  5-C , 12-H ) :   0.9072
B(  6-N , 13-H ) :   0.8723 B(  6-N , 14-H ) :   0.8573 B(  7-N ,  8-O ) :   0.8608

MP2 TOTAL ENERGY:     -449.400948240 Eh
FINAL SINGLE POINT ENERGY      -449.400948239809

DIPOLE MOMENT
-------------
                                X             Y             Z
Electronic contribution:      1.16871      -1.59038      -0.80038
Nuclear contribution   :     -1.34508       0.84445       1.37647
                        -----------------------------------------
Total Dipole Moment    :     -0.17638      -0.74593       0.57609
                        -----------------------------------------
Magnitude (a.u.)       :      0.95885
Magnitude (Debye)      :      2.43721

                             ****ORCA TERMINATED NORMALLY****
TOTAL RUN TIME: 0 days 0 hours 13 minutes 6 seconds 820 msec
