                         Program Version 3.0.3 - RELEASE   -
|  1> ! RI-MP2 RIJK def2-TZVP def2-TZVP/C def2-TZVP/JK TIGHTSCF
|  2> % maxcore 2000
|  3> % mp2 density relaxed end
|  4> *xyz 0 1
|  5>  C       -0.0929118207     1.4458391695     0.0108439968
|  6>  C       -0.0117114074    -0.0051721370     0.0030699244
|  7>  C        0.0689450638    -1.2101561973    -0.0034505308
|  8>  C        0.1178572417    -2.6185697150    -0.0113020128
|  9>  C        1.1892152034    -3.4322630626    -0.0220359544
| 10>  C        0.7522322128    -4.8556128279    -0.0269626405
| 11>  O        1.4315557760    -5.8604283969    -0.0369640433
| 12>  N       -0.6282996306    -4.8002480972    -0.0178412994
| 13>  C       -1.1504743509    -3.4582955773    -0.0081091164
| 14>  H        0.9040027062     1.8990569042     0.0041475445
| 15>  H       -0.6351392922     1.8157180130    -0.8665774660
| 16>  H       -0.6192807114     1.8070570738     0.9014403333
| 17>  H        2.2299940907    -3.1452131115    -0.0267784737
| 18>  H       -1.1912414817    -5.6330962079    -0.0203102734
| 19>  H       -1.7578802630    -3.2434930924     0.8821068937
| 20>  H       -1.7681746366    -3.2346125974    -0.8890126719
| 21> *
| 22>
| 23>                          ****END OF INPUT****

CARTESIAN COORDINATES (ANGSTROEM)
---------------------------------
  C     -0.092912    1.445839    0.010844
  C     -0.011711   -0.005172    0.003070
  C      0.068945   -1.210156   -0.003451
  C      0.117857   -2.618570   -0.011302
  C      1.189215   -3.432263   -0.022036
  C      0.752232   -4.855613   -0.026963
  O      1.431556   -5.860428   -0.036964
  N     -0.628300   -4.800248   -0.017841
  C     -1.150474   -3.458296   -0.008109
  H      0.904003    1.899057    0.004148
  H     -0.635139    1.815718   -0.866577
  H     -0.619281    1.807057    0.901440
  H      2.229994   -3.145213   -0.026778
  H     -1.191241   -5.633096   -0.020310
  H     -1.757880   -3.243493    0.882107
  H     -1.768175   -3.234613   -0.889013

 Total Charge           Charge          ....    0
 Multiplicity           Mult            ....    1
 Number of Electrons    NEL             ....   64
 Basis Dimension        Dim             ....  321

ORBITAL ENERGIES
----------------

  NO   OCC          E(Eh)            E(eV)
   0   2.0000     -20.513736      -558.2071
   1   2.0000     -15.581038      -423.9816
   2   2.0000     -11.347910      -308.7923
   3   2.0000     -11.290675      -307.2349
   4   2.0000     -11.288437      -307.1740
   5   2.0000     -11.264184      -306.5140
   6   2.0000     -11.256769      -306.3122
   7   2.0000     -11.249137      -306.1046
   8   2.0000     -11.242125      -305.9138
   9   2.0000      -1.377166       -37.4746
  10   2.0000      -1.259734       -34.2791
  11   2.0000      -1.111263       -30.2390
  12   2.0000      -1.062745       -28.9188
  13   2.0000      -0.987998       -26.8848
  14   2.0000      -0.963219       -26.2105
  15   2.0000      -0.848658       -23.0931
  16   2.0000      -0.789038       -21.4708
  17   2.0000      -0.718106       -19.5407
  18   2.0000      -0.662382       -18.0243
  19   2.0000      -0.655299       -17.8316
  20   2.0000      -0.633895       -17.2492
  21   2.0000      -0.624094       -16.9825
  22   2.0000      -0.607067       -16.5191
  23   2.0000      -0.604297       -16.4437
  24   2.0000      -0.595581       -16.2066
  25   2.0000      -0.555154       -15.1065
  26   2.0000      -0.544706       -14.8222
  27   2.0000      -0.461529       -12.5589
  28   2.0000      -0.426070       -11.5940
  29   2.0000      -0.393711       -10.7134
  30   2.0000      -0.392876       -10.6907
  31   2.0000      -0.347450        -9.4546
  32   0.0000       0.076806         2.0900
  33   0.0000       0.123706         3.3662
  34   0.0000       0.138144         3.7591
  35   0.0000       0.160415         4.3651
  36   0.0000       0.176657         4.8071

MULLIKEN ATOMIC CHARGES
-----------------------
   0 C :   -0.465846
   1 C :    0.066648
   2 C :    0.094362
   3 C :   -0.150655
   4 C :   -0.203630
   5 C :    0.248096
   6 O :   -0.345697
   7 N :   -0.332703
   8 C :   -0.078467
   9 H :    0.169097
  10 H :    0.166961
  11 H :    0.166974
  12 H :    0.150003
  13 H :    0.240314
  14 H :    0.137266
  15 H :    0.137278
Sum of atomic charges:    0.0000000

LOEWDIN ATOMIC CHARGES
----------------------
   0 C :   -0.288804
   1 C :   -0.065776
   2 C :   -0.045972
   3 C :   -0.142087
   4 C :   -0.058920
   5 C :   -0.440952
   6 O :    0.081860
   7 N :    0.119132
   8 C :   -0.215416
   9 H :    0.144772
  10 H :    0.144468
  11 H :    0.144480
  12 H :    0.151802
  13 H :    0.182766
  14 H :    0.144321
  15 H :    0.144324

  Mayer bond orders larger than 0.1
B(  0-C ,  1-C ) :   0.8514 B(  0-C ,  9-H ) :   0.9452 B(  0-C , 10-H ) :   0.9410
B(  0-C , 11-H ) :   0.9410 B(  1-C ,  2-C ) :   2.6112 B(  1-C ,  3-C ) :  -0.1641
B(  2-C ,  3-C ) :   1.0823 B(  3-C ,  4-C ) :   1.5946 B(  3-C ,  8-C ) :   0.9946
B(  4-C ,  5-C ) :   0.9997 B(  4-C , 12-H ) :   0.9320 B(  5-C ,  6-O ) :   1.9813
B(  5-C ,  7-N ) :   1.1457 B(  7-N ,  8-C ) :   0.9237 B(  7-N , 13-H ) :   0.8679
B(  8-C , 14-H ) :   0.9069 B(  8-C , 15-H ) :   0.9069

MP2 TOTAL ENERGY:     -400.069281230 Eh
FINAL SINGLE POINT ENERGY      -400.069281229916

DIPOLE MOMENT
-------------
                                X             Y             Z
Electronic contribution:      2.57158      -7.67410      -0.05450
Nuclear contribution   :     -3.82624       9.27468       0.06972
                        -----------------------------------------
Total Dipole Moment    :     -1.25466       1.60058       0.01522
                        -----------------------------------------
Magnitude (a.u.)       :      2.03378
Magnitude (Debye)      :      5.16946

                             ****ORCA TERMINATED NORMALLY****
TOTAL RUN TIME: 0 days 0 hours 21 minutes 14 seconds 78 msec
