                         Program Version 3.0.3 - RELEASE   -
|  1> ! RI-MP2 RIJK def2-TZVP def2-TZVP/C def2-TZVP/JK TIGHTSCF
|  2> % maxcore 2000
|  3> % mp2 density relaxed end
|  4> *xyz 0 1
|  5>  C        0.0167081081     1.4688524162    -0.1679954309
|  6>  C       -0.0181888192    -0.0385113574     0.1037506090
|  7>  O        0.5210484903    -0.3475864761     1.3855218506
|  8>  C       -1.4030211089    -0.5904372215    -0.0039224476
|  9>  C       -2.3961226117    -0.8280883275    -1.1133133671
| 10>  C       -3.5115793901    -0.4394030859    -0.1111177544
| 11>  C       -3.1135929908    -1.5441165423     0.7996526086
| 12>  C       -1.9830348094    -1.9713499297    -0.1670970359
| 13>  N       -2.5072450202    -0.1771795502     0.9824150860
| 14>  H        1.0271496324     1.8516616626    -0.0040124342
| 15>  H       -0.2842019706     1.6903251100    -1.1969427423
| 16>  H       -0.6692577705     1.9914863858     0.5069906695
| 17>  H        0.6240131225    -0.5586600881    -0.6183769706
| 18>  H       -0.1222953191    -0.0383008738     2.0354616761
| 19>  H       -2.2956128292    -0.7592127744    -2.1871442918
| 20>  H       -4.4299405442     0.1285096145    -0.2009338379
| 21>  H       -3.6458948674    -2.0494529278     1.5964660662
| 22>  H       -1.5087332319    -2.9137908645    -0.4001368932
| 23> *
| 24>
| 25>                          ****END OF INPUT****

CARTESIAN COORDINATES (ANGSTROEM)
---------------------------------
  C      0.016708    1.468852   -0.167995
  C     -0.018189   -0.038511    0.103751
  O      0.521048   -0.347586    1.385522
  C     -1.403021   -0.590437   -0.003922
  C     -2.396123   -0.828088   -1.113313
  C     -3.511579   -0.439403   -0.111118
  C     -3.113593   -1.544117    0.799653
  C     -1.983035   -1.971350   -0.167097
  N     -2.507245   -0.177180    0.982415
  H      1.027150    1.851662   -0.004012
  H     -0.284202    1.690325   -1.196943
  H     -0.669258    1.991486    0.506991
  H      0.624013   -0.558660   -0.618377
  H     -0.122295   -0.038301    2.035462
  H     -2.295613   -0.759213   -2.187144
  H     -4.429941    0.128510   -0.200934
  H     -3.645895   -2.049453    1.596466
  H     -1.508733   -2.913791   -0.400137

 Total Charge           Charge          ....    0
 Multiplicity           Mult            ....    1
 Number of Electrons    NEL             ....   66
 Basis Dimension        Dim             ....  333

ORBITAL ENERGIES
----------------

  NO   OCC          E(Eh)            E(eV)
   0   2.0000     -20.549266      -559.1739
   1   2.0000     -15.564938      -423.5435
   2   2.0000     -11.286889      -307.1319
   3   2.0000     -11.274811      -306.8032
   4   2.0000     -11.273245      -306.7606
   5   2.0000     -11.272724      -306.7464
   6   2.0000     -11.251706      -306.1745
   7   2.0000     -11.248515      -306.0877
   8   2.0000     -11.214393      -305.1591
   9   2.0000      -1.361749       -37.0551
  10   2.0000      -1.342721       -36.5373
  11   2.0000      -1.072911       -29.1954
  12   2.0000      -1.022555       -27.8251
  13   2.0000      -0.931587       -25.3498
  14   2.0000      -0.902637       -24.5620
  15   2.0000      -0.850050       -23.1310
  16   2.0000      -0.737476       -20.0677
  17   2.0000      -0.729145       -19.8410
  18   2.0000      -0.718205       -19.5433
  19   2.0000      -0.652483       -17.7550
  20   2.0000      -0.635994       -17.3063
  21   2.0000      -0.602994       -16.4083
  22   2.0000      -0.599343       -16.3090
  23   2.0000      -0.582289       -15.8449
  24   2.0000      -0.544481       -14.8161
  25   2.0000      -0.525651       -14.3037
  26   2.0000      -0.515677       -14.0323
  27   2.0000      -0.493596       -13.4314
  28   2.0000      -0.452872       -12.3233
  29   2.0000      -0.450180       -12.2500
  30   2.0000      -0.424599       -11.5539
  31   2.0000      -0.374441       -10.1891
  32   2.0000      -0.342564        -9.3216
  33   0.0000       0.143810         3.9133
  34   0.0000       0.161710         4.4003
  35   0.0000       0.165888         4.5140
  36   0.0000       0.169112         4.6018
  37   0.0000       0.182250         4.9593

MULLIKEN ATOMIC CHARGES
-----------------------
   0 C :   -0.397957
   1 C :    0.158299
   2 O :   -0.465190
   3 C :    0.017809
   4 C :   -0.158968
   5 C :   -0.087064
   6 C :   -0.084216
   7 C :   -0.140123
   8 N :   -0.262710
   9 H :    0.143353
  10 H :    0.122375
  11 H :    0.136018
  12 H :    0.089210
  13 H :    0.323429
  14 H :    0.156857
  15 H :    0.146452
  16 H :    0.145509
  17 H :    0.156916
Sum of atomic charges:   -0.0000000

LOEWDIN ATOMIC CHARGES
----------------------
   0 C :   -0.291990
   1 C :   -0.343990
   2 O :   -0.014365
   3 C :   -0.188955
   4 C :   -0.116562
   5 C :   -0.160506
   6 C :   -0.161135
   7 C :   -0.113358
   8 N :    0.141343
   9 H :    0.126501
  10 H :    0.125536
  11 H :    0.127952
  12 H :    0.152646
  13 H :    0.180168
  14 H :    0.137148
  15 H :    0.130234
  16 H :    0.130629
  17 H :    0.138703

  Mayer bond orders larger than 0.1
B(  0-C ,  1-C ) :   0.9298 B(  0-C ,  9-H ) :   0.9393 B(  0-C , 10-H ) :   0.9298
B(  0-C , 11-H ) :   0.9222 B(  1-C ,  2-O ) :   0.9037 B(  1-C ,  3-C ) :   0.9283
B(  1-C , 12-H ) :   0.9152 B(  2-O ,  3-C ) :   0.1051 B(  2-O , 13-H ) :   0.8328
B(  3-C ,  4-C ) :   0.8370 B(  3-C ,  7-C ) :   0.8519 B(  3-C ,  8-N ) :   0.8828
B(  4-C ,  5-C ) :   0.8862 B(  4-C ,  7-C ) :   0.8797 B(  4-C , 14-H ) :   0.9071
B(  5-C ,  6-C ) :   0.9463 B(  5-C ,  8-N ) :   0.9196 B(  5-C , 15-H ) :   0.9047
B(  6-C ,  7-C ) :   0.8963 B(  6-C ,  8-N ) :   0.8798 B(  6-C , 16-H ) :   0.9102
B(  7-C , 17-H ) :   0.9038

MP2 TOTAL ENERGY:     -401.130629623 Eh
FINAL SINGLE POINT ENERGY      -401.130629622783

DIPOLE MOMENT
-------------
                                X             Y             Z
Electronic contribution:     -2.81146      -3.41751       1.59435
Nuclear contribution   :      2.25484       3.23022      -2.30560
                        -----------------------------------------
Total Dipole Moment    :     -0.55662      -0.18729      -0.71125
                        -----------------------------------------
Magnitude (a.u.)       :      0.92238
Magnitude (Debye)      :      2.34449

                             ****ORCA TERMINATED NORMALLY****
TOTAL RUN TIME: 0 days 0 hours 18 minutes 50 seconds 683 msec
