                         Program Version 3.0.3 - RELEASE   -
|  1> ! RI-MP2 RIJK def2-TZVP def2-TZVP/C def2-TZVP/JK TIGHTSCF
|  2> % maxcore 2000
|  3> % mp2 density relaxed end
|  4> *xyz 0 1
|  5>  C        0.1218826524     1.6103931680     0.0283369907
|  6>  C        0.0356402073     0.0729359124     0.0584205744
|  7>  C       -1.3653555157    -0.4612976221     0.0096669442
|  8>  C       -2.1439300998    -0.6868240447    -1.1202204533
|  9>  N       -1.8290313762    -0.5536737729    -2.4654971280
| 10>  C       -2.8982285089    -0.5645508616    -3.4486761568
| 11>  N       -3.3397258604    -1.1572057416    -0.6802506746
| 12>  N       -3.4023959385    -1.2710937616     0.6755980145
| 13>  C       -2.2123450846    -0.8432301851     1.0757355278
| 14>  H        1.1622132132     1.9510184668     0.0646993039
| 15>  H       -0.3330736794     2.0184064835    -0.8814526405
| 16>  H       -0.4110993823     2.0456887838     0.8791079324
| 17>  H        0.6198251715    -0.3375835464    -0.7764533594
| 18>  H        0.5257292700    -0.2923245584     0.9683192659
| 19>  H       -1.1401041792     0.1653878381    -2.6273102300
| 20>  H       -3.3699895754    -1.5536951362    -3.4809203403
| 21>  H       -3.6832783923     0.1856681790    -3.2612050570
| 22>  H       -2.4727175042    -0.3794975948    -4.4369958114
| 23>  H       -4.1313070334    -1.4425092204    -1.2283905090
| 24>  H       -1.9810827841    -0.8258791860     2.1324113365
| 25> *
| 26>
| 27>                          ****END OF INPUT****

CARTESIAN COORDINATES (ANGSTROEM)
---------------------------------
  C      0.121883    1.610393    0.028337
  C      0.035640    0.072936    0.058421
  C     -1.365356   -0.461298    0.009667
  C     -2.143930   -0.686824   -1.120220
  N     -1.829031   -0.553674   -2.465497
  C     -2.898229   -0.564551   -3.448676
  N     -3.339726   -1.157206   -0.680251
  N     -3.402396   -1.271094    0.675598
  C     -2.212345   -0.843230    1.075736
  H      1.162213    1.951018    0.064699
  H     -0.333074    2.018406   -0.881453
  H     -0.411099    2.045689    0.879108
  H      0.619825   -0.337584   -0.776453
  H      0.525729   -0.292325    0.968319
  H     -1.140104    0.165388   -2.627310
  H     -3.369990   -1.553695   -3.480920
  H     -3.683278    0.185668   -3.261205
  H     -2.472718   -0.379498   -4.436996
  H     -4.131307   -1.442509   -1.228391
  H     -1.981083   -0.825879    2.132411

 Total Charge           Charge          ....    0
 Multiplicity           Mult            ....    1
 Number of Electrons    NEL             ....   68
 Basis Dimension        Dim             ....  345

ORBITAL ENERGIES
----------------

  NO   OCC          E(Eh)            E(eV)
   0   2.0000     -15.617857      -424.9835
   1   2.0000     -15.582934      -424.0332
   2   2.0000     -15.562015      -423.4640
   3   2.0000     -11.305075      -307.6267
   4   2.0000     -11.274151      -306.7852
   5   2.0000     -11.239901      -305.8533
   6   2.0000     -11.227935      -305.5276
   7   2.0000     -11.215412      -305.1869
   8   2.0000     -11.201977      -304.8213
   9   2.0000      -1.358753       -36.9735
  10   2.0000      -1.242825       -33.8190
  11   2.0000      -1.085024       -29.5250
  12   2.0000      -1.063072       -28.9277
  13   2.0000      -0.996535       -27.1171
  14   2.0000      -0.935130       -25.4462
  15   2.0000      -0.860709       -23.4211
  16   2.0000      -0.800833       -21.7918
  17   2.0000      -0.773795       -21.0560
  18   2.0000      -0.721650       -19.6371
  19   2.0000      -0.667088       -18.1524
  20   2.0000      -0.636340       -17.3157
  21   2.0000      -0.613453       -16.6929
  22   2.0000      -0.597602       -16.2616
  23   2.0000      -0.586536       -15.9605
  24   2.0000      -0.582544       -15.8518
  25   2.0000      -0.566928       -15.4269
  26   2.0000      -0.542727       -14.7684
  27   2.0000      -0.521764       -14.1979
  28   2.0000      -0.500843       -13.6286
  29   2.0000      -0.486823       -13.2471
  30   2.0000      -0.451460       -12.2848
  31   2.0000      -0.435894       -11.8613
  32   2.0000      -0.351134        -9.5548
  33   2.0000      -0.291732        -7.9384
  34   0.0000       0.119867         3.2618
  35   0.0000       0.133742         3.6393
  36   0.0000       0.163352         4.4450
  37   0.0000       0.173667         4.7257
  38   0.0000       0.182625         4.9695

MULLIKEN ATOMIC CHARGES
-----------------------
   0 C :   -0.360054
   1 C :   -0.282814
   2 C :    0.020770
   3 C :    0.158484
   4 N :   -0.339303
   5 C :   -0.328179
   6 N :   -0.142048
   7 N :   -0.240897
   8 C :   -0.136619
   9 H :    0.127491
  10 H :    0.105946
  11 H :    0.132088
  12 H :    0.126013
  13 H :    0.128534
  14 H :    0.236316
  15 H :    0.137003
  16 H :    0.137363
  17 H :    0.148958
  18 H :    0.249554
  19 H :    0.121391
Sum of atomic charges:    0.0000000

LOEWDIN ATOMIC CHARGES
----------------------
   0 C :   -0.313404
   1 C :   -0.261116
   2 C :   -0.194367
   3 C :   -0.293030
   4 N :    0.035731
   5 C :   -0.334780
   6 N :    0.132279
   7 N :    0.004236
   8 C :   -0.267823
   9 H :    0.118285
  10 H :    0.114449
  11 H :    0.123171
  12 H :    0.140741
  13 H :    0.146320
  14 H :    0.185944
  15 H :    0.116648
  16 H :    0.107117
  17 H :    0.122658
  18 H :    0.183647
  19 H :    0.133294

  Mayer bond orders larger than 0.1
B(  0-C ,  1-C ) :   0.9090 B(  0-C ,  9-H ) :   0.9362 B(  0-C , 10-H ) :   0.9379
B(  0-C , 11-H ) :   0.9386 B(  1-C ,  2-C ) :   0.8732 B(  1-C , 12-H ) :   0.9469
B(  1-C , 13-H ) :   0.9438 B(  2-C ,  3-C ) :   1.3290 B(  2-C ,  8-C ) :   1.2802
B(  3-C ,  4-N ) :   1.0569 B(  3-C ,  6-N ) :   1.2059 B(  3-C ,  7-N ) :   0.1204
B(  4-N ,  5-C ) :   0.9214 B(  4-N , 14-H ) :   0.8725 B(  5-C , 15-H ) :   0.9330
B(  5-C , 16-H ) :   0.9288 B(  5-C , 17-H ) :   0.9372 B(  6-N ,  7-N ) :   1.0124
B(  6-N , 18-H ) :   0.8717 B(  7-N ,  8-C ) :   1.5739 B(  8-C , 19-H ) :   0.9459

MP2 TOTAL ENERGY:     -398.651429306 Eh
FINAL SINGLE POINT ENERGY      -398.651429306211

DIPOLE MOMENT
-------------
                                X             Y             Z
Electronic contribution:     -4.99623      -5.10876       3.23820
Nuclear contribution   :      5.25188       5.61015      -4.60101
                        -----------------------------------------
Total Dipole Moment    :      0.25565       0.50139      -1.36281
                        -----------------------------------------
Magnitude (a.u.)       :      1.47445
Magnitude (Debye)      :      3.74775

                             ****ORCA TERMINATED NORMALLY****
TOTAL RUN TIME: 0 days 0 hours 18 minutes 27 seconds 210 msec
