                         Program Version 3.0.3 - RELEASE   -
|  1> ! RI-MP2 RIJK def2-TZVP def2-TZVP/C def2-TZVP/JK TIGHTSCF
|  2> % maxcore 2000
|  3> % mp2 density relaxed end
|  4> *xyz 0 1
|  5>  C        0.1126087715     1.5448018064    -0.2385958618
|  6>  C       -0.0177090916     0.0292759856    -0.0496869514
|  7>  O        0.5153114066    -0.6820366851    -1.1619273375
|  8>  C        0.6157352116    -0.4335269506     1.2301374022
|  9>  C        0.1220414641    -1.0476887275     2.3425600314
| 10>  C       -1.2345484223    -1.4863317410     2.7599809299
| 11>  O        1.1397746937    -1.2649752849     3.1831142682
| 12>  N        2.3164841630    -0.7662487830     2.5466710451
| 13>  N        1.9733705964    -0.2967738871     1.4329672230
| 14>  H        1.1665070895     1.8406328005    -0.2242703642
| 15>  H       -0.3217712054     1.8336309015    -1.1989999387
| 16>  H       -0.4009944421     2.0874961056     0.5614461232
| 17>  H       -1.0795694499    -0.2395723674    -0.0265408308
| 18>  H        1.4718207635    -0.5577411595    -1.1474573378
| 19>  H       -1.9563700132    -1.3031215566     1.9620008872
| 20>  H       -1.2388789528    -2.5549144347     2.9958632713
| 21>  H       -1.5611993925    -0.9478950823     3.6554977806
| 22> *
| 23>
| 24>                          ****END OF INPUT****

CARTESIAN COORDINATES (ANGSTROEM)
---------------------------------
  C      0.112609    1.544802   -0.238596
  C     -0.017709    0.029276   -0.049687
  O      0.515311   -0.682037   -1.161927
  C      0.615735   -0.433527    1.230137
  C      0.122041   -1.047689    2.342560
  C     -1.234548   -1.486332    2.759981
  O      1.139775   -1.264975    3.183114
  N      2.316484   -0.766249    2.546671
  N      1.973371   -0.296774    1.432967
  H      1.166507    1.840633   -0.224270
  H     -0.321771    1.833631   -1.199000
  H     -0.400994    2.087496    0.561446
  H     -1.079569   -0.239572   -0.026541
  H      1.471821   -0.557741   -1.147457
  H     -1.956370   -1.303122    1.962001
  H     -1.238879   -2.554914    2.995863
  H     -1.561199   -0.947895    3.655498

 Total Charge           Charge          ....    0
 Multiplicity           Mult            ....    1
 Number of Electrons    NEL             ....   68
 Basis Dimension        Dim             ....  327

ORBITAL ENERGIES
----------------

  NO   OCC          E(Eh)            E(eV)
   0   2.0000     -20.659175      -562.1647
   1   2.0000     -20.563301      -559.5559
   2   2.0000     -15.691181      -426.9787
   3   2.0000     -15.638744      -425.5519
   4   2.0000     -11.333028      -308.3874
   5   2.0000     -11.306112      -307.6550
   6   2.0000     -11.270004      -306.6724
   7   2.0000     -11.262779      -306.4758
   8   2.0000     -11.227440      -305.5142
   9   2.0000      -1.529236       -41.6126
  10   2.0000      -1.372468       -37.3467
  11   2.0000      -1.315762       -35.8037
  12   2.0000      -1.128148       -30.6985
  13   2.0000      -1.033715       -28.1288
  14   2.0000      -0.996836       -27.1253
  15   2.0000      -0.892266       -24.2798
  16   2.0000      -0.853601       -23.2277
  17   2.0000      -0.819916       -22.3110
  18   2.0000      -0.725675       -19.7466
  19   2.0000      -0.692161       -18.8346
  20   2.0000      -0.665622       -18.1125
  21   2.0000      -0.643396       -17.5077
  22   2.0000      -0.617701       -16.8085
  23   2.0000      -0.600453       -16.3392
  24   2.0000      -0.596748       -16.2383
  25   2.0000      -0.579475       -15.7683
  26   2.0000      -0.566087       -15.4040
  27   2.0000      -0.552733       -15.0406
  28   2.0000      -0.534975       -14.5574
  29   2.0000      -0.507304       -13.8045
  30   2.0000      -0.489874       -13.3301
  31   2.0000      -0.468097       -12.7376
  32   2.0000      -0.459467       -12.5027
  33   2.0000      -0.367329        -9.9955
  34   0.0000       0.100517         2.7352
  35   0.0000       0.125270         3.4088
  36   0.0000       0.150598         4.0980
  37   0.0000       0.172605         4.6968
  38   0.0000       0.178119         4.8469

MULLIKEN ATOMIC CHARGES
-----------------------
   0 C :   -0.384878
   1 C :    0.126364
   2 O :   -0.460061
   3 C :   -0.041247
   4 C :    0.122002
   5 C :   -0.406295
   6 O :   -0.100822
   7 N :   -0.043068
   8 N :   -0.120583
   9 H :    0.140933
  10 H :    0.144789
  11 H :    0.126140
  12 H :    0.089658
  13 H :    0.328407
  14 H :    0.150565
  15 H :    0.164891
  16 H :    0.163206
Sum of atomic charges:   -0.0000000

LOEWDIN ATOMIC CHARGES
----------------------
   0 C :   -0.290325
   1 C :   -0.342085
   2 O :   -0.012607
   3 C :   -0.243743
   4 C :   -0.289512
   5 C :   -0.260788
   6 O :    0.273566
   7 N :   -0.015318
   8 N :    0.040904
   9 H :    0.128854
  10 H :    0.127971
  11 H :    0.127275
  12 H :    0.150750
  13 H :    0.180537
  14 H :    0.139215
  15 H :    0.143319
  16 H :    0.141985

  Mayer bond orders larger than 0.1
B(  0-C ,  1-C ) :   0.9407 B(  0-C ,  9-H ) :   0.9223 B(  0-C , 10-H ) :   0.9363
B(  0-C , 11-H ) :   0.9285 B(  1-C ,  2-O ) :   0.9319 B(  1-C ,  3-C ) :   0.9161
B(  1-C , 12-H ) :   0.9277 B(  2-O , 13-H ) :   0.8334 B(  3-C ,  4-C ) :   1.4481
B(  3-C ,  8-N ) :   1.2442 B(  4-C ,  5-C ) :   0.8618 B(  4-C ,  6-O ) :   1.1747
B(  5-C , 14-H ) :   0.9497 B(  5-C , 15-H ) :   0.9253 B(  5-C , 16-H ) :   0.9246
B(  6-O ,  7-N ) :   0.8580 B(  7-N ,  8-N ) :   1.4341

MP2 TOTAL ENERGY:     -454.397154313 Eh
FINAL SINGLE POINT ENERGY      -454.397154312628

DIPOLE MOMENT
-------------
                                X             Y             Z
Electronic contribution:      6.95822      -3.58818       3.80530
Nuclear contribution   :     -8.21120       3.80177      -3.63062
                        -----------------------------------------
Total Dipole Moment    :     -1.25297       0.21359       0.17469
                        -----------------------------------------
Magnitude (a.u.)       :      1.28300
Magnitude (Debye)      :      3.26112

                             ****ORCA TERMINATED NORMALLY****
TOTAL RUN TIME: 0 days 0 hours 15 minutes 42 seconds 674 msec
