                         Program Version 3.0.3 - RELEASE   -
|  1> ! RI-MP2 RIJK def2-TZVP def2-TZVP/C def2-TZVP/JK TIGHTSCF
|  2> % maxcore 2000
|  3> % mp2 density relaxed end
|  4> *xyz 0 1
|  5>  O       -0.0145004742     1.4321293712    -0.0748995922
|  6>  C        1.3077429839     1.8953852304     0.0401269613
|  7>  C        2.0981864193     1.3563761563     1.1975892445
|  8>  O        1.4267771790     0.4493625379     2.0358730550
|  9>  C        0.8188196104    -0.5066752830     1.2036806339
| 10>  C        0.0285160823     0.0322372662     0.0460779025
| 11>  C        1.4455132338    -0.4840251590    -0.1876487172
| 12>  C        2.2977791561     0.7573619364    -0.1917922391
| 13>  H        1.4393685126     2.9050818238    -0.3299283777
| 14>  H        2.8387056771     1.9508587102     1.7191006136
| 15>  H        0.5314705744    -1.4089390931     1.7300873339
| 16>  H       -0.8675770184    -0.4549156458    -0.3192324485
| 17>  H        1.7003896832    -1.3586193704    -0.7687976646
| 18>  H        3.2037129906     0.8311196590    -0.7761336455
| 19> *
| 20>
| 21>                          ****END OF INPUT****

CARTESIAN COORDINATES (ANGSTROEM)
---------------------------------
  O     -0.014500    1.432129   -0.074900
  C      1.307743    1.895385    0.040127
  C      2.098186    1.356376    1.197589
  O      1.426777    0.449363    2.035873
  C      0.818820   -0.506675    1.203681
  C      0.028516    0.032237    0.046078
  C      1.445513   -0.484025   -0.187649
  C      2.297779    0.757362   -0.191792
  H      1.439369    2.905082   -0.329928
  H      2.838706    1.950859    1.719101
  H      0.531471   -1.408939    1.730087
  H     -0.867577   -0.454916   -0.319232
  H      1.700390   -1.358619   -0.768798
  H      3.203713    0.831120   -0.776134

 Total Charge           Charge          ....    0
 Multiplicity           Mult            ....    1
 Number of Electrons    NEL             ....   58
 Basis Dimension        Dim             ....  284

ORBITAL ENERGIES
----------------

  NO   OCC          E(Eh)            E(eV)
   0   2.0000     -20.572084      -559.7949
   1   2.0000     -20.572078      -559.7947
   2   2.0000     -11.289278      -307.1969
   3   2.0000     -11.289253      -307.1962
   4   2.0000     -11.288577      -307.1778
   5   2.0000     -11.288554      -307.1772
   6   2.0000     -11.242882      -305.9344
   7   2.0000     -11.242208      -305.9160
   8   2.0000      -1.432475       -38.9796
   9   2.0000      -1.374800       -37.4102
  10   2.0000      -1.138621       -30.9835
  11   2.0000      -1.114446       -30.3256
  12   2.0000      -0.876289       -23.8450
  13   2.0000      -0.861118       -23.4322
  14   2.0000      -0.803713       -21.8701
  15   2.0000      -0.755276       -20.5521
  16   2.0000      -0.749837       -20.4041
  17   2.0000      -0.657959       -17.9040
  18   2.0000      -0.641436       -17.4544
  19   2.0000      -0.634842       -17.2749
  20   2.0000      -0.617731       -16.8093
  21   2.0000      -0.562654       -15.3106
  22   2.0000      -0.549289       -14.9469
  23   2.0000      -0.539319       -14.6756
  24   2.0000      -0.535846       -14.5811
  25   2.0000      -0.445673       -12.1274
  26   2.0000      -0.429278       -11.6812
  27   2.0000      -0.392352       -10.6764
  28   2.0000      -0.349010        -9.4971
  29   0.0000       0.148029         4.0281
  30   0.0000       0.168813         4.5936
  31   0.0000       0.182837         4.9753
  32   0.0000       0.193442         5.2638
  33   0.0000       0.197371         5.3707

MULLIKEN ATOMIC CHARGES
-----------------------
   0 O :   -0.299256
   1 C :    0.042572
   2 C :    0.042591
   3 O :   -0.299256
   4 C :    0.042572
   5 C :    0.042591
   6 C :   -0.193374
   7 C :   -0.193374
   8 H :    0.131892
   9 H :    0.131890
  10 H :    0.131892
  11 H :    0.131890
  12 H :    0.143684
  13 H :    0.143684
Sum of atomic charges:    0.0000000

LOEWDIN ATOMIC CHARGES
----------------------
   0 O :    0.228719
   1 C :   -0.245491
   2 C :   -0.245491
   3 O :    0.228719
   4 C :   -0.245491
   5 C :   -0.245491
   6 C :   -0.165697
   7 C :   -0.165697
   8 H :    0.140610
   9 H :    0.140609
  10 H :    0.140610
  11 H :    0.140609
  12 H :    0.146742
  13 H :    0.146742

  Mayer bond orders larger than 0.1
B(  0-O ,  1-C ) :   0.9534 B(  0-O ,  5-C ) :   0.9534 B(  1-C ,  2-C ) :   0.8528
B(  1-C ,  7-C ) :   0.8721 B(  1-C ,  8-H ) :   0.9283 B(  2-C ,  3-O ) :   0.9534
B(  2-C ,  7-C ) :   0.8721 B(  2-C ,  9-H ) :   0.9283 B(  3-O ,  4-C ) :   0.9534
B(  4-C ,  5-C ) :   0.8528 B(  4-C ,  6-C ) :   0.8721 B(  4-C , 10-H ) :   0.9283
B(  5-C ,  6-C ) :   0.8721 B(  5-C , 11-H ) :   0.9283 B(  6-C ,  7-C ) :   0.9715
B(  6-C , 12-H ) :   0.9143 B(  7-C , 13-H ) :   0.9143

MP2 TOTAL ENERGY:     -381.860090012 Eh
FINAL SINGLE POINT ENERGY      -381.860090011537

DIPOLE MOMENT
-------------
                                X             Y             Z
Electronic contribution:     -1.27610       0.88038       1.28125
Nuclear contribution   :      1.76485      -1.21756      -1.77197
                        -----------------------------------------
Total Dipole Moment    :      0.48875      -0.33718      -0.49072
                        -----------------------------------------
Magnitude (a.u.)       :      0.77031
Magnitude (Debye)      :      1.95796

                             ****ORCA TERMINATED NORMALLY****
TOTAL RUN TIME: 0 days 0 hours 10 minutes 47 seconds 566 msec
