                         Program Version 3.0.3 - RELEASE   -
|  1> ! RI-MP2 RIJK def2-TZVP def2-TZVP/C def2-TZVP/JK TIGHTSCF
|  2> % maxcore 2000
|  3> % mp2 density relaxed end
|  4> *xyz 0 1
|  5>  C        0.0571796405     1.4360824105    -0.3215579153
|  6>  C       -0.0962879890     0.0107648492     0.1475739167
|  7>  O        1.0800047483    -0.8052459670     0.1795150926
|  8>  C        0.4189624877    -0.5362873554     1.4180785199
|  9>  C        1.1923726750     0.2682226932     2.4474777931
| 10>  O        0.3012726613     0.7884807814     3.4293972682
| 11>  C        2.2041775464    -0.6112588001     3.1594190816
| 12>  C        2.6991437675    -0.2626647436     4.5098158099
| 13>  N        1.7937661321    -1.4153730624     4.3194862058
| 14>  H        0.9204137530     1.9288529556     0.1300458472
| 15>  H        0.1909014170     1.4577939337    -1.4079797795
| 16>  H       -0.8433627461     2.0156337388    -0.0888593985
| 17>  H       -0.9624861743    -0.5044434728    -0.2737514710
| 18>  H       -0.1024560766    -1.3953488664     1.8456864431
| 19>  H        1.7369293083     1.0771662203     1.9394738343
| 20>  H       -0.3725307961     1.3067369453     2.9795146442
| 21>  H        2.8681878804    -1.1267528559     2.4692364351
| 22>  H        3.7154740793    -0.5188148422     4.7951657749
| 23>  H        2.2948513067     0.6290837624     4.9781523810
| 24>  H        0.8565757288    -1.1211305949     4.5885072068
| 25> *
| 26>
| 27>                          ****END OF INPUT****

CARTESIAN COORDINATES (ANGSTROEM)
---------------------------------
  C      0.057180    1.436082   -0.321558
  C     -0.096288    0.010765    0.147574
  O      1.080005   -0.805246    0.179515
  C      0.418962   -0.536287    1.418079
  C      1.192373    0.268223    2.447478
  O      0.301273    0.788481    3.429397
  C      2.204178   -0.611259    3.159419
  C      2.699144   -0.262665    4.509816
  N      1.793766   -1.415373    4.319486
  H      0.920414    1.928853    0.130046
  H      0.190901    1.457794   -1.407980
  H     -0.843363    2.015634   -0.088859
  H     -0.962486   -0.504443   -0.273751
  H     -0.102456   -1.395349    1.845686
  H      1.736929    1.077166    1.939474
  H     -0.372531    1.306737    2.979515
  H      2.868188   -1.126753    2.469236
  H      3.715474   -0.518815    4.795166
  H      2.294851    0.629084    4.978152
  H      0.856576   -1.121131    4.588507

 Total Charge           Charge          ....    0
 Multiplicity           Mult            ....    1
 Number of Electrons    NEL             ....   70
 Basis Dimension        Dim             ....  345

ORBITAL ENERGIES
----------------

  NO   OCC          E(Eh)            E(eV)
   0   2.0000     -20.577737      -559.9487
   1   2.0000     -20.574976      -559.8735
   2   2.0000     -15.548585      -423.0985
   3   2.0000     -11.299575      -307.4771
   4   2.0000     -11.299244      -307.4681
   5   2.0000     -11.292188      -307.2760
   6   2.0000     -11.256352      -306.3009
   7   2.0000     -11.246351      -306.0288
   8   2.0000     -11.239027      -305.8295
   9   2.0000      -1.421100       -38.6701
  10   2.0000      -1.384571       -37.6761
  11   2.0000      -1.251430       -34.0531
  12   2.0000      -1.025774       -27.9127
  13   2.0000      -1.014111       -27.5954
  14   2.0000      -0.904265       -24.6063
  15   2.0000      -0.871405       -23.7121
  16   2.0000      -0.815543       -22.1920
  17   2.0000      -0.790161       -21.5014
  18   2.0000      -0.740636       -20.1537
  19   2.0000      -0.686817       -18.6892
  20   2.0000      -0.669874       -18.2282
  21   2.0000      -0.656620       -17.8675
  22   2.0000      -0.623715       -16.9722
  23   2.0000      -0.602321       -16.3900
  24   2.0000      -0.580573       -15.7982
  25   2.0000      -0.574398       -15.6302
  26   2.0000      -0.546429       -14.8691
  27   2.0000      -0.524054       -14.2602
  28   2.0000      -0.513721       -13.9791
  29   2.0000      -0.495947       -13.4954
  30   2.0000      -0.476780       -12.9738
  31   2.0000      -0.461685       -12.5631
  32   2.0000      -0.441851       -12.0234
  33   2.0000      -0.430133       -11.7045
  34   2.0000      -0.383404       -10.4330
  35   0.0000       0.116598         3.1728
  36   0.0000       0.155259         4.2248
  37   0.0000       0.159535         4.3412
  38   0.0000       0.182500         4.9661
  39   0.0000       0.186617         5.0781

MULLIKEN ATOMIC CHARGES
-----------------------
   0 C :   -0.400305
   1 C :    0.082533
   2 O :   -0.335212
   3 C :   -0.059405
   4 C :    0.065005
   5 O :   -0.482305
   6 C :   -0.026645
   7 C :   -0.177152
   8 N :   -0.383378
   9 H :    0.138710
  10 H :    0.149561
  11 H :    0.130300
  12 H :    0.114862
  13 H :    0.129499
  14 H :    0.099640
  15 H :    0.321350
  16 H :    0.137977
  17 H :    0.121439
  18 H :    0.139919
  19 H :    0.233609
Sum of atomic charges:   -0.0000000

LOEWDIN ATOMIC CHARGES
----------------------
   0 C :   -0.298400
   1 C :   -0.292840
   2 O :    0.168146
   3 C :   -0.259882
   4 C :   -0.327306
   5 O :   -0.008951
   6 C :   -0.264306
   7 C :   -0.262926
   8 N :   -0.017539
   9 H :    0.126465
  10 H :    0.133564
  11 H :    0.129361
  12 H :    0.138525
  13 H :    0.144726
  14 H :    0.144712
  15 H :    0.179189
  16 H :    0.151041
  17 H :    0.122986
  18 H :    0.125606
  19 H :    0.167828

  Mayer bond orders larger than 0.1
B(  0-C ,  1-C ) :   0.8800 B(  0-C ,  9-H ) :   0.9421 B(  0-C , 10-H ) :   0.9331
B(  0-C , 11-H ) :   0.9257 B(  1-C ,  2-O ) :   0.8970 B(  1-C ,  3-C ) :   0.9675
B(  1-C , 12-H ) :   0.9211 B(  2-O ,  3-C ) :   0.8795 B(  3-C ,  4-C ) :   0.9176
B(  3-C , 13-H ) :   0.9097 B(  4-C ,  5-O ) :   0.9270 B(  4-C ,  6-C ) :   0.9356
B(  4-C , 14-H ) :   0.9315 B(  5-O , 15-H ) :   0.8426 B(  6-C ,  7-C ) :   0.9480
B(  6-C ,  8-N ) :   0.9419 B(  6-C , 16-H ) :   0.9177 B(  7-C ,  8-N ) :   0.9185
B(  7-C , 17-H ) :   0.9265 B(  7-C , 18-H ) :   0.9095 B(  8-N , 19-H ) :   0.8717

MP2 TOTAL ENERGY:     -439.514015496 Eh
FINAL SINGLE POINT ENERGY      -439.514015496126

DIPOLE MOMENT
-------------
                                X             Y             Z
Electronic contribution:      0.34731      -3.32795       1.03830
Nuclear contribution   :     -1.15848       4.52339      -1.51901
                        -----------------------------------------
Total Dipole Moment    :     -0.81117       1.19544      -0.48071
                        -----------------------------------------
Magnitude (a.u.)       :      1.52255
Magnitude (Debye)      :      3.87001

                             ****ORCA TERMINATED NORMALLY****
TOTAL RUN TIME: 0 days 0 hours 18 minutes 5 seconds 479 msec
