                         Program Version 3.0.3 - RELEASE   -
|  1> ! RI-MP2 RIJK def2-TZVP def2-TZVP/C def2-TZVP/JK TIGHTSCF
|  2> % maxcore 2000
|  3> % mp2 density relaxed end
|  4> *xyz 0 1
|  5>  N       -0.0000278242     1.3924704225     0.1549486538
|  6>  C       -0.0365021000     0.0153863756     0.0474022493
|  7>  C       -1.0953346717    -0.8512427584     0.0046999286
|  8>  O       -0.5929385634    -2.1238563489    -0.0288632202
|  9>  C        0.7431775261    -1.9564167594    -0.0035138157
| 10>  N        1.1334986929    -0.7140251294     0.0399335607
| 11>  C        1.5590368778    -3.1158471797    -0.0302547277
| 12>  N        2.2233744107    -4.0629072074    -0.0536541155
| 13>  H        0.8863332879     1.7795499269    -0.1373964011
| 14>  H       -0.7815688634     1.8771180965    -0.2610217111
| 15>  H       -2.1660168626    -0.7539632383    -0.0032452710
| 16> *
| 17>
| 18>                          ****END OF INPUT****

CARTESIAN COORDINATES (ANGSTROEM)
---------------------------------
  N     -0.000028    1.392470    0.154949
  C     -0.036502    0.015386    0.047402
  C     -1.095335   -0.851243    0.004700
  O     -0.592939   -2.123856   -0.028863
  C      0.743178   -1.956417   -0.003514
  N      1.133499   -0.714025    0.039934
  C      1.559037   -3.115847   -0.030255
  N      2.223374   -4.062907   -0.053654
  H      0.886333    1.779550   -0.137396
  H     -0.781569    1.877118   -0.261022
  H     -2.166017   -0.753963   -0.003245

 Total Charge           Charge          ....    0
 Multiplicity           Mult            ....    1
 Number of Electrons    NEL             ....   56
 Basis Dimension        Dim             ....  266

ORBITAL ENERGIES
----------------

  NO   OCC          E(Eh)            E(eV)
   0   2.0000     -20.670136      -562.4630
   1   2.0000     -15.606823      -424.6833
   2   2.0000     -15.606572      -424.6764
   3   2.0000     -15.589726      -424.2180
   4   2.0000     -11.392849      -310.0152
   5   2.0000     -11.330460      -308.3175
   6   2.0000     -11.306208      -307.6576
   7   2.0000     -11.303101      -307.5730
   8   2.0000      -1.520954       -41.3873
   9   2.0000      -1.295312       -35.2472
  10   2.0000      -1.246579       -33.9211
  11   2.0000      -1.213119       -33.0106
  12   2.0000      -1.062246       -28.9052
  13   2.0000      -0.913965       -24.8703
  14   2.0000      -0.858622       -23.3643
  15   2.0000      -0.803576       -21.8664
  16   2.0000      -0.711824       -19.3697
  17   2.0000      -0.700898       -19.0724
  18   2.0000      -0.676266       -18.4021
  19   2.0000      -0.666726       -18.1425
  20   2.0000      -0.602394       -16.3920
  21   2.0000      -0.586136       -15.9496
  22   2.0000      -0.542229       -14.7548
  23   2.0000      -0.523176       -14.2363
  24   2.0000      -0.504560       -13.7298
  25   2.0000      -0.497197       -13.5294
  26   2.0000      -0.442102       -12.0302
  27   2.0000      -0.333693        -9.0802
  28   0.0000       0.064358         1.7513
  29   0.0000       0.120278         3.2729
  30   0.0000       0.153449         4.1756
  31   0.0000       0.160475         4.3667
  32   0.0000       0.169077         4.6008

MULLIKEN ATOMIC CHARGES
-----------------------
   0 N :   -0.517618
   1 C :    0.191997
   2 C :   -0.088678
   3 O :   -0.184457
   4 C :    0.391632
   5 N :   -0.285474
   6 C :   -0.161764
   7 N :   -0.041210
   8 H :    0.270351
   9 H :    0.255602
  10 H :    0.169619
Sum of atomic charges:   -0.0000000

LOEWDIN ATOMIC CHARGES
----------------------
   0 N :   -0.065144
   1 C :   -0.353439
   2 C :   -0.227063
   3 O :    0.382943
   4 C :   -0.356892
   5 N :    0.168616
   6 C :   -0.140571
   7 N :    0.101532
   8 H :    0.179506
   9 H :    0.172702
  10 H :    0.137809

  Mayer bond orders larger than 0.1
B(  0-N ,  1-C ) :   1.0674 B(  0-N ,  8-H ) :   0.8668 B(  0-N ,  9-H ) :   0.8751
B(  1-C ,  2-C ) :   1.5118 B(  1-C ,  5-N ) :   1.2179 B(  2-C ,  3-O ) :   1.0241
B(  2-C , 10-H ) :   0.9191 B(  3-O ,  4-C ) :   1.0833 B(  4-C ,  5-N ) :   1.5225
B(  4-C ,  6-C ) :   0.9233 B(  6-C ,  7-N ) :   2.8171

MP2 TOTAL ENERGY:     -392.960766908 Eh
FINAL SINGLE POINT ENERGY      -392.960766907901

DIPOLE MOMENT
-------------
                                X             Y             Z
Electronic contribution:      1.80678      -4.95053       0.01355
Nuclear contribution   :     -3.21576       6.57126      -0.41122
                        -----------------------------------------
Total Dipole Moment    :     -1.40898       1.62073      -0.39767
                        -----------------------------------------
Magnitude (a.u.)       :      2.18407
Magnitude (Debye)      :      5.55146

                             ****ORCA TERMINATED NORMALLY****
TOTAL RUN TIME: 0 days 0 hours 8 minutes 32 seconds 683 msec
