                         Program Version 3.0.3 - RELEASE   -
|  1> ! RI-MP2 RIJK def2-TZVP def2-TZVP/C def2-TZVP/JK TIGHTSCF
|  2> % maxcore 2000
|  3> % mp2 density relaxed end
|  4> *xyz 0 1
|  5>  O       -0.1207745346     1.4252106029    -0.0458508338
|  6>  C        0.0174249998     0.0273761515    -0.0235354032
|  7>  C        0.2053968046    -0.5577490936     1.4130791061
|  8>  C       -1.3336799494    -0.7051412342     1.5249829985
|  9>  C       -1.4178491935    -0.6109916864    -0.0310223941
| 10>  C       -2.4950601048     0.1487346867    -0.6382165774
| 11>  N       -3.3738380766     0.7378510112    -1.1025585607
| 12>  C        0.9521305637    -0.4421369774    -1.0538049051
| 13>  N        1.7116595045    -0.8159846809    -1.8407135797
| 14>  H        0.7459458438     1.8265900948     0.0875516117
| 15>  H        0.7231338497    -1.5190532074     1.3973871980
| 16>  H        0.7035951247     0.1143905884     2.1132718553
| 17>  H       -1.7221873849    -1.6211408472     1.9687142662
| 18>  H       -1.7996253957     0.1583735399     1.9993290247
| 19>  H       -1.3732030513    -1.6051345282    -0.4823843264
| 20> *
| 21>
| 22>                          ****END OF INPUT****

CARTESIAN COORDINATES (ANGSTROEM)
---------------------------------
  O     -0.120775    1.425211   -0.045851
  C      0.017425    0.027376   -0.023535
  C      0.205397   -0.557749    1.413079
  C     -1.333680   -0.705141    1.524983
  C     -1.417849   -0.610992   -0.031022
  C     -2.495060    0.148735   -0.638217
  N     -3.373838    0.737851   -1.102559
  C      0.952131   -0.442137   -1.053805
  N      1.711660   -0.815985   -1.840714
  H      0.745946    1.826590    0.087552
  H      0.723134   -1.519053    1.397387
  H      0.703595    0.114391    2.113272
  H     -1.722187   -1.621141    1.968714
  H     -1.799625    0.158374    1.999329
  H     -1.373203   -1.605135   -0.482384

 Total Charge           Charge          ....    0
 Multiplicity           Mult            ....    1
 Number of Electrons    NEL             ....   64
 Basis Dimension        Dim             ....  315

ORBITAL ENERGIES
----------------

  NO   OCC          E(Eh)            E(eV)
   0   2.0000     -20.612340      -560.8903
   1   2.0000     -15.598632      -424.4603
   2   2.0000     -15.579099      -423.9288
   3   2.0000     -11.375563      -309.5448
   4   2.0000     -11.313422      -307.8539
   5   2.0000     -11.293167      -307.3027
   6   2.0000     -11.280900      -306.9689
   7   2.0000     -11.277823      -306.8852
   8   2.0000     -11.276202      -306.8410
   9   2.0000      -1.429070       -38.8870
  10   2.0000      -1.242754       -33.8170
  11   2.0000      -1.228418       -33.4269
  12   2.0000      -1.179704       -32.1014
  13   2.0000      -0.997956       -27.1558
  14   2.0000      -0.981206       -26.7000
  15   2.0000      -0.847436       -23.0599
  16   2.0000      -0.802276       -21.8310
  17   2.0000      -0.755281       -20.5522
  18   2.0000      -0.697038       -18.9674
  19   2.0000      -0.657689       -17.8966
  20   2.0000      -0.625164       -17.0116
  21   2.0000      -0.599112       -16.3027
  22   2.0000      -0.588381       -16.0107
  23   2.0000      -0.574501       -15.6330
  24   2.0000      -0.559438       -15.2231
  25   2.0000      -0.537798       -14.6342
  26   2.0000      -0.528545       -14.3824
  27   2.0000      -0.508295       -13.8314
  28   2.0000      -0.491909       -13.3855
  29   2.0000      -0.478182       -13.0120
  30   2.0000      -0.457128       -12.4391
  31   2.0000      -0.452190       -12.3047
  32   0.0000       0.098347         2.6761
  33   0.0000       0.119420         3.2496
  34   0.0000       0.128562         3.4983
  35   0.0000       0.139309         3.7908
  36   0.0000       0.155789         4.2392

MULLIKEN ATOMIC CHARGES
-----------------------
   0 O :   -0.432560
   1 C :    0.327419
   2 C :   -0.233827
   3 C :   -0.233181
   4 C :    0.056543
   5 C :   -0.229613
   6 N :   -0.039341
   7 C :   -0.265876
   8 N :   -0.036566
   9 H :    0.335538
  10 H :    0.146917
  11 H :    0.138816
  12 H :    0.147219
  13 H :    0.151052
  14 H :    0.167461
Sum of atomic charges:   -0.0000000

LOEWDIN ATOMIC CHARGES
----------------------
   0 O :    0.065874
   1 C :   -0.330587
   2 C :   -0.178660
   3 C :   -0.184035
   4 C :   -0.163712
   5 C :   -0.165864
   6 N :    0.079620
   7 C :   -0.152901
   8 N :    0.085199
   9 H :    0.192341
  10 H :    0.147744
  11 H :    0.136690
  12 H :    0.134371
  13 H :    0.149307
  14 H :    0.184615

  Mayer bond orders larger than 0.1
B(  0-O ,  1-C ) :   1.0133 B(  0-O ,  9-H ) :   0.8256 B(  1-C ,  2-C ) :   0.8971
B(  1-C ,  4-C ) :   0.8338 B(  1-C ,  7-C ) :   0.9196 B(  2-C ,  3-C ) :   0.9384
B(  2-C , 10-H ) :   0.9125 B(  2-C , 11-H ) :   0.9158 B(  3-C ,  4-C ) :   0.9158
B(  3-C , 12-H ) :   0.9295 B(  3-C , 13-H ) :   0.9154 B(  4-C ,  5-C ) :   0.9517
B(  4-C , 14-H ) :   0.8921 B(  5-C ,  6-N ) :   2.8597 B(  7-C ,  8-N ) :   2.8489

MP2 TOTAL ENERGY:     -416.112063186 Eh
FINAL SINGLE POINT ENERGY      -416.112063186144

DIPOLE MOMENT
-------------
                                X             Y             Z
Electronic contribution:     -0.24133       1.64832      -5.73617
Nuclear contribution   :      0.99402      -2.15327       7.57864
                        -----------------------------------------
Total Dipole Moment    :      0.75269      -0.50495       1.84247
                        -----------------------------------------
Magnitude (a.u.)       :      2.05334
Magnitude (Debye)      :      5.21918

                             ****ORCA TERMINATED NORMALLY****
TOTAL RUN TIME: 0 days 0 hours 14 minutes 31 seconds 964 msec
