                         Program Version 3.0.3 - RELEASE   -
|  1> ! RI-MP2 RIJK def2-TZVP def2-TZVP/C def2-TZVP/JK TIGHTSCF
|  2> % maxcore 2000
|  3> % mp2 density relaxed end
|  4> *xyz 0 1
|  5>  C       -0.3774963209     1.4300342742     0.0511089730
|  6>  C        0.0441483218    -0.0313235769     0.0489551146
|  7>  O        0.9146689038    -0.2595154896    -1.1001250832
|  8>  C        2.0879556998    -0.6946604865    -0.5899934503
|  9>  N        2.2168430515    -0.8807105120     0.6555096101
| 10>  C        0.9070475527    -0.5414500713     1.2575560671
| 11>  C        1.0634098586     0.4103829765     2.4212234973
| 12>  C        0.0252538723     0.4392699074     3.5187362368
| 13>  C        1.3923429072    -0.1386787014     3.7829337949
| 14>  H        0.4886084146     2.0918079366     0.1385954927
| 15>  H       -0.8965457665     1.6699637250    -0.8808254624
| 16>  H       -1.0531254240     1.6323150669     0.8865987292
| 17>  H       -0.8323161562    -0.6691496010    -0.0979200632
| 18>  H        2.8630037781    -0.8571919775    -1.3318016218
| 19>  H        0.4710972151    -1.4709208206     1.6473833070
| 20>  H        1.5266784133     1.3590064056     2.1681407252
| 21>  H       -0.2285713852     1.3956807064     3.9620566532
| 22>  H       -0.8104048807    -0.2498728232     3.4462588448
| 23>  H        1.4811993636    -1.2152217574     3.8827497727
| 24>  H        2.0775227611     0.4222466189     4.4080500924
| 25> *
| 26>
| 27>                          ****END OF INPUT****

CARTESIAN COORDINATES (ANGSTROEM)
---------------------------------
  C     -0.377496    1.430034    0.051109
  C      0.044148   -0.031324    0.048955
  O      0.914669   -0.259515   -1.100125
  C      2.087956   -0.694660   -0.589993
  N      2.216843   -0.880711    0.655510
  C      0.907048   -0.541450    1.257556
  C      1.063410    0.410383    2.421223
  C      0.025254    0.439270    3.518736
  C      1.392343   -0.138679    3.782934
  H      0.488608    2.091808    0.138595
  H     -0.896546    1.669964   -0.880825
  H     -1.053125    1.632315    0.886599
  H     -0.832316   -0.669150   -0.097920
  H      2.863004   -0.857192   -1.331802
  H      0.471097   -1.470921    1.647383
  H      1.526678    1.359006    2.168141
  H     -0.228571    1.395681    3.962057
  H     -0.810405   -0.249873    3.446259
  H      1.481199   -1.215222    3.882750
  H      2.077523    0.422247    4.408050

 Total Charge           Charge          ....    0
 Multiplicity           Mult            ....    1
 Number of Electrons    NEL             ....   68
 Basis Dimension        Dim             ....  345

ORBITAL ENERGIES
----------------

  NO   OCC          E(Eh)            E(eV)
   0   2.0000     -20.589224      -560.2613
   1   2.0000     -15.542100      -422.9220
   2   2.0000     -11.326115      -308.1993
   3   2.0000     -11.294816      -307.3476
   4   2.0000     -11.266248      -306.5702
   5   2.0000     -11.231784      -305.6324
   6   2.0000     -11.227998      -305.5294
   7   2.0000     -11.224389      -305.4311
   8   2.0000     -11.223723      -305.4130
   9   2.0000      -1.432084       -38.9690
  10   2.0000      -1.211278       -32.9606
  11   2.0000      -1.143266       -31.1099
  12   2.0000      -1.054554       -28.6959
  13   2.0000      -0.947317       -25.7778
  14   2.0000      -0.859224       -23.3807
  15   2.0000      -0.825574       -22.4650
  16   2.0000      -0.789155       -21.4740
  17   2.0000      -0.773133       -21.0380
  18   2.0000      -0.714346       -19.4383
  19   2.0000      -0.667932       -18.1754
  20   2.0000      -0.659464       -17.9449
  21   2.0000      -0.615224       -16.7411
  22   2.0000      -0.605564       -16.4782
  23   2.0000      -0.575291       -15.6545
  24   2.0000      -0.563202       -15.3255
  25   2.0000      -0.532841       -14.4993
  26   2.0000      -0.519831       -14.1453
  27   2.0000      -0.516340       -14.0503
  28   2.0000      -0.510395       -13.8886
  29   2.0000      -0.496738       -13.5169
  30   2.0000      -0.438181       -11.9235
  31   2.0000      -0.421243       -11.4626
  32   2.0000      -0.406301       -11.0560
  33   2.0000      -0.375664       -10.2223
  34   0.0000       0.132935         3.6173
  35   0.0000       0.147860         4.0235
  36   0.0000       0.168577         4.5872
  37   0.0000       0.173264         4.7148
  38   0.0000       0.176598         4.8055

MULLIKEN ATOMIC CHARGES
-----------------------
   0 C :   -0.404811
   1 C :    0.082257
   2 O :   -0.275558
   3 C :    0.093472
   4 N :   -0.277071
   5 C :   -0.020830
   6 C :   -0.072395
   7 C :   -0.279428
   8 C :   -0.260603
   9 H :    0.132497
  10 H :    0.146972
  11 H :    0.137128
  12 H :    0.103870
  13 H :    0.143630
  14 H :    0.107947
  15 H :    0.121144
  16 H :    0.130989
  17 H :    0.127399
  18 H :    0.131460
  19 H :    0.131932
Sum of atomic charges:    0.0000000

LOEWDIN ATOMIC CHARGES
----------------------
   0 C :   -0.291917
   1 C :   -0.256075
   2 O :    0.227619
   3 C :   -0.357066
   4 N :    0.085494
   5 C :   -0.241697
   6 C :   -0.214133
   7 C :   -0.231347
   8 C :   -0.219012
   9 H :    0.128141
  10 H :    0.128342
  11 H :    0.131401
  12 H :    0.141278
  13 H :    0.133261
  14 H :    0.153681
  15 H :    0.150061
  16 H :    0.131067
  17 H :    0.132020
  18 H :    0.135981
  19 H :    0.132901

  Mayer bond orders larger than 0.1
B(  0-C ,  1-C ) :   0.9217 B(  0-C ,  9-H ) :   0.9399 B(  0-C , 10-H ) :   0.9314
B(  0-C , 11-H ) :   0.9288 B(  1-C ,  2-O ) :   0.8420 B(  1-C ,  5-C ) :   0.9392
B(  1-C , 12-H ) :   0.9197 B(  2-O ,  3-C ) :   1.0789 B(  3-C ,  4-N ) :   1.8180
B(  3-C , 13-H ) :   0.9222 B(  4-N ,  5-C ) :   0.9192 B(  5-C ,  6-C ) :   0.9231
B(  5-C , 14-H ) :   0.9148 B(  6-C ,  7-C ) :   0.8868 B(  6-C ,  8-C ) :   0.8907
B(  6-C , 15-H ) :   0.9094 B(  7-C ,  8-C ) :   0.9134 B(  7-C , 16-H ) :   0.9264
B(  7-C , 17-H ) :   0.9260 B(  8-C , 18-H ) :   0.9267 B(  8-C , 19-H ) :   0.9292

MP2 TOTAL ENERGY:     -402.457820468 Eh
FINAL SINGLE POINT ENERGY      -402.457820467816

DIPOLE MOMENT
-------------
                                X             Y             Z
Electronic contribution:      3.86114      -3.67867      -5.76766
Nuclear contribution   :     -4.50185       3.99913       5.85832
                        -----------------------------------------
Total Dipole Moment    :     -0.64071       0.32046       0.09067
                        -----------------------------------------
Magnitude (a.u.)       :      0.72210
Magnitude (Debye)      :      1.83543

                             ****ORCA TERMINATED NORMALLY****
TOTAL RUN TIME: 0 days 0 hours 19 minutes 13 seconds 303 msec
