                         Program Version 3.0.3 - RELEASE   -
|  1> ! RI-MP2 RIJK def2-TZVP def2-TZVP/C def2-TZVP/JK TIGHTSCF
|  2> % maxcore 2000
|  3> % mp2 density relaxed end
|  4> *xyz 0 1
|  5>  C        0.2079016613     1.5464907034    -0.0500419752
|  6>  C        0.0533515638     0.0382431611    -0.0687765395
|  7>  O       -1.2768410329    -0.3759514979    -0.3684977896
|  8>  C        0.9853843468    -0.7989865913    -0.9967575677
|  9>  C        1.3918903663    -1.7016566843     0.2019860309
| 10>  O        1.3128204287    -3.0825375670     0.0862681116
| 11>  C        2.6133845394    -1.2018958816     0.9777052661
| 12>  O        1.8088754752    -0.2386502644     1.7024057002
| 13>  C        0.5793801264    -0.7596625374     1.1598658014
| 14>  H        1.2234655953     1.8229192646     0.2426742191
| 15>  H       -0.0128125911     1.9689691398    -1.0352065226
| 16>  H       -0.4797935431     1.9971070563     0.6767152167
| 17>  H       -1.8607384212     0.0154343669     0.2917723910
| 18>  H        0.4086444343    -1.3189227144    -1.7657395373
| 19>  H        1.8065524377    -0.2557936455    -1.4707374607
| 20>  H        0.5141469392    -3.3019011735    -0.4053478301
| 21>  H        3.0268641555    -1.9645879078     1.6485909454
| 22>  H        3.4209750195    -0.7299807021     0.4062400579
| 23>  H       -0.1419133513    -1.0621364548     1.9257060425
| 24> *
| 25>
| 26>                          ****END OF INPUT****

CARTESIAN COORDINATES (ANGSTROEM)
---------------------------------
  C      0.207902    1.546491   -0.050042
  C      0.053352    0.038243   -0.068777
  O     -1.276841   -0.375951   -0.368498
  C      0.985384   -0.798987   -0.996758
  C      1.391890   -1.701657    0.201986
  O      1.312820   -3.082538    0.086268
  C      2.613385   -1.201896    0.977705
  O      1.808875   -0.238650    1.702406
  C      0.579380   -0.759663    1.159866
  H      1.223466    1.822919    0.242674
  H     -0.012813    1.968969   -1.035207
  H     -0.479794    1.997107    0.676715
  H     -1.860738    0.015434    0.291772
  H      0.408644   -1.318923   -1.765740
  H      1.806552   -0.255794   -1.470737
  H      0.514147   -3.301901   -0.405348
  H      3.026864   -1.964588    1.648591
  H      3.420975   -0.729981    0.406240
  H     -0.141913   -1.062136    1.925706

 Total Charge           Charge          ....    0
 Multiplicity           Mult            ....    1
 Number of Electrons    NEL             ....   70
 Basis Dimension        Dim             ....  339

ORBITAL ENERGIES
----------------

  NO   OCC          E(Eh)            E(eV)
   0   2.0000     -20.572197      -559.7979
   1   2.0000     -20.567380      -559.6669
   2   2.0000     -20.555494      -559.3434
   3   2.0000     -11.295551      -307.3676
   4   2.0000     -11.293492      -307.3115
   5   2.0000     -11.279285      -306.9249
   6   2.0000     -11.278714      -306.9094
   7   2.0000     -11.230144      -305.5877
   8   2.0000     -11.219456      -305.2969
   9   2.0000      -1.401230       -38.1294
  10   2.0000      -1.374200       -37.3939
  11   2.0000      -1.367579       -37.2137
  12   2.0000      -1.100788       -29.9540
  13   2.0000      -0.998666       -27.1751
  14   2.0000      -0.945018       -25.7152
  15   2.0000      -0.902399       -24.5555
  16   2.0000      -0.811619       -22.0853
  17   2.0000      -0.747806       -20.3488
  18   2.0000      -0.717035       -19.5115
  19   2.0000      -0.696296       -18.9472
  20   2.0000      -0.671608       -18.2754
  21   2.0000      -0.635354       -17.2889
  22   2.0000      -0.625609       -17.0237
  23   2.0000      -0.596258       -16.2250
  24   2.0000      -0.586159       -15.9502
  25   2.0000      -0.567015       -15.4293
  26   2.0000      -0.555803       -15.1242
  27   2.0000      -0.546460       -14.8699
  28   2.0000      -0.536122       -14.5886
  29   2.0000      -0.513074       -13.9614
  30   2.0000      -0.481568       -13.1041
  31   2.0000      -0.473452       -12.8833
  32   2.0000      -0.441780       -12.0214
  33   2.0000      -0.405052       -11.0220
  34   2.0000      -0.392245       -10.6735
  35   0.0000       0.125777         3.4226
  36   0.0000       0.144347         3.9279
  37   0.0000       0.163832         4.4581
  38   0.0000       0.178255         4.8506
  39   0.0000       0.184363         5.0168

MULLIKEN ATOMIC CHARGES
-----------------------
   0 C :   -0.436046
   1 C :    0.229442
   2 O :   -0.475159
   3 C :   -0.307710
   4 C :    0.138758
   5 O :   -0.443370
   6 C :   -0.043552
   7 O :   -0.350302
   8 C :    0.049704
   9 H :    0.148010
  10 H :    0.143493
  11 H :    0.115397
  12 H :    0.315774
  13 H :    0.137237
  14 H :    0.127387
  15 H :    0.327371
  16 H :    0.108899
  17 H :    0.101856
  18 H :    0.112812
Sum of atomic charges:    0.0000000

LOEWDIN ATOMIC CHARGES
----------------------
   0 C :   -0.281584
   1 C :   -0.369373
   2 O :    0.007958
   3 C :   -0.162260
   4 C :   -0.343407
   5 O :    0.030463
   6 C :   -0.224941
   7 O :    0.141777
   8 C :   -0.201771
   9 H :    0.135203
  10 H :    0.129028
  11 H :    0.125032
  12 H :    0.177216
  13 H :    0.142066
  14 H :    0.138065
  15 H :    0.184716
  16 H :    0.127024
  17 H :    0.118676
  18 H :    0.126111

  Mayer bond orders larger than 0.1
B(  0-C ,  1-C ) :   0.9090 B(  0-C ,  9-H ) :   0.9258 B(  0-C , 10-H ) :   0.9387
B(  0-C , 11-H ) :   0.9245 B(  1-C ,  2-O ) :   0.9531 B(  1-C ,  3-C ) :   0.8820
B(  1-C ,  8-C ) :   0.8687 B(  2-O , 12-H ) :   0.8406 B(  3-C ,  4-C ) :   0.9347
B(  3-C , 13-H ) :   0.9178 B(  3-C , 14-H ) :   0.9044 B(  4-C ,  5-O ) :   1.0659
B(  4-C ,  6-C ) :   0.9985 B(  4-C ,  8-C ) :   0.8644 B(  5-O , 15-H ) :   0.8339
B(  6-C ,  7-O ) :   0.9294 B(  6-C , 16-H ) :   0.9089 B(  6-C , 17-H ) :   0.9191
B(  7-O ,  8-C ) :   0.9203 B(  8-C , 18-H ) :   0.9121

MP2 TOTAL ENERGY:     -459.398209470 Eh
FINAL SINGLE POINT ENERGY      -459.398209470097

DIPOLE MOMENT
-------------
                                X             Y             Z
Electronic contribution:     -0.07053      -4.07365       1.96704
Nuclear contribution   :     -0.34393       4.28531      -2.24421
                        -----------------------------------------
Total Dipole Moment    :     -0.41446       0.21166      -0.27717
                        -----------------------------------------
Magnitude (a.u.)       :      0.54166
Magnitude (Debye)      :      1.37680

                             ****ORCA TERMINATED NORMALLY****
TOTAL RUN TIME: 0 days 0 hours 18 minutes 10 seconds 679 msec
