                         Program Version 3.0.3 - RELEASE   -
|  1> ! RI-MP2 RIJK def2-TZVP def2-TZVP/C def2-TZVP/JK TIGHTSCF
|  2> % maxcore 2000
|  3> % mp2 density relaxed end
|  4> *xyz 0 1
|  5>  C        0.2780772128     1.6069934555    -0.0901347645
|  6>  O        1.5512123730     1.3926821491     0.5709288865
|  7>  C        1.2821094029    -0.0104652385     0.7436369999
|  8>  C       -0.0331922408     0.1006242078    -0.0700688900
|  9>  N        0.5880736176    -0.7304194192    -1.1575125983
| 10>  C        0.9989933140    -0.1256640275    -2.3588315178
| 11>  N        2.2456730995     0.0388043302    -2.5588347776
| 12>  C        2.9589308361    -0.3879864554    -1.3330198113
| 13>  C        1.8598146106    -0.9062458940    -0.3784885483
| 14>  H       -0.3983174710     2.1998480245     0.5387979432
| 15>  H        0.3911024476     2.0908365041    -1.0652694416
| 16>  H        1.3705542787    -0.3363801686     1.7822419880
| 17>  H       -1.0199568404    -0.2341227290     0.2464924221
| 18>  H        0.2453827569     0.1537301489    -3.0909813042
| 19>  H        3.6825857662    -1.1691700350    -1.5823624217
| 20>  H        3.5101967766     0.4664029570    -0.9275747845
| 21>  H        2.0080395996    -1.9436059701    -0.0638406199
| 22> *
| 23>
| 24>                          ****END OF INPUT****

CARTESIAN COORDINATES (ANGSTROEM)
---------------------------------
  C      0.278077    1.606993   -0.090135
  O      1.551212    1.392682    0.570929
  C      1.282109   -0.010465    0.743637
  C     -0.033192    0.100624   -0.070069
  N      0.588074   -0.730419   -1.157513
  C      0.998993   -0.125664   -2.358832
  N      2.245673    0.038804   -2.558835
  C      2.958931   -0.387986   -1.333020
  C      1.859815   -0.906246   -0.378489
  H     -0.398317    2.199848    0.538798
  H      0.391102    2.090837   -1.065269
  H      1.370554   -0.336380    1.782242
  H     -1.019957   -0.234123    0.246492
  H      0.245383    0.153730   -3.090981
  H      3.682586   -1.169170   -1.582362
  H      3.510197    0.466403   -0.927575
  H      2.008040   -1.943606   -0.063841

 Total Charge           Charge          ....    0
 Multiplicity           Mult            ....    1
 Number of Electrons    NEL             ....   66
 Basis Dimension        Dim             ....  327

ORBITAL ENERGIES
----------------

  NO   OCC          E(Eh)            E(eV)
   0   2.0000     -20.563772      -559.5687
   1   2.0000     -15.572732      -423.7556
   2   2.0000     -15.547580      -423.0712
   3   2.0000     -11.299889      -307.4856
   4   2.0000     -11.298834      -307.4569
   5   2.0000     -11.294689      -307.3441
   6   2.0000     -11.283644      -307.0436
   7   2.0000     -11.268888      -306.6420
   8   2.0000     -11.252032      -306.1834
   9   2.0000      -1.402103       -38.1532
  10   2.0000      -1.302691       -35.4480
  11   2.0000      -1.178895       -32.0794
  12   2.0000      -1.026570       -27.9344
  13   2.0000      -0.990603       -26.9557
  14   2.0000      -0.933499       -25.4018
  15   2.0000      -0.843964       -22.9654
  16   2.0000      -0.791638       -21.5416
  17   2.0000      -0.736279       -20.0352
  18   2.0000      -0.722285       -19.6544
  19   2.0000      -0.697283       -18.9740
  20   2.0000      -0.659209       -17.9380
  21   2.0000      -0.616732       -16.7821
  22   2.0000      -0.593626       -16.1534
  23   2.0000      -0.577445       -15.7131
  24   2.0000      -0.556593       -15.1457
  25   2.0000      -0.543457       -14.7882
  26   2.0000      -0.528618       -14.3844
  27   2.0000      -0.508511       -13.8373
  28   2.0000      -0.468084       -12.7372
  29   2.0000      -0.444183       -12.0868
  30   2.0000      -0.432794       -11.7769
  31   2.0000      -0.410166       -11.1612
  32   2.0000      -0.352527        -9.5928
  33   0.0000       0.143091         3.8937
  34   0.0000       0.146602         3.9892
  35   0.0000       0.160841         4.3767
  36   0.0000       0.163679         4.4539
  37   0.0000       0.174177         4.7396

MULLIKEN ATOMIC CHARGES
-----------------------
   0 C :   -0.014317
   1 O :   -0.341445
   2 C :    0.104284
   3 C :   -0.159690
   4 N :   -0.128484
   5 C :   -0.022312
   6 N :   -0.233460
   7 C :   -0.140539
   8 C :   -0.067697
   9 H :    0.108366
  10 H :    0.121384
  11 H :    0.124174
  12 H :    0.133184
  13 H :    0.140828
  14 H :    0.125738
  15 H :    0.133423
  16 H :    0.116561
Sum of atomic charges:    0.0000000

LOEWDIN ATOMIC CHARGES
----------------------
   0 C :   -0.247818
   1 O :    0.142314
   2 C :   -0.225276
   3 C :   -0.196731
   4 N :    0.152128
   5 C :   -0.308695
   6 N :    0.081020
   7 C :   -0.254386
   8 C :   -0.199255
   9 H :    0.123639
  10 H :    0.124718
  11 H :    0.128580
  12 H :    0.133506
  13 H :    0.133987
  14 H :    0.131784
  15 H :    0.138639
  16 H :    0.141845

  Mayer bond orders larger than 0.1
B(  0-C ,  1-O ) :   0.9238 B(  0-C ,  3-C ) :   0.9979 B(  0-C ,  9-H ) :   0.9136
B(  0-C , 10-H ) :   0.9011 B(  1-O ,  2-C ) :   0.9410 B(  2-C ,  3-C ) :   0.9124
B(  2-C ,  8-C ) :   0.9102 B(  2-C , 11-H ) :   0.9168 B(  3-C ,  4-N ) :   0.9080
B(  3-C , 12-H ) :   0.9148 B(  4-N ,  5-C ) :   1.0224 B(  4-N ,  8-C ) :   0.9016
B(  5-C ,  6-N ) :   1.8317 B(  5-C , 13-H ) :   0.9245 B(  6-N ,  7-C ) :   0.9267
B(  7-C ,  8-C ) :   0.9621 B(  7-C , 14-H ) :   0.9274 B(  7-C , 15-H ) :   0.9062
B(  8-C , 16-H ) :   0.9024

MP2 TOTAL ENERGY:     -417.251882571 Eh
FINAL SINGLE POINT ENERGY      -417.251882570568

DIPOLE MOMENT
-------------
                                X             Y             Z
Electronic contribution:     -0.12025      -0.37324      -0.73638
Nuclear contribution   :     -0.64106       0.12732       1.48192
                        -----------------------------------------
Total Dipole Moment    :     -0.76131      -0.24592       0.74554
                        -----------------------------------------
Magnitude (a.u.)       :      1.09357
Magnitude (Debye)      :      2.77964

                             ****ORCA TERMINATED NORMALLY****
TOTAL RUN TIME: 0 days 0 hours 18 minutes 20 seconds 331 msec
