                         Program Version 3.0.3 - RELEASE   -
|  1> ! RI-MP2 RIJK def2-TZVP def2-TZVP/C def2-TZVP/JK TIGHTSCF
|  2> % maxcore 2000
|  3> % mp2 density relaxed end
|  4> *xyz 0 1
|  5>  C        0.3018543765     1.2316030356     0.8739266051
|  6>  C        0.1254117850    -0.2768702685     0.8205238620
|  7>  O       -1.0797223017    -0.5589576058     0.1307031168
|  8>  C       -1.3729594885    -1.9436182423    -0.0495739496
|  9>  C       -2.8164687293    -2.1965308232     0.4029848497
| 10>  C       -3.0497095794    -1.8976914598     1.8849088813
| 11>  C       -1.1661235477    -2.3560159241    -1.4999863574
| 12>  C       -1.6022542791    -1.4491435028    -2.6219732107
| 13>  C       -0.1340469439    -1.7030839258    -2.3817427257
| 14>  H        1.2196079513     1.4896373602     1.4110445236
| 15>  H        0.3610171676     1.6486294651    -0.1356483032
| 16>  H       -0.5440509876     1.6991267793     1.3861547188
| 17>  H        0.9830559006    -0.7456017086     0.3132686653
| 18>  H        0.0851568556    -0.6948081561     1.8393554669
| 19>  H       -0.6989952634    -2.5390404191     0.5872166383
| 20>  H       -3.4777513562    -1.5776020057    -0.2147039179
| 21>  H       -3.0695043809    -3.2411501617     0.1825897893
| 22>  H       -4.0943930001    -2.0660459736     2.1636064774
| 23>  H       -2.4288479333    -2.5368211053     2.5235581651
| 24>  H       -2.8029568223    -0.8560855708     2.1081761961
| 25>  H       -1.3192813462    -3.4204150701    -1.6606677385
| 26>  H       -2.0736254399    -1.8890112226    -3.4937324493
| 27>  H       -1.9769993671    -0.4705862377    -2.3441208915
| 28>  H        0.4432664873    -0.8830903176    -1.9717824729
| 29>  H        0.4079224226    -2.3285718988    -3.0827324691
| 30> *
| 31>
| 32>                          ****END OF INPUT****

CARTESIAN COORDINATES (ANGSTROEM)
---------------------------------
  C      0.301854    1.231603    0.873927
  C      0.125412   -0.276870    0.820524
  O     -1.079722   -0.558958    0.130703
  C     -1.372959   -1.943618   -0.049574
  C     -2.816469   -2.196531    0.402985
  C     -3.049710   -1.897691    1.884909
  C     -1.166124   -2.356016   -1.499986
  C     -1.602254   -1.449144   -2.621973
  C     -0.134047   -1.703084   -2.381743
  H      1.219608    1.489637    1.411045
  H      0.361017    1.648629   -0.135648
  H     -0.544051    1.699127    1.386155
  H      0.983056   -0.745602    0.313269
  H      0.085157   -0.694808    1.839355
  H     -0.698995   -2.539040    0.587217
  H     -3.477751   -1.577602   -0.214704
  H     -3.069504   -3.241150    0.182590
  H     -4.094393   -2.066046    2.163606
  H     -2.428848   -2.536821    2.523558
  H     -2.802957   -0.856086    2.108176
  H     -1.319281   -3.420415   -1.660668
  H     -2.073625   -1.889011   -3.493732
  H     -1.976999   -0.470586   -2.344121
  H      0.443266   -0.883090   -1.971782
  H      0.407922   -2.328572   -3.082732

 Total Charge           Charge          ....    0
 Multiplicity           Mult            ....    1
 Number of Electrons    NEL             ....   72
 Basis Dimension        Dim             ....  375

ORBITAL ENERGIES
----------------

  NO   OCC          E(Eh)            E(eV)
   0   2.0000     -20.545424      -559.0694
   1   2.0000     -11.275166      -306.8129
   2   2.0000     -11.272767      -306.7476
   3   2.0000     -11.223619      -305.4102
   4   2.0000     -11.216933      -305.2283
   5   2.0000     -11.214362      -305.1583
   6   2.0000     -11.213684      -305.1398
   7   2.0000     -11.213123      -305.1246
   8   2.0000     -11.207362      -304.9678
   9   2.0000      -1.367651       -37.2157
  10   2.0000      -1.134814       -30.8799
  11   2.0000      -1.052837       -28.6492
  12   2.0000      -1.004872       -27.3440
  13   2.0000      -0.926957       -25.2238
  14   2.0000      -0.836166       -22.7532
  15   2.0000      -0.820746       -22.3336
  16   2.0000      -0.808720       -22.0064
  17   2.0000      -0.762088       -20.7375
  18   2.0000      -0.686425       -18.6786
  19   2.0000      -0.665471       -18.1084
  20   2.0000      -0.632821       -17.2199
  21   2.0000      -0.623050       -16.9540
  22   2.0000      -0.595814       -16.2129
  23   2.0000      -0.583854       -15.8875
  24   2.0000      -0.550298       -14.9744
  25   2.0000      -0.533899       -14.5281
  26   2.0000      -0.525707       -14.3052
  27   2.0000      -0.521387       -14.1877
  28   2.0000      -0.505316       -13.7503
  29   2.0000      -0.490831       -13.3562
  30   2.0000      -0.485418       -13.2089
  31   2.0000      -0.471828       -12.8391
  32   2.0000      -0.466399       -12.6914
  33   2.0000      -0.424874       -11.5614
  34   2.0000      -0.402533       -10.9535
  35   2.0000      -0.393581       -10.7099
  36   0.0000       0.137568         3.7434
  37   0.0000       0.148279         4.0349
  38   0.0000       0.159520         4.3408
  39   0.0000       0.163760         4.4561
  40   0.0000       0.187646         5.1061

MULLIKEN ATOMIC CHARGES
-----------------------
   0 C :   -0.372858
   1 C :   -0.074508
   2 O :   -0.331120
   3 C :    0.076613
   4 C :   -0.178758
   5 C :   -0.405220
   6 C :   -0.080085
   7 C :   -0.277935
   8 C :   -0.271687
   9 H :    0.122871
  10 H :    0.129618
  11 H :    0.130426
  12 H :    0.106076
  13 H :    0.103956
  14 H :    0.076581
  15 H :    0.113507
  16 H :    0.103022
  17 H :    0.134346
  18 H :    0.115440
  19 H :    0.139307
  20 H :    0.114191
  21 H :    0.127691
  22 H :    0.140119
  23 H :    0.132198
  24 H :    0.126209
Sum of atomic charges:   -0.0000000

LOEWDIN ATOMIC CHARGES
----------------------
   0 C :   -0.317694
   1 C :   -0.360661
   2 O :    0.183661
   3 C :   -0.306224
   4 C :   -0.269248
   5 C :   -0.321132
   6 C :   -0.217827
   7 C :   -0.228679
   8 C :   -0.229769
   9 H :    0.124110
  10 H :    0.123057
  11 H :    0.123668
  12 H :    0.116530
  13 H :    0.116978
  14 H :    0.143437
  15 H :    0.142071
  16 H :    0.139144
  17 H :    0.120677
  18 H :    0.118538
  19 H :    0.123805
  20 H :    0.149399
  21 H :    0.127837
  22 H :    0.136713
  23 H :    0.132948
  24 H :    0.128660

  Mayer bond orders larger than 0.1
B(  0-C ,  1-C ) :   0.9511 B(  0-C ,  9-H ) :   0.9335 B(  0-C , 10-H ) :   0.9363
B(  0-C , 11-H ) :   0.9360 B(  1-C ,  2-O ) :   0.9044 B(  1-C , 12-H ) :   0.9279
B(  1-C , 13-H ) :   0.9220 B(  2-O ,  3-C ) :   0.8384 B(  3-C ,  4-C ) :   0.9268
B(  3-C ,  6-C ) :   0.9438 B(  3-C , 14-H ) :   0.9278 B(  4-C ,  5-C ) :   0.9091
B(  4-C , 15-H ) :   0.9287 B(  4-C , 16-H ) :   0.9310 B(  5-C , 17-H ) :   0.9415
B(  5-C , 18-H ) :   0.9378 B(  5-C , 19-H ) :   0.9407 B(  6-C ,  7-C ) :   0.8738
B(  6-C ,  8-C ) :   0.8864 B(  6-C , 20-H ) :   0.9248 B(  7-C ,  8-C ) :   0.9059
B(  7-C , 21-H ) :   0.9301 B(  7-C , 22-H ) :   0.9244 B(  8-C , 23-H ) :   0.9280
B(  8-C , 24-H ) :   0.9310

MP2 TOTAL ENERGY:     -388.797336540 Eh
FINAL SINGLE POINT ENERGY      -388.797336539752

DIPOLE MOMENT
-------------
                                X             Y             Z
Electronic contribution:      0.14541      -1.12361      -2.87445
Nuclear contribution   :      0.11233       0.84963       3.05714
                        -----------------------------------------
Total Dipole Moment    :      0.25774      -0.27398       0.18269
                        -----------------------------------------
Magnitude (a.u.)       :      0.41817
Magnitude (Debye)      :      1.06291

                             ****ORCA TERMINATED NORMALLY****
TOTAL RUN TIME: 0 days 0 hours 20 minutes 4 seconds 28 msec
