                         Program Version 3.0.3 - RELEASE   -
|  1> ! RI-MP2 RIJK def2-TZVP def2-TZVP/C def2-TZVP/JK TIGHTSCF
|  2> % maxcore 2000
|  3> % mp2 density relaxed end
|  4> *xyz 0 1
|  5>  C        0.1837074292     1.5260592438     0.0463544045
|  6>  C        0.0055620291     0.0431122071     0.0380602665
|  7>  C       -1.0919821690    -0.7258269213    -0.0178375963
|  8>  C       -2.5526220102    -0.4176749236    -0.0929963038
|  9>  O       -2.7830494911     0.9813548539    -0.1056716335
| 10>  C       -0.6783310831    -2.1389892040     0.0042306391
| 11>  N       -1.4544902923    -3.1408001124    -0.0350205291
| 12>  O        0.6888983778    -2.1982713385     0.0744546901
| 13>  C        1.2054581902    -0.8682059193     0.1001949163
| 14>  H        0.8039265696     1.8431582117    -0.8019831439
| 15>  H       -0.7734453004     2.0396903279    -0.0030799389
| 16>  H        0.7138071756     1.8441507689     0.9533879328
| 17>  H       -2.9595172297    -0.9050595763    -0.9929983962
| 18>  H       -3.0495566912    -0.9040014573     0.7612008936
| 19>  H       -3.7324983247     1.1216792669    -0.1543046336
| 20>  H       -0.9238072519    -4.0120901484    -0.0072583253
| 21>  H        1.8834241442    -0.7276601331    -0.7531707299
| 22>  H        1.7924739379    -0.7266217961     1.0183399076
| 23> *
| 24>
| 25>                          ****END OF INPUT****

CARTESIAN COORDINATES (ANGSTROEM)
---------------------------------
  C      0.183707    1.526059    0.046354
  C      0.005562    0.043112    0.038060
  C     -1.091982   -0.725827   -0.017838
  C     -2.552622   -0.417675   -0.092996
  O     -2.783049    0.981355   -0.105672
  C     -0.678331   -2.138989    0.004231
  N     -1.454490   -3.140800   -0.035021
  O      0.688898   -2.198271    0.074455
  C      1.205458   -0.868206    0.100195
  H      0.803927    1.843158   -0.801983
  H     -0.773445    2.039690   -0.003080
  H      0.713807    1.844151    0.953388
  H     -2.959517   -0.905060   -0.992998
  H     -3.049557   -0.904001    0.761201
  H     -3.732498    1.121679   -0.154305
  H     -0.923807   -4.012090   -0.007258
  H      1.883424   -0.727660   -0.753171
  H      1.792474   -0.726622    1.018340

 Total Charge           Charge          ....    0
 Multiplicity           Mult            ....    1
 Number of Electrons    NEL             ....   68
 Basis Dimension        Dim             ....  333

ORBITAL ENERGIES
----------------

  NO   OCC          E(Eh)            E(eV)
   0   2.0000     -20.590839      -560.3052
   1   2.0000     -20.566514      -559.6433
   2   2.0000     -15.524883      -422.4535
   3   2.0000     -11.332733      -308.3793
   4   2.0000     -11.298394      -307.4449
   5   2.0000     -11.287901      -307.1594
   6   2.0000     -11.261641      -306.4448
   7   2.0000     -11.242316      -305.9190
   8   2.0000     -11.231342      -305.6203
   9   2.0000      -1.430190       -38.9175
  10   2.0000      -1.372250       -37.3408
  11   2.0000      -1.189860       -32.3777
  12   2.0000      -1.117997       -30.4222
  13   2.0000      -1.007506       -27.4156
  14   2.0000      -0.949064       -25.8253
  15   2.0000      -0.915521       -24.9126
  16   2.0000      -0.789844       -21.4928
  17   2.0000      -0.741831       -20.1862
  18   2.0000      -0.704139       -19.1606
  19   2.0000      -0.679012       -18.4769
  20   2.0000      -0.672699       -18.3051
  21   2.0000      -0.640872       -17.4390
  22   2.0000      -0.636169       -17.3110
  23   2.0000      -0.591536       -16.0965
  24   2.0000      -0.578174       -15.7329
  25   2.0000      -0.576073       -15.6757
  26   2.0000      -0.538145       -14.6437
  27   2.0000      -0.527599       -14.3567
  28   2.0000      -0.522418       -14.2157
  29   2.0000      -0.483637       -13.1604
  30   2.0000      -0.470735       -12.8094
  31   2.0000      -0.434173       -11.8144
  32   2.0000      -0.413158       -11.2426
  33   2.0000      -0.344708        -9.3800
  34   0.0000       0.118907         3.2356
  35   0.0000       0.128320         3.4918
  36   0.0000       0.141200         3.8422
  37   0.0000       0.167623         4.5613
  38   0.0000       0.182937         4.9780

MULLIKEN ATOMIC CHARGES
-----------------------
   0 C :   -0.416516
   1 C :   -0.030412
   2 C :    0.043373
   3 C :   -0.061720
   4 O :   -0.474212
   5 C :    0.111083
   6 N :   -0.408590
   7 O :   -0.269742
   8 C :    0.013590
   9 H :    0.137636
  10 H :    0.182247
  11 H :    0.137634
  12 H :    0.125411
  13 H :    0.125412
  14 H :    0.321716
  15 H :    0.221022
  16 H :    0.121034
  17 H :    0.121033
Sum of atomic charges:    0.0000000

LOEWDIN ATOMIC CHARGES
----------------------
   0 C :   -0.267570
   1 C :   -0.140401
   2 C :   -0.119518
   3 C :   -0.295270
   4 O :   -0.042201
   5 C :   -0.370803
   6 N :   -0.067099
   7 O :    0.240173
   8 C :   -0.232285
   9 H :    0.134402
  10 H :    0.139889
  11 H :    0.134402
  12 H :    0.136012
  13 H :    0.136011
  14 H :    0.176083
  15 H :    0.167030
  16 H :    0.135573
  17 H :    0.135573

  Mayer bond orders larger than 0.1
B(  0-C ,  1-C ) :   0.8639 B(  0-C ,  9-H ) :   0.9293 B(  0-C , 10-H ) :   0.9393
B(  0-C , 11-H ) :   0.9293 B(  1-C ,  2-C ) :   1.6640 B(  1-C ,  8-C ) :   1.0073
B(  2-C ,  3-C ) :   0.9161 B(  2-C ,  4-O ) :  -0.1024 B(  2-C ,  5-C ) :   0.9547
B(  2-C ,  6-N ) :  -0.1145 B(  3-C ,  4-O ) :   1.0348 B(  3-C , 12-H ) :   0.9326
B(  3-C , 13-H ) :   0.9326 B(  4-O , 14-H ) :   0.8461 B(  5-C ,  6-N ) :   2.0271
B(  5-C ,  7-O ) :   1.0898 B(  6-N , 15-H ) :   0.8571 B(  7-O ,  8-C ) :   0.8969
B(  8-C , 16-H ) :   0.9059 B(  8-C , 17-H ) :   0.9059

MP2 TOTAL ENERGY:     -438.385600680 Eh
FINAL SINGLE POINT ENERGY      -438.385600680178

DIPOLE MOMENT
-------------
                                X             Y             Z
Electronic contribution:     -0.28315      -5.04618      -0.01170
Nuclear contribution   :      0.46000       5.89282       0.02042
                        -----------------------------------------
Total Dipole Moment    :      0.17685       0.84664       0.00872
                        -----------------------------------------
Magnitude (a.u.)       :      0.86496
Magnitude (Debye)      :      2.19855

                             ****ORCA TERMINATED NORMALLY****
TOTAL RUN TIME: 0 days 0 hours 15 minutes 41 seconds 863 msec
