                         Program Version 3.0.3 - RELEASE   -
|  1> ! RI-MP2 RIJK def2-TZVP def2-TZVP/C def2-TZVP/JK TIGHTSCF
|  2> % maxcore 2000
|  3> % mp2 density relaxed end
|  4> *xyz 0 1
|  5>  C       -0.2408519133     1.5565952473    -0.0551624823
|  6>  C        0.0633065825     0.0506028230     0.0403959412
|  7>  C        0.7748798177    -0.4749586987    -1.1669473843
|  8>  C        2.0329448108    -0.9009525802    -1.3089971186
|  9>  C        2.2798937957    -1.3358809029    -2.7256335420
| 10>  C        2.6905775863    -2.7970993892    -2.8921891025
| 11>  O        1.0173343444    -1.1061853085    -3.3805838103
| 12>  C        0.1136708184    -0.6014877558    -2.4833174084
| 13>  N       -1.0898247382    -0.3035115217    -2.7483090436
| 14>  H        0.6822528261     2.1388335287    -0.1408480005
| 15>  H       -0.8629572824     1.7619009411    -0.9290033191
| 16>  H       -0.7744046800     1.8950282664     0.8380350321
| 17>  H        0.6632478121    -0.1566611436     0.9330212244
| 18>  H       -0.8826727172    -0.4924166991     0.1481254553
| 19>  H        2.7948642461    -0.9516112044    -0.5411472202
| 20>  H        3.0245148082    -0.6915254780    -3.2158654678
| 21>  H        1.9577620357    -3.4564049489    -2.4189425645
| 22>  H        2.7612537965    -3.0521065990    -3.9528524360
| 23>  H        3.6675002033    -2.9696310494    -2.4294947357
| 24>  H       -1.3015089529    -0.4946359969    -3.7285379673
| 25> *
| 26>
| 27>                          ****END OF INPUT****

CARTESIAN COORDINATES (ANGSTROEM)
---------------------------------
  C     -0.240852    1.556595   -0.055162
  C      0.063307    0.050603    0.040396
  C      0.774880   -0.474959   -1.166947
  C      2.032945   -0.900953   -1.308997
  C      2.279894   -1.335881   -2.725634
  C      2.690578   -2.797099   -2.892189
  O      1.017334   -1.106185   -3.380584
  C      0.113671   -0.601488   -2.483317
  N     -1.089825   -0.303512   -2.748309
  H      0.682253    2.138834   -0.140848
  H     -0.862957    1.761901   -0.929003
  H     -0.774405    1.895028    0.838035
  H      0.663248   -0.156661    0.933021
  H     -0.882673   -0.492417    0.148125
  H      2.794864   -0.951611   -0.541147
  H      3.024515   -0.691525   -3.215865
  H      1.957762   -3.456405   -2.418943
  H      2.761254   -3.052107   -3.952852
  H      3.667500   -2.969631   -2.429495
  H     -1.301509   -0.494636   -3.728538

 Total Charge           Charge          ....    0
 Multiplicity           Mult            ....    1
 Number of Electrons    NEL             ....   68
 Basis Dimension        Dim             ....  345

ORBITAL ENERGIES
----------------

  NO   OCC          E(Eh)            E(eV)
   0   2.0000     -20.588494      -560.2414
   1   2.0000     -15.526288      -422.4918
   2   2.0000     -11.332419      -308.3708
   3   2.0000     -11.305234      -307.6311
   4   2.0000     -11.250764      -306.1489
   5   2.0000     -11.248800      -306.0954
   6   2.0000     -11.231985      -305.6378
   7   2.0000     -11.231408      -305.6222
   8   2.0000     -11.211111      -305.0698
   9   2.0000      -1.427743       -38.8509
  10   2.0000      -1.190513       -32.3955
  11   2.0000      -1.114918       -30.3385
  12   2.0000      -1.043683       -28.4001
  13   2.0000      -1.001634       -27.2558
  14   2.0000      -0.893519       -24.3139
  15   2.0000      -0.851640       -23.1743
  16   2.0000      -0.808398       -21.9976
  17   2.0000      -0.740778       -20.1576
  18   2.0000      -0.695021       -18.9125
  19   2.0000      -0.675437       -18.3796
  20   2.0000      -0.622792       -16.9470
  21   2.0000      -0.618615       -16.8334
  22   2.0000      -0.596562       -16.2333
  23   2.0000      -0.574325       -15.6282
  24   2.0000      -0.559046       -15.2124
  25   2.0000      -0.541902       -14.7459
  26   2.0000      -0.528552       -14.3826
  27   2.0000      -0.519702       -14.1418
  28   2.0000      -0.506582       -13.7848
  29   2.0000      -0.491153       -13.3650
  30   2.0000      -0.481726       -13.1084
  31   2.0000      -0.432205       -11.7609
  32   2.0000      -0.419877       -11.4254
  33   2.0000      -0.351922        -9.5763
  34   0.0000       0.108004         2.9389
  35   0.0000       0.138113         3.7583
  36   0.0000       0.154364         4.2005
  37   0.0000       0.169202         4.6042
  38   0.0000       0.175001         4.7620

MULLIKEN ATOMIC CHARGES
-----------------------
   0 C :   -0.407482
   1 C :   -0.192129
   2 C :    0.075208
   3 C :   -0.241319
   4 C :    0.169803
   5 C :   -0.388851
   6 O :   -0.268825
   7 C :    0.123312
   8 N :   -0.406496
   9 H :    0.119275
  10 H :    0.161736
  11 H :    0.128777
  12 H :    0.117510
  13 H :    0.129734
  14 H :    0.140404
  15 H :    0.111122
  16 H :    0.137082
  17 H :    0.143812
  18 H :    0.126840
  19 H :    0.220489
Sum of atomic charges:   -0.0000000

LOEWDIN ATOMIC CHARGES
----------------------
   0 C :   -0.304378
   1 C :   -0.241259
   2 C :   -0.131340
   3 C :   -0.093400
   4 C :   -0.290649
   5 C :   -0.283635
   6 O :    0.258542
   7 C :   -0.366710
   8 N :   -0.061929
   9 H :    0.119480
  10 H :    0.129701
  11 H :    0.120812
  12 H :    0.141943
  13 H :    0.153862
  14 H :    0.145628
  15 H :    0.149721
  16 H :    0.129430
  17 H :    0.128890
  18 H :    0.128441
  19 H :    0.166851

  Mayer bond orders larger than 0.1
B(  0-C ,  1-C ) :   0.9091 B(  0-C ,  9-H ) :   0.9362 B(  0-C , 10-H ) :   0.9331
B(  0-C , 11-H ) :   0.9355 B(  1-C ,  2-C ) :   0.9003 B(  1-C , 12-H ) :   0.9435
B(  1-C , 13-H ) :   0.9205 B(  2-C ,  3-C ) :   1.7094 B(  2-C ,  7-C ) :   0.9535
B(  3-C ,  4-C ) :   0.9738 B(  3-C , 14-H ) :   0.9126 B(  4-C ,  5-C ) :   0.9030
B(  4-C ,  6-O ) :   0.8744 B(  4-C , 15-H ) :   0.9068 B(  5-C , 16-H ) :   0.9301
B(  5-C , 17-H ) :   0.9332 B(  5-C , 18-H ) :   0.9294 B(  6-O ,  7-C ) :   1.0971
B(  7-C ,  8-N ) :   1.9863 B(  8-N , 19-H ) :   0.8552

MP2 TOTAL ENERGY:     -402.489731117 Eh
FINAL SINGLE POINT ENERGY      -402.489731117405

DIPOLE MOMENT
-------------
                                X             Y             Z
Electronic contribution:     -1.17669      -1.05719      -4.58797
Nuclear contribution   :      2.29908       0.73270       4.89469
                        -----------------------------------------
Total Dipole Moment    :      1.12239      -0.32449       0.30672
                        -----------------------------------------
Magnitude (a.u.)       :      1.20794
Magnitude (Debye)      :      3.07035

                             ****ORCA TERMINATED NORMALLY****
TOTAL RUN TIME: 0 days 0 hours 17 minutes 52 seconds 794 msec
