                         Program Version 3.0.3 - RELEASE   -
|  1> ! RI-MP2 RIJK def2-TZVP def2-TZVP/C def2-TZVP/JK TIGHTSCF
|  2> % maxcore 2000
|  3> % mp2 density relaxed end
|  4> *xyz 0 1
|  5>  C       -0.0402749853     1.4856614488     0.0361784401
|  6>  C        0.0171848783     0.0347296342     0.0208502297
|  7>  C        0.0565589090    -1.1705612769     0.0080469692
|  8>  C       -0.0044743884    -2.6148364804    -0.0051311003
|  9>  O       -1.0575371209    -3.2190251172     0.0103132228
| 10>  N        1.2416292328    -3.2593597091    -0.0371783991
| 11>  C        2.5020127071    -2.5186806201    -0.0554400510
| 12>  C        1.2786719901    -4.6546602089    -0.0521684609
| 13>  O        2.3019651494    -5.2949475914    -0.0797188878
| 14>  H        0.9612301909     1.9273864772     0.0482008801
| 15>  H       -0.5674235203     1.8597339072    -0.8480066046
| 16>  H       -0.5809746403     1.8411055487     0.9198125823
| 17>  H        2.6010829024    -1.8982312714     0.8383145531
| 18>  H        3.3010888688    -3.2587533881    -0.0793261820
| 19>  H        2.5646937169    -1.8801160299    -0.9396752164
| 20>  H        0.2709369497    -5.0877293229    -0.0360401753
| 21> *
| 22>
| 23>                          ****END OF INPUT****

CARTESIAN COORDINATES (ANGSTROEM)
---------------------------------
  C     -0.040275    1.485661    0.036178
  C      0.017185    0.034730    0.020850
  C      0.056559   -1.170561    0.008047
  C     -0.004474   -2.614836   -0.005131
  O     -1.057537   -3.219025    0.010313
  N      1.241629   -3.259360   -0.037178
  C      2.502013   -2.518681   -0.055440
  C      1.278672   -4.654660   -0.052168
  O      2.301965   -5.294948   -0.079719
  H      0.961230    1.927386    0.048201
  H     -0.567424    1.859734   -0.848007
  H     -0.580975    1.841106    0.919813
  H      2.601083   -1.898231    0.838315
  H      3.301089   -3.258753   -0.079326
  H      2.564694   -1.880116   -0.939675
  H      0.270937   -5.087729   -0.036040

 Total Charge           Charge          ....    0
 Multiplicity           Mult            ....    1
 Number of Electrons    NEL             ....   66
 Basis Dimension        Dim             ....  321

ORBITAL ENERGIES
----------------

  NO   OCC          E(Eh)            E(eV)
   0   2.0000     -20.555035      -559.3310
   1   2.0000     -20.549551      -559.1817
   2   2.0000     -15.624434      -425.1625
   3   2.0000     -11.402120      -310.2675
   4   2.0000     -11.363529      -309.2174
   5   2.0000     -11.280315      -306.9530
   6   2.0000     -11.276216      -306.8414
   7   2.0000     -11.274698      -306.8001
   8   2.0000     -11.252736      -306.2025
   9   2.0000      -1.425959       -38.8023
  10   2.0000      -1.401100       -38.1259
  11   2.0000      -1.267281       -34.4845
  12   2.0000      -1.098370       -29.8882
  13   2.0000      -1.011946       -27.5364
  14   2.0000      -0.982694       -26.7405
  15   2.0000      -0.924025       -25.1440
  16   2.0000      -0.793959       -21.6047
  17   2.0000      -0.765610       -20.8333
  18   2.0000      -0.694546       -18.8996
  19   2.0000      -0.666934       -18.1482
  20   2.0000      -0.664274       -18.0758
  21   2.0000      -0.644111       -17.5271
  22   2.0000      -0.621348       -16.9077
  23   2.0000      -0.616950       -16.7881
  24   2.0000      -0.614975       -16.7343
  25   2.0000      -0.573612       -15.6088
  26   2.0000      -0.572762       -15.5857
  27   2.0000      -0.546173       -14.8621
  28   2.0000      -0.490679       -13.3521
  29   2.0000      -0.441581       -12.0160
  30   2.0000      -0.415797       -11.3144
  31   2.0000      -0.415158       -11.2970
  32   2.0000      -0.412829       -11.2336
  33   0.0000       0.078179         2.1274
  34   0.0000       0.115667         3.1475
  35   0.0000       0.149378         4.0648
  36   0.0000       0.161217         4.3869
  37   0.0000       0.162053         4.4097

MULLIKEN ATOMIC CHARGES
-----------------------
   0 C :   -0.468726
   1 C :    0.063648
   2 C :    0.000038
   3 C :    0.163082
   4 O :   -0.309791
   5 N :   -0.095550
   6 C :   -0.341500
   7 C :    0.151187
   8 O :   -0.318632
   9 H :    0.168571
  10 H :    0.175010
  11 H :    0.175181
  12 H :    0.150409
  13 H :    0.188630
  14 H :    0.150421
  15 H :    0.148021
Sum of atomic charges:    0.0000000

LOEWDIN ATOMIC CHARGES
----------------------
   0 C :   -0.281247
   1 C :   -0.053458
   2 C :   -0.035414
   3 C :   -0.394693
   4 O :    0.138504
   5 N :    0.182773
   6 C :   -0.270477
   7 C :   -0.346516
   8 O :    0.098344
   9 H :    0.145106
  10 H :    0.149284
  11 H :    0.149244
  12 H :    0.124728
  13 H :    0.136944
  14 H :    0.124730
  15 H :    0.132147

  Mayer bond orders larger than 0.1
B(  0-C ,  1-C ) :   0.8680 B(  0-C ,  9-H ) :   0.9426 B(  0-C , 10-H ) :   0.9383
B(  0-C , 11-H ) :   0.9385 B(  1-C ,  2-C ) :   2.6824 B(  2-C ,  3-C ) :   0.9729
B(  3-C ,  4-O ) :   1.9520 B(  3-C ,  5-N ) :   1.1398 B(  5-N ,  6-C ) :   0.8464
B(  5-N ,  7-C ) :   1.0180 B(  6-C , 12-H ) :   0.9319 B(  6-C , 13-H ) :   0.9152
B(  6-C , 14-H ) :   0.9319 B(  7-C ,  8-O ) :   1.9221 B(  7-C , 15-H ) :   0.9193

MP2 TOTAL ENERGY:     -437.173272292 Eh
FINAL SINGLE POINT ENERGY      -437.173272292200

DIPOLE MOMENT
-------------
                                X             Y             Z
Electronic contribution:     -2.83586      -7.71540      -0.01776
Nuclear contribution   :      3.20985       9.68466       0.02945
                        -----------------------------------------
Total Dipole Moment    :      0.37399       1.96926       0.01169
                        -----------------------------------------
Magnitude (a.u.)       :      2.00449
Magnitude (Debye)      :      5.09500

                             ****ORCA TERMINATED NORMALLY****
TOTAL RUN TIME: 0 days 0 hours 13 minutes 46 seconds 159 msec
