                         Program Version 3.0.3 - RELEASE   -
|  1> ! RI-MP2 RIJK def2-TZVP def2-TZVP/C def2-TZVP/JK TIGHTSCF
|  2> % maxcore 2000
|  3> % mp2 density relaxed end
|  4> *xyz 0 1
|  5>  C        0.0311814114     1.5752034730     0.0436393328
|  6>  C        1.5514447791     1.5457832019    -0.1213206968
|  7>  N        2.0769594656     0.8124240412     1.0579265315
|  8>  C        1.5665302091     0.0608414305    -0.1155586208
|  9>  C        0.0257070386    -0.0058132046     0.0350306890
| 10>  C       -0.5646327439    -0.7685261036     1.2437823010
| 11>  C       -1.1993232246    -2.0617561749     0.6691911541
| 12>  C       -1.3176724256    -1.7568650383    -0.8052333454
| 13>  C       -0.6632806887    -0.6464768361    -1.1415583557
| 14>  H       -0.3275706115     2.0515030518     0.9600379773
| 15>  H       -0.4962290825     1.9912264092    -0.8185024782
| 16>  H        2.1773882855     2.2486198857    -0.6570542814
| 17>  H        3.0943951241     0.8178158733     0.9823990692
| 18>  H        2.2004465275    -0.6405524853    -0.6462778162
| 19>  H        0.1896579732    -0.9509508139     2.0117574400
| 20>  H       -1.3454862101    -0.1532448988     1.7029369095
| 21>  H       -0.5640329939    -2.9438988879     0.8316886037
| 22>  H       -2.1647213649    -2.2965960000     1.1321847127
| 23>  H       -1.8537146398    -2.3982474062    -1.4969638091
| 24>  H       -0.5778621685    -0.2453586471    -2.1465844870
| 25> *
| 26>
| 27>                          ****END OF INPUT****

CARTESIAN COORDINATES (ANGSTROEM)
---------------------------------
  C      0.031181    1.575203    0.043639
  C      1.551445    1.545783   -0.121321
  N      2.076959    0.812424    1.057927
  C      1.566530    0.060841   -0.115559
  C      0.025707   -0.005813    0.035031
  C     -0.564633   -0.768526    1.243782
  C     -1.199323   -2.061756    0.669191
  C     -1.317672   -1.756865   -0.805233
  C     -0.663281   -0.646477   -1.141558
  H     -0.327571    2.051503    0.960038
  H     -0.496229    1.991226   -0.818502
  H      2.177388    2.248620   -0.657054
  H      3.094395    0.817816    0.982399
  H      2.200447   -0.640552   -0.646278
  H      0.189658   -0.950951    2.011757
  H     -1.345486   -0.153245    1.702937
  H     -0.564033   -2.943899    0.831689
  H     -2.164721   -2.296596    1.132185
  H     -1.853715   -2.398247   -1.496964
  H     -0.577862   -0.245359   -2.146584

 Total Charge           Charge          ....    0
 Multiplicity           Mult            ....    1
 Number of Electrons    NEL             ....   66
 Basis Dimension        Dim             ....  345

ORBITAL ENERGIES
----------------

  NO   OCC          E(Eh)            E(eV)
   0   2.0000     -15.556043      -423.3015
   1   2.0000     -11.256307      -306.2997
   2   2.0000     -11.254022      -306.2375
   3   2.0000     -11.236610      -305.7637
   4   2.0000     -11.222681      -305.3847
   5   2.0000     -11.221546      -305.3538
   6   2.0000     -11.219279      -305.2921
   7   2.0000     -11.218130      -305.2608
   8   2.0000     -11.209849      -305.0355
   9   2.0000      -1.274693       -34.6862
  10   2.0000      -1.129408       -30.7328
  11   2.0000      -1.027414       -27.9574
  12   2.0000      -0.960417       -26.1343
  13   2.0000      -0.914671       -24.8895
  14   2.0000      -0.858279       -23.3550
  15   2.0000      -0.793822       -21.6010
  16   2.0000      -0.750580       -20.4243
  17   2.0000      -0.719474       -19.5779
  18   2.0000      -0.693597       -18.8737
  19   2.0000      -0.648331       -17.6420
  20   2.0000      -0.621510       -16.9122
  21   2.0000      -0.582672       -15.8553
  22   2.0000      -0.566489       -15.4149
  23   2.0000      -0.533756       -14.5243
  24   2.0000      -0.521703       -14.1962
  25   2.0000      -0.496836       -13.5196
  26   2.0000      -0.490285       -13.3413
  27   2.0000      -0.481628       -13.1058
  28   2.0000      -0.460932       -12.5426
  29   2.0000      -0.438499       -11.9322
  30   2.0000      -0.436803       -11.8860
  31   2.0000      -0.359749        -9.7893
  32   2.0000      -0.338399        -9.2083
  33   0.0000       0.141949         3.8626
  34   0.0000       0.151087         4.1113
  35   0.0000       0.155150         4.2219
  36   0.0000       0.167898         4.5687
  37   0.0000       0.179836         4.8936

MULLIKEN ATOMIC CHARGES
-----------------------
   0 C :   -0.223132
   1 C :   -0.106953
   2 N :   -0.375385
   3 C :   -0.170040
   4 C :    0.354809
   5 C :   -0.330733
   6 C :   -0.155762
   7 C :   -0.159532
   8 C :   -0.289268
   9 H :    0.107458
  10 H :    0.121695
  11 H :    0.134780
  12 H :    0.214175
  13 H :    0.130363
  14 H :    0.147960
  15 H :    0.116298
  16 H :    0.111601
  17 H :    0.119283
  18 H :    0.125068
  19 H :    0.127314
Sum of atomic charges:    0.0000000

LOEWDIN ATOMIC CHARGES
----------------------
   0 C :   -0.171594
   1 C :   -0.237506
   2 N :   -0.001986
   3 C :   -0.198292
   4 C :   -0.203205
   5 C :   -0.193709
   6 C :   -0.241062
   7 C :   -0.153459
   8 C :   -0.127564
   9 H :    0.132745
  10 H :    0.136256
  11 H :    0.126339
  12 H :    0.170511
  13 H :    0.129927
  14 H :    0.140929
  15 H :    0.141553
  16 H :    0.139143
  17 H :    0.135542
  18 H :    0.135151
  19 H :    0.140281

  Mayer bond orders larger than 0.1
B(  0-C ,  1-C ) :   0.9533 B(  0-C ,  4-C ) :   0.9426 B(  0-C ,  9-H ) :   0.8897
B(  0-C , 10-H ) :   0.9307 B(  1-C ,  2-N ) :   0.9468 B(  1-C ,  3-C ) :   0.9173
B(  1-C , 11-H ) :   0.9193 B(  2-N ,  3-C ) :   0.9763 B(  2-N , 12-H ) :   0.8709
B(  3-C ,  4-C ) :   0.8318 B(  3-C , 13-H ) :   0.9219 B(  4-C ,  5-C ) :   0.8706
B(  4-C ,  8-C ) :   0.8754 B(  5-C ,  6-C ) :   0.9520 B(  5-C , 14-H ) :   0.9367
B(  5-C , 15-H ) :   0.9338 B(  6-C ,  7-C ) :   0.9340 B(  6-C , 16-H ) :   0.9090
B(  6-C , 17-H ) :   0.9297 B(  7-C ,  8-C ) :   1.8019 B(  7-C , 18-H ) :   0.9281
B(  8-C , 19-H ) :   0.9142

MP2 TOTAL ENERGY:     -365.310431295 Eh
FINAL SINGLE POINT ENERGY      -365.310431294770

DIPOLE MOMENT
-------------
                                X             Y             Z
Electronic contribution:      1.87432       0.96898      -1.03739
Nuclear contribution   :     -1.60078      -1.00687       0.52127
                        -----------------------------------------
Total Dipole Moment    :      0.27354      -0.03789      -0.51612
                        -----------------------------------------
Magnitude (a.u.)       :      0.58535
Magnitude (Debye)      :      1.48784

                             ****ORCA TERMINATED NORMALLY****
TOTAL RUN TIME: 0 days 0 hours 20 minutes 46 seconds 232 msec
