                         Program Version 3.0.3 - RELEASE   -
|  1> ! RI-MP2 RIJK def2-TZVP def2-TZVP/C def2-TZVP/JK TIGHTSCF
|  2> % maxcore 2000
|  3> % mp2 density relaxed end
|  4> *xyz 0 1
|  5>  C       -0.3583895797     1.5449135435     0.1239581261
|  6>  C       -0.0142032430     0.0636298767     0.0478560961
|  7>  C        1.1511770450    -0.3964973743    -0.8723751903
|  8>  N        1.7692445961    -1.2111574688     0.2275075547
|  9>  C        2.8769463099    -0.4779274870     0.9223489881
| 10>  C        1.8783781608     0.1007469956     1.9299840272
| 11>  C        2.0369857964     0.4195949958     3.3489585997
| 12>  O        1.8459973167     1.4483256598     2.3658707700
| 13>  C        0.7488615054    -0.6350774917     1.2043884969
| 14>  H        0.5201541984     2.1562633990     0.3417206753
| 15>  H       -0.7864179170     1.8825936876    -0.8266444844
| 16>  H       -1.0973142636     1.7400916114     0.9083649244
| 17>  H       -0.9212384266    -0.5083541240    -0.1714745104
| 18>  H        0.8678243246    -1.0059421613    -1.7354480267
| 19>  H        1.7961408645     0.4187198587    -1.2238298560
| 20>  H        3.6222892245    -1.1581489846     1.3472035535
| 21>  H        3.3889980751     0.2647478171     0.3004390034
| 22>  H        1.2039818217     0.2713913429     4.0352651622
| 23>  H        3.0269842527     0.3877587042     3.8026258539
| 24>  H        0.1778163581    -1.3401789007     1.8164575564
| 25> *
| 26>
| 27>                          ****END OF INPUT****

CARTESIAN COORDINATES (ANGSTROEM)
---------------------------------
  C     -0.358390    1.544914    0.123958
  C     -0.014203    0.063630    0.047856
  C      1.151177   -0.396497   -0.872375
  N      1.769245   -1.211157    0.227508
  C      2.876946   -0.477927    0.922349
  C      1.878378    0.100747    1.929984
  C      2.036986    0.419595    3.348959
  O      1.845997    1.448326    2.365871
  C      0.748862   -0.635077    1.204388
  H      0.520154    2.156263    0.341721
  H     -0.786418    1.882594   -0.826644
  H     -1.097314    1.740092    0.908365
  H     -0.921238   -0.508354   -0.171475
  H      0.867824   -1.005942   -1.735448
  H      1.796141    0.418720   -1.223830
  H      3.622289   -1.158149    1.347204
  H      3.388998    0.264748    0.300439
  H      1.203982    0.271391    4.035265
  H      3.026984    0.387759    3.802626
  H      0.177816   -1.340179    1.816458

 Total Charge           Charge          ....    0
 Multiplicity           Mult            ....    1
 Number of Electrons    NEL             ....   68
 Basis Dimension        Dim             ....  345

ORBITAL ENERGIES
----------------

  NO   OCC          E(Eh)            E(eV)
   0   2.0000     -20.572965      -559.8188
   1   2.0000     -15.546390      -423.0388
   2   2.0000     -11.294439      -307.3373
   3   2.0000     -11.285931      -307.1058
   4   2.0000     -11.259387      -306.3835
   5   2.0000     -11.255272      -306.2715
   6   2.0000     -11.248660      -306.0916
   7   2.0000     -11.234265      -305.6999
   8   2.0000     -11.211661      -305.0848
   9   2.0000      -1.418149       -38.5898
  10   2.0000      -1.259716       -34.2786
  11   2.0000      -1.050528       -28.5863
  12   2.0000      -0.981828       -26.7169
  13   2.0000      -0.931279       -25.3414
  14   2.0000      -0.909880       -24.7591
  15   2.0000      -0.856233       -23.2993
  16   2.0000      -0.798157       -21.7190
  17   2.0000      -0.718469       -19.5505
  18   2.0000      -0.689138       -18.7524
  19   2.0000      -0.676157       -18.3992
  20   2.0000      -0.652024       -17.7425
  21   2.0000      -0.606296       -16.4982
  22   2.0000      -0.604858       -16.4590
  23   2.0000      -0.577812       -15.7231
  24   2.0000      -0.562019       -15.2933
  25   2.0000      -0.526216       -14.3191
  26   2.0000      -0.515358       -14.0236
  27   2.0000      -0.502535       -13.6747
  28   2.0000      -0.489388       -13.3169
  29   2.0000      -0.470930       -12.8147
  30   2.0000      -0.447612       -12.1801
  31   2.0000      -0.424840       -11.5605
  32   2.0000      -0.410782       -11.1780
  33   2.0000      -0.366345        -9.9687
  34   0.0000       0.136831         3.7234
  35   0.0000       0.160654         4.3716
  36   0.0000       0.163762         4.4562
  37   0.0000       0.165098         4.4925
  38   0.0000       0.187605         5.1050

MULLIKEN ATOMIC CHARGES
-----------------------
   0 C :   -0.423305
   1 C :   -0.039129
   2 C :   -0.189273
   3 N :   -0.164346
   4 C :   -0.153169
   5 C :    0.065375
   6 C :   -0.083346
   7 O :   -0.331624
   8 C :    0.000863
   9 H :    0.147259
  10 H :    0.129244
  11 H :    0.126146
  12 H :    0.105102
  13 H :    0.114815
  14 H :    0.107844
  15 H :    0.123066
  16 H :    0.116257
  17 H :    0.115836
  18 H :    0.116900
  19 H :    0.115485
Sum of atomic charges:   -0.0000000

LOEWDIN ATOMIC CHARGES
----------------------
   0 C :   -0.298107
   1 C :   -0.240404
   2 C :   -0.225622
   3 N :    0.093508
   4 C :   -0.213044
   5 C :   -0.302280
   6 C :   -0.238122
   7 O :    0.168730
   8 C :   -0.154783
   9 H :    0.126913
  10 H :    0.123890
  11 H :    0.125905
  12 H :    0.150580
  13 H :    0.121625
  14 H :    0.122964
  15 H :    0.129925
  16 H :    0.128350
  17 H :    0.122035
  18 H :    0.122466
  19 H :    0.135469

  Mayer bond orders larger than 0.1
B(  0-C ,  1-C ) :   0.8904 B(  0-C ,  9-H ) :   0.9373 B(  0-C , 10-H ) :   0.9330
B(  0-C , 11-H ) :   0.9348 B(  1-C ,  2-C ) :   0.9480 B(  1-C ,  8-C ) :   0.9483
B(  1-C , 12-H ) :   0.9243 B(  2-C ,  3-N ) :   0.9089 B(  2-C , 13-H ) :   0.9165
B(  2-C , 14-H ) :   0.9244 B(  3-N ,  4-C ) :   0.9368 B(  3-N ,  8-C ) :   0.9803
B(  4-C ,  5-C ) :   0.9496 B(  4-C , 15-H ) :   0.9086 B(  4-C , 16-H ) :   0.9265
B(  5-C ,  6-C ) :   0.9650 B(  5-C ,  7-O ) :   0.8571 B(  5-C ,  8-C ) :   0.9478
B(  6-C ,  7-O ) :   0.9223 B(  6-C , 17-H ) :   0.9071 B(  6-C , 18-H ) :   0.9156
B(  8-C , 19-H ) :   0.8958

MP2 TOTAL ENERGY:     -402.380278459 Eh
FINAL SINGLE POINT ENERGY      -402.380278458961

DIPOLE MOMENT
-------------
                                X             Y             Z
Electronic contribution:      2.49757      -1.58539       2.88967
Nuclear contribution   :     -2.61769       1.54528      -2.65916
                        -----------------------------------------
Total Dipole Moment    :     -0.12012      -0.04011       0.23051
                        -----------------------------------------
Magnitude (a.u.)       :      0.26301
Magnitude (Debye)      :      0.66852

                             ****ORCA TERMINATED NORMALLY****
TOTAL RUN TIME: 0 days 0 hours 19 minutes 44 seconds 392 msec
