                         Program Version 3.0.3 - RELEASE   -
|  1> ! RI-MP2 RIJK def2-TZVP def2-TZVP/C def2-TZVP/JK TIGHTSCF
|  2> % maxcore 2000
|  3> % mp2 density relaxed end
|  4> *xyz 0 1
|  5>  C       -0.0336570246     1.5415035617    -0.1652930268
|  6>  C        1.3101021912     2.2409349873     0.1457106832
|  7>  N        2.3948926178     1.3585413594     0.5741349279
|  8>  C        2.1917118408     0.2170207711     1.4394696103
|  9>  C        0.8715714779    -0.5742837794     1.1593708979
| 10>  C        0.0669186517     0.0465111014     0.0476736659
| 11>  C        1.2990910166    -0.7518132687    -0.2887038007
| 12>  C        2.6124521751     0.0423282512     0.0143097219
| 13>  H       -0.8302397565     1.9423489495     0.4714733340
| 14>  H       -0.3367645053     1.7374512602    -1.1999053327
| 15>  H        1.6777055135     2.7803317713    -0.7330129503
| 16>  H        1.1842219951     2.9852012108     0.9384644305
| 17>  H        2.7616046158     0.1414705609     2.3589179804
| 18>  H        0.4729307144    -1.3180022454     1.8367679299
| 19>  H       -0.8530291970    -0.4963280545    -0.1573798888
| 20>  H        1.2775611320    -1.6521247930    -0.8885989867
| 21>  H        3.5798077716    -0.1982508238    -0.4125576958
| 22> *
| 23>
| 24>                          ****END OF INPUT****

CARTESIAN COORDINATES (ANGSTROEM)
---------------------------------
  C     -0.033657    1.541504   -0.165293
  C      1.310102    2.240935    0.145711
  N      2.394893    1.358541    0.574135
  C      2.191712    0.217021    1.439470
  C      0.871571   -0.574284    1.159371
  C      0.066919    0.046511    0.047674
  C      1.299091   -0.751813   -0.288704
  C      2.612452    0.042328    0.014310
  H     -0.830240    1.942349    0.471473
  H     -0.336765    1.737451   -1.199905
  H      1.677706    2.780332   -0.733013
  H      1.184222    2.985201    0.938464
  H      2.761605    0.141471    2.358918
  H      0.472931   -1.318002    1.836768
  H     -0.853029   -0.496328   -0.157380
  H      1.277561   -1.652125   -0.888599
  H      3.579808   -0.198251   -0.412558

 Total Charge           Charge          ....    0
 Multiplicity           Mult            ....    1
 Number of Electrons    NEL             ....   58
 Basis Dimension        Dim             ....  302

ORBITAL ENERGIES
----------------

  NO   OCC          E(Eh)            E(eV)
   0   2.0000     -15.554346      -423.2553
   1   2.0000     -11.255273      -306.2715
   2   2.0000     -11.254569      -306.2524
   3   2.0000     -11.245174      -305.9968
   4   2.0000     -11.237660      -305.7923
   5   2.0000     -11.231357      -305.6208
   6   2.0000     -11.230747      -305.6042
   7   2.0000     -11.220194      -305.3170
   8   2.0000      -1.296431       -35.2777
   9   2.0000      -1.135187       -30.8900
  10   2.0000      -1.051088       -28.6016
  11   2.0000      -0.898433       -24.4476
  12   2.0000      -0.873277       -23.7631
  13   2.0000      -0.850948       -23.1555
  14   2.0000      -0.732913       -19.9436
  15   2.0000      -0.718671       -19.5560
  16   2.0000      -0.685833       -18.6625
  17   2.0000      -0.639708       -17.4073
  18   2.0000      -0.628212       -17.0945
  19   2.0000      -0.595998       -16.2179
  20   2.0000      -0.570607       -15.5270
  21   2.0000      -0.526414       -14.3245
  22   2.0000      -0.500768       -13.6266
  23   2.0000      -0.490996       -13.3607
  24   2.0000      -0.469333       -12.7712
  25   2.0000      -0.452272       -12.3069
  26   2.0000      -0.393362       -10.7039
  27   2.0000      -0.378242       -10.2925
  28   2.0000      -0.327809        -8.9201
  29   0.0000       0.142854         3.8873
  30   0.0000       0.165407         4.5010
  31   0.0000       0.167749         4.5647
  32   0.0000       0.179991         4.8978
  33   0.0000       0.192441         5.2366

MULLIKEN ATOMIC CHARGES
-----------------------
   0 C :   -0.158492
   1 C :   -0.146851
   2 N :   -0.175719
   3 C :   -0.129749
   4 C :   -0.090341
   5 C :   -0.190997
   6 C :   -0.090338
   7 C :   -0.129752
   8 H :    0.109583
   9 H :    0.109583
  10 H :    0.118517
  11 H :    0.118516
  12 H :    0.132252
  13 H :    0.137453
  14 H :    0.116631
  15 H :    0.137454
  16 H :    0.132252
Sum of atomic charges:   -0.0000000

LOEWDIN ATOMIC CHARGES
----------------------
   0 C :   -0.244045
   1 C :   -0.269153
   2 N :    0.149493
   3 C :   -0.193194
   4 C :   -0.150851
   5 C :   -0.189828
   6 C :   -0.150850
   7 C :   -0.193195
   8 H :    0.139008
   9 H :    0.139008
  10 H :    0.133771
  11 H :    0.133771
  12 H :    0.132490
  13 H :    0.136797
  14 H :    0.157495
  15 H :    0.136798
  16 H :    0.132489

  Mayer bond orders larger than 0.1
B(  0-C ,  1-C ) :   0.9258 B(  0-C ,  5-C ) :   0.9174 B(  0-C ,  8-H ) :   0.9217
B(  0-C ,  9-H ) :   0.9217 B(  1-C ,  2-N ) :   0.8950 B(  1-C , 10-H ) :   0.9389
B(  1-C , 11-H ) :   0.9389 B(  2-N ,  3-C ) :   0.9398 B(  2-N ,  7-C ) :   0.9398
B(  3-C ,  4-C ) :   0.8417 B(  3-C ,  7-C ) :   0.9450 B(  3-C , 12-H ) :   0.9318
B(  4-C ,  5-C ) :   0.8878 B(  4-C ,  6-C ) :   0.8481 B(  4-C , 13-H ) :   0.9218
B(  5-C ,  6-C ) :   0.8878 B(  5-C , 14-H ) :   0.9411 B(  6-C ,  7-C ) :   0.8417
B(  6-C , 15-H ) :   0.9218 B(  7-C , 16-H ) :   0.9318

MP2 TOTAL ENERGY:     -326.055394087 Eh
FINAL SINGLE POINT ENERGY      -326.055394086848

DIPOLE MOMENT
-------------
                                X             Y             Z
Electronic contribution:      2.39470      -1.26639       0.86224
Nuclear contribution   :     -2.83812       0.97641      -0.95760
                        -----------------------------------------
Total Dipole Moment    :     -0.44342      -0.28998      -0.09536
                        -----------------------------------------
Magnitude (a.u.)       :      0.53833
Magnitude (Debye)      :      1.36833

                             ****ORCA TERMINATED NORMALLY****
TOTAL RUN TIME: 0 days 0 hours 13 minutes 1 seconds 110 msec
