                         Program Version 3.0.3 - RELEASE   -
|  1> ! RI-MP2 RIJK def2-TZVP def2-TZVP/C def2-TZVP/JK TIGHTSCF
|  2> % maxcore 2000
|  3> % mp2 density relaxed end
|  4> *xyz 0 1
|  5>  C        0.0569170138    -1.2414838304    -0.1283289998
|  6>  C       -0.0134655838    -0.0474963259    -0.0087405775
|  7>  C       -0.0626124878     1.4033336593     0.1322707231
|  8>  C        1.3239967705     2.0521118801     0.0733699857
|  9>  C        2.1054571761     2.0699986027    -1.2753319380
| 10>  C        2.5383691653     3.5390243832    -0.9863455109
| 11>  C        1.4364393964     3.5826082734     0.0737570921
| 12>  C        0.3848246886     4.5862100733     0.2559582075
| 13>  O        1.4300957757     4.4034592184     1.2236193126
| 14>  H        0.1064508425    -2.2970167546    -0.2310440073
| 15>  H       -0.6961454193     1.8274505130    -0.6579114447
| 16>  H       -0.5430149884     1.6615475716     1.0855423795
| 17>  H        1.9535048573     1.6438356025     0.8711700666
| 18>  H        2.8984289138     1.3311816799    -1.3934997849
| 19>  H        1.4302744761     2.0020078194    -2.1327819292
| 20>  H        3.5301770080     3.5978901103    -0.5287885496
| 21>  H        2.4825397834     4.2591581182    -1.8056644703
| 22>  H        0.4274406247     5.5177651821    -0.3076369395
| 23>  H       -0.6106052829     4.2918874436     0.5863188846
| 24> *
| 25>
| 26>                          ****END OF INPUT****

CARTESIAN COORDINATES (ANGSTROEM)
---------------------------------
  C      0.056917   -1.241484   -0.128329
  C     -0.013466   -0.047496   -0.008741
  C     -0.062612    1.403334    0.132271
  C      1.323997    2.052112    0.073370
  C      2.105457    2.069999   -1.275332
  C      2.538369    3.539024   -0.986346
  C      1.436439    3.582608    0.073757
  C      0.384825    4.586210    0.255958
  O      1.430096    4.403459    1.223619
  H      0.106451   -2.297017   -0.231044
  H     -0.696145    1.827451   -0.657911
  H     -0.543015    1.661548    1.085542
  H      1.953505    1.643836    0.871170
  H      2.898429    1.331182   -1.393500
  H      1.430274    2.002008   -2.132782
  H      3.530177    3.597890   -0.528789
  H      2.482540    4.259158   -1.805664
  H      0.427441    5.517765   -0.307637
  H     -0.610605    4.291887    0.586319

 Total Charge           Charge          ....    0
 Multiplicity           Mult            ....    1
 Number of Electrons    NEL             ....   66
 Basis Dimension        Dim             ....  339

ORBITAL ENERGIES
----------------

  NO   OCC          E(Eh)            E(eV)
   0   2.0000     -20.568793      -559.7053
   1   2.0000     -11.293169      -307.3028
   2   2.0000     -11.284706      -307.0725
   3   2.0000     -11.257613      -306.3352
   4   2.0000     -11.243854      -305.9608
   5   2.0000     -11.235692      -305.7387
   6   2.0000     -11.232062      -305.6399
   7   2.0000     -11.231455      -305.6234
   8   2.0000     -11.221932      -305.3643
   9   2.0000      -1.414855       -38.5002
  10   2.0000      -1.142616       -31.0921
  11   2.0000      -1.063192       -28.9309
  12   2.0000      -0.981693       -26.7132
  13   2.0000      -0.920493       -25.0479
  14   2.0000      -0.878219       -23.8975
  15   2.0000      -0.863812       -23.5055
  16   2.0000      -0.746297       -20.3078
  17   2.0000      -0.722142       -19.6505
  18   2.0000      -0.682133       -18.5618
  19   2.0000      -0.675252       -18.3745
  20   2.0000      -0.647031       -17.6066
  21   2.0000      -0.623181       -16.9576
  22   2.0000      -0.603062       -16.4102
  23   2.0000      -0.584548       -15.9064
  24   2.0000      -0.538505       -14.6535
  25   2.0000      -0.511263       -13.9122
  26   2.0000      -0.505249       -13.7485
  27   2.0000      -0.474019       -12.8987
  28   2.0000      -0.462118       -12.5749
  29   2.0000      -0.435805       -11.8588
  30   2.0000      -0.425721       -11.5845
  31   2.0000      -0.387555       -10.5459
  32   2.0000      -0.384320       -10.4579
  33   0.0000       0.132995         3.6190
  34   0.0000       0.153821         4.1857
  35   0.0000       0.157523         4.2864
  36   0.0000       0.161964         4.4073
  37   0.0000       0.169237         4.6052

MULLIKEN ATOMIC CHARGES
-----------------------
   0 C :   -0.118918
   1 C :    0.002790
   2 C :   -0.465861
   3 C :    0.055223
   4 C :   -0.285709
   5 C :   -0.174999
   6 C :    0.089503
   7 C :   -0.104162
   8 O :   -0.330130
   9 H :    0.190375
  10 H :    0.144011
  11 H :    0.152306
  12 H :    0.113276
  13 H :    0.129360
  14 H :    0.119827
  15 H :    0.125545
  16 H :    0.122273
  17 H :    0.116143
  18 H :    0.119147
Sum of atomic charges:   -0.0000000

LOEWDIN ATOMIC CHARGES
----------------------
   0 C :   -0.106191
   1 C :   -0.107111
   2 C :   -0.231906
   3 C :   -0.178286
   4 C :   -0.201697
   5 C :   -0.194876
   6 C :   -0.304054
   7 C :   -0.236545
   8 O :    0.170044
   9 H :    0.126152
  10 H :    0.158484
  11 H :    0.162100
  12 H :    0.163508
  13 H :    0.128821
  14 H :    0.137423
  15 H :    0.143096
  16 H :    0.129762
  17 H :    0.121142
  18 H :    0.120136

  Mayer bond orders larger than 0.1
B(  0-C ,  1-C ) :   2.6095 B(  0-C ,  2-C ) :  -0.1228 B(  0-C ,  9-H ) :   0.8952
B(  1-C ,  2-C ) :   1.1226 B(  2-C ,  3-C ) :   0.9069 B(  2-C , 10-H ) :   0.9168
B(  2-C , 11-H ) :   0.9285 B(  3-C ,  4-C ) :   0.9273 B(  3-C ,  6-C ) :   0.8849
B(  3-C , 12-H ) :   0.9062 B(  4-C ,  5-C ) :   0.9371 B(  4-C , 13-H ) :   0.9350
B(  4-C , 14-H ) :   0.9150 B(  5-C ,  6-C ) :   0.8871 B(  5-C , 15-H ) :   0.9142
B(  5-C , 16-H ) :   0.9234 B(  6-C ,  7-C ) :   0.9776 B(  6-C ,  8-O ) :   0.9030
B(  7-C ,  8-O ) :   0.9076 B(  7-C , 17-H ) :   0.9131 B(  7-C , 18-H ) :   0.9104

MP2 TOTAL ENERGY:     -385.135634022 Eh
FINAL SINGLE POINT ENERGY      -385.135634022316

DIPOLE MOMENT
-------------
                                X             Y             Z
Electronic contribution:     -0.73064      -0.44892       3.01706
Nuclear contribution   :      0.53226       0.43055      -3.65140
                        -----------------------------------------
Total Dipole Moment    :     -0.19838      -0.01837      -0.63435
                        -----------------------------------------
Magnitude (a.u.)       :      0.66490
Magnitude (Debye)      :      1.69003

                             ****ORCA TERMINATED NORMALLY****
TOTAL RUN TIME: 0 days 0 hours 16 minutes 42 seconds 66 msec
