                         Program Version 3.0.3 - RELEASE   -
|  1> ! RI-MP2 RIJK def2-TZVP def2-TZVP/C def2-TZVP/JK TIGHTSCF
|  2> % maxcore 2000
|  3> % mp2 density relaxed end
|  4> *xyz 0 1
|  5>  O        0.1843593275     1.1672626796    -0.6425686676
|  6>  C        0.0048483138     0.0107896869     0.1602296294
|  7>  C       -1.4008632650    -0.5188527616     0.1458230114
|  8>  N       -2.0902813301    -0.8501213012     1.2110749455
|  9>  C       -3.2797105197    -1.2946552169     0.6877126949
| 10>  N       -3.3739883225    -1.2529168039    -0.6197385285
| 11>  N       -2.1563321904    -0.7504123632    -0.9835415380
| 12>  C       -1.8061831636    -0.5280763833    -2.3392847146
| 13>  O       -2.5138675970    -0.8081487733    -3.2597965305
| 14>  H       -0.3266538530     1.8861941788    -0.2545824876
| 15>  H        0.6957815502    -0.7376828694    -0.2425722280
| 16>  H        0.2707269015     0.1771693500     1.2102704114
| 17>  H       -4.0921032154    -1.6499717028     1.3042663355
| 18>  H       -0.8161402863    -0.0549545596    -2.4126508233
| 19> *
| 20>
| 21>                          ****END OF INPUT****

CARTESIAN COORDINATES (ANGSTROEM)
---------------------------------
  O      0.184359    1.167263   -0.642569
  C      0.004848    0.010790    0.160230
  C     -1.400863   -0.518853    0.145823
  N     -2.090281   -0.850121    1.211075
  C     -3.279711   -1.294655    0.687713
  N     -3.373988   -1.252917   -0.619739
  N     -2.156332   -0.750412   -0.983542
  C     -1.806183   -0.528076   -2.339285
  O     -2.513868   -0.808149   -3.259797
  H     -0.326654    1.886194   -0.254582
  H      0.695782   -0.737683   -0.242572
  H      0.270727    0.177169    1.210270
  H     -4.092103   -1.649972    1.304266
  H     -0.816140   -0.054955   -2.412651

 Total Charge           Charge          ....    0
 Multiplicity           Mult            ....    1
 Number of Electrons    NEL             ....   66
 Basis Dimension        Dim             ....  309

ORBITAL ENERGIES
----------------

  NO   OCC          E(Eh)            E(eV)
   0   2.0000     -20.603811      -560.6582
   1   2.0000     -20.572793      -559.8142
   2   2.0000     -15.675661      -426.5564
   3   2.0000     -15.614282      -424.8862
   4   2.0000     -15.585030      -424.0902
   5   2.0000     -11.386203      -309.8343
   6   2.0000     -11.350822      -308.8716
   7   2.0000     -11.331534      -308.3467
   8   2.0000     -11.311139      -307.7917
   9   2.0000      -1.453034       -39.5391
  10   2.0000      -1.412605       -38.4389
  11   2.0000      -1.403742       -38.1978
  12   2.0000      -1.229355       -33.4525
  13   2.0000      -1.158105       -31.5136
  14   2.0000      -1.004888       -27.3444
  15   2.0000      -0.923073       -25.1181
  16   2.0000      -0.858270       -23.3547
  17   2.0000      -0.806695       -21.9513
  18   2.0000      -0.765959       -20.8428
  19   2.0000      -0.708128       -19.2692
  20   2.0000      -0.687296       -18.7023
  21   2.0000      -0.669173       -18.2091
  22   2.0000      -0.667493       -18.1634
  23   2.0000      -0.639365       -17.3980
  24   2.0000      -0.630254       -17.1501
  25   2.0000      -0.557902       -15.1813
  26   2.0000      -0.550193       -14.9715
  27   2.0000      -0.535992       -14.5851
  28   2.0000      -0.499803       -13.6003
  29   2.0000      -0.484647       -13.1879
  30   2.0000      -0.458899       -12.4873
  31   2.0000      -0.436661       -11.8821
  32   2.0000      -0.394350       -10.7308
  33   0.0000       0.074493         2.0270
  34   0.0000       0.113851         3.0980
  35   0.0000       0.145794         3.9673
  36   0.0000       0.176123         4.7926
  37   0.0000       0.179667         4.8890

MULLIKEN ATOMIC CHARGES
-----------------------
   0 O :   -0.476182
   1 C :   -0.042273
   2 C :    0.048463
   3 N :   -0.282055
   4 C :    0.065593
   5 N :   -0.221425
   6 N :    0.081052
   7 C :    0.109849
   8 O :   -0.226682
   9 H :    0.328992
  10 H :    0.147499
  11 H :    0.156318
  12 H :    0.155366
  13 H :    0.155482
Sum of atomic charges:    0.0000000

LOEWDIN ATOMIC CHARGES
----------------------
   0 O :   -0.038838
   1 C :   -0.308733
   2 C :   -0.305855
   3 N :    0.113583
   4 C :   -0.312971
   5 N :    0.080028
   6 N :    0.202312
   7 C :   -0.331653
   8 O :    0.165574
   9 H :    0.181977
  10 H :    0.144156
  11 H :    0.142179
  12 H :    0.135840
  13 H :    0.132402

  Mayer bond orders larger than 0.1
B(  0-O ,  1-C ) :   0.8570 B(  0-O ,  9-H ) :   0.8387 B(  1-C ,  2-C ) :   0.8744
B(  1-C , 10-H ) :   0.9316 B(  1-C , 11-H ) :   0.9342 B(  2-C ,  3-N ) :   1.6080
B(  2-C ,  6-N ) :   1.1854 B(  3-N ,  4-C ) :   1.2059 B(  4-C ,  5-N ) :   1.5274
B(  4-C , 12-H ) :   0.9319 B(  5-N ,  6-N ) :   0.9702 B(  6-N ,  7-C ) :   0.9015
B(  7-C ,  8-O ) :   2.0316 B(  7-C , 13-H ) :   0.9133

MP2 TOTAL ENERGY:     -469.282341730 Eh
FINAL SINGLE POINT ENERGY      -469.282341729522

DIPOLE MOMENT
-------------
                                X             Y             Z
Electronic contribution:     -3.52420      -1.44422      -1.93971
Nuclear contribution   :      4.34811       1.96684       2.71803
                        -----------------------------------------
Total Dipole Moment    :      0.82391       0.52262       0.77832
                        -----------------------------------------
Magnitude (a.u.)       :      1.24810
Magnitude (Debye)      :      3.17241

                             ****ORCA TERMINATED NORMALLY****
TOTAL RUN TIME: 0 days 0 hours 15 minutes 5 seconds 417 msec
