                         Program Version 3.0.3 - RELEASE   -
|  1> ! RI-MP2 RIJK def2-TZVP def2-TZVP/C def2-TZVP/JK TIGHTSCF
|  2> % maxcore 2000
|  3> % mp2 density relaxed end
|  4> *xyz 0 1
|  5>  O       -0.1182712633     0.0233619968    -0.2708021274
|  6>  C       -0.0737537258     1.2073145864    -0.0882577013
|  7>  N       -1.0439555220     2.1715689570    -0.2654218819
|  8>  C       -0.5331185396     3.4372273679     0.0307148196
|  9>  C       -1.3582598561     4.6840862063    -0.0549439248
| 10>  C       -2.0837306629     4.8011570642    -1.3194642577
| 11>  C       -2.6935748498     4.8587911159    -2.3527333736
| 12>  C        0.7311208556     3.2364146160     0.4231597831
| 13>  O        1.0379196876     1.8930160065     0.3735813954
| 14>  H       -1.9199832230     1.9794328976    -0.7204115565
| 15>  H       -2.0813274839     4.7119054310     0.7730668038
| 16>  H       -0.6984828154     5.5472127505     0.0866196262
| 17>  H       -3.2243834601     4.9292879021    -3.2702148016
| 18>  H        1.5034569587     3.9036989717     0.7629845067
| 19> *
| 20>
| 21>                          ****END OF INPUT****

CARTESIAN COORDINATES (ANGSTROEM)
---------------------------------
  O     -0.118271    0.023362   -0.270802
  C     -0.073754    1.207315   -0.088258
  N     -1.043956    2.171569   -0.265422
  C     -0.533119    3.437227    0.030715
  C     -1.358260    4.684086   -0.054944
  C     -2.083731    4.801157   -1.319464
  C     -2.693575    4.858791   -2.352733
  C      0.731121    3.236415    0.423160
  O      1.037920    1.893016    0.373581
  H     -1.919983    1.979433   -0.720412
  H     -2.081327    4.711905    0.773067
  H     -0.698483    5.547213    0.086620
  H     -3.224383    4.929288   -3.270215
  H      1.503457    3.903699    0.762985

 Total Charge           Charge          ....    0
 Multiplicity           Mult            ....    1
 Number of Electrons    NEL             ....   64
 Basis Dimension        Dim             ....  309

ORBITAL ENERGIES
----------------

  NO   OCC          E(Eh)            E(eV)
   0   2.0000     -20.626682      -561.2806
   1   2.0000     -20.532358      -558.7139
   2   2.0000     -15.620675      -425.0602
   3   2.0000     -11.412253      -310.5432
   4   2.0000     -11.305500      -307.6383
   5   2.0000     -11.302977      -307.5696
   6   2.0000     -11.298340      -307.4435
   7   2.0000     -11.260274      -306.4076
   8   2.0000     -11.248634      -306.0909
   9   2.0000      -1.491306       -40.5805
  10   2.0000      -1.377883       -37.4941
  11   2.0000      -1.274051       -34.6687
  12   2.0000      -1.112911       -30.2839
  13   2.0000      -1.042552       -28.3693
  14   2.0000      -0.979574       -26.6556
  15   2.0000      -0.875812       -23.8321
  16   2.0000      -0.836209       -22.7544
  17   2.0000      -0.757490       -20.6123
  18   2.0000      -0.733226       -19.9521
  19   2.0000      -0.690187       -18.7809
  20   2.0000      -0.665272       -18.1030
  21   2.0000      -0.658028       -17.9059
  22   2.0000      -0.643264       -17.5041
  23   2.0000      -0.633876       -17.2487
  24   2.0000      -0.615155       -16.7392
  25   2.0000      -0.580267       -15.7899
  26   2.0000      -0.529222       -14.4009
  27   2.0000      -0.495454       -13.4820
  28   2.0000      -0.463375       -12.6091
  29   2.0000      -0.417312       -11.3556
  30   2.0000      -0.413852       -11.2615
  31   2.0000      -0.335097        -9.1185
  32   0.0000       0.117789         3.2052
  33   0.0000       0.141737         3.8569
  34   0.0000       0.143128         3.8947
  35   0.0000       0.156463         4.2576
  36   0.0000       0.163565         4.4508

MULLIKEN ATOMIC CHARGES
-----------------------
   0 O :   -0.324735
   1 C :    0.333920
   2 N :   -0.307236
   3 C :    0.096478
   4 C :   -0.336217
   5 C :   -0.036346
   6 C :   -0.143886
   7 C :   -0.037996
   8 O :   -0.209741
   9 H :    0.269976
  10 H :    0.167436
  11 H :    0.166089
  12 H :    0.199195
  13 H :    0.163062
Sum of atomic charges:   -0.0000000

LOEWDIN ATOMIC CHARGES
----------------------
   0 O :    0.096707
   1 C :   -0.530172
   2 N :    0.180415
   3 C :   -0.234989
   4 C :   -0.208359
   5 C :   -0.108384
   6 C :   -0.089443
   7 C :   -0.225053
   8 O :    0.301435
   9 H :    0.203482
  10 H :    0.170431
  11 H :    0.173531
  12 H :    0.130386
  13 H :    0.140011

  Mayer bond orders larger than 0.1
B(  0-O ,  1-C ) :   2.0138 B(  1-C ,  2-N ) :   1.1200 B(  1-C ,  8-O ) :   1.0364
B(  2-N ,  3-C ) :   1.0383 B(  2-N ,  9-H ) :   0.8578 B(  3-C ,  4-C ) :   0.9313
B(  3-C ,  7-C ) :   1.6583 B(  4-C ,  5-C ) :   1.0173 B(  4-C , 10-H ) :   0.9267
B(  4-C , 11-H ) :   0.9307 B(  5-C ,  6-C ) :   2.6475 B(  6-C , 12-H ) :   0.9033
B(  7-C ,  8-O ) :   0.9951 B(  7-C , 13-H ) :   0.9319

MP2 TOTAL ENERGY:     -435.969209657 Eh
FINAL SINGLE POINT ENERGY      -435.969209657426

DIPOLE MOMENT
-------------
                                X             Y             Z
Electronic contribution:      2.24538      -4.57462       0.49217
Nuclear contribution   :     -2.99927       6.40171      -0.50036
                        -----------------------------------------
Total Dipole Moment    :     -0.75390       1.82709      -0.00819
                        -----------------------------------------
Magnitude (a.u.)       :      1.97653
Magnitude (Debye)      :      5.02394

                             ****ORCA TERMINATED NORMALLY****
TOTAL RUN TIME: 0 days 0 hours 13 minutes 50 seconds 491 msec
