                         Program Version 3.0.3 - RELEASE   -
|  1> ! RI-MP2 RIJK def2-TZVP def2-TZVP/C def2-TZVP/JK TIGHTSCF
|  2> % maxcore 2000
|  3> % mp2 density relaxed end
|  4> *xyz 0 1
|  5>  C        0.0234588445     1.5604683657    -0.1575771787
|  6>  C        0.0230713729     0.0550906212    -0.0006794303
|  7>  C        1.3119842640    -0.7478083453    -0.1067540641
|  8>  C        0.5901482268    -0.6170180114     1.2122496310
|  9>  C        1.1834050491     0.1375775037     2.4055950510
| 10>  N        1.3339994166    -0.9384467206     3.3739785137
| 11>  C        0.4869962343    -2.0022816910     3.0898379326
| 12>  O        0.2669209837    -2.9631828550     3.7914360376
| 13>  N       -0.0635104582    -1.7397067574     1.8385712875
| 14>  H        0.9246789584     2.0099786460     0.2716725800
| 15>  H       -0.0099860934     1.8421580597    -1.2153844927
| 16>  H       -0.8425769605     2.0145158798     0.3362162187
| 17>  H       -0.8555697851    -0.4350632945    -0.4148563920
| 18>  H        1.2809864022    -1.7064409539    -0.6152135696
| 19>  H        2.2425941048    -0.2028965201    -0.2380907355
| 20>  H        2.1418711715     0.6061132486     2.1650045088
| 21>  H        0.4939886189     0.9207336493     2.7562759185
| 22>  H        1.5119424960    -0.7445676325     4.3462269239
| 23>  H       -0.3632505565    -2.5354013224     1.2972871198
| 24> *
| 25>
| 26>                          ****END OF INPUT****

CARTESIAN COORDINATES (ANGSTROEM)
---------------------------------
  C      0.023459    1.560468   -0.157577
  C      0.023071    0.055091   -0.000679
  C      1.311984   -0.747808   -0.106754
  C      0.590148   -0.617018    1.212250
  C      1.183405    0.137578    2.405595
  N      1.333999   -0.938447    3.373979
  C      0.486996   -2.002282    3.089838
  O      0.266921   -2.963183    3.791436
  N     -0.063510   -1.739707    1.838571
  H      0.924679    2.009979    0.271673
  H     -0.009986    1.842158   -1.215384
  H     -0.842577    2.014516    0.336216
  H     -0.855570   -0.435063   -0.414856
  H      1.280986   -1.706441   -0.615214
  H      2.242594   -0.202897   -0.238091
  H      2.141871    0.606113    2.165005
  H      0.493989    0.920734    2.756276
  H      1.511942   -0.744568    4.346227
  H     -0.363251   -2.535401    1.297287

 Total Charge           Charge          ....    0
 Multiplicity           Mult            ....    1
 Number of Electrons    NEL             ....   68
 Basis Dimension        Dim             ....  339

ORBITAL ENERGIES
----------------

  NO   OCC          E(Eh)            E(eV)
   0   2.0000     -20.507762      -558.0446
   1   2.0000     -15.578891      -423.9232
   2   2.0000     -15.577752      -423.8922
   3   2.0000     -11.367783      -309.3331
   4   2.0000     -11.288752      -307.1826
   5   2.0000     -11.281194      -306.9769
   6   2.0000     -11.246269      -306.0265
   7   2.0000     -11.235922      -305.7450
   8   2.0000     -11.232843      -305.6612
   9   2.0000      -1.390804       -37.8457
  10   2.0000      -1.286049       -34.9952
  11   2.0000      -1.192234       -32.4423
  12   2.0000      -1.137783       -30.9606
  13   2.0000      -0.983944       -26.7745
  14   2.0000      -0.955409       -25.9980
  15   2.0000      -0.831037       -22.6137
  16   2.0000      -0.824422       -22.4337
  17   2.0000      -0.779834       -21.2203
  18   2.0000      -0.708482       -19.2788
  19   2.0000      -0.669691       -18.2232
  20   2.0000      -0.666063       -18.1245
  21   2.0000      -0.633176       -17.2296
  22   2.0000      -0.621203       -16.9038
  23   2.0000      -0.595350       -16.2003
  24   2.0000      -0.583923       -15.8894
  25   2.0000      -0.566297       -15.4097
  26   2.0000      -0.562195       -15.2981
  27   2.0000      -0.532497       -14.4900
  28   2.0000      -0.512930       -13.9575
  29   2.0000      -0.486474       -13.2376
  30   2.0000      -0.443048       -12.0560
  31   2.0000      -0.418591       -11.3904
  32   2.0000      -0.400615       -10.9013
  33   2.0000      -0.363536        -9.8923
  34   0.0000       0.123571         3.3625
  35   0.0000       0.145683         3.9642
  36   0.0000       0.147050         4.0014
  37   0.0000       0.161527         4.3954
  38   0.0000       0.189015         5.1433

MULLIKEN ATOMIC CHARGES
-----------------------
   0 C :   -0.426192
   1 C :   -0.066824
   2 C :   -0.315026
   3 C :    0.133896
   4 C :   -0.113125
   5 N :   -0.343124
   6 C :    0.288875
   7 O :   -0.359124
   8 N :   -0.319915
   9 H :    0.125566
  10 H :    0.142682
  11 H :    0.142399
  12 H :    0.122755
  13 H :    0.137605
  14 H :    0.127878
  15 H :    0.120331
  16 H :    0.122004
  17 H :    0.241618
  18 H :    0.237722
Sum of atomic charges:   -0.0000000

LOEWDIN ATOMIC CHARGES
----------------------
   0 C :   -0.291236
   1 C :   -0.215440
   2 C :   -0.189984
   3 C :   -0.267163
   4 C :   -0.224407
   5 N :    0.084595
   6 C :   -0.534434
   7 O :    0.063254
   8 N :    0.132776
   9 H :    0.126773
  10 H :    0.128263
  11 H :    0.127876
  12 H :    0.151832
  13 H :    0.134172
  14 H :    0.136183
  15 H :    0.133789
  16 H :    0.131528
  17 H :    0.183450
  18 H :    0.188172

  Mayer bond orders larger than 0.1
B(  0-C ,  1-C ) :   0.8999 B(  0-C ,  9-H ) :   0.9344 B(  0-C , 10-H ) :   0.9378
B(  0-C , 11-H ) :   0.9406 B(  1-C ,  2-C ) :   0.8713 B(  1-C ,  3-C ) :   0.8510
B(  1-C , 12-H ) :   0.9232 B(  2-C ,  3-C ) :   0.8787 B(  2-C , 13-H ) :   0.9226
B(  2-C , 14-H ) :   0.9123 B(  3-C ,  4-C ) :   0.9278 B(  3-C ,  8-N ) :   0.9051
B(  4-C ,  5-N ) :   0.9265 B(  4-C , 15-H ) :   0.9176 B(  4-C , 16-H ) :   0.9334
B(  5-N ,  6-C ) :   1.0962 B(  5-N , 17-H ) :   0.8728 B(  6-C ,  7-O ) :   2.0135
B(  6-C ,  8-N ) :   1.0964 B(  8-N , 18-H ) :   0.8658

MP2 TOTAL ENERGY:     -418.539548247 Eh
FINAL SINGLE POINT ENERGY      -418.539548247409

DIPOLE MOMENT
-------------
                                X             Y             Z
Electronic contribution:     -0.49747      -7.86607       7.12997
Nuclear contribution   :      0.75494       9.24623      -8.15454
                        -----------------------------------------
Total Dipole Moment    :      0.25747       1.38016      -1.02457
                        -----------------------------------------
Magnitude (a.u.)       :      1.73807
Magnitude (Debye)      :      4.41782

                             ****ORCA TERMINATED NORMALLY****
TOTAL RUN TIME: 0 days 0 hours 17 minutes 7 seconds 13 msec
