                         Program Version 3.0.3 - RELEASE   -
|  1> ! RI-MP2 RIJK def2-TZVP def2-TZVP/C def2-TZVP/JK TIGHTSCF
|  2> % maxcore 2000
|  3> % mp2 density relaxed end
|  4> *xyz 0 1
|  5>  C       -0.0058925422     1.5512805116     0.0751592056
|  6>  C       -0.0200581084     0.0201588764     0.0012750744
|  7>  C        0.6874981672    -0.5422662635    -1.2365687836
|  8>  C        2.2048477769    -0.2271933941    -1.2908877430
|  9>  O        2.8361820920    -1.2913064877    -1.9997929415
| 10>  C        2.0339657409    -2.4365550791    -1.8661258232
| 11>  C        1.6058890957    -2.8635214194    -0.4858608351
| 12>  C        0.6683692164    -2.0604172754    -1.3777836474
| 13>  H        1.0145612966     1.9438919837     0.1395499664
| 14>  H       -0.4750301932     1.9940840258    -0.8107066703
| 15>  H       -0.5513467080     1.9094597019     0.9536260127
| 16>  H        0.4463960288    -0.3991097931     0.9020386181
| 17>  H       -1.0587371322    -0.3325182532     0.0051772545
| 18>  H        0.2072730740    -0.1255499340    -2.1325818346
| 19>  H        2.4413417747     0.7049034796    -1.8107988181
| 20>  H        2.6119320419    -0.1531722525    -0.2704542705
| 21>  H        2.2311640233    -3.1638603764    -2.6446298081
| 22>  H        1.3684115567    -3.9122605507    -0.3425641439
| 23>  H        2.0615039800    -2.3908239902     0.3778462209
| 24>  H       -0.2299484212    -2.5336015997    -1.7574047532
| 25> *
| 26>
| 27>                          ****END OF INPUT****

CARTESIAN COORDINATES (ANGSTROEM)
---------------------------------
  C     -0.005893    1.551281    0.075159
  C     -0.020058    0.020159    0.001275
  C      0.687498   -0.542266   -1.236569
  C      2.204848   -0.227193   -1.290888
  O      2.836182   -1.291306   -1.999793
  C      2.033966   -2.436555   -1.866126
  C      1.605889   -2.863521   -0.485861
  C      0.668369   -2.060417   -1.377784
  H      1.014561    1.943892    0.139550
  H     -0.475030    1.994084   -0.810707
  H     -0.551347    1.909460    0.953626
  H      0.446396   -0.399110    0.902039
  H     -1.058737   -0.332518    0.005177
  H      0.207273   -0.125550   -2.132582
  H      2.441342    0.704903   -1.810799
  H      2.611932   -0.153172   -0.270454
  H      2.231164   -3.163860   -2.644630
  H      1.368412   -3.912261   -0.342564
  H      2.061504   -2.390824    0.377846
  H     -0.229948   -2.533602   -1.757405

 Total Charge           Charge          ....    0
 Multiplicity           Mult            ....    1
 Number of Electrons    NEL             ....   62
 Basis Dimension        Dim             ....  320

ORBITAL ENERGIES
----------------

  NO   OCC          E(Eh)            E(eV)
   0   2.0000     -20.552329      -559.2573
   1   2.0000     -11.276443      -306.8476
   2   2.0000     -11.270742      -306.6925
   3   2.0000     -11.232242      -305.6448
   4   2.0000     -11.227981      -305.5289
   5   2.0000     -11.224235      -305.4270
   6   2.0000     -11.223675      -305.4117
   7   2.0000     -11.217071      -305.2320
   8   2.0000      -1.381443       -37.5910
   9   2.0000      -1.133438       -30.8424
  10   2.0000      -1.068183       -29.0667
  11   2.0000      -0.978049       -26.6141
  12   2.0000      -0.886095       -24.1119
  13   2.0000      -0.836715       -22.7682
  14   2.0000      -0.786102       -21.3909
  15   2.0000      -0.754594       -20.5335
  16   2.0000      -0.709156       -19.2971
  17   2.0000      -0.651175       -17.7194
  18   2.0000      -0.622003       -16.9256
  19   2.0000      -0.604634       -16.4529
  20   2.0000      -0.577797       -15.7227
  21   2.0000      -0.569221       -15.4893
  22   2.0000      -0.556216       -15.1354
  23   2.0000      -0.542310       -14.7570
  24   2.0000      -0.518537       -14.1101
  25   2.0000      -0.489268       -13.3137
  26   2.0000      -0.480077       -13.0636
  27   2.0000      -0.463067       -12.6007
  28   2.0000      -0.450959       -12.2712
  29   2.0000      -0.406052       -11.0492
  30   2.0000      -0.371643       -10.1129
  31   0.0000       0.135767         3.6944
  32   0.0000       0.151729         4.1288
  33   0.0000       0.162786         4.4296
  34   0.0000       0.171475         4.6661
  35   0.0000       0.187441         5.1005

MULLIKEN ATOMIC CHARGES
-----------------------
   0 C :   -0.391066
   1 C :   -0.220786
   2 C :   -0.067072
   3 C :   -0.085098
   4 O :   -0.309873
   5 C :    0.055538
   6 C :   -0.298100
   7 C :   -0.121888
   8 H :    0.128279
   9 H :    0.125097
  10 H :    0.136306
  11 H :    0.107562
  12 H :    0.112212
  13 H :    0.091819
  14 H :    0.124545
  15 H :    0.097503
  16 H :    0.124966
  17 H :    0.128075
  18 H :    0.135597
  19 H :    0.126387
Sum of atomic charges:   -0.0000000

LOEWDIN ATOMIC CHARGES
----------------------
   0 C :   -0.316833
   1 C :   -0.270779
   2 C :   -0.235361
   3 C :   -0.270901
   4 O :    0.178450
   5 C :   -0.280196
   6 C :   -0.210752
   7 C :   -0.191123
   8 H :    0.120785
   9 H :    0.121506
  10 H :    0.121571
  11 H :    0.137807
  12 H :    0.138762
  13 H :    0.156900
  14 H :    0.126956
  15 H :    0.122137
  16 H :    0.136506
  17 H :    0.135424
  18 H :    0.135156
  19 H :    0.143984

  Mayer bond orders larger than 0.1
B(  0-C ,  1-C ) :   0.9171 B(  0-C ,  8-H ) :   0.9387 B(  0-C ,  9-H ) :   0.9375
B(  0-C , 10-H ) :   0.9420 B(  1-C ,  2-C ) :   0.9230 B(  1-C , 11-H ) :   0.9256
B(  1-C , 12-H ) :   0.9337 B(  2-C ,  3-C ) :   0.9339 B(  2-C ,  7-C ) :   0.9343
B(  2-C , 13-H ) :   0.9145 B(  3-C ,  4-O ) :   0.9261 B(  3-C , 14-H ) :   0.9198
B(  3-C , 15-H ) :   0.9286 B(  4-O ,  5-C ) :   0.9717 B(  5-C ,  6-C ) :   0.8669
B(  5-C ,  7-C ) :   0.8977 B(  5-C , 16-H ) :   0.9417 B(  6-C ,  7-C ) :   0.8669
B(  6-C , 17-H ) :   0.9222 B(  6-C , 18-H ) :   0.9184 B(  7-C , 19-H ) :   0.9214

MP2 TOTAL ENERGY:     -348.388276730 Eh
FINAL SINGLE POINT ENERGY      -348.388276729847

DIPOLE MOMENT
-------------
                                X             Y             Z
Electronic contribution:      4.14747      -4.53659      -4.20535
Nuclear contribution   :     -4.75316       4.56866       4.46113
                        -----------------------------------------
Total Dipole Moment    :     -0.60569       0.03207       0.25578
                        -----------------------------------------
Magnitude (a.u.)       :      0.65827
Magnitude (Debye)      :      1.67319

                             ****ORCA TERMINATED NORMALLY****
TOTAL RUN TIME: 0 days 0 hours 19 minutes 14 seconds 602 msec
