                         Program Version 3.0.3 - RELEASE   -
|  1> ! RI-MP2 RIJK def2-TZVP def2-TZVP/C def2-TZVP/JK TIGHTSCF
|  2> % maxcore 2000
|  3> % mp2 density relaxed end
|  4> *xyz 0 1
|  5>  C       -0.0244803762     1.5151662825    -0.0790962027
|  6>  C        0.0871269241     0.0099621171     0.0109182727
|  7>  C        1.4034069299    -0.7027783971    -0.0727926223
|  8>  C        0.6424025758    -0.6991547350     1.2519460783
|  9>  C        1.1999268575     0.0709422166     2.4436352349
| 10>  C        2.2823962790    -0.7050668083     3.2055545060
| 11>  O        2.8272036711     0.0527210317     4.2719718714
| 12>  C       -0.0289699266    -1.9267878758     1.6063865578
| 13>  N       -0.5734834818    -2.9037338180     1.9052652213
| 14>  H        0.8554990764     2.0226800659     0.3235706850
| 15>  H       -0.1240156729     1.8171964998    -1.1269965810
| 16>  H       -0.9043973057     1.8831510976     0.4585562871
| 17>  H       -0.7459847746    -0.5184069030    -0.4436273697
| 18>  H        1.4689700785    -1.6323684840    -0.6254072285
| 19>  H        2.3053779150    -0.0989708364    -0.0934888090
| 20>  H        1.6318650588     1.0161756013     2.1056201795
| 21>  H        0.3814157019     0.3213186481     3.1311504357
| 22>  H        1.8838320436    -1.6690182780     3.5536817854
| 23>  H        3.1193539579    -0.9254634653     2.5343882988
| 24>  H        2.1564782584     0.1238395602     4.9584718096
| 25> *
| 26>
| 27>                          ****END OF INPUT****

CARTESIAN COORDINATES (ANGSTROEM)
---------------------------------
  C     -0.024480    1.515166   -0.079096
  C      0.087127    0.009962    0.010918
  C      1.403407   -0.702778   -0.072793
  C      0.642403   -0.699155    1.251946
  C      1.199927    0.070942    2.443635
  C      2.282396   -0.705067    3.205555
  O      2.827204    0.052721    4.271972
  C     -0.028970   -1.926788    1.606387
  N     -0.573483   -2.903734    1.905265
  H      0.855499    2.022680    0.323571
  H     -0.124016    1.817196   -1.126997
  H     -0.904397    1.883151    0.458556
  H     -0.745985   -0.518407   -0.443627
  H      1.468970   -1.632368   -0.625407
  H      2.305378   -0.098971   -0.093489
  H      1.631865    1.016176    2.105620
  H      0.381416    0.321319    3.131150
  H      1.883832   -1.669018    3.553682
  H      3.119354   -0.925463    2.534388
  H      2.156478    0.123840    4.958472

 Total Charge           Charge          ....    0
 Multiplicity           Mult            ....    1
 Number of Electrons    NEL             ....   68
 Basis Dimension        Dim             ....  345

ORBITAL ENERGIES
----------------

  NO   OCC          E(Eh)            E(eV)
   0   2.0000     -20.564059      -559.5765
   1   2.0000     -15.566152      -423.5765
   2   2.0000     -11.290327      -307.2254
   3   2.0000     -11.285079      -307.0826
   4   2.0000     -11.271619      -306.7164
   5   2.0000     -11.267717      -306.6102
   6   2.0000     -11.258049      -306.3471
   7   2.0000     -11.249813      -306.1230
   8   2.0000     -11.240306      -305.8643
   9   2.0000      -1.368681       -37.2437
  10   2.0000      -1.225612       -33.3506
  11   2.0000      -1.182358       -32.1736
  12   2.0000      -1.044648       -28.4263
  13   2.0000      -0.989082       -26.9143
  14   2.0000      -0.903596       -24.5881
  15   2.0000      -0.851429       -23.1686
  16   2.0000      -0.810801       -22.0630
  17   2.0000      -0.725697       -19.7472
  18   2.0000      -0.698164       -18.9980
  19   2.0000      -0.650272       -17.6948
  20   2.0000      -0.634591       -17.2681
  21   2.0000      -0.610537       -16.6136
  22   2.0000      -0.589622       -16.0444
  23   2.0000      -0.586928       -15.9711
  24   2.0000      -0.563205       -15.3256
  25   2.0000      -0.555563       -15.1176
  26   2.0000      -0.543881       -14.7998
  27   2.0000      -0.523143       -14.2354
  28   2.0000      -0.515012       -14.0142
  29   2.0000      -0.484194       -13.1756
  30   2.0000      -0.479369       -13.0443
  31   2.0000      -0.463478       -12.6119
  32   2.0000      -0.428860       -11.6699
  33   2.0000      -0.400947       -10.9103
  34   0.0000       0.121856         3.3159
  35   0.0000       0.138930         3.7805
  36   0.0000       0.148145         4.0312
  37   0.0000       0.152069         4.1380
  38   0.0000       0.169697         4.6177

MULLIKEN ATOMIC CHARGES
-----------------------
   0 C :   -0.402290
   1 C :   -0.082212
   2 C :   -0.298042
   3 C :    0.162863
   4 C :   -0.210884
   5 C :   -0.065499
   6 O :   -0.465687
   7 C :   -0.252507
   8 N :   -0.054467
   9 H :    0.128866
  10 H :    0.146456
  11 H :    0.142965
  12 H :    0.144660
  13 H :    0.157195
  14 H :    0.143322
  15 H :    0.113963
  16 H :    0.122635
  17 H :    0.133809
  18 H :    0.117864
  19 H :    0.316990
Sum of atomic charges:    0.0000000

LOEWDIN ATOMIC CHARGES
----------------------
   0 C :   -0.285881
   1 C :   -0.190395
   2 C :   -0.158062
   3 C :   -0.217223
   4 C :   -0.220517
   5 C :   -0.337844
   6 O :   -0.045770
   7 C :   -0.159478
   8 N :    0.058348
   9 H :    0.125553
  10 H :    0.132057
  11 H :    0.130258
  12 H :    0.160002
  13 H :    0.142555
  14 H :    0.143201
  15 H :    0.147133
  16 H :    0.145406
  17 H :    0.124613
  18 H :    0.131053
  19 H :    0.174992

  Mayer bond orders larger than 0.1
B(  0-C ,  1-C ) :   0.9037 B(  0-C ,  9-H ) :   0.9353 B(  0-C , 10-H ) :   0.9343
B(  0-C , 11-H ) :   0.9375 B(  1-C ,  2-C ) :   0.9251 B(  1-C ,  3-C ) :   0.7971
B(  1-C , 12-H ) :   0.9239 B(  2-C ,  3-C ) :   0.8395 B(  2-C , 13-H ) :   0.9220
B(  2-C , 14-H ) :   0.9224 B(  3-C ,  4-C ) :   0.9024 B(  3-C ,  7-C ) :   0.9135
B(  4-C ,  5-C ) :   0.9230 B(  4-C , 15-H ) :   0.9133 B(  4-C , 16-H ) :   0.9172
B(  5-C ,  6-O ) :   0.9456 B(  5-C , 17-H ) :   0.9456 B(  5-C , 18-H ) :   0.9206
B(  6-O , 19-H ) :   0.8470 B(  7-C ,  8-N ) :   2.8765

MP2 TOTAL ENERGY:     -402.462697896 Eh
FINAL SINGLE POINT ENERGY      -402.462697896323

DIPOLE MOMENT
-------------
                                X             Y             Z
Electronic contribution:     -1.62669      -6.47463       2.89638
Nuclear contribution   :      1.73028       7.69436      -3.44640
                        -----------------------------------------
Total Dipole Moment    :      0.10358       1.21973      -0.55001
                        -----------------------------------------
Magnitude (a.u.)       :      1.34201
Magnitude (Debye)      :      3.41112

                             ****ORCA TERMINATED NORMALLY****
TOTAL RUN TIME: 0 days 0 hours 18 minutes 5 seconds 454 msec
