                         Program Version 3.0.3 - RELEASE   -
|  1> ! RI-MP2 RIJK def2-TZVP def2-TZVP/C def2-TZVP/JK TIGHTSCF
|  2> % maxcore 2000
|  3> % mp2 density relaxed end
|  4> *xyz 0 1
|  5>  C        0.0449894677     1.4250513683    -0.2826552218
|  6>  C       -0.0345113802    -0.0500353339     0.0205160349
|  7>  C       -1.3472465032    -0.7842969717    -0.2303605962
|  8>  C       -1.2349725512    -2.1197863913     0.5363612608
|  9>  C       -0.2225851143    -1.8684552845     1.6774778544
| 10>  C        0.6570451059    -3.0595539319     2.0032493253
| 11>  O        0.7997208026    -4.0214524377     1.2903238247
| 12>  C        0.6425051594    -0.7005626539     1.1797046728
| 13>  N        1.2099274203    -0.8150270993    -0.1710356700
| 14>  H        1.0321416855     1.8173077494    -0.0271134606
| 15>  H       -0.1226806509     1.6110665670    -1.3497306171
| 16>  H       -0.7129685768     1.9837873300     0.2775858137
| 17>  H       -2.1691324518    -0.1748423498     0.1650542653
| 18>  H       -1.5481592813    -0.9301363309    -1.2980137105
| 19>  H       -2.1990746410    -2.4607519296     0.9204281843
| 20>  H       -0.8563379752    -2.9225261198    -0.1009618967
| 21>  H       -0.7150590399    -1.5485838874     2.6056434452
| 22>  H        1.2250637392    -2.9714556363     2.9569960517
| 23>  H        1.2483922633    -0.1537122670     1.8971146271
| 24>  H        1.0454201420    -1.7391221098    -0.5649079474
| 25> *
| 26>
| 27>                          ****END OF INPUT****

CARTESIAN COORDINATES (ANGSTROEM)
---------------------------------
  C      0.044989    1.425051   -0.282655
  C     -0.034511   -0.050035    0.020516
  C     -1.347247   -0.784297   -0.230361
  C     -1.234973   -2.119786    0.536361
  C     -0.222585   -1.868455    1.677478
  C      0.657045   -3.059554    2.003249
  O      0.799721   -4.021452    1.290324
  C      0.642505   -0.700563    1.179705
  N      1.209927   -0.815027   -0.171036
  H      1.032142    1.817308   -0.027113
  H     -0.122681    1.611067   -1.349731
  H     -0.712969    1.983787    0.277586
  H     -2.169132   -0.174842    0.165054
  H     -1.548159   -0.930136   -1.298014
  H     -2.199075   -2.460752    0.920428
  H     -0.856338   -2.922526   -0.100962
  H     -0.715059   -1.548584    2.605643
  H      1.225064   -2.971456    2.956996
  H      1.248392   -0.153712    1.897115
  H      1.045420   -1.739122   -0.564908

 Total Charge           Charge          ....    0
 Multiplicity           Mult            ....    1
 Number of Electrons    NEL             ....   68
 Basis Dimension        Dim             ....  345

ORBITAL ENERGIES
----------------

  NO   OCC          E(Eh)            E(eV)
   0   2.0000     -20.560425      -559.4776
   1   2.0000     -15.556640      -423.3177
   2   2.0000     -11.334840      -308.4367
   3   2.0000     -11.269128      -306.6486
   4   2.0000     -11.266785      -306.5848
   5   2.0000     -11.253056      -306.2112
   6   2.0000     -11.233889      -305.6897
   7   2.0000     -11.232493      -305.6517
   8   2.0000     -11.220837      -305.3345
   9   2.0000      -1.399634       -38.0860
  10   2.0000      -1.279300       -34.8115
  11   2.0000      -1.085549       -29.5393
  12   2.0000      -1.023804       -27.8591
  13   2.0000      -0.971101       -26.4250
  14   2.0000      -0.884721       -24.0745
  15   2.0000      -0.854029       -23.2393
  16   2.0000      -0.767317       -20.8798
  17   2.0000      -0.755042       -20.5457
  18   2.0000      -0.687607       -18.7107
  19   2.0000      -0.682732       -18.5781
  20   2.0000      -0.644812       -17.5462
  21   2.0000      -0.625034       -17.0080
  22   2.0000      -0.605914       -16.4878
  23   2.0000      -0.567930       -15.4542
  24   2.0000      -0.563765       -15.3408
  25   2.0000      -0.541992       -14.7484
  26   2.0000      -0.528618       -14.3844
  27   2.0000      -0.512494       -13.9457
  28   2.0000      -0.491903       -13.3854
  29   2.0000      -0.486304       -13.2330
  30   2.0000      -0.457503       -12.4493
  31   2.0000      -0.443548       -12.0695
  32   2.0000      -0.420171       -11.4334
  33   2.0000      -0.384594       -10.4653
  34   0.0000       0.125599         3.4177
  35   0.0000       0.130897         3.5619
  36   0.0000       0.146679         3.9913
  37   0.0000       0.159072         4.3286
  38   0.0000       0.174666         4.7529

MULLIKEN ATOMIC CHARGES
-----------------------
   0 C :   -0.421978
   1 C :    0.110767
   2 C :   -0.173763
   3 C :   -0.343471
   4 C :   -0.030172
   5 C :    0.102570
   6 O :   -0.273852
   7 C :   -0.095480
   8 N :   -0.366142
   9 H :    0.144661
  10 H :    0.132577
  11 H :    0.124508
  12 H :    0.113471
  13 H :    0.123863
  14 H :    0.134727
  15 H :    0.162305
  16 H :    0.111100
  17 H :    0.087585
  18 H :    0.131619
  19 H :    0.225104
Sum of atomic charges:   -0.0000000

LOEWDIN ATOMIC CHARGES
----------------------
   0 C :   -0.267919
   1 C :   -0.303362
   2 C :   -0.214684
   3 C :   -0.223462
   4 C :   -0.235698
   5 C :   -0.269068
   6 O :    0.133144
   7 C :   -0.206216
   8 N :    0.044261
   9 H :    0.133326
  10 H :    0.129657
  11 H :    0.126493
  12 H :    0.144104
  13 H :    0.140156
  14 H :    0.139373
  15 H :    0.143889
  16 H :    0.162741
  17 H :    0.113897
  18 H :    0.140790
  19 H :    0.168577

  Mayer bond orders larger than 0.1
B(  0-C ,  1-C ) :   0.8883 B(  0-C ,  9-H ) :   0.9398 B(  0-C , 10-H ) :   0.9382
B(  0-C , 11-H ) :   0.9374 B(  1-C ,  2-C ) :   0.9514 B(  1-C ,  7-C ) :   0.8959
B(  1-C ,  8-N ) :   0.9038 B(  2-C ,  3-C ) :   0.9216 B(  2-C , 12-H ) :   0.9155
B(  2-C , 13-H ) :   0.9260 B(  3-C ,  4-C ) :   0.9019 B(  3-C , 14-H ) :   0.9288
B(  3-C , 15-H ) :   0.9308 B(  4-C ,  5-C ) :   0.8587 B(  4-C ,  7-C ) :   0.8921
B(  4-C , 16-H ) :   0.8916 B(  5-C ,  6-O ) :   1.9707 B(  5-C , 17-H ) :   0.9397
B(  7-C ,  8-N ) :   0.9517 B(  7-C , 18-H ) :   0.9027 B(  8-N , 19-H ) :   0.8647

MP2 TOTAL ENERGY:     -402.464557963 Eh
FINAL SINGLE POINT ENERGY      -402.464557963457

DIPOLE MOMENT
-------------
                                X             Y             Z
Electronic contribution:      3.33895      -6.21487       2.19431
Nuclear contribution   :     -4.18038       6.89365      -1.66876
                        -----------------------------------------
Total Dipole Moment    :     -0.84143       0.67878       0.52555
                        -----------------------------------------
Magnitude (a.u.)       :      1.20206
Magnitude (Debye)      :      3.05540

                             ****ORCA TERMINATED NORMALLY****
TOTAL RUN TIME: 0 days 0 hours 19 minutes 35 seconds 838 msec
