                         Program Version 3.0.3 - RELEASE   -
|  1> ! RI-MP2 RIJK def2-TZVP def2-TZVP/C def2-TZVP/JK TIGHTSCF
|  2> % maxcore 2000
|  3> % mp2 density relaxed end
|  4> *xyz 0 1
|  5>  C       -0.0722390723     1.5113770604    -0.1491514744
|  6>  C        0.0516777746     0.0103717480    -0.0173792925
|  7>  C        1.4124716670    -0.6618833614    -0.0997259735
|  8>  C        0.6594438662    -0.6187117818     1.2085854817
|  9>  O        1.1099875561     0.2799042467     2.1932118769
| 10>  C        0.0481734310    -1.8863741521     1.7781757677
| 11>  C        1.0459280905    -2.7017150623     2.6227030157
| 12>  C        0.3901040465    -3.8980807437     3.2690226460
| 13>  O        0.7467982148    -5.0403640738     3.1359595392
| 14>  H        0.7335795574     2.0154248935     0.3884906824
| 15>  H       -0.0338057745     1.8156574562    -1.2005432197
| 16>  H       -1.0205740738     1.8663947109     0.2683565791
| 17>  H       -0.7683419501    -0.5516235963    -0.4583458069
| 18>  H        1.5056344850    -1.6074796145    -0.6238490469
| 19>  H        2.2741000959    -0.0075626496    -0.1918319485
| 20>  H        2.0173676102     0.0501878925     2.4171868222
| 21>  H       -0.8134654111    -1.6106488372     2.3998219713
| 22>  H       -0.3322199520    -2.5048982881     0.9575311327
| 23>  H        1.8960486265    -3.0455223881     2.0261333678
| 24>  H        1.4203175482    -2.0566544448     3.4306101881
| 25>  H       -0.4934172161    -3.6454655143     3.9024795816
| 26> *
| 27>
| 28>                          ****END OF INPUT****

CARTESIAN COORDINATES (ANGSTROEM)
---------------------------------
  C     -0.072239    1.511377   -0.149151
  C      0.051678    0.010372   -0.017379
  C      1.412472   -0.661883   -0.099726
  C      0.659444   -0.618712    1.208585
  O      1.109988    0.279904    2.193212
  C      0.048173   -1.886374    1.778176
  C      1.045928   -2.701715    2.622703
  C      0.390104   -3.898081    3.269023
  O      0.746798   -5.040364    3.135960
  H      0.733580    2.015425    0.388491
  H     -0.033806    1.815657   -1.200543
  H     -1.020574    1.866395    0.268357
  H     -0.768342   -0.551624   -0.458346
  H      1.505634   -1.607480   -0.623849
  H      2.274100   -0.007563   -0.191832
  H      2.017368    0.050188    2.417187
  H     -0.813465   -1.610649    2.399822
  H     -0.332220   -2.504898    0.957531
  H      1.896049   -3.045522    2.026133
  H      1.420318   -2.056654    3.430610
  H     -0.493417   -3.645466    3.902480

 Total Charge           Charge          ....    0
 Multiplicity           Mult            ....    1
 Number of Electrons    NEL             ....   70
 Basis Dimension        Dim             ....  351

ORBITAL ENERGIES
----------------

  NO   OCC          E(Eh)            E(eV)
   0   2.0000     -20.570320      -559.7469
   1   2.0000     -20.557615      -559.4011
   2   2.0000     -11.332754      -308.3799
   3   2.0000     -11.295541      -307.3673
   4   2.0000     -11.244955      -305.9908
   5   2.0000     -11.244085      -305.9671
   6   2.0000     -11.237519      -305.7885
   7   2.0000     -11.231171      -305.6157
   8   2.0000     -11.216999      -305.2301
   9   2.0000      -1.396317       -37.9957
  10   2.0000      -1.381851       -37.6021
  11   2.0000      -1.148005       -31.2388
  12   2.0000      -1.070315       -29.1247
  13   2.0000      -0.968974       -26.3671
  14   2.0000      -0.919899       -25.0317
  15   2.0000      -0.816489       -22.2178
  16   2.0000      -0.790522       -21.5112
  17   2.0000      -0.776665       -21.1341
  18   2.0000      -0.686830       -18.6896
  19   2.0000      -0.680614       -18.5204
  20   2.0000      -0.669952       -18.2303
  21   2.0000      -0.628589       -17.1048
  22   2.0000      -0.620751       -16.8915
  23   2.0000      -0.610718       -16.6185
  24   2.0000      -0.570578       -15.5262
  25   2.0000      -0.559538       -15.2258
  26   2.0000      -0.551311       -15.0019
  27   2.0000      -0.534813       -14.5530
  28   2.0000      -0.521606       -14.1936
  29   2.0000      -0.507124       -13.7995
  30   2.0000      -0.496461       -13.5094
  31   2.0000      -0.493251       -13.4220
  32   2.0000      -0.427190       -11.6244
  33   2.0000      -0.405412       -11.0318
  34   2.0000      -0.396264       -10.7829
  35   0.0000       0.122134         3.3234
  36   0.0000       0.138031         3.7560
  37   0.0000       0.142853         3.8872
  38   0.0000       0.159592         4.3427
  39   0.0000       0.161376         4.3913

MULLIKEN ATOMIC CHARGES
-----------------------
   0 C :   -0.414311
   1 C :   -0.035822
   2 C :   -0.358072
   3 C :    0.211361
   4 O :   -0.477213
   5 C :   -0.283223
   6 C :   -0.172115
   7 C :    0.087185
   8 O :   -0.264492
   9 H :    0.141933
  10 H :    0.132032
  11 H :    0.131012
  12 H :    0.124681
  13 H :    0.134397
  14 H :    0.139893
  15 H :    0.328994
  16 H :    0.125133
  17 H :    0.130057
  18 H :    0.125299
  19 H :    0.121336
  20 H :    0.071936
Sum of atomic charges:    0.0000000

LOEWDIN ATOMIC CHARGES
----------------------
   0 C :   -0.291987
   1 C :   -0.213367
   2 C :   -0.200470
   3 C :   -0.351878
   4 O :    0.027977
   5 C :   -0.223955
   6 C :   -0.261434
   7 C :   -0.298001
   8 O :    0.129748
   9 H :    0.129675
  10 H :    0.124897
  11 H :    0.126648
  12 H :    0.149540
  13 H :    0.134283
  14 H :    0.137589
  15 H :    0.179715
  16 H :    0.146964
  17 H :    0.149178
  18 H :    0.144884
  19 H :    0.149970
  20 H :    0.110023

  Mayer bond orders larger than 0.1
B(  0-C ,  1-C ) :   0.9035 B(  0-C ,  9-H ) :   0.9345 B(  0-C , 10-H ) :   0.9393
B(  0-C , 11-H ) :   0.9392 B(  1-C ,  2-C ) :   0.8786 B(  1-C ,  3-C ) :   0.8618
B(  1-C , 12-H ) :   0.9289 B(  2-C ,  3-C ) :   0.9046 B(  2-C , 13-H ) :   0.9165
B(  2-C , 14-H ) :   0.9264 B(  3-C ,  4-O ) :   0.9617 B(  3-C ,  5-C ) :   0.9029
B(  4-O , 15-H ) :   0.8369 B(  5-C ,  6-C ) :   0.8958 B(  5-C , 16-H ) :   0.9259
B(  5-C , 17-H ) :   0.9235 B(  6-C ,  7-C ) :   0.8801 B(  6-C , 18-H ) :   0.9027
B(  6-C , 19-H ) :   0.9096 B(  7-C ,  8-O ) :   2.0074 B(  7-C , 20-H ) :   0.9412

MP2 TOTAL ENERGY:     -423.514992549 Eh
FINAL SINGLE POINT ENERGY      -423.514992549276

DIPOLE MOMENT
-------------
                                X             Y             Z
Electronic contribution:      1.03127      -6.72927       4.93260
Nuclear contribution   :     -0.90494       7.47411      -5.22907
                        -----------------------------------------
Total Dipole Moment    :      0.12634       0.74484      -0.29647
                        -----------------------------------------
Magnitude (a.u.)       :      0.81157
Magnitude (Debye)      :      2.06284

                             ****ORCA TERMINATED NORMALLY****
TOTAL RUN TIME: 0 days 0 hours 17 minutes 1 seconds 879 msec
