                         Program Version 3.0.3 - RELEASE   -
|  1> ! RI-MP2 RIJK def2-TZVP def2-TZVP/C def2-TZVP/JK TIGHTSCF
|  2> % maxcore 2000
|  3> % mp2 density relaxed end
|  4> *xyz 0 1
|  5>  C       -0.1146904598     1.4409689885     0.0093157065
|  6>  C        0.0185887906    -0.0527350852     0.0577586514
|  7>  C       -0.0511915303    -0.9342491355    -1.2086300677
|  8>  C        0.6193438927    -2.2721276127    -0.9022532663
|  9>  C        0.0114782382    -2.1298004689     0.5154082909
| 10>  C        0.7227267014    -0.8861982124     1.1225811583
| 11>  O        2.1228885208    -0.8534541825     1.2702737318
| 12>  C       -1.0535194818    -1.1185858506    -0.0873109623
| 13>  C       -2.5445903477    -1.0589037805    -0.0303435606
| 14>  H        0.8501607345     1.9192397460    -0.1946191652
| 15>  H       -0.8102597269     1.7572417390    -0.7756504261
| 16>  H       -0.4848949899     1.8377848820     0.9615732285
| 17>  H       -0.2243384219    -0.4784525197    -2.1764701178
| 18>  H        0.1521665639    -3.0883482969    -1.4602109962
| 19>  H        1.7106604733    -2.3689280000    -0.9859533918
| 20>  H       -0.1982603950    -3.0038731262     1.1291902020
| 21>  H        0.3155804779    -0.6616536430     2.1137708341
| 22>  H        2.5164122444    -0.9416173802     0.3962439581
| 23>  H       -2.9079963009    -0.9995936534     1.0023373640
| 24>  H       -2.9189765806    -0.1773006166    -0.5622761809
| 25>  H       -3.0041573329    -1.9410725609    -0.4913409006
| 26> *
| 27>
| 28>                          ****END OF INPUT****

CARTESIAN COORDINATES (ANGSTROEM)
---------------------------------
  C     -0.114690    1.440969    0.009316
  C      0.018589   -0.052735    0.057759
  C     -0.051192   -0.934249   -1.208630
  C      0.619344   -2.272128   -0.902253
  C      0.011478   -2.129800    0.515408
  C      0.722727   -0.886198    1.122581
  O      2.122889   -0.853454    1.270274
  C     -1.053519   -1.118586   -0.087311
  C     -2.544590   -1.058904   -0.030344
  H      0.850161    1.919240   -0.194619
  H     -0.810260    1.757242   -0.775650
  H     -0.484895    1.837785    0.961573
  H     -0.224338   -0.478453   -2.176470
  H      0.152167   -3.088348   -1.460211
  H      1.710660   -2.368928   -0.985953
  H     -0.198260   -3.003873    1.129190
  H      0.315580   -0.661654    2.113771
  H      2.516412   -0.941617    0.396244
  H     -2.907996   -0.999594    1.002337
  H     -2.918977   -0.177301   -0.562276
  H     -3.004157   -1.941073   -0.491341

 Total Charge           Charge          ....    0
 Multiplicity           Mult            ....    1
 Number of Electrons    NEL             ....   68
 Basis Dimension        Dim             ....  351

ORBITAL ENERGIES
----------------

  NO   OCC          E(Eh)            E(eV)
   0   2.0000     -20.548311      -559.1480
   1   2.0000     -11.275295      -306.8164
   2   2.0000     -11.237831      -305.7969
   3   2.0000     -11.233225      -305.6716
   4   2.0000     -11.231939      -305.6366
   5   2.0000     -11.230885      -305.6079
   6   2.0000     -11.227735      -305.5222
   7   2.0000     -11.225725      -305.4675
   8   2.0000     -11.220411      -305.3229
   9   2.0000      -1.358036       -36.9540
  10   2.0000      -1.227465       -33.4010
  11   2.0000      -1.013130       -27.5687
  12   2.0000      -0.990021       -26.9398
  13   2.0000      -0.955206       -25.9925
  14   2.0000      -0.913262       -24.8511
  15   2.0000      -0.817418       -22.2431
  16   2.0000      -0.749887       -20.4055
  17   2.0000      -0.708625       -19.2827
  18   2.0000      -0.671654       -18.2766
  19   2.0000      -0.640366       -17.4252
  20   2.0000      -0.625221       -17.0131
  21   2.0000      -0.602712       -16.4006
  22   2.0000      -0.575771       -15.6675
  23   2.0000      -0.564345       -15.3566
  24   2.0000      -0.554399       -15.0860
  25   2.0000      -0.552037       -15.0217
  26   2.0000      -0.532274       -14.4839
  27   2.0000      -0.529827       -14.4173
  28   2.0000      -0.507859       -13.8196
  29   2.0000      -0.469859       -12.7855
  30   2.0000      -0.441541       -12.0149
  31   2.0000      -0.407511       -11.0889
  32   2.0000      -0.378192       -10.2911
  33   2.0000      -0.357132        -9.7181
  34   0.0000       0.129664         3.5283
  35   0.0000       0.146827         3.9954
  36   0.0000       0.160668         4.3720
  37   0.0000       0.179229         4.8771
  38   0.0000       0.180991         4.9250

MULLIKEN ATOMIC CHARGES
-----------------------
   0 C :   -0.434594
   1 C :   -0.017928
   2 C :   -0.175666
   3 C :   -0.250971
   4 C :   -0.054459
   5 C :    0.075567
   6 O :   -0.462940
   7 C :    0.027801
   8 C :   -0.413152
   9 H :    0.142064
  10 H :    0.131237
  11 H :    0.134160
  12 H :    0.130542
  13 H :    0.119031
  14 H :    0.094123
  15 H :    0.127144
  16 H :    0.100475
  17 H :    0.315417
  18 H :    0.138012
  19 H :    0.135017
  20 H :    0.139119
Sum of atomic charges:   -0.0000000

LOEWDIN ATOMIC CHARGES
----------------------
   0 C :   -0.271565
   1 C :   -0.186778
   2 C :   -0.137530
   3 C :   -0.207128
   4 C :   -0.126670
   5 C :   -0.277013
   6 O :   -0.013158
   7 C :   -0.138118
   8 C :   -0.277436
   9 H :    0.131236
  10 H :    0.130178
  11 H :    0.129494
  12 H :    0.138817
  13 H :    0.140789
  14 H :    0.116379
  15 H :    0.131248
  16 H :    0.150850
  17 H :    0.173746
  18 H :    0.130349
  19 H :    0.132618
  20 H :    0.129689

  Mayer bond orders larger than 0.1
B(  0-C ,  1-C ) :   0.8997 B(  0-C ,  9-H ) :   0.9416 B(  0-C , 10-H ) :   0.9354
B(  0-C , 11-H ) :   0.9411 B(  1-C ,  2-C ) :   0.8291 B(  1-C ,  5-C ) :   0.9466
B(  1-C ,  7-C ) :   0.7903 B(  2-C ,  3-C ) :   0.9449 B(  2-C ,  7-C ) :   0.8013
B(  2-C , 12-H ) :   0.9331 B(  3-C ,  4-C ) :   0.9094 B(  3-C , 13-H ) :   0.9258
B(  3-C , 14-H ) :   0.9264 B(  4-C ,  5-C ) :   0.9165 B(  4-C ,  7-C ) :   0.8752
B(  4-C , 15-H ) :   0.9136 B(  5-C ,  6-O ) :   0.9744 B(  5-C , 16-H ) :   0.9380
B(  6-O , 17-H ) :   0.8398 B(  7-C ,  8-C ) :   0.8037 B(  8-C , 18-H ) :   0.9442
B(  8-C , 19-H ) :   0.9470 B(  8-C , 20-H ) :   0.9451

MP2 TOTAL ENERGY:     -386.380299358 Eh
FINAL SINGLE POINT ENERGY      -386.380299357959

DIPOLE MOMENT
-------------
                                X             Y             Z
Electronic contribution:      4.13696      -1.97207       1.57432
Nuclear contribution   :     -4.68054       1.97429      -2.13875
                        -----------------------------------------
Total Dipole Moment    :     -0.54358       0.00222      -0.56442
                        -----------------------------------------
Magnitude (a.u.)       :      0.78362
Magnitude (Debye)      :      1.99180

                             ****ORCA TERMINATED NORMALLY****
TOTAL RUN TIME: 0 days 0 hours 19 minutes 58 seconds 892 msec
