                         Program Version 3.0.3 - RELEASE   -
|  1> ! RI-MP2 RIJK def2-TZVP def2-TZVP/C def2-TZVP/JK TIGHTSCF
|  2> % maxcore 2000
|  3> % mp2 density relaxed end
|  4> *xyz 0 1
|  5>  C        0.1292393640     1.2906307270     0.1613220683
|  6>  O       -0.3238787295     0.0229251864    -0.2631912335
|  7>  C        0.4806418837    -0.5566390008    -1.2501130479
|  8>  C        1.7589259801    -1.3677349012    -0.8582889895
|  9>  C        0.8221671434    -2.4258273885    -0.2072223180
| 10>  C        0.1614711612    -2.0390355470    -1.5762846108
| 11>  O       -0.9791335954    -2.5490698536    -2.1608303432
| 12>  C        1.5677664416    -2.1202091200    -2.2091709734
| 13>  H        1.1151183685     1.2332177410     0.6450935495
| 14>  H        0.1981624036     1.9969699787    -0.6802434392
| 15>  H       -0.5972905129     1.6716130634     0.8829885232
| 16>  H        0.5937089584     0.1186062436    -2.1115074151
| 17>  H        2.6933353574    -0.9824371553    -0.4583924564
| 18>  H        1.2166056241    -3.4423838426    -0.1376994872
| 19>  H        0.2944872796    -2.1218093196     0.6964263523
| 20>  H       -1.7330582439    -2.2707410190    -1.6285276254
| 21>  H        1.7299109946    -1.5493154045    -3.1278306808
| 22>  H        2.0114928017    -3.1158369178    -2.2652152429
| 23> *
| 24>
| 25>                          ****END OF INPUT****

CARTESIAN COORDINATES (ANGSTROEM)
---------------------------------
  C      0.129239    1.290631    0.161322
  O     -0.323879    0.022925   -0.263191
  C      0.480642   -0.556639   -1.250113
  C      1.758926   -1.367735   -0.858289
  C      0.822167   -2.425827   -0.207222
  C      0.161471   -2.039036   -1.576285
  O     -0.979134   -2.549070   -2.160830
  C      1.567766   -2.120209   -2.209171
  H      1.115118    1.233218    0.645094
  H      0.198162    1.996970   -0.680243
  H     -0.597291    1.671613    0.882989
  H      0.593709    0.118606   -2.111507
  H      2.693335   -0.982437   -0.458392
  H      1.216606   -3.442384   -0.137699
  H      0.294487   -2.121809    0.696426
  H     -1.733058   -2.270741   -1.628528
  H      1.729911   -1.549315   -3.127831
  H      2.011493   -3.115837   -2.265215

 Total Charge           Charge          ....    0
 Multiplicity           Mult            ....    1
 Number of Electrons    NEL             ....   62
 Basis Dimension        Dim             ....  308

ORBITAL ENERGIES
----------------

  NO   OCC          E(Eh)            E(eV)
   0   2.0000     -20.562451      -559.5327
   1   2.0000     -20.561152      -559.4974
   2   2.0000     -11.296092      -307.3823
   3   2.0000     -11.284287      -307.0611
   4   2.0000     -11.275847      -306.8314
   5   2.0000     -11.243784      -305.9589
   6   2.0000     -11.229106      -305.5595
   7   2.0000     -11.224427      -305.4322
   8   2.0000      -1.390370       -37.8339
   9   2.0000      -1.371234       -37.3132
  10   2.0000      -1.199940       -32.6520
  11   2.0000      -0.955908       -26.0116
  12   2.0000      -0.913006       -24.8442
  13   2.0000      -0.868731       -23.6394
  14   2.0000      -0.845253       -23.0005
  15   2.0000      -0.742312       -20.1993
  16   2.0000      -0.721580       -19.6352
  17   2.0000      -0.668526       -18.1915
  18   2.0000      -0.654251       -17.8031
  19   2.0000      -0.640904       -17.4399
  20   2.0000      -0.608358       -16.5543
  21   2.0000      -0.585460       -15.9312
  22   2.0000      -0.565789       -15.3959
  23   2.0000      -0.541259       -14.7284
  24   2.0000      -0.506590       -13.7850
  25   2.0000      -0.483834       -13.1658
  26   2.0000      -0.473959       -12.8971
  27   2.0000      -0.459369       -12.5001
  28   2.0000      -0.440394       -11.9837
  29   2.0000      -0.415370       -11.3028
  30   2.0000      -0.402338       -10.9482
  31   0.0000       0.142094         3.8666
  32   0.0000       0.152034         4.1371
  33   0.0000       0.167697         4.5633
  34   0.0000       0.175017         4.7625
  35   0.0000       0.190684         5.1888

MULLIKEN ATOMIC CHARGES
-----------------------
   0 C :   -0.214352
   1 O :   -0.321063
   2 C :    0.032678
   3 C :   -0.167059
   4 C :   -0.221770
   5 C :    0.157890
   6 O :   -0.464766
   7 C :   -0.212392
   8 H :    0.116990
   9 H :    0.114207
  10 H :    0.140766
  11 H :    0.086688
  12 H :    0.147908
  13 H :    0.111721
  14 H :    0.126169
  15 H :    0.330900
  16 H :    0.114364
  17 H :    0.121121
Sum of atomic charges:    0.0000000

LOEWDIN ATOMIC CHARGES
----------------------
   0 C :   -0.350869
   1 O :    0.159802
   2 C :   -0.267065
   3 C :   -0.173753
   4 C :   -0.182531
   5 C :   -0.334759
   6 O :    0.027075
   7 C :   -0.171978
   8 H :    0.103431
   9 H :    0.103580
  10 H :    0.113608
  11 H :    0.133619
  12 H :    0.126973
  13 H :    0.128834
  14 H :    0.129945
  15 H :    0.189454
  16 H :    0.130612
  17 H :    0.134022

  Mayer bond orders larger than 0.1
B(  0-C ,  1-O ) :   0.9034 B(  0-C ,  8-H ) :   0.9348 B(  0-C ,  9-H ) :   0.9365
B(  0-C , 10-H ) :   0.9404 B(  1-O ,  2-C ) :   0.9925 B(  2-C ,  3-C ) :   0.9101
B(  2-C ,  5-C ) :   0.8876 B(  2-C , 11-H ) :   0.9493 B(  3-C ,  4-C ) :   0.9176
B(  3-C ,  7-C ) :   0.9107 B(  3-C , 12-H ) :   0.8887 B(  4-C ,  5-C ) :   0.9059
B(  4-C , 13-H ) :   0.9304 B(  4-C , 14-H ) :   0.9105 B(  5-C ,  6-O ) :   0.9648
B(  5-C ,  7-C ) :   0.8984 B(  6-O , 15-H ) :   0.8326 B(  7-C , 16-H ) :   0.9284
B(  7-C , 17-H ) :   0.9218

MP2 TOTAL ENERGY:     -384.251741138 Eh
FINAL SINGLE POINT ENERGY      -384.251741138264

DIPOLE MOMENT
-------------
                                X             Y             Z
Electronic contribution:     -2.96387      -2.60887      -1.64961
Nuclear contribution   :      3.25918       3.20829       2.04544
                        -----------------------------------------
Total Dipole Moment    :      0.29532       0.59942       0.39583
                        -----------------------------------------
Magnitude (a.u.)       :      0.77666
Magnitude (Debye)      :      1.97411

                             ****ORCA TERMINATED NORMALLY****
TOTAL RUN TIME: 0 days 0 hours 11 minutes 57 seconds 970 msec
