                         Program Version 3.0.3 - RELEASE   -
|  1> ! RI-MP2 RIJK def2-TZVP def2-TZVP/C def2-TZVP/JK TIGHTSCF
|  2> % maxcore 2000
|  3> % mp2 density relaxed end
|  4> *xyz 0 1
|  5>  C        0.2243253070     1.5526042310     0.0450304547
|  6>  C        0.1078189543     0.0573305231     0.0383999068
|  7>  C       -0.9265053676    -0.7277233597     0.8248438707
|  8>  C        0.5338797298    -1.0116930456     1.0352087545
|  9>  O        1.0082037980    -1.8870934088     0.0076315843
| 10>  C        0.7212754827    -0.8784650668    -0.9998375722
| 11>  C        1.2602993187    -0.9837893413     2.3212267007
| 12>  C        2.2223610222    -2.0391535269     2.6708808986
| 13>  O        2.6719634024    -0.7465214987     2.2652172789
| 14>  H        1.2466660777     1.8730068900    -0.1822540375
| 15>  H       -0.4441294957     2.0061263331    -0.6969089069
| 16>  H       -0.0450864879     1.9657499393     1.0221006715
| 17>  H       -1.4168436954    -0.1582691737     1.6096024996
| 18>  H       -1.5447001999    -1.4853352215     0.3497457624
| 19>  H        0.0713605204    -1.2622231124    -1.7953095092
| 20>  H        1.6527480055    -0.4935027176    -1.4308715442
| 21>  H        0.7472497423    -0.4567880377     3.1257859124
| 22>  H        2.3860222604    -2.2898478025     3.7182045166
| 23>  H        2.4032771247    -2.8365498235     1.9540879985
| 24> *
| 25>
| 26>                          ****END OF INPUT****

CARTESIAN COORDINATES (ANGSTROEM)
---------------------------------
  C      0.224325    1.552604    0.045030
  C      0.107819    0.057331    0.038400
  C     -0.926505   -0.727723    0.824844
  C      0.533880   -1.011693    1.035209
  O      1.008204   -1.887093    0.007632
  C      0.721275   -0.878465   -0.999838
  C      1.260299   -0.983789    2.321227
  C      2.222361   -2.039154    2.670881
  O      2.671963   -0.746521    2.265217
  H      1.246666    1.873007   -0.182254
  H     -0.444129    2.006126   -0.696909
  H     -0.045086    1.965750    1.022101
  H     -1.416844   -0.158269    1.609602
  H     -1.544700   -1.485335    0.349746
  H      0.071361   -1.262223   -1.795310
  H      1.652748   -0.493503   -1.430872
  H      0.747250   -0.456788    3.125786
  H      2.386022   -2.289848    3.718205
  H      2.403277   -2.836550    1.954088

 Total Charge           Charge          ....    0
 Multiplicity           Mult            ....    1
 Number of Electrons    NEL             ....   68
 Basis Dimension        Dim             ....  339

ORBITAL ENERGIES
----------------

  NO   OCC          E(Eh)            E(eV)
   0   2.0000     -20.565168      -559.6067
   1   2.0000     -20.555075      -559.3320
   2   2.0000     -11.294269      -307.3327
   3   2.0000     -11.292027      -307.2717
   4   2.0000     -11.283530      -307.0405
   5   2.0000     -11.280625      -306.9614
   6   2.0000     -11.248369      -306.0837
   7   2.0000     -11.237206      -305.7799
   8   2.0000     -11.229466      -305.5693
   9   2.0000      -1.413349       -38.4592
  10   2.0000      -1.390003       -37.8239
  11   2.0000      -1.131609       -30.7926
  12   2.0000      -1.002025       -27.2665
  13   2.0000      -0.954037       -25.9607
  14   2.0000      -0.914185       -24.8762
  15   2.0000      -0.879895       -23.9432
  16   2.0000      -0.809652       -22.0318
  17   2.0000      -0.730888       -19.8885
  18   2.0000      -0.686316       -18.6756
  19   2.0000      -0.681401       -18.5419
  20   2.0000      -0.644840       -17.5470
  21   2.0000      -0.638576       -17.3765
  22   2.0000      -0.604662       -16.4537
  23   2.0000      -0.573418       -15.6035
  24   2.0000      -0.566508       -15.4155
  25   2.0000      -0.555246       -15.1090
  26   2.0000      -0.546846       -14.8804
  27   2.0000      -0.536835       -14.6080
  28   2.0000      -0.497397       -13.5349
  29   2.0000      -0.469624       -12.7791
  30   2.0000      -0.459917       -12.5150
  31   2.0000      -0.449658       -12.2358
  32   2.0000      -0.400493       -10.8980
  33   2.0000      -0.363880        -9.9017
  34   0.0000       0.134616         3.6631
  35   0.0000       0.157573         4.2878
  36   0.0000       0.171981         4.6798
  37   0.0000       0.182948         4.9783
  38   0.0000       0.189592         5.1591

MULLIKEN ATOMIC CHARGES
-----------------------
   0 C :   -0.388857
   1 C :   -0.065079
   2 C :   -0.286598
   3 C :    0.191890
   4 O :   -0.335119
   5 C :    0.003855
   6 C :    0.009108
   7 C :   -0.065796
   8 O :   -0.332633
   9 H :    0.141556
  10 H :    0.139254
  11 H :    0.128403
  12 H :    0.133164
  13 H :    0.135889
  14 H :    0.104410
  15 H :    0.102293
  16 H :    0.130584
  17 H :    0.114256
  18 H :    0.139420
Sum of atomic charges:   -0.0000000

LOEWDIN ATOMIC CHARGES
----------------------
   0 C :   -0.272369
   1 C :   -0.218643
   2 C :   -0.161329
   3 C :   -0.262382
   4 O :    0.173342
   5 C :   -0.210682
   6 C :   -0.260259
   7 C :   -0.251787
   8 O :    0.149347
   9 H :    0.132333
  10 H :    0.130136
  11 H :    0.131678
  12 H :    0.144084
  13 H :    0.137462
  14 H :    0.119699
  15 H :    0.128088
  16 H :    0.145695
  17 H :    0.118120
  18 H :    0.127467

  Mayer bond orders larger than 0.1
B(  0-C ,  1-C ) :   0.8968 B(  0-C ,  9-H ) :   0.9355 B(  0-C , 10-H ) :   0.9334
B(  0-C , 11-H ) :   0.9310 B(  1-C ,  2-C ) :   0.8900 B(  1-C ,  3-C ) :   0.8713
B(  1-C ,  5-C ) :   0.9772 B(  2-C ,  3-C ) :   0.8498 B(  2-C , 12-H ) :   0.9321
B(  2-C , 13-H ) :   0.9034 B(  3-C ,  4-O ) :   0.9546 B(  3-C ,  6-C ) :   0.9335
B(  4-O ,  5-C ) :   0.9327 B(  5-C , 14-H ) :   0.9094 B(  5-C , 15-H ) :   0.9087
B(  6-C ,  7-C ) :   0.9742 B(  6-C ,  8-O ) :   0.8946 B(  6-C , 16-H ) :   0.9109
B(  7-C ,  8-O ) :   0.9107 B(  7-C , 17-H ) :   0.9188 B(  7-C , 18-H ) :   0.9036

MP2 TOTAL ENERGY:     -422.249860776 Eh
FINAL SINGLE POINT ENERGY      -422.249860776468

DIPOLE MOMENT
-------------
                                X             Y             Z
Electronic contribution:      2.92923      -3.70023       1.43708
Nuclear contribution   :     -3.68702       4.00852      -1.37515
                        -----------------------------------------
Total Dipole Moment    :     -0.75778       0.30829       0.06194
                        -----------------------------------------
Magnitude (a.u.)       :      0.82044
Magnitude (Debye)      :      2.08539

                             ****ORCA TERMINATED NORMALLY****
TOTAL RUN TIME: 0 days 0 hours 15 minutes 50 seconds 324 msec
