                         Program Version 3.0.3 - RELEASE   -
|  1> ! RI-MP2 RIJK def2-TZVP def2-TZVP/C def2-TZVP/JK TIGHTSCF
|  2> % maxcore 2000
|  3> % mp2 density relaxed end
|  4> *xyz 0 1
|  5>  C       -0.0517262032     1.5668754843     0.0472131768
|  6>  C        0.0196574103     0.0495588588    -0.0676116294
|  7>  C       -1.1467624870    -0.6151586622     0.6562458768
|  8>  C        0.4914723374    -0.7212544396    -1.2377659380
|  9>  C        1.7917924477    -0.2518255278    -1.9153667516
| 10>  O        2.0642168255     1.1694367301    -2.0024888970
| 11>  C        2.8460033471     1.1240372335    -0.7729640688
| 12>  C        2.4844283025    -0.3549308152    -0.5627264099
| 13>  N        1.2156110109    -0.8199802573     0.1297008089
| 14>  H        0.5048211658     2.0849226499    -0.7270267783
| 15>  H       -1.1013118109     1.8655900757    -0.0438745636
| 16>  H        0.2868815723     1.8925469386     1.0372218538
| 17>  H       -2.0969713878    -0.3335834847     0.1900840472
| 18>  H       -1.0499054454    -1.7028734396     0.6398962250
| 19>  H       -1.1717086139    -0.2930813021     1.7026073396
| 20>  H       -0.0763366558    -1.5663453634    -1.6217578752
| 21>  H        2.0808799476    -0.7929786702    -2.8187345629
| 22>  H        3.9112188362     1.2741204712    -0.9888318604
| 23>  H        2.5206455052     1.8561633986    -0.0302751539
| 24>  H        3.2902922053    -1.0504845687    -0.3344385689
| 25> *
| 26>
| 27>                          ****END OF INPUT****

CARTESIAN COORDINATES (ANGSTROEM)
---------------------------------
  C     -0.051726    1.566875    0.047213
  C      0.019657    0.049559   -0.067612
  C     -1.146762   -0.615159    0.656246
  C      0.491472   -0.721254   -1.237766
  C      1.791792   -0.251826   -1.915367
  O      2.064217    1.169437   -2.002489
  C      2.846003    1.124037   -0.772964
  C      2.484428   -0.354931   -0.562726
  N      1.215611   -0.819980    0.129701
  H      0.504821    2.084923   -0.727027
  H     -1.101312    1.865590   -0.043875
  H      0.286882    1.892547    1.037222
  H     -2.096971   -0.333583    0.190084
  H     -1.049905   -1.702873    0.639896
  H     -1.171709   -0.293081    1.702607
  H     -0.076337   -1.566345   -1.621758
  H      2.080880   -0.792979   -2.818735
  H      3.911219    1.274120   -0.988832
  H      2.520646    1.856163   -0.030275
  H      3.290292   -1.050485   -0.334439

 Total Charge           Charge          ....    0
 Multiplicity           Mult            ....    1
 Number of Electrons    NEL             ....   68
 Basis Dimension        Dim             ....  345

ORBITAL ENERGIES
----------------

  NO   OCC          E(Eh)            E(eV)
   0   2.0000     -20.555075      -559.3320
   1   2.0000     -15.560646      -423.4267
   2   2.0000     -11.291346      -307.2531
   3   2.0000     -11.284012      -307.0536
   4   2.0000     -11.277153      -306.8669
   5   2.0000     -11.264305      -306.5173
   6   2.0000     -11.262754      -306.4751
   7   2.0000     -11.215528      -305.1900
   8   2.0000     -11.215387      -305.1862
   9   2.0000      -1.388028       -37.7702
  10   2.0000      -1.269313       -34.5398
  11   2.0000      -1.054499       -28.6944
  12   2.0000      -0.980079       -26.6693
  13   2.0000      -0.949526       -25.8379
  14   2.0000      -0.932868       -25.3846
  15   2.0000      -0.870027       -23.6746
  16   2.0000      -0.753226       -20.4963
  17   2.0000      -0.723494       -19.6873
  18   2.0000      -0.712598       -19.3908
  19   2.0000      -0.657520       -17.8920
  20   2.0000      -0.628759       -17.1094
  21   2.0000      -0.612605       -16.6698
  22   2.0000      -0.588720       -16.0199
  23   2.0000      -0.581945       -15.8355
  24   2.0000      -0.553405       -15.0589
  25   2.0000      -0.543344       -14.7851
  26   2.0000      -0.529231       -14.4011
  27   2.0000      -0.508437       -13.8353
  28   2.0000      -0.495931       -13.4950
  29   2.0000      -0.488769       -13.3001
  30   2.0000      -0.448186       -12.1958
  31   2.0000      -0.414668       -11.2837
  32   2.0000      -0.396238       -10.7822
  33   2.0000      -0.359960        -9.7950
  34   0.0000       0.143259         3.8983
  35   0.0000       0.149607         4.0710
  36   0.0000       0.160039         4.3549
  37   0.0000       0.171399         4.6640
  38   0.0000       0.187998         5.1157

MULLIKEN ATOMIC CHARGES
-----------------------
   0 C :   -0.415442
   1 C :    0.265811
   2 C :   -0.445575
   3 C :   -0.200255
   4 C :    0.122998
   5 O :   -0.356414
   6 C :   -0.043407
   7 C :   -0.110669
   8 N :   -0.288035
   9 H :    0.181873
  10 H :    0.133506
  11 H :    0.135471
  12 H :    0.129288
  13 H :    0.144058
  14 H :    0.132531
  15 H :    0.129579
  16 H :    0.118567
  17 H :    0.113482
  18 H :    0.123399
  19 H :    0.129234
Sum of atomic charges:   -0.0000000

LOEWDIN ATOMIC CHARGES
----------------------
   0 C :   -0.272935
   1 C :   -0.310061
   2 C :   -0.262168
   3 C :   -0.149273
   4 C :   -0.233263
   5 O :    0.123762
   6 C :   -0.251647
   7 C :   -0.222122
   8 N :    0.143509
   9 H :    0.133377
  10 H :    0.133642
  11 H :    0.128051
  12 H :    0.125520
  13 H :    0.131479
  14 H :    0.129284
  15 H :    0.136430
  16 H :    0.133290
  17 H :    0.123995
  18 H :    0.120834
  19 H :    0.138294

  Mayer bond orders larger than 0.1
B(  0-C ,  1-C ) :   0.8442 B(  0-C ,  9-H ) :   0.9305 B(  0-C , 10-H ) :   0.9251
B(  0-C , 11-H ) :   0.9364 B(  1-C ,  2-C ) :   0.8782 B(  1-C ,  3-C ) :   0.9216
B(  1-C ,  8-N ) :   0.8174 B(  2-C , 12-H ) :   0.9382 B(  2-C , 13-H ) :   0.9343
B(  2-C , 14-H ) :   0.9384 B(  3-C ,  4-C ) :   0.8882 B(  3-C ,  8-N ) :   0.8543
B(  3-C , 15-H ) :   0.8933 B(  4-C ,  5-O ) :   0.9212 B(  4-C ,  7-C ) :   0.9553
B(  4-C , 16-H ) :   0.9314 B(  5-O ,  6-C ) :   0.8967 B(  6-C ,  7-C ) :   0.9686
B(  6-C , 17-H ) :   0.9111 B(  6-C , 18-H ) :   0.9150 B(  7-C ,  8-N ) :   0.9403
B(  7-C , 19-H ) :   0.9242

MP2 TOTAL ENERGY:     -402.368142930 Eh
FINAL SINGLE POINT ENERGY      -402.368142930314

DIPOLE MOMENT
-------------
                                X             Y             Z
Electronic contribution:      4.49463      -1.43909      -3.70596
Nuclear contribution   :     -4.41377       1.38965       3.73006
                        -----------------------------------------
Total Dipole Moment    :      0.08087      -0.04944       0.02410
                        -----------------------------------------
Magnitude (a.u.)       :      0.09780
Magnitude (Debye)      :      0.24858

                             ****ORCA TERMINATED NORMALLY****
TOTAL RUN TIME: 0 days 0 hours 22 minutes 1 seconds 86 msec
