                         Program Version 3.0.3 - RELEASE   -
|  1> ! RI-MP2 RIJK def2-TZVP def2-TZVP/C def2-TZVP/JK TIGHTSCF
|  2> % maxcore 2000
|  3> % mp2 density relaxed end
|  4> *xyz 0 1
|  5>  C       -0.1113220949     1.4499477808     0.2066554105
|  6>  C        1.3268605066     1.9696600267    -0.0442267108
|  7>  C        2.1020208114     0.7924193022    -0.6871252595
|  8>  C        2.5045892209     0.9559416301    -2.1881692819
|  9>  N        3.9725315762     1.0327148939    -2.2093945627
| 10>  C        4.3347495983     0.8441876314    -1.0102325814
| 11>  O        3.4136392810     0.6535909288    -0.0403413553
| 12>  C        1.2317356054    -0.3982848701    -0.3929217866
| 13>  C        0.0360310102    -0.0458595058     0.0730367848
| 14>  H       -0.5021177980     1.7482056334     1.1860142775
| 15>  H       -0.8218808669     1.8374408513    -0.5353419733
| 16>  H        1.3555403789     2.8705839058    -0.6619295449
| 17>  H        1.8149853645     2.2051580358     0.9049288580
| 18>  H        2.1736724322     0.1041625011    -2.7931884649
| 19>  H        2.0682830982     1.8574680241    -2.6304805496
| 20>  H        5.3624440117     0.8168306730    -0.6632984052
| 21>  H        1.5696851039    -1.4069088743    -0.6020202983
| 22>  H       -0.7681695596    -0.7344558282     0.3085201336
| 23> *
| 24>
| 25>                          ****END OF INPUT****

CARTESIAN COORDINATES (ANGSTROEM)
---------------------------------
  C     -0.111322    1.449948    0.206655
  C      1.326861    1.969660   -0.044227
  C      2.102021    0.792419   -0.687125
  C      2.504589    0.955942   -2.188169
  N      3.972532    1.032715   -2.209395
  C      4.334750    0.844188   -1.010233
  O      3.413639    0.653591   -0.040341
  C      1.231736   -0.398285   -0.392922
  C      0.036031   -0.045860    0.073037
  H     -0.502118    1.748206    1.186014
  H     -0.821881    1.837441   -0.535342
  H      1.355540    2.870584   -0.661930
  H      1.814985    2.205158    0.904929
  H      2.173672    0.104163   -2.793188
  H      2.068283    1.857468   -2.630481
  H      5.362444    0.816831   -0.663298
  H      1.569685   -1.406909   -0.602020
  H     -0.768170   -0.734456    0.308520

 Total Charge           Charge          ....    0
 Multiplicity           Mult            ....    1
 Number of Electrons    NEL             ....   66
 Basis Dimension        Dim             ....  333

ORBITAL ENERGIES
----------------

  NO   OCC          E(Eh)            E(eV)
   0   2.0000     -20.588948      -560.2538
   1   2.0000     -15.544104      -422.9766
   2   2.0000     -11.326257      -308.2031
   3   2.0000     -11.302370      -307.5531
   4   2.0000     -11.257404      -306.3295
   5   2.0000     -11.240453      -305.8683
   6   2.0000     -11.236763      -305.7679
   7   2.0000     -11.231163      -305.6155
   8   2.0000     -11.230712      -305.6032
   9   2.0000      -1.431630       -38.9566
  10   2.0000      -1.208273       -32.8788
  11   2.0000      -1.146206       -31.1898
  12   2.0000      -1.010486       -27.4967
  13   2.0000      -0.980857       -26.6905
  14   2.0000      -0.897029       -24.4094
  15   2.0000      -0.818793       -22.2805
  16   2.0000      -0.785399       -21.3718
  17   2.0000      -0.742194       -20.1961
  18   2.0000      -0.705260       -19.1911
  19   2.0000      -0.678546       -18.4642
  20   2.0000      -0.639054       -17.3895
  21   2.0000      -0.623147       -16.9567
  22   2.0000      -0.580426       -15.7942
  23   2.0000      -0.569167       -15.4878
  24   2.0000      -0.553282       -15.0556
  25   2.0000      -0.532210       -14.4822
  26   2.0000      -0.509867       -13.8742
  27   2.0000      -0.503289       -13.6952
  28   2.0000      -0.497553       -13.5391
  29   2.0000      -0.487565       -13.2673
  30   2.0000      -0.439320       -11.9545
  31   2.0000      -0.377478       -10.2717
  32   2.0000      -0.360659        -9.8140
  33   0.0000       0.133038         3.6201
  34   0.0000       0.148328         4.0362
  35   0.0000       0.161083         4.3833
  36   0.0000       0.165979         4.5165
  37   0.0000       0.180557         4.9132

MULLIKEN ATOMIC CHARGES
-----------------------
   0 C :   -0.167814
   1 C :   -0.321750
   2 C :    0.354839
   3 C :   -0.181536
   4 N :   -0.264728
   5 C :    0.087335
   6 O :   -0.279114
   7 C :   -0.252963
   8 C :   -0.152211
   9 H :    0.126782
  10 H :    0.120704
  11 H :    0.134559
  12 H :    0.132310
  13 H :    0.126597
  14 H :    0.122885
  15 H :    0.141958
  16 H :    0.138557
  17 H :    0.133592
Sum of atomic charges:   -0.0000000

LOEWDIN ATOMIC CHARGES
----------------------
   0 C :   -0.237300
   1 C :   -0.194231
   2 C :   -0.262506
   3 C :   -0.233885
   4 N :    0.056996
   5 C :   -0.358844
   6 O :    0.246227
   7 C :   -0.127383
   8 C :   -0.141390
   9 H :    0.139001
  10 H :    0.141918
  11 H :    0.136710
  12 H :    0.148155
  13 H :    0.136304
  14 H :    0.134286
  15 H :    0.133137
  16 H :    0.143922
  17 H :    0.138884

  Mayer bond orders larger than 0.1
B(  0-C ,  1-C ) :   0.9551 B(  0-C ,  8-C ) :   0.9327 B(  0-C ,  9-H ) :   0.9276
B(  0-C , 10-H ) :   0.9100 B(  1-C ,  2-C ) :   0.8859 B(  1-C , 11-H ) :   0.9328
B(  1-C , 12-H ) :   0.9244 B(  2-C ,  3-C ) :   0.9159 B(  2-C ,  6-O ) :   0.8140
B(  2-C ,  7-C ) :   0.9135 B(  3-C ,  4-N ) :   0.9460 B(  3-C , 13-H ) :   0.9209
B(  3-C , 14-H ) :   0.9186 B(  4-N ,  5-C ) :   1.8219 B(  5-C ,  6-O ) :   1.0864
B(  5-C , 15-H ) :   0.9227 B(  7-C ,  8-C ) :   1.7868 B(  7-C , 16-H ) :   0.9182
B(  8-C , 17-H ) :   0.9241

MP2 TOTAL ENERGY:     -401.278415611 Eh
FINAL SINGLE POINT ENERGY      -401.278415611373

DIPOLE MOMENT
-------------
                                X             Y             Z
Electronic contribution:      5.46802      -1.77708      -0.33904
Nuclear contribution   :     -6.28963       1.78586       0.72828
                        -----------------------------------------
Total Dipole Moment    :     -0.82161       0.00878       0.38925
                        -----------------------------------------
Magnitude (a.u.)       :      0.90919
Magnitude (Debye)      :      2.31099

                             ****ORCA TERMINATED NORMALLY****
TOTAL RUN TIME: 0 days 0 hours 17 minutes 15 seconds 666 msec
