                         Program Version 3.0.3 - RELEASE   -
|  1> ! RI-MP2 RIJK def2-TZVP def2-TZVP/C def2-TZVP/JK TIGHTSCF
|  2> % maxcore 2000
|  3> % mp2 density relaxed end
|  4> *xyz 0 1
|  5>  N        0.1639117229     1.3525242617     0.2934671958
|  6>  C       -0.0260673689    -0.0673459232    -0.0017951056
|  7>  C       -1.4528994532    -0.3941322705     0.0066724751
|  8>  C       -2.6217260498    -0.6680888118    -0.0184207477
|  9>  C        0.6311487522    -0.5523602371    -1.3155318991
| 10>  C        2.0834795989    -1.0065179914    -1.2675773204
| 11>  C        0.9931918785    -2.0182041313    -1.4595780198
| 12>  C        0.1998738507     0.1576241973    -2.4928712164
| 13>  N       -0.1460864904     0.7537685155    -3.4222272969
| 14>  H        1.1502535440     1.5861204174     0.2176093835
| 15>  H       -0.3288336889     1.9129282428    -0.3966156904
| 16>  H        0.4614756763    -0.6350954761     0.8031775969
| 17>  H       -3.6570747311    -0.9050292092    -0.0337908591
| 18>  H        2.7149827651    -0.7621013854    -2.1130940163
| 19>  H        2.5764122358    -0.9532554899    -0.3022867636
| 20>  H        0.7259342809    -2.6595466049    -0.6267410843
| 21>  H        0.8751072870    -2.4718238838    -2.4358623216
| 22> *
| 23>
| 24>                          ****END OF INPUT****

CARTESIAN COORDINATES (ANGSTROEM)
---------------------------------
  N      0.163912    1.352524    0.293467
  C     -0.026067   -0.067346   -0.001795
  C     -1.452899   -0.394132    0.006672
  C     -2.621726   -0.668089   -0.018421
  C      0.631149   -0.552360   -1.315532
  C      2.083480   -1.006518   -1.267577
  C      0.993192   -2.018204   -1.459578
  C      0.199874    0.157624   -2.492871
  N     -0.146086    0.753769   -3.422227
  H      1.150254    1.586120    0.217609
  H     -0.328834    1.912928   -0.396616
  H      0.461476   -0.635095    0.803178
  H     -3.657075   -0.905029   -0.033791
  H      2.714983   -0.762101   -2.113094
  H      2.576412   -0.953255   -0.302287
  H      0.725934   -2.659547   -0.626741
  H      0.875107   -2.471824   -2.435862

 Total Charge           Charge          ....    0
 Multiplicity           Mult            ....    1
 Number of Electrons    NEL             ....   64
 Basis Dimension        Dim             ....  327

ORBITAL ENERGIES
----------------

  NO   OCC          E(Eh)            E(eV)
   0   2.0000     -15.571519      -423.7226
   1   2.0000     -15.563403      -423.5017
   2   2.0000     -11.315440      -307.9088
   3   2.0000     -11.298372      -307.4443
   4   2.0000     -11.276035      -306.8365
   5   2.0000     -11.269080      -306.6473
   6   2.0000     -11.267075      -306.5927
   7   2.0000     -11.242165      -305.9149
   8   2.0000     -11.235076      -305.7219
   9   2.0000      -1.241839       -33.7922
  10   2.0000      -1.210828       -32.9483
  11   2.0000      -1.173159       -31.9233
  12   2.0000      -1.048671       -28.5358
  13   2.0000      -0.963901       -26.2291
  14   2.0000      -0.892076       -24.2746
  15   2.0000      -0.863231       -23.4897
  16   2.0000      -0.758060       -20.6279
  17   2.0000      -0.714801       -19.4507
  18   2.0000      -0.691730       -18.8229
  19   2.0000      -0.685596       -18.6560
  20   2.0000      -0.629276       -17.1235
  21   2.0000      -0.610212       -16.6047
  22   2.0000      -0.581451       -15.8221
  23   2.0000      -0.557559       -15.1719
  24   2.0000      -0.555945       -15.1280
  25   2.0000      -0.524492       -14.2722
  26   2.0000      -0.496714       -13.5163
  27   2.0000      -0.459049       -12.4914
  28   2.0000      -0.431146       -11.7321
  29   2.0000      -0.414461       -11.2781
  30   2.0000      -0.402225       -10.9451
  31   2.0000      -0.396444       -10.7878
  32   0.0000       0.118810         3.2330
  33   0.0000       0.137299         3.7361
  34   0.0000       0.147405         4.0111
  35   0.0000       0.154107         4.1935
  36   0.0000       0.163710         4.4548

MULLIKEN ATOMIC CHARGES
-----------------------
   0 N :   -0.516399
   1 C :   -0.034398
   2 C :   -0.060166
   3 C :   -0.108528
   4 C :    0.175089
   5 C :   -0.273134
   6 C :   -0.272139
   7 C :   -0.276069
   8 N :   -0.039598
   9 H :    0.228895
  10 H :    0.252791
  11 H :    0.116929
  12 H :    0.197412
  13 H :    0.157871
  14 H :    0.145965
  15 H :    0.148853
  16 H :    0.156626
Sum of atomic charges:   -0.0000000

LOEWDIN ATOMIC CHARGES
----------------------
   0 N :   -0.116181
   1 C :   -0.274279
   2 C :   -0.077830
   3 C :   -0.073835
   4 C :   -0.221021
   5 C :   -0.178925
   6 C :   -0.168738
   7 C :   -0.157787
   8 N :    0.068017
   9 H :    0.158806
  10 H :    0.166475
  11 H :    0.172723
  12 H :    0.129774
  13 H :    0.143982
  14 H :    0.139489
  15 H :    0.144041
  16 H :    0.145288

  Mayer bond orders larger than 0.1
B(  0-N ,  1-C ) :   0.9745 B(  0-N ,  9-H ) :   0.8917 B(  0-N , 10-H ) :   0.8821
B(  1-C ,  2-C ) :   1.2044 B(  1-C ,  4-C ) :   0.8888 B(  1-C , 11-H ) :   0.8858
B(  2-C ,  3-C ) :   2.5696 B(  3-C , 12-H ) :   0.8878 B(  4-C ,  5-C ) :   0.8255
B(  4-C ,  6-C ) :   0.8312 B(  4-C ,  7-C ) :   0.9335 B(  5-C ,  6-C ) :   0.9265
B(  5-C , 13-H ) :   0.9220 B(  5-C , 14-H ) :   0.9210 B(  6-C , 15-H ) :   0.9207
B(  6-C , 16-H ) :   0.9217 B(  7-C ,  8-N ) :   2.8717

MP2 TOTAL ENERGY:     -380.146811982 Eh
FINAL SINGLE POINT ENERGY      -380.146811982270

DIPOLE MOMENT
-------------
                                X             Y             Z
Electronic contribution:     -3.29174       1.80581      -2.64477
Nuclear contribution   :      4.08351      -2.69344       3.36776
                        -----------------------------------------
Total Dipole Moment    :      0.79177      -0.88762       0.72299
                        -----------------------------------------
Magnitude (a.u.)       :      1.39194
Magnitude (Debye)      :      3.53803

                             ****ORCA TERMINATED NORMALLY****
TOTAL RUN TIME: 0 days 0 hours 18 minutes 19 seconds 606 msec
