                         Program Version 3.0.3 - RELEASE   -
|  1> ! RI-MP2 RIJK def2-TZVP def2-TZVP/C def2-TZVP/JK TIGHTSCF
|  2> % maxcore 2000
|  3> % mp2 density relaxed end
|  4> *xyz 0 1
|  5>  N       -0.0681138330     1.3004239272    -0.2096220931
|  6>  C        0.0027911211     0.0548609543     0.0143715393
|  7>  O        1.1895052459    -0.5866846607     0.2156641185
|  8>  C        1.1264349050    -1.9731145088     0.4543671835
|  9>  C        0.0655974422    -2.6358008274     1.2765573418
| 10>  C        0.1787615429    -2.9017917676    -0.2384524119
| 11>  C       -1.2003464517    -2.2316171724    -0.4400430321
| 12>  C       -1.3107580739    -1.9720930337     1.0381365462
| 13>  C       -1.1974336495    -0.8012534678     0.0750412704
| 14>  H        0.8686253200     1.7099458608    -0.2115579277
| 15>  H        2.1344197264    -2.3468844705     0.5952820575
| 16>  H        0.2891078450    -3.2825235732     2.1149838371
| 17>  H        0.5043483858    -3.7884524538    -0.7666497430
| 18>  H       -1.9488124982    -2.5780998454    -1.1389519837
| 19>  H       -2.1606786848    -2.0801092291     1.6974490907
| 20>  H       -2.1174458633    -0.2537354018    -0.0898049036
| 21> *
| 22>
| 23>                          ****END OF INPUT****

CARTESIAN COORDINATES (ANGSTROEM)
---------------------------------
  N     -0.068114    1.300424   -0.209622
  C      0.002791    0.054861    0.014372
  O      1.189505   -0.586685    0.215664
  C      1.126435   -1.973115    0.454367
  C      0.065597   -2.635801    1.276557
  C      0.178762   -2.901792   -0.238452
  C     -1.200346   -2.231617   -0.440043
  C     -1.310758   -1.972093    1.038137
  C     -1.197434   -0.801253    0.075041
  H      0.868625    1.709946   -0.211558
  H      2.134420   -2.346884    0.595282
  H      0.289108   -3.282524    2.114984
  H      0.504348   -3.788452   -0.766650
  H     -1.948812   -2.578100   -1.138952
  H     -2.160679   -2.080109    1.697449
  H     -2.117446   -0.253735   -0.089805

 Total Charge           Charge          ....    0
 Multiplicity           Mult            ....    1
 Number of Electrons    NEL             ....   64
 Basis Dimension        Dim             ....  321

ORBITAL ENERGIES
----------------

  NO   OCC          E(Eh)            E(eV)
   0   2.0000     -20.596845      -560.4687
   1   2.0000     -15.522139      -422.3789
   2   2.0000     -11.334516      -308.4279
   3   2.0000     -11.309752      -307.7540
   4   2.0000     -11.259269      -306.3803
   5   2.0000     -11.258533      -306.3603
   6   2.0000     -11.255678      -306.2826
   7   2.0000     -11.255102      -306.2669
   8   2.0000     -11.254862      -306.2604
   9   2.0000      -1.434771       -39.0421
  10   2.0000      -1.238592       -33.7038
  11   2.0000      -1.192345       -32.4454
  12   2.0000      -1.088501       -29.6196
  13   2.0000      -0.909312       -24.7436
  14   2.0000      -0.895985       -24.3810
  15   2.0000      -0.875064       -23.8117
  16   2.0000      -0.746568       -20.3152
  17   2.0000      -0.742522       -20.2050
  18   2.0000      -0.715351       -19.4657
  19   2.0000      -0.683526       -18.5997
  20   2.0000      -0.655809       -17.8455
  21   2.0000      -0.633656       -17.2427
  22   2.0000      -0.631484       -17.1836
  23   2.0000      -0.571584       -15.5536
  24   2.0000      -0.521409       -14.1883
  25   2.0000      -0.510245       -13.8845
  26   2.0000      -0.502572       -13.6757
  27   2.0000      -0.469461       -12.7747
  28   2.0000      -0.446045       -12.1375
  29   2.0000      -0.432434       -11.7671
  30   2.0000      -0.363251        -9.8846
  31   2.0000      -0.352596        -9.5946
  32   0.0000       0.140269         3.8169
  33   0.0000       0.156345         4.2544
  34   0.0000       0.161105         4.3839
  35   0.0000       0.176200         4.7946
  36   0.0000       0.179068         4.8727

MULLIKEN ATOMIC CHARGES
-----------------------
   0 N :   -0.370449
   1 C :    0.137323
   2 O :   -0.247631
   3 C :    0.047461
   4 C :   -0.161791
   5 C :   -0.161790
   6 C :   -0.096781
   7 C :   -0.096780
   8 C :   -0.140667
   9 H :    0.216808
  10 H :    0.133415
  11 H :    0.145738
  12 H :    0.145738
  13 H :    0.153325
  14 H :    0.153325
  15 H :    0.142755
Sum of atomic charges:    0.0000000

LOEWDIN ATOMIC CHARGES
----------------------
   0 N :   -0.063460
   1 C :   -0.388175
   2 O :    0.277243
   3 C :   -0.241920
   4 C :   -0.130137
   5 C :   -0.130137
   6 C :   -0.126093
   7 C :   -0.126093
   8 C :   -0.133705
   9 H :    0.165130
  10 H :    0.154933
  11 H :    0.140779
  12 H :    0.140779
  13 H :    0.144241
  14 H :    0.144242
  15 H :    0.172375

  Mayer bond orders larger than 0.1
B(  0-N ,  1-C ) :   2.0548 B(  0-N ,  9-H ) :   0.8549 B(  1-C ,  2-O ) :   1.0881
B(  1-C ,  8-C ) :   0.9946 B(  2-O ,  3-C ) :   0.9419 B(  3-C ,  4-C ) :   0.8881
B(  3-C ,  5-C ) :   0.8881 B(  3-C , 10-H ) :   0.9544 B(  4-C ,  5-C ) :   0.8574
B(  4-C ,  7-C ) :   0.8910 B(  4-C , 11-H ) :   0.9169 B(  5-C ,  6-C ) :   0.8910
B(  5-C , 12-H ) :   0.9169 B(  6-C ,  7-C ) :   0.8854 B(  6-C ,  8-C ) :   0.8319
B(  6-C , 13-H ) :   0.9187 B(  7-C ,  8-C ) :   0.8319 B(  7-C , 14-H ) :   0.9187
B(  8-C , 15-H ) :   0.9391

MP2 TOTAL ENERGY:     -400.000854214 Eh
FINAL SINGLE POINT ENERGY      -400.000854214359

DIPOLE MOMENT
-------------
                                X             Y             Z
Electronic contribution:      1.59731       2.04848      -0.24033
Nuclear contribution   :     -1.58766      -3.49065       0.49426
                        -----------------------------------------
Total Dipole Moment    :      0.00965      -1.44217       0.25393
                        -----------------------------------------
Magnitude (a.u.)       :      1.46438
Magnitude (Debye)      :      3.72217

                             ****ORCA TERMINATED NORMALLY****
TOTAL RUN TIME: 0 days 0 hours 17 minutes 31 seconds 156 msec
