                         Program Version 3.0.3 - RELEASE   -
|  1> ! RI-MP2 RIJK def2-TZVP def2-TZVP/C def2-TZVP/JK TIGHTSCF
|  2> % maxcore 2000
|  3> % mp2 density relaxed end
|  4> *xyz 0 1
|  5>  C       -0.0201995231     1.5445509573     0.0061502038
|  6>  C        0.0005562934     0.0420324132    -0.0138439454
|  7>  C       -0.0515926780    -0.6929363330    -1.1489124346
|  8>  O       -0.0329188980    -2.0229911203    -1.1548517966
|  9>  C        0.0449203433    -2.7669129633     0.0662233661
| 10>  O        0.0554586784    -3.9547837902    -0.0376746568
| 11>  N        0.0998182467    -2.0393292057     1.2383868281
| 12>  C        0.0782364450    -0.7421094169     1.1829700084
| 13>  H        0.8811901310     1.9507718635     0.4778585554
| 14>  H       -0.0772979113     1.9489842018    -1.0078298828
| 15>  H       -0.8807600818     1.9254068210     0.5669261728
| 16>  H       -0.1127058090    -0.2751445941    -2.1501508442
| 17>  H        0.1243238734    -0.2219853133     2.1424174458
| 18> *
| 19>
| 20>                          ****END OF INPUT****

CARTESIAN COORDINATES (ANGSTROEM)
---------------------------------
  C     -0.020200    1.544551    0.006150
  C      0.000556    0.042032   -0.013844
  C     -0.051593   -0.692936   -1.148912
  O     -0.032919   -2.022991   -1.154852
  C      0.044920   -2.766913    0.066223
  O      0.055459   -3.954784   -0.037675
  N      0.099818   -2.039329    1.238387
  C      0.078236   -0.742109    1.182970
  H      0.881190    1.950772    0.477859
  H     -0.077298    1.948984   -1.007830
  H     -0.880760    1.925407    0.566926
  H     -0.112706   -0.275145   -2.150151
  H      0.124324   -0.221985    2.142417

 Total Charge           Charge          ....    0
 Multiplicity           Mult            ....    1
 Number of Electrons    NEL             ....   58
 Basis Dimension        Dim             ....  278

ORBITAL ENERGIES
----------------

  NO   OCC          E(Eh)            E(eV)
   0   2.0000     -20.643335      -561.7337
   1   2.0000     -20.541306      -558.9573
   2   2.0000     -15.584662      -424.0802
   3   2.0000     -11.413794      -310.5851
   4   2.0000     -11.353299      -308.9390
   5   2.0000     -11.335787      -308.4624
   6   2.0000     -11.266084      -306.5657
   7   2.0000     -11.259565      -306.3883
   8   2.0000      -1.491422       -40.5837
   9   2.0000      -1.389242       -37.8032
  10   2.0000      -1.264972       -34.4216
  11   2.0000      -1.121324       -30.5128
  12   2.0000      -0.979922       -26.6650
  13   2.0000      -0.936299       -25.4780
  14   2.0000      -0.892217       -24.2785
  15   2.0000      -0.768598       -20.9146
  16   2.0000      -0.731215       -19.8974
  17   2.0000      -0.676479       -18.4079
  18   2.0000      -0.664057       -18.0699
  19   2.0000      -0.636696       -17.3254
  20   2.0000      -0.631667       -17.1885
  21   2.0000      -0.604072       -16.4376
  22   2.0000      -0.582387       -15.8476
  23   2.0000      -0.562551       -15.3078
  24   2.0000      -0.541442       -14.7334
  25   2.0000      -0.486858       -13.2481
  26   2.0000      -0.478619       -13.0239
  27   2.0000      -0.441096       -12.0028
  28   2.0000      -0.361562        -9.8386
  29   0.0000       0.051594         1.4039
  30   0.0000       0.119232         3.2445
  31   0.0000       0.148062         4.0290
  32   0.0000       0.156467         4.2577
  33   0.0000       0.169007         4.5989

MULLIKEN ATOMIC CHARGES
-----------------------
   0 C :   -0.408283
   1 C :    0.015305
   2 C :    0.033251
   3 O :   -0.173642
   4 C :    0.301795
   5 O :   -0.258920
   6 N :   -0.227479
   7 C :   -0.032110
   8 H :    0.153613
   9 H :    0.142503
  10 H :    0.153680
  11 H :    0.151824
  12 H :    0.148463
Sum of atomic charges:    0.0000000

LOEWDIN ATOMIC CHARGES
----------------------
   0 C :   -0.261446
   1 C :   -0.220551
   2 C :   -0.187025
   3 O :    0.319819
   4 C :   -0.498758
   5 O :    0.152703
   6 N :    0.142942
   7 C :   -0.149601
   8 H :    0.135166
   9 H :    0.135140
  10 H :    0.135163
  11 H :    0.146893
  12 H :    0.149557

  Mayer bond orders larger than 0.1
B(  0-C ,  1-C ) :   0.8725 B(  0-C ,  8-H ) :   0.9309 B(  0-C ,  9-H ) :   0.9433
B(  0-C , 10-H ) :   0.9306 B(  1-C ,  2-C ) :   1.5370 B(  1-C ,  7-C ) :   1.0853
B(  2-C ,  3-O ) :   1.1344 B(  2-C , 11-H ) :   0.9442 B(  3-O ,  4-C ) :   0.9276
B(  4-C ,  5-O ) :   2.0484 B(  4-C ,  6-N ) :   1.1266 B(  6-N ,  7-C ) :   1.6296
B(  7-C , 12-H ) :   0.9430

MP2 TOTAL ENERGY:     -397.986372478 Eh
FINAL SINGLE POINT ENERGY      -397.986372478202

DIPOLE MOMENT
-------------
                                X             Y             Z
Electronic contribution:      0.10856      -8.92516      -0.34596
Nuclear contribution   :     -0.15888      11.29015       0.04176
                        -----------------------------------------
Total Dipole Moment    :     -0.05032       2.36499      -0.30419
                        -----------------------------------------
Magnitude (a.u.)       :      2.38501
Magnitude (Debye)      :      6.06221

                             ****ORCA TERMINATED NORMALLY****
TOTAL RUN TIME: 0 days 0 hours 9 minutes 43 seconds 937 msec
