                         Program Version 3.0.3 - RELEASE   -
|  1> ! RI-MP2 RIJK def2-TZVP def2-TZVP/C def2-TZVP/JK TIGHTSCF
|  2> % maxcore 2000
|  3> % mp2 density relaxed end
|  4> *xyz 0 1
|  5>  O       -0.0637944634    -0.1118690028    -0.2111879095
|  6>  C        0.0126785942     1.0820613126    -0.0809428241
|  7>  C        1.3074296284     1.8692839420    -0.0734909373
|  8>  C        1.3364272396     2.9113763133    -1.1735407988
|  9>  C        1.3785837782     2.5088878834    -2.6785526183
| 10>  C        2.0550695115     3.8572657795    -2.9050840577
| 11>  C        2.4866443262     3.9551309968    -1.4925697219
| 12>  N        1.4453713907     4.8932991695    -1.9939683048
| 13>  C        0.4089329288     4.1448729086    -1.2133431261
| 14>  H       -0.9052865571     1.7031436887     0.0406629993
| 15>  H        1.3877381100     2.3723214682     0.9015126728
| 16>  H        2.1402295742     1.1655932976    -0.1667828797
| 17>  H        2.0786863446     1.6884635480    -2.8575299406
| 18>  H        0.4250005718     2.2973307880    -3.1747221608
| 19>  H        2.5372217708     4.2373267625    -3.7956287582
| 20>  H        3.4039371110     4.2541241905    -1.0023135441
| 21>  H       -0.5694594003     4.0495206829    -1.6996409658
| 22>  H        0.2942482909     4.6332137708    -0.2411394743
| 23> *
| 24>
| 25>                          ****END OF INPUT****

CARTESIAN COORDINATES (ANGSTROEM)
---------------------------------
  O     -0.063794   -0.111869   -0.211188
  C      0.012679    1.082061   -0.080943
  C      1.307430    1.869284   -0.073491
  C      1.336427    2.911376   -1.173541
  C      1.378584    2.508888   -2.678553
  C      2.055070    3.857266   -2.905084
  C      2.486644    3.955131   -1.492570
  N      1.445371    4.893299   -1.993968
  C      0.408933    4.144873   -1.213343
  H     -0.905287    1.703144    0.040663
  H      1.387738    2.372321    0.901513
  H      2.140230    1.165593   -0.166783
  H      2.078686    1.688464   -2.857530
  H      0.425001    2.297331   -3.174722
  H      2.537222    4.237327   -3.795629
  H      3.403937    4.254124   -1.002314
  H     -0.569459    4.049521   -1.699641
  H      0.294248    4.633214   -0.241139

 Total Charge           Charge          ....    0
 Multiplicity           Mult            ....    1
 Number of Electrons    NEL             ....   66
 Basis Dimension        Dim             ....  333

ORBITAL ENERGIES
----------------

  NO   OCC          E(Eh)            E(eV)
   0   2.0000     -20.564378      -559.5852
   1   2.0000     -15.570610      -423.6978
   2   2.0000     -11.339645      -308.5674
   3   2.0000     -11.271424      -306.7110
   4   2.0000     -11.270078      -306.6744
   5   2.0000     -11.268484      -306.6310
   6   2.0000     -11.265436      -306.5481
   7   2.0000     -11.252038      -306.1835
   8   2.0000     -11.242874      -305.9342
   9   2.0000      -1.403043       -38.1787
  10   2.0000      -1.325733       -36.0750
  11   2.0000      -1.081571       -29.4311
  12   2.0000      -1.019542       -27.7432
  13   2.0000      -0.970833       -26.4177
  14   2.0000      -0.884402       -24.0658
  15   2.0000      -0.806493       -21.9458
  16   2.0000      -0.779096       -21.2003
  17   2.0000      -0.748747       -20.3744
  18   2.0000      -0.695261       -18.9190
  19   2.0000      -0.664636       -18.0857
  20   2.0000      -0.649797       -17.6819
  21   2.0000      -0.629736       -17.1360
  22   2.0000      -0.624000       -16.9799
  23   2.0000      -0.599226       -16.3058
  24   2.0000      -0.563412       -15.3312
  25   2.0000      -0.536179       -14.5902
  26   2.0000      -0.523575       -14.2472
  27   2.0000      -0.479914       -13.0591
  28   2.0000      -0.467360       -12.7175
  29   2.0000      -0.452308       -12.3079
  30   2.0000      -0.432471       -11.7681
  31   2.0000      -0.411275       -11.1914
  32   2.0000      -0.378396       -10.2967
  33   0.0000       0.117150         3.1878
  34   0.0000       0.139023         3.7830
  35   0.0000       0.154074         4.1926
  36   0.0000       0.158280         4.3070
  37   0.0000       0.171261         4.6602

MULLIKEN ATOMIC CHARGES
-----------------------
   0 O :   -0.256763
   1 C :    0.094065
   2 C :   -0.155422
   3 C :   -0.036276
   4 C :   -0.190887
   5 C :   -0.112647
   6 C :   -0.094655
   7 N :   -0.225769
   8 C :   -0.131834
   9 H :    0.080894
  10 H :    0.134446
  11 H :    0.124397
  12 H :    0.128521
  13 H :    0.117933
  14 H :    0.140042
  15 H :    0.151260
  16 H :    0.113486
  17 H :    0.119210
Sum of atomic charges:   -0.0000000

LOEWDIN ATOMIC CHARGES
----------------------
   0 O :    0.136829
   1 C :   -0.285519
   2 C :   -0.228499
   3 C :   -0.213091
   4 C :   -0.183355
   5 C :   -0.206794
   6 C :   -0.148328
   7 N :    0.122708
   8 C :   -0.217191
   9 H :    0.112090
  10 H :    0.157261
  11 H :    0.152013
  12 H :    0.147351
  13 H :    0.129109
  14 H :    0.135776
  15 H :    0.131890
  16 H :    0.122613
  17 H :    0.135136

  Mayer bond orders larger than 0.1
B(  0-O ,  1-C ) :   2.0022 B(  1-C ,  2-C ) :   0.8834 B(  1-C ,  9-H ) :   0.9347
B(  2-C ,  3-C ) :   0.8714 B(  2-C , 10-H ) :   0.9188 B(  2-C , 11-H ) :   0.8992
B(  3-C ,  4-C ) :   0.9344 B(  3-C ,  6-C ) :   0.8853 B(  3-C ,  8-C ) :   0.9427
B(  4-C ,  5-C ) :   0.9072 B(  4-C , 12-H ) :   0.9204 B(  4-C , 13-H ) :   0.9107
B(  5-C ,  6-C ) :   0.8855 B(  5-C ,  7-N ) :   0.8922 B(  5-C , 14-H ) :   0.9393
B(  6-C ,  7-N ) :   0.8823 B(  6-C , 15-H ) :   0.8906 B(  7-N ,  8-C ) :   0.9343
B(  8-C , 16-H ) :   0.9130 B(  8-C , 17-H ) :   0.9284

MP2 TOTAL ENERGY:     -401.191028434 Eh
FINAL SINGLE POINT ENERGY      -401.191028434211

DIPOLE MOMENT
-------------
                                X             Y             Z
Electronic contribution:     -0.32720      -1.31343       0.53911
Nuclear contribution   :      0.64584       1.59701      -0.34651
                        -----------------------------------------
Total Dipole Moment    :      0.31864       0.28358       0.19261
                        -----------------------------------------
Magnitude (a.u.)       :      0.46802
Magnitude (Debye)      :      1.18962

                             ****ORCA TERMINATED NORMALLY****
TOTAL RUN TIME: 0 days 0 hours 18 minutes 35 seconds 238 msec
