                         Program Version 3.0.3 - RELEASE   -
|  1> ! RI-MP2 RIJK def2-TZVP def2-TZVP/C def2-TZVP/JK TIGHTSCF
|  2> % maxcore 2000
|  3> % mp2 density relaxed end
|  4> *xyz 0 1
|  5>  N       -0.0574494347     1.0292936323    -0.7783985026
|  6>  C        0.0330592980    -0.0563118609    -0.1306187845
|  7>  N       -1.1430388671    -0.7363286252     0.2671820953
|  8>  C       -1.6597123325    -1.8131041061    -0.5742285303
|  9>  C       -1.0520303039    -2.0980101632     0.7714332408
| 10>  C        0.2695609606    -2.7304310258     0.9166192789
| 11>  C        1.4087520324    -2.0658792327     0.6708026002
| 12>  C        1.3935196209    -0.6761962974     0.1977021140
| 13>  O        2.4077386230    -0.0395652458    -0.0105596393
| 14>  H        0.8961585953     1.3584928074    -0.9617247547
| 15>  H       -2.7387142815    -1.8450277368    -0.6924457550
| 16>  H       -1.0814249984    -2.0865536727    -1.4529661152
| 17>  H       -1.7481470066    -2.3127343882     1.5816580765
| 18>  H        0.2912127219    -3.7512720854     1.2908216160
| 19>  H        2.3859622426    -2.5169978095     0.8062642300
| 20> *
| 21>
| 22>                          ****END OF INPUT****

CARTESIAN COORDINATES (ANGSTROEM)
---------------------------------
  N     -0.057449    1.029294   -0.778399
  C      0.033059   -0.056312   -0.130619
  N     -1.143039   -0.736329    0.267182
  C     -1.659712   -1.813104   -0.574229
  C     -1.052030   -2.098010    0.771433
  C      0.269561   -2.730431    0.916619
  C      1.408752   -2.065879    0.670803
  C      1.393520   -0.676196    0.197702
  O      2.407739   -0.039565   -0.010560
  H      0.896159    1.358493   -0.961725
  H     -2.738714   -1.845028   -0.692446
  H     -1.081425   -2.086554   -1.452966
  H     -1.748147   -2.312734    1.581658
  H      0.291213   -3.751272    1.290822
  H      2.385962   -2.516998    0.806264

 Total Charge           Charge          ....    0
 Multiplicity           Mult            ....    1
 Number of Electrons    NEL             ....   64
 Basis Dimension        Dim             ....  315

ORBITAL ENERGIES
----------------

  NO   OCC          E(Eh)            E(eV)
   0   2.0000     -20.566019      -559.6298
   1   2.0000     -15.594992      -424.3613
   2   2.0000     -15.557332      -423.3365
   3   2.0000     -11.354181      -308.9630
   4   2.0000     -11.323909      -308.1392
   5   2.0000     -11.300361      -307.4985
   6   2.0000     -11.295453      -307.3649
   7   2.0000     -11.292940      -307.2965
   8   2.0000     -11.263911      -306.5066
   9   2.0000      -1.408769       -38.3346
  10   2.0000      -1.329107       -36.1668
  11   2.0000      -1.212990       -33.0071
  12   2.0000      -1.111896       -30.2562
  13   2.0000      -1.000704       -27.2305
  14   2.0000      -0.914290       -24.8791
  15   2.0000      -0.868056       -23.6210
  16   2.0000      -0.825710       -22.4687
  17   2.0000      -0.739296       -20.1173
  18   2.0000      -0.717973       -19.5370
  19   2.0000      -0.684550       -18.6276
  20   2.0000      -0.664487       -18.0816
  21   2.0000      -0.645316       -17.5599
  22   2.0000      -0.618452       -16.8289
  23   2.0000      -0.576577       -15.6895
  24   2.0000      -0.555854       -15.1256
  25   2.0000      -0.535688       -14.5768
  26   2.0000      -0.525813       -14.3081
  27   2.0000      -0.490954       -13.3595
  28   2.0000      -0.466664       -12.6986
  29   2.0000      -0.420034       -11.4297
  30   2.0000      -0.410539       -11.1713
  31   2.0000      -0.372589       -10.1387
  32   0.0000       0.048035         1.3071
  33   0.0000       0.123276         3.3545
  34   0.0000       0.140951         3.8355
  35   0.0000       0.162782         4.4295
  36   0.0000       0.167381         4.5547

MULLIKEN ATOMIC CHARGES
-----------------------
   0 N :   -0.282012
   1 C :   -0.009893
   2 N :   -0.154477
   3 C :   -0.148895
   4 C :   -0.015802
   5 C :   -0.102730
   6 C :   -0.222770
   7 C :    0.267452
   8 O :   -0.295730
   9 H :    0.240591
  10 H :    0.143241
  11 H :    0.136508
  12 H :    0.151970
  13 H :    0.144302
  14 H :    0.148246
Sum of atomic charges:    0.0000000

LOEWDIN ATOMIC CHARGES
----------------------
   0 N :    0.007673
   1 C :   -0.322832
   2 N :    0.187820
   3 C :   -0.189050
   4 C :   -0.233029
   5 C :   -0.101879
   6 C :   -0.121344
   7 C :   -0.299231
   8 O :    0.160402
   9 H :    0.177663
  10 H :    0.132278
  11 H :    0.134004
  12 H :    0.156601
  13 H :    0.154521
  14 H :    0.156403

  Mayer bond orders larger than 0.1
B(  0-N ,  1-C ) :   2.0280 B(  0-N ,  9-H ) :   0.8401 B(  1-C ,  2-N ) :   1.0033
B(  1-C ,  7-C ) :   0.8971 B(  2-N ,  3-C ) :   0.8697 B(  2-N ,  4-C ) :   0.9013
B(  3-C ,  4-C ) :   0.9120 B(  3-C , 10-H ) :   0.9195 B(  3-C , 11-H ) :   0.9042
B(  4-C ,  5-C ) :   0.9778 B(  4-C , 12-H ) :   0.9023 B(  5-C ,  6-C ) :   1.6703
B(  5-C , 13-H ) :   0.9151 B(  6-C ,  7-C ) :   1.0315 B(  6-C , 14-H ) :   0.9193
B(  7-C ,  8-O ) :   1.8341

MP2 TOTAL ENERGY:     -416.085062413 Eh
FINAL SINGLE POINT ENERGY      -416.085062413340

DIPOLE MOMENT
-------------
                                X             Y             Z
Electronic contribution:      2.62944       3.03771       0.49254
Nuclear contribution   :     -2.97322      -4.85359      -0.18382
                        -----------------------------------------
Total Dipole Moment    :     -0.34378      -1.81588       0.30872
                        -----------------------------------------
Magnitude (a.u.)       :      1.87374
Magnitude (Debye)      :      4.76268

                             ****ORCA TERMINATED NORMALLY****
TOTAL RUN TIME: 0 days 0 hours 16 minutes 49 seconds 680 msec
