                         Program Version 3.0.3 - RELEASE   -
|  1> ! RI-MP2 RIJK def2-TZVP def2-TZVP/C def2-TZVP/JK TIGHTSCF
|  2> % maxcore 2000
|  3> % mp2 density relaxed end
|  4> *xyz 0 1
|  5>  C       -0.0498720183     1.4637067384     0.0022266273
|  6>  C       -0.0040463535     0.0100229176    -0.0115811612
|  7>  C        0.0305291755    -1.1996630012    -0.0325862010
|  8>  C        0.0968880283    -2.6013392405    -0.0484423571
|  9>  C        1.2077919390    -3.4430878351    -0.0162830229
| 10>  N        2.5440283959    -3.0291468654    -0.0329230728
| 11>  C        0.7329381372    -4.7806186665    -0.0428014697
| 12>  C       -0.6452438177    -4.7282994982    -0.0941609682
| 13>  N       -1.0254242525    -3.4230760452    -0.1036742286
| 14>  H        0.6846692231     1.8947038591    -0.6882648502
| 15>  H       -1.0371978129     1.8253739629    -0.3072165805
| 16>  H        0.1516100051     1.8740693341     0.9992859968
| 17>  H        2.6461554815    -2.0596221714     0.2406699305
| 18>  H        3.1474510291    -3.6116341427     0.5325382107
| 19>  H        1.3356037098    -5.6758793834    -0.0356925434
| 20>  H       -1.3740988579    -5.5221909982    -0.1264186678
| 21>  H       -1.9687235917    -3.0806483542    -0.1355846321
| 22> *
| 23>
| 24>                          ****END OF INPUT****

CARTESIAN COORDINATES (ANGSTROEM)
---------------------------------
  C     -0.049872    1.463707    0.002227
  C     -0.004046    0.010023   -0.011581
  C      0.030529   -1.199663   -0.032586
  C      0.096888   -2.601339   -0.048442
  C      1.207792   -3.443088   -0.016283
  N      2.544028   -3.029147   -0.032923
  C      0.732938   -4.780619   -0.042801
  C     -0.645244   -4.728299   -0.094161
  N     -1.025424   -3.423076   -0.103674
  H      0.684669    1.894704   -0.688265
  H     -1.037198    1.825374   -0.307217
  H      0.151610    1.874069    0.999286
  H      2.646155   -2.059622    0.240670
  H      3.147451   -3.611634    0.532538
  H      1.335604   -5.675879   -0.035693
  H     -1.374099   -5.522191   -0.126419
  H     -1.968724   -3.080648   -0.135585

 Total Charge           Charge          ....    0
 Multiplicity           Mult            ....    1
 Number of Electrons    NEL             ....   64
 Basis Dimension        Dim             ....  327

ORBITAL ENERGIES
----------------

  NO   OCC          E(Eh)            E(eV)
   0   2.0000     -15.600404      -424.5086
   1   2.0000     -15.551611      -423.1808
   2   2.0000     -11.262323      -306.4634
   3   2.0000     -11.257781      -306.3398
   4   2.0000     -11.251709      -306.1746
   5   2.0000     -11.246096      -306.0218
   6   2.0000     -11.224807      -305.4425
   7   2.0000     -11.220174      -305.3165
   8   2.0000     -11.206495      -304.9442
   9   2.0000      -1.292455       -35.1695
  10   2.0000      -1.195199       -32.5230
  11   2.0000      -1.062001       -28.8985
  12   2.0000      -1.025536       -27.9063
  13   2.0000      -1.000286       -27.2192
  14   2.0000      -0.931534       -25.3483
  15   2.0000      -0.807344       -21.9689
  16   2.0000      -0.778869       -21.1941
  17   2.0000      -0.752080       -20.4651
  18   2.0000      -0.668921       -18.2023
  19   2.0000      -0.636787       -17.3278
  20   2.0000      -0.613724       -16.7003
  21   2.0000      -0.604689       -16.4544
  22   2.0000      -0.588263       -16.0074
  23   2.0000      -0.584025       -15.8921
  24   2.0000      -0.577453       -15.7133
  25   2.0000      -0.568983       -15.4828
  26   2.0000      -0.531633       -14.4665
  27   2.0000      -0.471858       -12.8399
  28   2.0000      -0.409303       -11.1377
  29   2.0000      -0.376448       -10.2437
  30   2.0000      -0.322763        -8.7828
  31   2.0000      -0.261984        -7.1289
  32   0.0000       0.132052         3.5933
  33   0.0000       0.138611         3.7718
  34   0.0000       0.144047         3.9197
  35   0.0000       0.152704         4.1553
  36   0.0000       0.181686         4.9439

MULLIKEN ATOMIC CHARGES
-----------------------
   0 C :   -0.472168
   1 C :    0.005367
   2 C :    0.053295
   3 C :    0.011446
   4 C :    0.064407
   5 N :   -0.513794
   6 C :   -0.255474
   7 C :   -0.079941
   8 N :   -0.301724
   9 H :    0.164117
  10 H :    0.161550
  11 H :    0.161486
  12 H :    0.245566
  13 H :    0.245412
  14 H :    0.123398
  15 H :    0.143406
  16 H :    0.243654
Sum of atomic charges:    0.0000000

LOEWDIN ATOMIC CHARGES
----------------------
   0 C :   -0.297568
   1 C :   -0.091651
   2 C :   -0.077356
   3 C :   -0.215202
   4 C :   -0.242204
   5 N :   -0.085530
   6 C :   -0.182404
   7 C :   -0.239738
   8 N :    0.206800
   9 H :    0.141430
  10 H :    0.142480
  11 H :    0.139171
  12 H :    0.169446
  13 H :    0.166387
  14 H :    0.139290
  15 H :    0.132691
  16 H :    0.193960

  Mayer bond orders larger than 0.1
B(  0-C ,  1-C ) :   0.8513 B(  0-C ,  9-H ) :   0.9439 B(  0-C , 10-H ) :   0.9454
B(  0-C , 11-H ) :   0.9451 B(  1-C ,  2-C ) :   2.6478 B(  2-C ,  3-C ) :   1.0791
B(  3-C ,  4-C ) :   1.4092 B(  3-C ,  8-N ) :   1.0916 B(  4-C ,  5-N ) :   1.0350
B(  4-C ,  6-C ) :   1.3391 B(  5-N , 12-H ) :   0.8773 B(  5-N , 13-H ) :   0.8791
B(  6-C ,  7-C ) :   1.4579 B(  6-C , 14-H ) :   0.9333 B(  7-C ,  8-N ) :   1.1830
B(  7-C , 15-H ) :   0.9188 B(  8-N , 16-H ) :   0.8732

MP2 TOTAL ENERGY:     -380.196344312 Eh
FINAL SINGLE POINT ENERGY      -380.196344312308

DIPOLE MOMENT
-------------
                                X             Y             Z
Electronic contribution:     -1.21961      -4.16628      -0.29721
Nuclear contribution   :      0.78684       4.53524       0.72145
                        -----------------------------------------
Total Dipole Moment    :     -0.43277       0.36896       0.42424
                        -----------------------------------------
Magnitude (a.u.)       :      0.70951
Magnitude (Debye)      :      1.80343

                             ****ORCA TERMINATED NORMALLY****
TOTAL RUN TIME: 0 days 0 hours 15 minutes 53 seconds 756 msec
