                         Program Version 3.0.3 - RELEASE   -
|  1> ! RI-MP2 RIJK def2-TZVP def2-TZVP/C def2-TZVP/JK TIGHTSCF
|  2> % maxcore 2000
|  3> % mp2 density relaxed end
|  4> *xyz 0 1
|  5>  C       -0.1005588913     1.4991526277     0.1413185646
|  6>  C        0.0408523721    -0.0216995910     0.0381343746
|  7>  C       -1.3092537037    -0.6844116264    -0.2172033090
|  8>  C        1.2196343646    -0.4392957492    -0.9041880853
|  9>  C        2.1453362183    -0.5727322978     0.3367896552
| 10>  C        0.8802076638    -0.6225943070     1.2104044902
| 11>  O        0.9310050048     0.1241929918     2.4230567907
| 12>  C        0.4960570381    -0.4494282345     3.5601987750
| 13>  O        0.4812880684     0.1199637868     4.6096889798
| 14>  H        0.8598264938     1.9910833529     0.3192035238
| 15>  H       -0.5183713029     1.8986139270    -0.7890635679
| 16>  H       -0.7676508167     1.7785200075     0.9623493045
| 17>  H       -1.7502991151    -0.3270839432    -1.1544465483
| 18>  H       -1.2139490117    -1.7734381282    -0.2890191241
| 19>  H       -2.0194181224    -0.4595305036     0.5872752223
| 20>  H        1.0365735259    -1.4001751019    -1.3928590918
| 21>  H        1.5141503808     0.2879933058    -1.6637257242
| 22>  H        2.8241114511    -1.4262924424     0.3877925702
| 23>  H        2.7123030322     0.3406426144     0.5297593255
| 24>  H        0.5705718978    -1.6520805591     1.4294803730
| 25>  H        0.1634071523    -1.4959531896     3.4113425212
| 26> *
| 27>
| 28>                          ****END OF INPUT****

CARTESIAN COORDINATES (ANGSTROEM)
---------------------------------
  C     -0.100559    1.499153    0.141319
  C      0.040852   -0.021700    0.038134
  C     -1.309254   -0.684412   -0.217203
  C      1.219634   -0.439296   -0.904188
  C      2.145336   -0.572732    0.336790
  C      0.880208   -0.622594    1.210404
  O      0.931005    0.124193    2.423057
  C      0.496057   -0.449428    3.560199
  O      0.481288    0.119964    4.609689
  H      0.859826    1.991083    0.319204
  H     -0.518371    1.898614   -0.789064
  H     -0.767651    1.778520    0.962349
  H     -1.750299   -0.327084   -1.154447
  H     -1.213949   -1.773438   -0.289019
  H     -2.019418   -0.459531    0.587275
  H      1.036574   -1.400175   -1.392859
  H      1.514150    0.287993   -1.663726
  H      2.824111   -1.426292    0.387793
  H      2.712303    0.340643    0.529759
  H      0.570572   -1.652081    1.429480
  H      0.163407   -1.495953    3.411343

 Total Charge           Charge          ....    0
 Multiplicity           Mult            ....    1
 Number of Electrons    NEL             ....   70
 Basis Dimension        Dim             ....  351

ORBITAL ENERGIES
----------------

  NO   OCC          E(Eh)            E(eV)
   0   2.0000     -20.606275      -560.7252
   1   2.0000     -20.548319      -559.1482
   2   2.0000     -11.381946      -309.7185
   3   2.0000     -11.303019      -307.5708
   4   2.0000     -11.249147      -306.1049
   5   2.0000     -11.235407      -305.7310
   6   2.0000     -11.233298      -305.6736
   7   2.0000     -11.225804      -305.4697
   8   2.0000     -11.219910      -305.3093
   9   2.0000      -1.460936       -39.7541
  10   2.0000      -1.371997       -37.3339
  11   2.0000      -1.157268       -31.4909
  12   2.0000      -1.018434       -27.7130
  13   2.0000      -0.943092       -25.6628
  14   2.0000      -0.929644       -25.2969
  15   2.0000      -0.850043       -23.1308
  16   2.0000      -0.846127       -23.0243
  17   2.0000      -0.765405       -20.8277
  18   2.0000      -0.715913       -19.4810
  19   2.0000      -0.668320       -18.1859
  20   2.0000      -0.654002       -17.7963
  21   2.0000      -0.642815       -17.4919
  22   2.0000      -0.617688       -16.8082
  23   2.0000      -0.596373       -16.2281
  24   2.0000      -0.583544       -15.8790
  25   2.0000      -0.550488       -14.9796
  26   2.0000      -0.548141       -14.9157
  27   2.0000      -0.537158       -14.6168
  28   2.0000      -0.516408       -14.0522
  29   2.0000      -0.509236       -13.8570
  30   2.0000      -0.482671       -13.1342
  31   2.0000      -0.464283       -12.6338
  32   2.0000      -0.454676       -12.3724
  33   2.0000      -0.441585       -12.0161
  34   2.0000      -0.423717       -11.5299
  35   0.0000       0.123339         3.3562
  36   0.0000       0.142160         3.8684
  37   0.0000       0.149670         4.0727
  38   0.0000       0.164807         4.4846
  39   0.0000       0.172416         4.6917

MULLIKEN ATOMIC CHARGES
-----------------------
   0 C :   -0.417780
   1 C :    0.129702
   2 C :   -0.412011
   3 C :   -0.264953
   4 C :   -0.243070
   5 C :    0.007354
   6 O :   -0.200887
   7 C :    0.190396
   8 O :   -0.269369
   9 H :    0.138305
  10 H :    0.133257
  11 H :    0.137350
  12 H :    0.137272
  13 H :    0.124839
  14 H :    0.136087
  15 H :    0.119780
  16 H :    0.124840
  17 H :    0.127265
  18 H :    0.136438
  19 H :    0.095885
  20 H :    0.069298
Sum of atomic charges:    0.0000000

LOEWDIN ATOMIC CHARGES
----------------------
   0 C :   -0.264205
   1 C :   -0.287225
   2 C :   -0.276304
   3 C :   -0.194374
   4 C :   -0.216368
   5 C :   -0.247779
   6 O :    0.275233
   7 C :   -0.451968
   8 O :    0.117882
   9 H :    0.130439
  10 H :    0.127772
  11 H :    0.129855
  12 H :    0.129102
  13 H :    0.123397
  14 H :    0.128399
  15 H :    0.135566
  16 H :    0.130682
  17 H :    0.126805
  18 H :    0.143366
  19 H :    0.139099
  20 H :    0.100625

  Mayer bond orders larger than 0.1
B(  0-C ,  1-C ) :   0.9320 B(  0-C ,  9-H ) :   0.9226 B(  0-C , 10-H ) :   0.9375
B(  0-C , 11-H ) :   0.9329 B(  1-C ,  2-C ) :   0.9042 B(  1-C ,  3-C ) :   0.8921
B(  1-C ,  5-C ) :   0.9005 B(  2-C , 12-H ) :   0.9382 B(  2-C , 13-H ) :   0.9279
B(  2-C , 14-H ) :   0.9373 B(  3-C ,  4-C ) :   0.9421 B(  3-C , 15-H ) :   0.9194
B(  3-C , 16-H ) :   0.9262 B(  4-C ,  5-C ) :   0.9456 B(  4-C , 17-H ) :   0.9271
B(  4-C , 18-H ) :   0.9218 B(  5-C ,  6-O ) :   0.8932 B(  5-C , 19-H ) :   0.9275
B(  6-O ,  7-C ) :   1.0655 B(  7-C ,  8-O ) :   2.0328 B(  7-C , 20-H ) :   0.9129

MP2 TOTAL ENERGY:     -423.540515523 Eh
FINAL SINGLE POINT ENERGY      -423.540515522609

DIPOLE MOMENT
-------------
                                X             Y             Z
Electronic contribution:      2.54502       0.10598      10.81353
Nuclear contribution   :     -2.63861      -0.87552     -12.22521
                        -----------------------------------------
Total Dipole Moment    :     -0.09358      -0.76953      -1.41168
                        -----------------------------------------
Magnitude (a.u.)       :      1.61052
Magnitude (Debye)      :      4.09362

                             ****ORCA TERMINATED NORMALLY****
TOTAL RUN TIME: 0 days 0 hours 18 minutes 38 seconds 359 msec
