                         Program Version 3.0.3 - RELEASE   -
|  1> ! RI-MP2 RIJK def2-TZVP def2-TZVP/C def2-TZVP/JK TIGHTSCF
|  2> % maxcore 2000
|  3> % mp2 density relaxed end
|  4> *xyz 0 1
|  5>  C       -0.0472619756     1.5505675161    -0.0580294065
|  6>  C        0.0430744975     0.0252064069    -0.0042372384
|  7>  C        0.6732379353    -0.5560712903    -1.2758359459
|  8>  O        0.6942886019    -1.9738610827    -1.2655726681
|  9>  C        1.4535729073    -2.4913405096    -0.1856794935
| 10>  C        0.8877491390    -2.0478644286     1.1640853188
| 11>  C        0.8094976826    -0.5018052181     1.2432142441
| 12>  C        2.1427361390     0.0871970934     1.3748887184
| 13>  C        3.2449018234     0.5559280271     1.4886888783
| 14>  H        0.9463577802     2.0030465221    -0.1303560569
| 15>  H       -0.6352547074     1.8761801582    -0.9224827321
| 16>  H       -0.5284865670     1.9483457998     0.8416854054
| 17>  H       -0.9709168592    -0.3894919064     0.0679014399
| 18>  H        0.0912614075    -0.2666962901    -2.1563532304
| 19>  H        1.6946436784    -0.1572051930    -1.3974072119
| 20>  H        1.4203030454    -3.5803228137    -0.2829537901
| 21>  H        2.5055023402    -2.1733890060    -0.2719189561
| 22>  H       -0.1239034962    -2.4533049088     1.2786179294
| 23>  H        1.5031266526    -2.4417776316     1.9791055999
| 24>  H        0.2352468905    -0.2251578876     2.1372326811
| 25>  H        4.2148517947     0.9747442828     1.5961292347
| 26> *
| 27>
| 28>                          ****END OF INPUT****

CARTESIAN COORDINATES (ANGSTROEM)
---------------------------------
  C     -0.047262    1.550568   -0.058029
  C      0.043074    0.025206   -0.004237
  C      0.673238   -0.556071   -1.275836
  O      0.694289   -1.973861   -1.265573
  C      1.453573   -2.491341   -0.185679
  C      0.887749   -2.047864    1.164085
  C      0.809498   -0.501805    1.243214
  C      2.142736    0.087197    1.374889
  C      3.244902    0.555928    1.488689
  H      0.946358    2.003047   -0.130356
  H     -0.635255    1.876180   -0.922483
  H     -0.528487    1.948346    0.841685
  H     -0.970917   -0.389492    0.067901
  H      0.091261   -0.266696   -2.156353
  H      1.694644   -0.157205   -1.397407
  H      1.420303   -3.580323   -0.282954
  H      2.505502   -2.173389   -0.271919
  H     -0.123903   -2.453305    1.278618
  H      1.503127   -2.441778    1.979106
  H      0.235247   -0.225158    2.137233
  H      4.214852    0.974744    1.596129

 Total Charge           Charge          ....    0
 Multiplicity           Mult            ....    1
 Number of Electrons    NEL             ....   68
 Basis Dimension        Dim             ....  351

ORBITAL ENERGIES
----------------

  NO   OCC          E(Eh)            E(eV)
   0   2.0000     -20.549146      -559.1707
   1   2.0000     -11.270482      -306.6854
   2   2.0000     -11.268926      -306.6431
   3   2.0000     -11.258148      -306.3498
   4   2.0000     -11.235920      -305.7449
   5   2.0000     -11.233666      -305.6836
   6   2.0000     -11.230243      -305.5904
   7   2.0000     -11.221701      -305.3580
   8   2.0000     -11.217110      -305.2331
   9   2.0000      -1.371241       -37.3134
  10   2.0000      -1.119563       -30.4649
  11   2.0000      -1.046770       -28.4841
  12   2.0000      -1.013709       -27.5844
  13   2.0000      -0.941824       -25.6283
  14   2.0000      -0.894674       -24.3453
  15   2.0000      -0.832999       -22.6671
  16   2.0000      -0.792169       -21.5560
  17   2.0000      -0.711122       -19.3506
  18   2.0000      -0.679205       -18.4821
  19   2.0000      -0.648995       -17.6600
  20   2.0000      -0.641772       -17.4635
  21   2.0000      -0.615527       -16.7493
  22   2.0000      -0.609662       -16.5898
  23   2.0000      -0.563765       -15.3408
  24   2.0000      -0.558291       -15.1919
  25   2.0000      -0.536617       -14.6021
  26   2.0000      -0.526961       -14.3393
  27   2.0000      -0.510405       -13.8888
  28   2.0000      -0.483791       -13.1646
  29   2.0000      -0.468388       -12.7455
  30   2.0000      -0.451337       -12.2815
  31   2.0000      -0.416643       -11.3374
  32   2.0000      -0.384888       -10.4733
  33   2.0000      -0.378960       -10.3120
  34   0.0000       0.130414         3.5487
  35   0.0000       0.150299         4.0898
  36   0.0000       0.159733         4.3466
  37   0.0000       0.168323         4.5803
  38   0.0000       0.176800         4.8110

MULLIKEN ATOMIC CHARGES
-----------------------
   0 C :   -0.409815
   1 C :   -0.074040
   2 C :   -0.097834
   3 O :   -0.311935
   4 C :   -0.094419
   5 C :   -0.225335
   6 C :    0.004102
   7 C :   -0.118512
   8 C :   -0.196785
   9 H :    0.144988
  10 H :    0.134834
  11 H :    0.132367
  12 H :    0.090920
  13 H :    0.122896
  14 H :    0.109796
  15 H :    0.128285
  16 H :    0.110419
  17 H :    0.114349
  18 H :    0.128206
  19 H :    0.120578
  20 H :    0.186934
Sum of atomic charges:   -0.0000000

LOEWDIN ATOMIC CHARGES
----------------------
   0 C :   -0.285861
   1 C :   -0.254267
   2 C :   -0.293165
   3 O :    0.152392
   4 C :   -0.315033
   5 C :   -0.229505
   6 C :   -0.221036
   7 C :   -0.090046
   8 C :   -0.104993
   9 H :    0.130332
  10 H :    0.125272
  11 H :    0.126749
  12 H :    0.157287
  13 H :    0.132085
  14 H :    0.128495
  15 H :    0.129920
  16 H :    0.126497
  17 H :    0.142240
  18 H :    0.144970
  19 H :    0.171190
  20 H :    0.126477

  Mayer bond orders larger than 0.1
B(  0-C ,  1-C ) :   0.9052 B(  0-C ,  9-H ) :   0.9261 B(  0-C , 10-H ) :   0.9403
B(  0-C , 11-H ) :   0.9361 B(  1-C ,  2-C ) :   0.9427 B(  1-C ,  6-C ) :   0.8587
B(  1-C , 12-H ) :   0.9198 B(  2-C ,  3-O ) :   0.9368 B(  2-C , 13-H ) :   0.9282
B(  2-C , 14-H ) :   0.9294 B(  3-O ,  4-C ) :   0.9328 B(  4-C ,  5-C ) :   0.9567
B(  4-C , 15-H ) :   0.9285 B(  4-C , 16-H ) :   0.9347 B(  5-C ,  6-C ) :   0.8636
B(  5-C , 17-H ) :   0.9189 B(  5-C , 18-H ) :   0.9205 B(  6-C ,  7-C ) :   1.1012
B(  6-C , 19-H ) :   0.9261 B(  7-C ,  8-C ) :   2.5955 B(  8-C , 20-H ) :   0.9024

MP2 TOTAL ENERGY:     -386.391219425 Eh
FINAL SINGLE POINT ENERGY      -386.391219425481

DIPOLE MOMENT
-------------
                                X             Y             Z
Electronic contribution:      2.27369      -2.15813       0.32261
Nuclear contribution   :     -2.27179       2.38478       0.05300
                        -----------------------------------------
Total Dipole Moment    :      0.00190       0.22665       0.37562
                        -----------------------------------------
Magnitude (a.u.)       :      0.43870
Magnitude (Debye)      :      1.11509

                             ****ORCA TERMINATED NORMALLY****
TOTAL RUN TIME: 0 days 0 hours 20 minutes 47 seconds 714 msec
