                         Program Version 3.0.3 - RELEASE   -
|  1> ! RI-MP2 RIJK def2-TZVP def2-TZVP/C def2-TZVP/JK TIGHTSCF
|  2> % maxcore 2000
|  3> % mp2 density relaxed end
|  4> *xyz 0 1
|  5>  N       -0.4880830685     0.3896897056     1.4472534785
|  6>  C       -0.1941742932    -0.5100773791     0.4166724282
|  7>  C       -0.9160512388    -1.3714650346    -0.3843458802
|  8>  N       -2.2772683014    -1.7149836658    -0.4153542794
|  9>  C       -3.3558347088    -1.0433977448     0.0641798527
| 10>  N       -3.2965633722     0.0289706410     0.7648220230
| 11>  N       -0.1052108127    -1.9960346091    -1.3027565828
| 12>  C        1.1015898960    -1.5310500179    -1.0790433115
| 13>  N        1.1002899470    -0.6254882307    -0.0639784042
| 14>  H       -1.5011846088     0.5454985411     1.4437820539
| 15>  H       -0.2223529248     0.0213335580     2.3569513235
| 16>  H       -2.4578427453    -2.4876209634    -1.0366637498
| 17>  H       -4.2903939994    -1.5414868024    -0.2163398556
| 18>  H       -4.2299709412     0.3452891446     1.0089684552
| 19>  H        1.9986601679    -1.8209494314    -1.6039291572
| 20>  H        1.8709116042    -0.0683446010     0.2655498156
| 21> *
| 22>
| 23>                          ****END OF INPUT****

CARTESIAN COORDINATES (ANGSTROEM)
---------------------------------
  N     -0.488083    0.389690    1.447253
  C     -0.194174   -0.510077    0.416672
  C     -0.916051   -1.371465   -0.384346
  N     -2.277268   -1.714984   -0.415354
  C     -3.355835   -1.043398    0.064180
  N     -3.296563    0.028971    0.764822
  N     -0.105211   -1.996035   -1.302757
  C      1.101590   -1.531050   -1.079043
  N      1.100290   -0.625488   -0.063978
  H     -1.501185    0.545499    1.443782
  H     -0.222353    0.021334    2.356951
  H     -2.457843   -2.487621   -1.036664
  H     -4.290394   -1.541487   -0.216340
  H     -4.229971    0.345289    1.008968
  H      1.998660   -1.820949   -1.603929
  H      1.870912   -0.068345    0.265550

 Total Charge           Charge          ....    0
 Multiplicity           Mult            ....    1
 Number of Electrons    NEL             ....   66
 Basis Dimension        Dim             ....  321

ORBITAL ENERGIES
----------------

  NO   OCC          E(Eh)            E(eV)
   0   2.0000     -15.607975      -424.7146
   1   2.0000     -15.590208      -424.2311
   2   2.0000     -15.542524      -422.9336
   3   2.0000     -15.539562      -422.8530
   4   2.0000     -15.528585      -422.5543
   5   2.0000     -11.323445      -308.1266
   6   2.0000     -11.291151      -307.2478
   7   2.0000     -11.283167      -307.0306
   8   2.0000     -11.274736      -306.8012
   9   2.0000      -1.345379       -36.6096
  10   2.0000      -1.277630       -34.7661
  11   2.0000      -1.196923       -32.5699
  12   2.0000      -1.167800       -31.7774
  13   2.0000      -1.135077       -30.8870
  14   2.0000      -0.976473       -26.5712
  15   2.0000      -0.870905       -23.6985
  16   2.0000      -0.827990       -22.5307
  17   2.0000      -0.763617       -20.7791
  18   2.0000      -0.743706       -20.2373
  19   2.0000      -0.706503       -19.2249
  20   2.0000      -0.670692       -18.2505
  21   2.0000      -0.646371       -17.5886
  22   2.0000      -0.615749       -16.7554
  23   2.0000      -0.601763       -16.3748
  24   2.0000      -0.597747       -16.2655
  25   2.0000      -0.578805       -15.7501
  26   2.0000      -0.544723       -14.8227
  27   2.0000      -0.469827       -12.7846
  28   2.0000      -0.436039       -11.8652
  29   2.0000      -0.422069       -11.4851
  30   2.0000      -0.411440       -11.1958
  31   2.0000      -0.366076        -9.9614
  32   2.0000      -0.272413        -7.4127
  33   0.0000       0.136219         3.7067
  34   0.0000       0.140171         3.8143
  35   0.0000       0.157398         4.2830
  36   0.0000       0.166968         4.5434
  37   0.0000       0.175164         4.7665

MULLIKEN ATOMIC CHARGES
-----------------------
   0 N :   -0.522768
   1 C :    0.073534
   2 C :    0.186761
   3 N :   -0.298167
   4 C :    0.112169
   5 N :   -0.510319
   6 N :   -0.325507
   7 C :    0.041979
   8 N :   -0.256890
   9 H :    0.285047
  10 H :    0.242152
  11 H :    0.250957
  12 H :    0.104890
  13 H :    0.218107
  14 H :    0.149390
  15 H :    0.248663
Sum of atomic charges:    0.0000000

LOEWDIN ATOMIC CHARGES
----------------------
   0 N :   -0.115523
   1 C :   -0.314126
   2 C :   -0.305529
   3 N :    0.140179
   4 C :   -0.361091
   5 N :   -0.136307
   6 N :    0.089962
   7 C :   -0.327260
   8 N :    0.191187
   9 H :    0.166276
  10 H :    0.163144
  11 H :    0.202847
  12 H :    0.121811
  13 H :    0.160624
  14 H :    0.129088
  15 H :    0.194720

  Mayer bond orders larger than 0.1
B(  0-N ,  1-C ) :   1.0951 B(  0-N ,  9-H ) :   0.8364 B(  0-N , 10-H ) :   0.8707
B(  1-C ,  2-C ) :   1.4719 B(  1-C ,  8-N ) :   1.1365 B(  2-C ,  3-N ) :   0.9433
B(  2-C ,  6-N ) :   1.2770 B(  3-N ,  4-C ) :   1.1546 B(  3-N , 11-H ) :   0.8604
B(  4-C ,  5-N ) :   1.7482 B(  4-C , 12-H ) :   0.9244 B(  5-N , 13-H ) :   0.8636
B(  6-N ,  7-C ) :   1.5367 B(  7-C ,  8-N ) :   1.1671 B(  7-C , 14-H ) :   0.9268
B(  8-N , 15-H ) :   0.8589

MP2 TOTAL ENERGY:     -429.567153956 Eh
FINAL SINGLE POINT ENERGY      -429.567153956101

DIPOLE MOMENT
-------------
                                X             Y             Z
Electronic contribution:      1.98654      -1.50568      -1.84459
Nuclear contribution   :     -1.97489       1.26032       2.27023
                        -----------------------------------------
Total Dipole Moment    :      0.01165      -0.24537       0.42564
                        -----------------------------------------
Magnitude (a.u.)       :      0.49143
Magnitude (Debye)      :      1.24913

                             ****ORCA TERMINATED NORMALLY****
TOTAL RUN TIME: 0 days 0 hours 14 minutes 37 seconds 516 msec
