                         Program Version 3.0.3 - RELEASE   -
|  1> ! RI-MP2 RIJK def2-TZVP def2-TZVP/C def2-TZVP/JK TIGHTSCF
|  2> % maxcore 2000
|  3> % mp2 density relaxed end
|  4> *xyz 0 1
|  5>  O        0.0823460013     1.0178456051    -0.8894691980
|  6>  C        0.0592709485    -0.2754850402    -0.3207370609
|  7>  C       -1.3372460105    -0.5802420605     0.2180080162
|  8>  N       -2.3464522676    -0.4180380105    -0.8781234432
|  9>  C       -2.6631030540    -1.8827538492    -0.8697765810
| 10>  C       -2.2083634894    -2.5894791908    -2.0569687296
| 11>  C       -1.7625647620    -3.2140805113    -2.9843598203
| 12>  C       -1.7287460499    -2.0787128580     0.3850011107
| 13>  O       -0.7498502396    -3.0709867001     0.3535008090
| 14>  H       -0.6624463655     1.0257691196    -1.5070287664
| 15>  H        0.3525493735    -1.0389991497    -1.0578968316
| 16>  H        0.7965188691    -0.2963958524     0.4874961638
| 17>  H       -1.5363762808     0.0489063181     1.0915745474
| 18>  H       -3.1495475156     0.1304243139    -0.5932319208
| 19>  H       -3.7170147904    -2.1129493929    -0.6823570717
| 20>  H       -1.4048528509    -3.7482060716    -3.8303796954
| 21>  H       -2.3194229444    -2.2450283528     1.2895357286
| 22>  H       -0.4970180119    -3.2162102867    -0.5678923566
| 23> *
| 24>
| 25>                          ****END OF INPUT****

CARTESIAN COORDINATES (ANGSTROEM)
---------------------------------
  O      0.082346    1.017846   -0.889469
  C      0.059271   -0.275485   -0.320737
  C     -1.337246   -0.580242    0.218008
  N     -2.346452   -0.418038   -0.878123
  C     -2.663103   -1.882754   -0.869777
  C     -2.208363   -2.589479   -2.056969
  C     -1.762565   -3.214081   -2.984360
  C     -1.728746   -2.078713    0.385001
  O     -0.749850   -3.070987    0.353501
  H     -0.662446    1.025769   -1.507029
  H      0.352549   -1.038999   -1.057897
  H      0.796519   -0.296396    0.487496
  H     -1.536376    0.048906    1.091575
  H     -3.149548    0.130424   -0.593232
  H     -3.717015   -2.112949   -0.682357
  H     -1.404853   -3.748206   -3.830380
  H     -2.319423   -2.245028    1.289536
  H     -0.497018   -3.216210   -0.567892

 Total Charge           Charge          ....    0
 Multiplicity           Mult            ....    1
 Number of Electrons    NEL             ....   68
 Basis Dimension        Dim             ....  333

ORBITAL ENERGIES
----------------

  NO   OCC          E(Eh)            E(eV)
   0   2.0000     -20.569011      -559.7112
   1   2.0000     -20.545986      -559.0847
   2   2.0000     -15.568339      -423.6361
   3   2.0000     -11.303277      -307.5778
   4   2.0000     -11.300907      -307.5133
   5   2.0000     -11.271277      -306.7070
   6   2.0000     -11.266501      -306.5771
   7   2.0000     -11.250088      -306.1305
   8   2.0000     -11.243108      -305.9405
   9   2.0000      -1.383745       -37.6536
  10   2.0000      -1.354848       -36.8673
  11   2.0000      -1.249040       -33.9881
  12   2.0000      -1.060712       -28.8634
  13   2.0000      -0.993815       -27.0431
  14   2.0000      -0.969657       -26.3857
  15   2.0000      -0.892839       -24.2954
  16   2.0000      -0.795841       -21.6559
  17   2.0000      -0.743507       -20.2319
  18   2.0000      -0.730189       -19.8694
  19   2.0000      -0.702613       -19.1191
  20   2.0000      -0.667079       -18.1521
  21   2.0000      -0.642046       -17.4710
  22   2.0000      -0.633863       -17.2483
  23   2.0000      -0.604152       -16.4398
  24   2.0000      -0.586903       -15.9704
  25   2.0000      -0.561600       -15.2819
  26   2.0000      -0.540088       -14.6966
  27   2.0000      -0.518203       -14.1010
  28   2.0000      -0.490976       -13.3601
  29   2.0000      -0.455613       -12.3979
  30   2.0000      -0.443804       -12.0765
  31   2.0000      -0.408088       -11.1046
  32   2.0000      -0.398080       -10.8323
  33   2.0000      -0.393987       -10.7209
  34   0.0000       0.114732         3.1220
  35   0.0000       0.139377         3.7926
  36   0.0000       0.147919         4.0251
  37   0.0000       0.162461         4.4208
  38   0.0000       0.169296         4.6068

MULLIKEN ATOMIC CHARGES
-----------------------
   0 O :   -0.483333
   1 C :    0.021530
   2 C :   -0.069269
   3 N :   -0.363540
   4 C :   -0.122632
   5 C :   -0.049587
   6 C :   -0.145231
   7 C :    0.037545
   8 O :   -0.445832
   9 H :    0.324669
  10 H :    0.069358
  11 H :    0.116726
  12 H :    0.110715
  13 H :    0.219564
  14 H :    0.144058
  15 H :    0.196025
  16 H :    0.108996
  17 H :    0.330239
Sum of atomic charges:   -0.0000000

LOEWDIN ATOMIC CHARGES
----------------------
   0 O :   -0.045811
   1 C :   -0.331343
   2 C :   -0.264577
   3 N :    0.014121
   4 C :   -0.241763
   5 C :   -0.099476
   6 C :   -0.086356
   7 C :   -0.286178
   8 O :    0.010561
   9 H :    0.174178
  10 H :    0.115126
  11 H :    0.131081
  12 H :    0.136987
  13 H :    0.163816
  14 H :    0.155030
  15 H :    0.130535
  16 H :    0.141473
  17 H :    0.182594

  Mayer bond orders larger than 0.1
B(  0-O ,  1-C ) :   0.9259 B(  0-O ,  9-H ) :   0.8237 B(  1-C ,  2-C ) :   0.9484
B(  1-C , 10-H ) :   0.8984 B(  1-C , 11-H ) :   0.9294 B(  2-C ,  3-N ) :   0.9436
B(  2-C ,  7-C ) :   0.8723 B(  2-C , 12-H ) :   0.9126 B(  3-N ,  4-C ) :   1.0134
B(  3-N , 13-H ) :   0.8717 B(  4-C ,  5-C ) :   1.0625 B(  4-C ,  7-C ) :   0.8927
B(  4-C , 14-H ) :   0.9339 B(  5-C ,  6-C ) :   2.5823 B(  6-C , 15-H ) :   0.9079
B(  7-C ,  8-O ) :   1.0642 B(  7-C , 16-H ) :   0.9286 B(  8-O , 17-H ) :   0.8173

MP2 TOTAL ENERGY:     -438.295970207 Eh
FINAL SINGLE POINT ENERGY      -438.295970207306

DIPOLE MOMENT
-------------
                                X             Y             Z
Electronic contribution:     -0.98385      -1.47509      -1.29059
Nuclear contribution   :      0.03172       1.08041       1.21061
                        -----------------------------------------
Total Dipole Moment    :     -0.95213      -0.39469      -0.07997
                        -----------------------------------------
Magnitude (a.u.)       :      1.03379
Magnitude (Debye)      :      2.62769

                             ****ORCA TERMINATED NORMALLY****
TOTAL RUN TIME: 0 days 0 hours 26 minutes 9 seconds 579 msec
