                         Program Version 3.0.3 - RELEASE   -
|  1> ! RI-MP2 RIJK def2-TZVP def2-TZVP/C def2-TZVP/JK TIGHTSCF
|  2> % maxcore 2000
|  3> % mp2 density relaxed end
|  4> *xyz 0 1
|  5>  O       -0.0827796900     0.0659572894    -0.1793240951
|  6>  C       -0.0963850844     1.2544932566    -0.0409160897
|  7>  C       -1.1859443864     2.3416196342    -0.1159373268
|  8>  N       -0.1167843741     3.4000460346    -0.2070515063
|  9>  C        0.6632977760     3.3410980563     1.0241430212
| 10>  C        0.1149318094     3.0230631756     2.4139582618
| 11>  C       -0.6968234401     4.1106719202     2.9497384058
| 12>  C       -1.3672330302     5.0156831421     3.3679086358
| 13>  C        0.9666375402     2.3165871584    -0.0217752622
| 14>  H       -1.7295275784     2.2786568955    -1.0624230977
| 15>  H       -1.8972706380     2.4637994409     0.7037763791
| 16>  H        1.3854138192     4.1551567609     1.0455754753
| 17>  H       -0.4586270302     2.0914087506     2.4198743139
| 18>  H        0.9750099477     2.8432822583     3.0712726609
| 19>  H       -1.9597120665     5.8121797159     3.7452755386
| 20>  H        1.9027889357     2.3010054507    -0.5690784947
| 21> *
| 22>
| 23>                          ****END OF INPUT****

CARTESIAN COORDINATES (ANGSTROEM)
---------------------------------
  O     -0.082780    0.065957   -0.179324
  C     -0.096385    1.254493   -0.040916
  C     -1.185944    2.341620   -0.115937
  N     -0.116784    3.400046   -0.207052
  C      0.663298    3.341098    1.024143
  C      0.114932    3.023063    2.413958
  C     -0.696823    4.110672    2.949738
  C     -1.367233    5.015683    3.367909
  C      0.966638    2.316587   -0.021775
  H     -1.729528    2.278657   -1.062423
  H     -1.897271    2.463799    0.703776
  H      1.385414    4.155157    1.045575
  H     -0.458627    2.091409    2.419874
  H      0.975010    2.843282    3.071273
  H     -1.959712    5.812180    3.745276
  H      1.902789    2.301005   -0.569078

 Total Charge           Charge          ....    0
 Multiplicity           Mult            ....    1
 Number of Electrons    NEL             ....   64
 Basis Dimension        Dim             ....  321

ORBITAL ENERGIES
----------------

  NO   OCC          E(Eh)            E(eV)
   0   2.0000     -20.565294      -559.6101
   1   2.0000     -15.595986      -424.3883
   2   2.0000     -11.350121      -308.8525
   3   2.0000     -11.301560      -307.5311
   4   2.0000     -11.287350      -307.1444
   5   2.0000     -11.280738      -306.9645
   6   2.0000     -11.279932      -306.9425
   7   2.0000     -11.247736      -306.0665
   8   2.0000     -11.236098      -305.7498
   9   2.0000      -1.410617       -38.3848
  10   2.0000      -1.319374       -35.9020
  11   2.0000      -1.093142       -29.7459
  12   2.0000      -1.021070       -27.7847
  13   2.0000      -0.980734       -26.6871
  14   2.0000      -0.936915       -25.4947
  15   2.0000      -0.819522       -22.3003
  16   2.0000      -0.751917       -20.4607
  17   2.0000      -0.733023       -19.9466
  18   2.0000      -0.703134       -19.1333
  19   2.0000      -0.673228       -18.3195
  20   2.0000      -0.665607       -18.1121
  21   2.0000      -0.649846       -17.6832
  22   2.0000      -0.600962       -16.3530
  23   2.0000      -0.591011       -16.0822
  24   2.0000      -0.573654       -15.6099
  25   2.0000      -0.540926       -14.7194
  26   2.0000      -0.502380       -13.6705
  27   2.0000      -0.465951       -12.6792
  28   2.0000      -0.434286       -11.8175
  29   2.0000      -0.401320       -10.9205
  30   2.0000      -0.400474       -10.8975
  31   2.0000      -0.394752       -10.7418
  32   0.0000       0.114861         3.1255
  33   0.0000       0.134443         3.6584
  34   0.0000       0.153472         4.1762
  35   0.0000       0.158879         4.3233
  36   0.0000       0.162654         4.4260

MULLIKEN ATOMIC CHARGES
-----------------------
   0 O :   -0.249739
   1 C :    0.122304
   2 C :   -0.164870
   3 N :   -0.207931
   4 C :   -0.011567
   5 C :   -0.351247
   6 C :   -0.031535
   7 C :   -0.148816
   8 C :   -0.078312
   9 H :    0.149867
  10 H :    0.148243
  11 H :    0.134724
  12 H :    0.174412
  13 H :    0.161913
  14 H :    0.194697
  15 H :    0.157856
Sum of atomic charges:    0.0000000

LOEWDIN ATOMIC CHARGES
----------------------
   0 O :    0.166093
   1 C :   -0.333943
   2 C :   -0.212469
   3 N :    0.141771
   4 C :   -0.229375
   5 C :   -0.230659
   6 C :   -0.109391
   7 C :   -0.091625
   8 C :   -0.146034
   9 H :    0.145755
  10 H :    0.134347
  11 H :    0.160846
  12 H :    0.164876
  13 H :    0.168392
  14 H :    0.128603
  15 H :    0.142813

  Mayer bond orders larger than 0.1
B(  0-O ,  1-C ) :   2.0304 B(  1-C ,  2-C ) :   0.9420 B(  1-C ,  8-C ) :   0.9114
B(  2-C ,  3-N ) :   0.9248 B(  2-C ,  8-C ) :  -0.1091 B(  2-C ,  9-H ) :   0.9002
B(  2-C , 10-H ) :   0.9112 B(  3-N ,  4-C ) :   0.9394 B(  3-N ,  8-C ) :   0.8595
B(  4-C ,  5-C ) :   0.8928 B(  4-C ,  8-C ) :   0.8917 B(  4-C , 11-H ) :   0.9190
B(  5-C ,  6-C ) :   1.0550 B(  5-C , 12-H ) :   0.9424 B(  5-C , 13-H ) :   0.9184
B(  6-C ,  7-C ) :   2.6348 B(  7-C , 14-H ) :   0.9018 B(  8-C , 15-H ) :   0.8914

MP2 TOTAL ENERGY:     -399.973370391 Eh
FINAL SINGLE POINT ENERGY      -399.973370391049

DIPOLE MOMENT
-------------
                                X             Y             Z
Electronic contribution:      0.50991      -2.20118      -1.82692
Nuclear contribution   :     -0.36893       2.77863       2.31777
                        -----------------------------------------
Total Dipole Moment    :      0.14098       0.57745       0.49085
                        -----------------------------------------
Magnitude (a.u.)       :      0.77088
Magnitude (Debye)      :      1.95943

                             ****ORCA TERMINATED NORMALLY****
TOTAL RUN TIME: 0 days 0 hours 15 minutes 17 seconds 928 msec
