                         Program Version 3.0.3 - RELEASE   -
|  1> ! RI-MP2 RIJK def2-TZVP def2-TZVP/C def2-TZVP/JK TIGHTSCF
|  2> % maxcore 2000
|  3> % mp2 density relaxed end
|  4> *xyz 0 1
|  5>  O        0.0971356989     1.3191103015     0.2246952449
|  6>  C       -0.0275915270    -0.0562745632     0.0092343827
|  7>  C        1.0145291784    -0.6301154704    -0.9305828501
|  8>  C        0.9672271170    -0.0020802029    -2.3150455961
|  9>  O        0.3292651530     1.0017554107    -2.5700446142
| 10>  C        1.7568102762    -0.6679293656    -3.3347199834
| 11>  C        2.4180541289    -1.2415696774    -4.1609448980
| 12>  C       -0.4657652913    -0.8456635458     1.2025120856
| 13>  C       -1.4143663197    -0.6556928608     0.0338513773
| 14>  H       -0.0468141988     1.7291293963    -0.6400094663
| 15>  H        2.0256454396    -0.4520020405    -0.5353916008
| 16>  H        0.9158870356    -1.7165210016    -1.0335384894
| 17>  H        2.9972894205    -1.7345433711    -4.9040590564
| 18>  H       -0.0345187003    -1.8270051534     1.3695526594
| 19>  H       -0.6621027205    -0.2747697807     2.1025533767
| 20>  H       -2.2358385825     0.0380453336     0.1680566033
| 21>  H       -1.6348918079    -1.5087830487    -0.5995274351
| 22> *
| 23>
| 24>                          ****END OF INPUT****

CARTESIAN COORDINATES (ANGSTROEM)
---------------------------------
  O      0.097136    1.319110    0.224695
  C     -0.027592   -0.056275    0.009234
  C      1.014529   -0.630115   -0.930583
  C      0.967227   -0.002080   -2.315046
  O      0.329265    1.001755   -2.570045
  C      1.756810   -0.667929   -3.334720
  C      2.418054   -1.241570   -4.160945
  C     -0.465765   -0.845664    1.202512
  C     -1.414366   -0.655693    0.033851
  H     -0.046814    1.729129   -0.640009
  H      2.025645   -0.452002   -0.535392
  H      0.915887   -1.716521   -1.033538
  H      2.997289   -1.734543   -4.904059
  H     -0.034519   -1.827005    1.369553
  H     -0.662103   -0.274770    2.102553
  H     -2.235839    0.038045    0.168057
  H     -1.634892   -1.508783   -0.599527

 Total Charge           Charge          ....    0
 Multiplicity           Mult            ....    1
 Number of Electrons    NEL             ....   66
 Basis Dimension        Dim             ....  327

ORBITAL ENERGIES
----------------

  NO   OCC          E(Eh)            E(eV)
   0   2.0000     -20.575796      -559.8959
   1   2.0000     -20.551846      -559.2442
   2   2.0000     -11.375016      -309.5299
   3   2.0000     -11.294612      -307.3420
   4   2.0000     -11.273146      -306.7579
   5   2.0000     -11.262405      -306.4656
   6   2.0000     -11.257988      -306.3454
   7   2.0000     -11.228211      -305.5352
   8   2.0000     -11.227358      -305.5119
   9   2.0000      -1.418785       -38.6071
  10   2.0000      -1.367245       -37.2046
  11   2.0000      -1.138003       -30.9666
  12   2.0000      -1.081409       -29.4266
  13   2.0000      -1.025695       -27.9106
  14   2.0000      -0.886552       -24.1243
  15   2.0000      -0.835688       -22.7402
  16   2.0000      -0.784402       -21.3447
  17   2.0000      -0.745805       -20.2944
  18   2.0000      -0.704129       -19.1603
  19   2.0000      -0.692361       -18.8401
  20   2.0000      -0.665285       -18.1033
  21   2.0000      -0.642025       -17.4704
  22   2.0000      -0.625831       -17.0297
  23   2.0000      -0.603140       -16.4123
  24   2.0000      -0.551401       -15.0044
  25   2.0000      -0.532746       -14.4967
  26   2.0000      -0.517432       -14.0801
  27   2.0000      -0.499260       -13.5856
  28   2.0000      -0.473974       -12.8975
  29   2.0000      -0.434197       -11.8151
  30   2.0000      -0.429323       -11.6825
  31   2.0000      -0.413671       -11.2566
  32   2.0000      -0.394831       -10.7439
  33   0.0000       0.071244         1.9387
  34   0.0000       0.131940         3.5903
  35   0.0000       0.146945         3.9986
  36   0.0000       0.157535         4.2867
  37   0.0000       0.173930         4.7329

MULLIKEN ATOMIC CHARGES
-----------------------
   0 O :   -0.480218
   1 C :    0.273378
   2 C :   -0.291811
   3 C :    0.029492
   4 O :   -0.311183
   5 C :    0.043104
   6 C :   -0.055477
   7 C :   -0.297826
   8 C :   -0.287846
   9 H :    0.339309
  10 H :    0.154202
  11 H :    0.153036
  12 H :    0.206526
  13 H :    0.129466
  14 H :    0.139260
  15 H :    0.132002
  16 H :    0.124586
Sum of atomic charges:    0.0000000

LOEWDIN ATOMIC CHARGES
----------------------
   0 O :    0.026884
   1 C :   -0.373819
   2 C :   -0.191213
   3 C :   -0.307728
   4 O :    0.167010
   5 C :   -0.058702
   6 C :   -0.034981
   7 C :   -0.205122
   8 C :   -0.211828
   9 H :    0.181476
  10 H :    0.167770
  11 H :    0.163802
  12 H :    0.133837
  13 H :    0.132457
  14 H :    0.141196
  15 H :    0.137615
  16 H :    0.131347

  Mayer bond orders larger than 0.1
B(  0-O ,  1-C ) :   0.9338 B(  0-O ,  9-H ) :   0.8139 B(  1-C ,  2-C ) :   0.9192
B(  1-C ,  7-C ) :   0.8804 B(  1-C ,  8-C ) :   0.8714 B(  2-C ,  3-C ) :   0.9859
B(  2-C , 10-H ) :   0.8729 B(  2-C , 11-H ) :   0.9146 B(  3-C ,  4-O ) :   1.8882
B(  3-C ,  5-C ) :   1.1031 B(  3-C ,  6-C ) :  -0.1455 B(  5-C ,  6-C ) :   2.5897
B(  6-C , 12-H ) :   0.8823 B(  7-C ,  8-C ) :   0.9263 B(  7-C , 13-H ) :   0.9261
B(  7-C , 14-H ) :   0.9205 B(  8-C , 15-H ) :   0.9235 B(  8-C , 16-H ) :   0.9161

MP2 TOTAL ENERGY:     -421.071401560 Eh
FINAL SINGLE POINT ENERGY      -421.071401559796

DIPOLE MOMENT
-------------
                                X             Y             Z
Electronic contribution:      2.84697       3.10677      -5.99918
Nuclear contribution   :     -2.34369      -4.27049       5.59424
                        -----------------------------------------
Total Dipole Moment    :      0.50328      -1.16372      -0.40493
                        -----------------------------------------
Magnitude (a.u.)       :      1.33098
Magnitude (Debye)      :      3.38308

                             ****ORCA TERMINATED NORMALLY****
TOTAL RUN TIME: 0 days 0 hours 15 minutes 12 seconds 251 msec
