                         Program Version 3.0.3 - RELEASE   -
|  1> ! RI-MP2 RIJK def2-TZVP def2-TZVP/C def2-TZVP/JK TIGHTSCF
|  2> % maxcore 2000
|  3> % mp2 density relaxed end
|  4> *xyz 0 1
|  5>  C       -0.0879886846     1.4403051729    -0.0371625555
|  6>  N       -0.0252942220    -0.0058474949     0.0563661073
|  7>  N        0.1973613724    -0.6581419087    -1.1469081322
|  8>  N        0.2450027789    -1.9021723761    -1.1618419542
|  9>  C        0.0396928929    -2.6693210126     0.0494513076
| 10>  N       -0.1375875394    -3.9275089059    -0.0328337680
| 11>  N        0.0807940079    -2.0082789702     1.2639469949
| 12>  C        0.0258194962    -0.7193960753     1.2316788848
| 13>  N       -0.0324991454    -0.0019634936     2.3981860058
| 14>  H        0.8190833922     1.9186179801     0.3541187554
| 15>  H       -0.1782988336     1.6865909334    -1.0952248906
| 16>  H       -0.9596864214     1.8199335103     0.5027999985
| 17>  H       -0.0941628428    -4.1939631150    -1.0176101633
| 18>  H        0.1427288148    -0.5759589580     3.2111218395
| 19>  H        0.3847300238     0.9148407236     2.4245402501
| 20> *
| 21>
| 22>                          ****END OF INPUT****

CARTESIAN COORDINATES (ANGSTROEM)
---------------------------------
  C     -0.087989    1.440305   -0.037163
  N     -0.025294   -0.005847    0.056366
  N      0.197361   -0.658142   -1.146908
  N      0.245003   -1.902172   -1.161842
  C      0.039693   -2.669321    0.049451
  N     -0.137588   -3.927509   -0.032834
  N      0.080794   -2.008279    1.263947
  C      0.025819   -0.719396    1.231679
  N     -0.032499   -0.001963    2.398186
  H      0.819083    1.918618    0.354119
  H     -0.178299    1.686591   -1.095225
  H     -0.959686    1.819934    0.502800
  H     -0.094163   -4.193963   -1.017610
  H      0.142729   -0.575959    3.211122
  H      0.384730    0.914841    2.424540

 Total Charge           Charge          ....    0
 Multiplicity           Mult            ....    1
 Number of Electrons    NEL             ....   66
 Basis Dimension        Dim             ....  315

ORBITAL ENERGIES
----------------

  NO   OCC          E(Eh)            E(eV)
   0   2.0000     -15.703005      -427.3005
   1   2.0000     -15.661298      -426.1656
   2   2.0000     -15.633680      -425.4141
   3   2.0000     -15.610679      -424.7882
   4   2.0000     -15.552382      -423.2018
   5   2.0000     -15.524319      -422.4382
   6   2.0000     -11.392494      -310.0055
   7   2.0000     -11.334719      -308.4334
   8   2.0000     -11.303168      -307.5748
   9   2.0000      -1.454715       -39.5848
  10   2.0000      -1.321352       -35.9558
  11   2.0000      -1.271491       -34.5990
  12   2.0000      -1.210789       -32.9472
  13   2.0000      -1.161076       -31.5945
  14   2.0000      -1.000502       -27.2250
  15   2.0000      -0.966069       -26.2881
  16   2.0000      -0.885587       -24.0980
  17   2.0000      -0.803122       -21.8541
  18   2.0000      -0.745244       -20.2791
  19   2.0000      -0.712600       -19.3908
  20   2.0000      -0.703686       -19.1483
  21   2.0000      -0.691591       -18.8191
  22   2.0000      -0.629658       -17.1339
  23   2.0000      -0.607444       -16.5294
  24   2.0000      -0.606111       -16.4931
  25   2.0000      -0.578638       -15.7455
  26   2.0000      -0.551588       -15.0095
  27   2.0000      -0.511239       -13.9115
  28   2.0000      -0.486230       -13.2310
  29   2.0000      -0.446430       -12.1480
  30   2.0000      -0.429917       -11.6986
  31   2.0000      -0.399282       -10.8650
  32   2.0000      -0.340486        -9.2651
  33   0.0000       0.087414         2.3786
  34   0.0000       0.104353         2.8396
  35   0.0000       0.141450         3.8491
  36   0.0000       0.153162         4.1677
  37   0.0000       0.175462         4.7746

MULLIKEN ATOMIC CHARGES
-----------------------
   0 C :   -0.362480
   1 N :    0.019588
   2 N :   -0.079192
   3 N :   -0.138164
   4 C :    0.115481
   5 N :   -0.341083
   6 N :   -0.267035
   7 C :    0.292551
   8 N :   -0.503352
   9 H :    0.146338
  10 H :    0.183235
  11 H :    0.171476
  12 H :    0.223846
  13 H :    0.275685
  14 H :    0.263107
Sum of atomic charges:    0.0000000

LOEWDIN ATOMIC CHARGES
----------------------
   0 C :   -0.290823
   1 N :    0.129015
   2 N :    0.026270
   3 N :    0.043599
   4 C :   -0.464786
   5 N :   -0.050253
   6 N :    0.132060
   7 C :   -0.410460
   8 N :   -0.023029
   9 H :    0.118202
  10 H :    0.137631
  11 H :    0.127429
  12 H :    0.166244
  13 H :    0.186774
  14 H :    0.172127

  Mayer bond orders larger than 0.1
B(  0-C ,  1-N ) :   0.8657 B(  0-C ,  9-H ) :   0.9251 B(  0-C , 10-H ) :   0.9213
B(  0-C , 11-H ) :   0.9245 B(  1-N ,  2-N ) :   0.8898 B(  1-N ,  7-C ) :   1.1098
B(  2-N ,  3-N ) :   1.5360 B(  3-N ,  4-C ) :   1.0283 B(  4-C ,  5-N ) :   1.9484
B(  4-C ,  6-N ) :   1.1457 B(  5-N , 12-H ) :   0.8518 B(  6-N ,  7-C ) :   1.6187
B(  7-C ,  8-N ) :   1.1155 B(  8-N , 13-H ) :   0.8567 B(  8-N , 14-H ) :   0.8630

MP2 TOTAL ENERGY:     -445.542152151 Eh
FINAL SINGLE POINT ENERGY      -445.542152150576

DIPOLE MOMENT
-------------
                                X             Y             Z
Electronic contribution:      0.33143      -5.13126      -1.73999
Nuclear contribution   :     -0.09004       7.75318       2.38176
                        -----------------------------------------
Total Dipole Moment    :      0.24139       2.62193       0.64176
                        -----------------------------------------
Magnitude (a.u.)       :      2.71010
Magnitude (Debye)      :      6.88852

                             ****ORCA TERMINATED NORMALLY****
TOTAL RUN TIME: 0 days 0 hours 16 minutes 37 seconds 526 msec
