                         Program Version 3.0.3 - RELEASE   -
|  1> ! RI-MP2 RIJK def2-TZVP def2-TZVP/C def2-TZVP/JK TIGHTSCF
|  2> % maxcore 2000
|  3> % mp2 density relaxed end
|  4> *xyz 0 1
|  5>  C       -0.1159281084     1.4585393082     0.0237194510
|  6>  C       -0.0026453010    -0.0360822565    -0.0399963490
|  7>  C        0.0299332500    -0.8982024267    -1.3037256385
|  8>  C       -0.2189312688    -2.1224454284    -0.3848225615
|  9>  C        1.0851048458    -2.2190210361     0.4497622002
| 10>  C        0.6720234898    -0.8927136853     1.0925896434
| 11>  C        1.2442849681    -0.2880298179     2.3407127130
| 12>  C       -0.7683393430    -1.1029454658     0.7179617001
| 13>  O       -1.8686079965    -1.0723863698     1.5375942019
| 14>  H        0.8125067347     1.9490241995    -0.2929859276
| 15>  H       -0.9158354867     1.8183070903    -0.6348594027
| 16>  H       -0.3450235406     1.8076652422     1.0349616093
| 17>  H       -0.8259609403    -0.6792625618    -1.9514059751
| 18>  H        0.9462856907    -0.9137477157    -1.9066053381
| 19>  H       -0.7156398347    -3.0157427679    -0.7582611607
| 20>  H        1.0497319443    -3.0319084044     1.1819632452
| 21>  H        2.0289425344    -2.2680994595    -0.1074607137
| 22>  H        2.2572675880     0.0975026744     2.1740838789
| 23>  H        0.6306284438     0.5370081436     2.7136532082
| 24>  H        1.3017363830    -1.0356639588     3.1400251516
| 25>  H       -2.6345752926    -0.8008466037     1.0187144341
| 26> *
| 27>
| 28>                          ****END OF INPUT****

CARTESIAN COORDINATES (ANGSTROEM)
---------------------------------
  C     -0.115928    1.458539    0.023719
  C     -0.002645   -0.036082   -0.039996
  C      0.029933   -0.898202   -1.303726
  C     -0.218931   -2.122445   -0.384823
  C      1.085105   -2.219021    0.449762
  C      0.672023   -0.892714    1.092590
  C      1.244285   -0.288030    2.340713
  C     -0.768339   -1.102945    0.717962
  O     -1.868608   -1.072386    1.537594
  H      0.812507    1.949024   -0.292986
  H     -0.915835    1.818307   -0.634859
  H     -0.345024    1.807665    1.034962
  H     -0.825961   -0.679263   -1.951406
  H      0.946286   -0.913748   -1.906605
  H     -0.715640   -3.015743   -0.758261
  H      1.049732   -3.031908    1.181963
  H      2.028943   -2.268099   -0.107461
  H      2.257268    0.097503    2.174084
  H      0.630628    0.537008    2.713653
  H      1.301736   -1.035664    3.140025
  H     -2.634575   -0.800847    1.018714

 Total Charge           Charge          ....    0
 Multiplicity           Mult            ....    1
 Number of Electrons    NEL             ....   68
 Basis Dimension        Dim             ....  351

ORBITAL ENERGIES
----------------

  NO   OCC          E(Eh)            E(eV)
   0   2.0000     -20.572422      -559.8041
   1   2.0000     -11.276708      -306.8548
   2   2.0000     -11.230161      -305.5882
   3   2.0000     -11.230081      -305.5860
   4   2.0000     -11.227656      -305.5201
   5   2.0000     -11.219382      -305.2949
   6   2.0000     -11.218647      -305.2749
   7   2.0000     -11.216867      -305.2265
   8   2.0000     -11.213880      -305.1452
   9   2.0000      -1.380837       -37.5745
  10   2.0000      -1.217091       -33.1187
  11   2.0000      -1.007232       -27.4082
  12   2.0000      -1.005363       -27.3573
  13   2.0000      -0.920877       -25.0583
  14   2.0000      -0.917112       -24.9559
  15   2.0000      -0.821390       -22.3512
  16   2.0000      -0.753047       -20.4914
  17   2.0000      -0.699399       -19.0316
  18   2.0000      -0.662536       -18.0285
  19   2.0000      -0.637171       -17.3383
  20   2.0000      -0.619378       -16.8541
  21   2.0000      -0.605283       -16.4706
  22   2.0000      -0.579031       -15.7562
  23   2.0000      -0.564116       -15.3504
  24   2.0000      -0.549128       -14.9425
  25   2.0000      -0.543212       -14.7816
  26   2.0000      -0.538453       -14.6521
  27   2.0000      -0.517750       -14.0887
  28   2.0000      -0.507883       -13.8202
  29   2.0000      -0.465336       -12.6624
  30   2.0000      -0.433242       -11.7891
  31   2.0000      -0.432149       -11.7594
  32   2.0000      -0.354341        -9.6421
  33   2.0000      -0.345257        -9.3949
  34   0.0000       0.124332         3.3832
  35   0.0000       0.154189         4.1957
  36   0.0000       0.164347         4.4721
  37   0.0000       0.170765         4.6468
  38   0.0000       0.193689         5.2706

MULLIKEN ATOMIC CHARGES
-----------------------
   0 C :   -0.424550
   1 C :   -0.018174
   2 C :   -0.193790
   3 C :   -0.087653
   4 C :   -0.192763
   5 C :    0.010955
   6 C :   -0.428464
   7 C :    0.080264
   8 O :   -0.444112
   9 H :    0.139538
  10 H :    0.129374
  11 H :    0.137211
  12 H :    0.106114
  13 H :    0.101129
  14 H :    0.132365
  15 H :    0.112526
  16 H :    0.102342
  17 H :    0.135429
  18 H :    0.135110
  19 H :    0.136144
  20 H :    0.331005
Sum of atomic charges:    0.0000000

LOEWDIN ATOMIC CHARGES
----------------------
   0 C :   -0.276570
   1 C :   -0.182895
   2 C :   -0.181841
   3 C :   -0.146398
   4 C :   -0.177371
   5 C :   -0.176892
   6 C :   -0.270324
   7 C :   -0.249996
   8 O :    0.039726
   9 H :    0.130145
  10 H :    0.127315
  11 H :    0.130947
  12 H :    0.136265
  13 H :    0.125402
  14 H :    0.128391
  15 H :    0.140143
  16 H :    0.124438
  17 H :    0.128968
  18 H :    0.131008
  19 H :    0.130836
  20 H :    0.188703

  Mayer bond orders larger than 0.1
B(  0-C ,  1-C ) :   0.8701 B(  0-C ,  9-H ) :   0.9479 B(  0-C , 10-H ) :   0.9362
B(  0-C , 11-H ) :   0.9395 B(  1-C ,  2-C ) :   0.9118 B(  1-C ,  5-C ) :   0.7910
B(  1-C ,  7-C ) :   0.8369 B(  2-C ,  3-C ) :   0.9021 B(  2-C , 12-H ) :   0.9265
B(  2-C , 13-H ) :   0.9025 B(  3-C ,  4-C ) :   0.9099 B(  3-C ,  7-C ) :   0.9120
B(  3-C , 14-H ) :   0.9098 B(  4-C ,  5-C ) :   0.9327 B(  4-C , 15-H ) :   0.9197
B(  4-C , 16-H ) :   0.9143 B(  5-C ,  6-C ) :   0.8773 B(  5-C ,  7-C ) :   0.8558
B(  6-C , 17-H ) :   0.9445 B(  6-C , 18-H ) :   0.9391 B(  6-C , 19-H ) :   0.9377
B(  7-C ,  8-O ) :   1.0850 B(  8-O , 20-H ) :   0.8334

MP2 TOTAL ENERGY:     -386.369413337 Eh
FINAL SINGLE POINT ENERGY      -386.369413336582

DIPOLE MOMENT
-------------
                                X             Y             Z
Electronic contribution:     -3.81605      -3.27747       0.21243
Nuclear contribution   :      3.62641       3.50654      -0.61676
                        -----------------------------------------
Total Dipole Moment    :     -0.18964       0.22907      -0.40432
                        -----------------------------------------
Magnitude (a.u.)       :      0.50191
Magnitude (Debye)      :      1.27576

                             ****ORCA TERMINATED NORMALLY****
TOTAL RUN TIME: 0 days 0 hours 19 minutes 48 seconds 436 msec
