                         Program Version 3.0.3 - RELEASE   -
|  1> ! RI-MP2 RIJK def2-TZVP def2-TZVP/C def2-TZVP/JK TIGHTSCF
|  2> % maxcore 2000
|  3> % mp2 density relaxed end
|  4> *xyz 0 1
|  5>  C       -0.5971017280     1.3113110913    -0.0768170351
|  6>  C       -0.3409772038    -0.1558168285     0.1886371583
|  7>  C        0.9631978490    -0.7908862217    -0.2145142140
|  8>  C        0.6175729621    -0.6778004586     1.2492220591
|  9>  N        1.3926936882    -0.0347116784     2.3292571131
| 10>  C        1.1234571619     1.3349561460     2.7227364107
| 11>  C        0.9910232229    -1.0841435860     3.3048264437
| 12>  C        0.3132369337    -1.8361429095     2.1483264530
| 13>  O       -0.2345875774    -2.8923680678     2.0118386050
| 14>  H        0.3204375725     1.9025006357    -0.0176062807
| 15>  H       -1.0032617636     1.4379821898    -1.0863225568
| 16>  H       -1.3186150203     1.7346346140     0.6290103345
| 17>  H       -1.2201717796    -0.7884528130     0.0828606343
| 18>  H        0.9703171000    -1.7856251720    -0.6485030198
| 19>  H        1.7437711754    -0.1244730759    -0.5696360819
| 20>  H        0.0603787503     1.5349617377     2.9486405683
| 21>  H        1.7077019669     1.5628197114     3.6199366715
| 22>  H        1.4439495020     2.0277332982     1.9399557806
| 23>  H        1.8231089677    -1.5871880945     3.8074842453
| 24>  H        0.2619616202    -0.7491360282     4.0584150207
| 25> *
| 26>
| 27>                          ****END OF INPUT****

CARTESIAN COORDINATES (ANGSTROEM)
---------------------------------
  C     -0.597102    1.311311   -0.076817
  C     -0.340977   -0.155817    0.188637
  C      0.963198   -0.790886   -0.214514
  C      0.617573   -0.677800    1.249222
  N      1.392694   -0.034712    2.329257
  C      1.123457    1.334956    2.722736
  C      0.991023   -1.084144    3.304826
  C      0.313237   -1.836143    2.148326
  O     -0.234588   -2.892368    2.011839
  H      0.320438    1.902501   -0.017606
  H     -1.003262    1.437982   -1.086323
  H     -1.318615    1.734635    0.629010
  H     -1.220172   -0.788453    0.082861
  H      0.970317   -1.785625   -0.648503
  H      1.743771   -0.124473   -0.569636
  H      0.060379    1.534962    2.948641
  H      1.707702    1.562820    3.619937
  H      1.443950    2.027733    1.939956
  H      1.823109   -1.587188    3.807484
  H      0.261962   -0.749136    4.058415

 Total Charge           Charge          ....    0
 Multiplicity           Mult            ....    1
 Number of Electrons    NEL             ....   68
 Basis Dimension        Dim             ....  345

ORBITAL ENERGIES
----------------

  NO   OCC          E(Eh)            E(eV)
   0   2.0000     -20.552544      -559.2632
   1   2.0000     -15.564493      -423.5314
   2   2.0000     -11.332222      -308.3654
   3   2.0000     -11.273578      -306.7696
   4   2.0000     -11.267761      -306.6114
   5   2.0000     -11.255270      -306.2715
   6   2.0000     -11.252376      -306.1927
   7   2.0000     -11.235808      -305.7419
   8   2.0000     -11.231711      -305.6304
   9   2.0000      -1.396350       -37.9966
  10   2.0000      -1.265867       -34.4460
  11   2.0000      -1.141469       -31.0609
  12   2.0000      -1.017663       -27.6920
  13   2.0000      -0.974063       -26.5056
  14   2.0000      -0.884412       -24.0661
  15   2.0000      -0.844516       -22.9804
  16   2.0000      -0.801583       -21.8122
  17   2.0000      -0.709196       -19.2982
  18   2.0000      -0.677442       -18.4341
  19   2.0000      -0.666707       -18.1420
  20   2.0000      -0.652408       -17.7529
  21   2.0000      -0.613909       -16.7053
  22   2.0000      -0.597779       -16.2664
  23   2.0000      -0.586960       -15.9720
  24   2.0000      -0.572640       -15.5823
  25   2.0000      -0.570672       -15.5288
  26   2.0000      -0.537304       -14.6208
  27   2.0000      -0.526344       -14.3225
  28   2.0000      -0.514504       -14.0004
  29   2.0000      -0.505653       -13.7595
  30   2.0000      -0.453085       -12.3291
  31   2.0000      -0.444506       -12.0956
  32   2.0000      -0.390259       -10.6195
  33   2.0000      -0.352453        -9.5907
  34   0.0000       0.127748         3.4762
  35   0.0000       0.131472         3.5775
  36   0.0000       0.157301         4.2804
  37   0.0000       0.167319         4.5530
  38   0.0000       0.174903         4.7594

MULLIKEN ATOMIC CHARGES
-----------------------
   0 C :   -0.385671
   1 C :   -0.115784
   2 C :   -0.263358
   3 C :    0.043675
   4 N :   -0.118334
   5 C :   -0.329878
   6 C :   -0.157953
   7 C :    0.127242
   8 O :   -0.264908
   9 H :    0.120810
  10 H :    0.146042
  11 H :    0.135175
  12 H :    0.135475
  13 H :    0.147217
  14 H :    0.130496
  15 H :    0.112153
  16 H :    0.148422
  17 H :    0.130861
  18 H :    0.136196
  19 H :    0.122124
Sum of atomic charges:   -0.0000000

LOEWDIN ATOMIC CHARGES
----------------------
   0 C :   -0.290046
   1 C :   -0.199935
   2 C :   -0.170597
   3 C :   -0.214400
   4 N :    0.110150
   5 C :   -0.333258
   6 C :   -0.208625
   7 C :   -0.285506
   8 O :    0.160406
   9 H :    0.124924
  10 H :    0.130245
  11 H :    0.125807
  12 H :    0.157765
  13 H :    0.140301
  14 H :    0.142449
  15 H :    0.104359
  16 H :    0.121192
  17 H :    0.116370
  18 H :    0.133392
  19 H :    0.135006

  Mayer bond orders larger than 0.1
B(  0-C ,  1-C ) :   0.8981 B(  0-C ,  9-H ) :   0.9342 B(  0-C , 10-H ) :   0.9332
B(  0-C , 11-H ) :   0.9406 B(  1-C ,  2-C ) :   0.9382 B(  1-C ,  3-C ) :   0.8210
B(  1-C , 12-H ) :   0.9115 B(  2-C ,  3-C ) :   0.8036 B(  2-C , 13-H ) :   0.9204
B(  2-C , 14-H ) :   0.9172 B(  3-C ,  4-N ) :   0.9767 B(  3-C ,  7-C ) :   0.8914
B(  4-N ,  5-C ) :   0.8920 B(  4-N ,  6-C ) :   0.9371 B(  5-C , 15-H ) :   0.9219
B(  5-C , 16-H ) :   0.9347 B(  5-C , 17-H ) :   0.9417 B(  6-C ,  7-C ) :   0.9317
B(  6-C , 18-H ) :   0.8974 B(  6-C , 19-H ) :   0.9058 B(  7-C ,  8-O ) :   2.0390

MP2 TOTAL ENERGY:     -402.421780678 Eh
FINAL SINGLE POINT ENERGY      -402.421780677640

DIPOLE MOMENT
-------------
                                X             Y             Z
Electronic contribution:      0.29697      -9.00718       1.92624
Nuclear contribution   :     -0.24911      10.11991      -1.93938
                        -----------------------------------------
Total Dipole Moment    :      0.04786       1.11273      -0.01314
                        -----------------------------------------
Magnitude (a.u.)       :      1.11383
Magnitude (Debye)      :      2.83114

                             ****ORCA TERMINATED NORMALLY****
TOTAL RUN TIME: 0 days 0 hours 18 minutes 56 seconds 974 msec
