                         Program Version 3.0.3 - RELEASE   -
|  1> ! RI-MP2 RIJK def2-TZVP def2-TZVP/C def2-TZVP/JK TIGHTSCF
|  2> % maxcore 2000
|  3> % mp2 density relaxed end
|  4> *xyz 0 1
|  5>  C       -0.0335172955     1.5595289506     0.1506670862
|  6>  C        0.0804425225     0.0500317867     0.1813025267
|  7>  C        1.2928191796    -0.7533797036    -0.2275244039
|  8>  C        2.5960469140    -0.0657166594     0.1999662354
|  9>  C        2.0962095181    -0.0647699771     1.6803218242
| 10>  C        0.8012981587    -0.7587797864     1.2282693560
| 11>  C        0.1248142536    -1.8665929412     2.0038095903
| 12>  C       -0.5888654407    -1.3663966951     3.1832733410
| 13>  N       -1.1414184079    -0.9519068218     4.1097644090
| 14>  H        0.8930993561     2.0572966290     0.4464796932
| 15>  H       -0.2854808561     1.9058773185    -0.8574314564
| 16>  H       -0.8220494681     1.9019001951     0.8289322931
| 17>  H       -0.8380881097    -0.4462475785    -0.1310952441
| 18>  H        1.2202293958    -1.5404467353    -0.9702099264
| 19>  H        3.4729613846    -0.7014469043     0.0630932792
| 20>  H        2.8020948592     0.9070323438    -0.2563171613
| 21>  H        2.7083599675    -0.7066093268     2.3189900655
| 22>  H        1.9834148612     0.9029740977     2.1770045257
| 23>  H       -0.5930153554    -2.3950387372     1.3654748039
| 24>  H        0.8574691127    -2.6118205546     2.3388266528
| 25> *
| 26>
| 27>                          ****END OF INPUT****

CARTESIAN COORDINATES (ANGSTROEM)
---------------------------------
  C     -0.033517    1.559529    0.150667
  C      0.080443    0.050032    0.181303
  C      1.292819   -0.753380   -0.227524
  C      2.596047   -0.065717    0.199966
  C      2.096210   -0.064770    1.680322
  C      0.801298   -0.758780    1.228269
  C      0.124814   -1.866593    2.003810
  C     -0.588865   -1.366397    3.183273
  N     -1.141418   -0.951907    4.109764
  H      0.893099    2.057297    0.446480
  H     -0.285481    1.905877   -0.857431
  H     -0.822049    1.901900    0.828932
  H     -0.838088   -0.446248   -0.131095
  H      1.220229   -1.540447   -0.970210
  H      3.472961   -0.701447    0.063093
  H      2.802095    0.907032   -0.256317
  H      2.708360   -0.706609    2.318990
  H      1.983415    0.902974    2.177005
  H     -0.593015   -2.395039    1.365475
  H      0.857469   -2.611821    2.338827

 Total Charge           Charge          ....    0
 Multiplicity           Mult            ....    1
 Number of Electrons    NEL             ....   66
 Basis Dimension        Dim             ....  345

ORBITAL ENERGIES
----------------

  NO   OCC          E(Eh)            E(eV)
   0   2.0000     -15.564410      -423.5291
   1   2.0000     -11.283677      -307.0445
   2   2.0000     -11.269470      -306.6579
   3   2.0000     -11.256861      -306.3148
   4   2.0000     -11.245600      -306.0083
   5   2.0000     -11.243110      -305.9406
   6   2.0000     -11.236440      -305.7591
   7   2.0000     -11.235642      -305.7374
   8   2.0000     -11.222007      -305.3663
   9   2.0000      -1.218808       -33.1654
  10   2.0000      -1.204700       -32.7815
  11   2.0000      -1.047866       -28.5139
  12   2.0000      -1.019999       -27.7556
  13   2.0000      -0.947080       -25.7714
  14   2.0000      -0.890867       -24.2417
  15   2.0000      -0.767953       -20.8971
  16   2.0000      -0.738038       -20.0830
  17   2.0000      -0.711266       -19.3545
  18   2.0000      -0.670607       -18.2482
  19   2.0000      -0.644753       -17.5446
  20   2.0000      -0.627324       -17.0704
  21   2.0000      -0.583963       -15.8904
  22   2.0000      -0.576172       -15.6784
  23   2.0000      -0.562997       -15.3199
  24   2.0000      -0.550626       -14.9833
  25   2.0000      -0.521122       -14.1805
  26   2.0000      -0.516559       -14.0563
  27   2.0000      -0.489070       -13.3083
  28   2.0000      -0.474125       -12.9016
  29   2.0000      -0.457122       -12.4389
  30   2.0000      -0.449102       -12.2207
  31   2.0000      -0.404946       -11.0191
  32   2.0000      -0.385252       -10.4832
  33   0.0000       0.119311         3.2466
  34   0.0000       0.141526         3.8511
  35   0.0000       0.153680         4.1818
  36   0.0000       0.154898         4.2150
  37   0.0000       0.177054         4.8179

MULLIKEN ATOMIC CHARGES
-----------------------
   0 C :   -0.405779
   1 C :   -0.124255
   2 C :   -0.123931
   3 C :   -0.257205
   4 C :   -0.275972
   5 C :    0.094267
   6 C :   -0.152797
   7 C :   -0.176964
   8 N :   -0.062894
   9 H :    0.132096
  10 H :    0.135574
  11 H :    0.145563
  12 H :    0.117243
  13 H :    0.133637
  14 H :    0.123249
  15 H :    0.125014
  16 H :    0.122337
  17 H :    0.136786
  18 H :    0.157901
  19 H :    0.156129
Sum of atomic charges:    0.0000000

LOEWDIN ATOMIC CHARGES
----------------------
   0 C :   -0.286163
   1 C :   -0.194181
   2 C :   -0.145895
   3 C :   -0.213091
   4 C :   -0.186617
   5 C :   -0.183411
   6 C :   -0.211718
   7 C :   -0.182376
   8 N :    0.054196
   9 H :    0.127296
  10 H :    0.127603
  11 H :    0.130542
  12 H :    0.160051
  13 H :    0.135561
  14 H :    0.135171
  15 H :    0.127162
  16 H :    0.137971
  17 H :    0.131283
  18 H :    0.169708
  19 H :    0.166908

  Mayer bond orders larger than 0.1
B(  0-C ,  1-C ) :   0.9072 B(  0-C ,  9-H ) :   0.9373 B(  0-C , 10-H ) :   0.9366
B(  0-C , 11-H ) :   0.9364 B(  1-C ,  2-C ) :   0.8728 B(  1-C ,  5-C ) :   0.8800
B(  1-C , 12-H ) :   0.9303 B(  2-C ,  3-C ) :   0.9279 B(  2-C ,  5-C ) :   0.8054
B(  2-C , 13-H ) :   0.9185 B(  3-C ,  4-C ) :   0.9620 B(  3-C , 14-H ) :   0.9249
B(  3-C , 15-H ) :   0.9332 B(  4-C ,  5-C ) :   0.9152 B(  4-C , 16-H ) :   0.9217
B(  4-C , 17-H ) :   0.9282 B(  5-C ,  6-C ) :   0.8822 B(  6-C ,  7-C ) :   0.9441
B(  6-C , 18-H ) :   0.9093 B(  6-C , 19-H ) :   0.9095 B(  7-C ,  8-N ) :   2.8734

MP2 TOTAL ENERGY:     -365.340013896 Eh
FINAL SINGLE POINT ENERGY      -365.340013896337

DIPOLE MOMENT
-------------
                                X             Y             Z
Electronic contribution:     -3.75422      -4.24745       5.91290
Nuclear contribution   :      4.55291       3.85413      -7.23697
                        -----------------------------------------
Total Dipole Moment    :      0.79868      -0.39333      -1.32407
                        -----------------------------------------
Magnitude (a.u.)       :      1.59554
Magnitude (Debye)      :      4.05554

                             ****ORCA TERMINATED NORMALLY****
TOTAL RUN TIME: 0 days 0 hours 19 minutes 11 seconds 547 msec
