                         Program Version 3.0.3 - RELEASE   -
|  1> ! RI-MP2 RIJK def2-TZVP def2-TZVP/C def2-TZVP/JK TIGHTSCF
|  2> % maxcore 2000
|  3> % mp2 density relaxed end
|  4> *xyz 0 1
|  5>  C        0.1715577877     1.5852948339    -0.2904179110
|  6>  C       -0.0316200099     0.0889950196    -0.1794863515
|  7>  C       -1.4571885055    -0.4255770425    -0.2792122919
|  8>  C       -2.3305433492    -0.0248467401     0.9213244034
|  9>  C       -3.7170060798    -0.6116961462     0.8301599948
| 10>  C       -4.9115299211     0.1101326091     1.2828169078
| 11>  O       -4.6077773331     0.0019126086    -0.1093094889
| 12>  C        1.0817412141    -0.8111578561    -0.5169565578
| 13>  O        0.7484239728    -0.5486591944     0.8486600621
| 14>  H        1.2293851377     1.8362782545    -0.1821711195
| 15>  H       -0.1776889485     1.9519221641    -1.2616499305
| 16>  H       -0.3821371644     2.1198475484     0.4877643312
| 17>  H       -1.9181900719    -0.0553169079    -1.2027668437
| 18>  H       -1.4300029681    -1.5189259917    -0.3501087477
| 19>  H       -1.8496861245    -0.3716365845     1.8442415077
| 20>  H       -2.4173762831     1.0651571556     0.9864604485
| 21>  H       -3.7622122394    -1.7031831928     0.8223233156
| 22>  H       -5.7893516894    -0.4422886235     1.6155904164
| 23>  H       -4.8039717100     1.1073490162     1.7083575951
| 24>  H        0.8752169530    -1.8232657221    -0.8638351121
| 25>  H        2.0309645326    -0.3950683284    -0.8537839780
| 26> *
| 27>
| 28>                          ****END OF INPUT****

CARTESIAN COORDINATES (ANGSTROEM)
---------------------------------
  C      0.171558    1.585295   -0.290418
  C     -0.031620    0.088995   -0.179486
  C     -1.457189   -0.425577   -0.279212
  C     -2.330543   -0.024847    0.921324
  C     -3.717006   -0.611696    0.830160
  C     -4.911530    0.110133    1.282817
  O     -4.607777    0.001913   -0.109309
  C      1.081741   -0.811158   -0.516957
  O      0.748424   -0.548659    0.848660
  H      1.229385    1.836278   -0.182171
  H     -0.177689    1.951922   -1.261650
  H     -0.382137    2.119848    0.487764
  H     -1.918190   -0.055317   -1.202767
  H     -1.430003   -1.518926   -0.350109
  H     -1.849686   -0.371637    1.844242
  H     -2.417376    1.065157    0.986460
  H     -3.762212   -1.703183    0.822323
  H     -5.789352   -0.442289    1.615590
  H     -4.803972    1.107349    1.708358
  H      0.875217   -1.823266   -0.863835
  H      2.030965   -0.395068   -0.853784

 Total Charge           Charge          ....    0
 Multiplicity           Mult            ....    1
 Number of Electrons    NEL             ....   70
 Basis Dimension        Dim             ....  351

ORBITAL ENERGIES
----------------

  NO   OCC          E(Eh)            E(eV)
   0   2.0000     -20.565427      -559.6137
   1   2.0000     -20.561728      -559.5131
   2   2.0000     -11.291636      -307.2610
   3   2.0000     -11.286568      -307.1231
   4   2.0000     -11.281482      -306.9847
   5   2.0000     -11.278390      -306.9006
   6   2.0000     -11.230659      -305.6018
   7   2.0000     -11.230062      -305.5855
   8   2.0000     -11.224354      -305.4302
   9   2.0000      -1.408533       -38.3281
  10   2.0000      -1.406135       -38.2629
  11   2.0000      -1.075939       -29.2778
  12   2.0000      -1.006183       -27.3796
  13   2.0000      -0.938284       -25.5320
  14   2.0000      -0.909847       -24.7582
  15   2.0000      -0.885157       -24.0863
  16   2.0000      -0.808581       -22.0026
  17   2.0000      -0.767110       -20.8741
  18   2.0000      -0.695669       -18.9301
  19   2.0000      -0.680179       -18.5086
  20   2.0000      -0.662049       -18.0153
  21   2.0000      -0.630795       -17.1648
  22   2.0000      -0.616075       -16.7642
  23   2.0000      -0.588371       -16.0104
  24   2.0000      -0.560347       -15.2478
  25   2.0000      -0.545363       -14.8401
  26   2.0000      -0.535303       -14.5663
  27   2.0000      -0.528670       -14.3859
  28   2.0000      -0.516857       -14.0644
  29   2.0000      -0.498250       -13.5581
  30   2.0000      -0.489479       -13.3194
  31   2.0000      -0.450535       -12.2597
  32   2.0000      -0.441588       -12.0162
  33   2.0000      -0.436820       -11.8865
  34   2.0000      -0.412750       -11.2315
  35   0.0000       0.142523         3.8783
  36   0.0000       0.157062         4.2739
  37   0.0000       0.160601         4.3702
  38   0.0000       0.181867         4.9489
  39   0.0000       0.183248         4.9864

MULLIKEN ATOMIC CHARGES
-----------------------
   0 C :   -0.427824
   1 C :    0.221317
   2 C :   -0.226841
   3 C :   -0.262111
   4 C :    0.045353
   5 C :   -0.071996
   6 O :   -0.342077
   7 C :   -0.079962
   8 O :   -0.353223
   9 H :    0.139804
  10 H :    0.135357
  11 H :    0.139191
  12 H :    0.133987
  13 H :    0.116528
  14 H :    0.138243
  15 H :    0.117366
  16 H :    0.124908
  17 H :    0.115505
  18 H :    0.114360
  19 H :    0.110708
  20 H :    0.111407
Sum of atomic charges:    0.0000000

LOEWDIN ATOMIC CHARGES
----------------------
   0 C :   -0.265809
   1 C :   -0.349784
   2 C :   -0.219477
   3 C :   -0.244732
   4 C :   -0.294217
   5 C :   -0.268250
   6 O :    0.136945
   7 C :   -0.249350
   8 O :    0.154290
   9 H :    0.132254
  10 H :    0.131941
  11 H :    0.128381
  12 H :    0.150326
  13 H :    0.147487
  14 H :    0.151315
  15 H :    0.144328
  16 H :    0.137794
  17 H :    0.118455
  18 H :    0.119362
  19 H :    0.119181
  20 H :    0.119559

  Mayer bond orders larger than 0.1
B(  0-C ,  1-C ) :   0.9008 B(  0-C ,  9-H ) :   0.9362 B(  0-C , 10-H ) :   0.9346
B(  0-C , 11-H ) :   0.9392 B(  1-C ,  2-C ) :   0.9071 B(  1-C ,  7-C ) :   0.9938
B(  1-C ,  8-O ) :   0.7930 B(  2-C ,  3-C ) :   0.9145 B(  2-C , 12-H ) :   0.9355
B(  2-C , 13-H ) :   0.9301 B(  3-C ,  4-C ) :   0.9275 B(  3-C , 14-H ) :   0.9323
B(  3-C , 15-H ) :   0.9246 B(  4-C ,  5-C ) :   0.9902 B(  4-C ,  6-O ) :   0.8535
B(  4-C , 16-H ) :   0.9159 B(  5-C ,  6-O ) :   0.9190 B(  5-C , 17-H ) :   0.9217
B(  5-C , 18-H ) :   0.9082 B(  7-C ,  8-O ) :   0.9196 B(  7-C , 19-H ) :   0.8973
B(  7-C , 20-H ) :   0.9150

MP2 TOTAL ENERGY:     -423.478831615 Eh
FINAL SINGLE POINT ENERGY      -423.478831614711

DIPOLE MOMENT
-------------
                                X             Y             Z
Electronic contribution:     -1.53465      -2.31264       0.53898
Nuclear contribution   :      1.59728       2.36045      -0.56498
                        -----------------------------------------
Total Dipole Moment    :      0.06263       0.04781      -0.02600
                        -----------------------------------------
Magnitude (a.u.)       :      0.08297
Magnitude (Debye)      :      0.21089

                             ****ORCA TERMINATED NORMALLY****
TOTAL RUN TIME: 0 days 0 hours 16 minutes 17 seconds 290 msec
