                         Program Version 3.0.3 - RELEASE   -
|  1> ! RI-MP2 RIJK def2-TZVP def2-TZVP/C def2-TZVP/JK TIGHTSCF
|  2> % maxcore 2000
|  3> % mp2 density relaxed end
|  4> *xyz 0 1
|  5>  C       -0.0721125941     1.5084529666     0.4855324786
|  6>  C       -0.0426310496    -0.0140433320     0.3567379540
|  7>  O       -0.1939904404    -0.6507706045     1.6166672137
|  8>  C       -1.0931918428    -0.5171863552    -0.6650740937
|  9>  C       -1.1510085098    -2.0287384247    -0.6869293491
| 10>  O       -0.5004378451    -2.7199876966    -1.4355531110
| 11>  C       -2.1002420253    -2.7064567903     0.3360418802
| 12>  C       -2.2085254076    -4.2048366661     0.2450456397
| 13>  O       -2.6982810742    -2.0324889569     1.1469869993
| 14>  H        0.6785339967     1.8319876275     1.2114182550
| 15>  H        0.1364229738     1.9946032608    -0.4733612039
| 16>  H       -1.0538558770     1.8485801737     0.8345733399
| 17>  H        0.9460232487    -0.3272266387    -0.0003974180
| 18>  H       -1.1342957590    -0.6600400081     1.8383895654
| 19>  H       -2.0748548286    -0.1150963335    -0.3948016854
| 20>  H       -0.8237053613    -0.1711083859    -1.6661719733
| 21>  H       -1.2188090522    -4.6526422849     0.3797001987
| 22>  H       -2.9015354478    -4.5738737379     1.0009463074
| 23>  H       -2.5392989443    -4.4983888034    -0.7563270176
| 24> *
| 25>
| 26>                          ****END OF INPUT****

CARTESIAN COORDINATES (ANGSTROEM)
---------------------------------
  C     -0.072113    1.508453    0.485532
  C     -0.042631   -0.014043    0.356738
  O     -0.193990   -0.650771    1.616667
  C     -1.093192   -0.517186   -0.665074
  C     -1.151009   -2.028738   -0.686929
  O     -0.500438   -2.719988   -1.435553
  C     -2.100242   -2.706457    0.336042
  C     -2.208525   -4.204837    0.245046
  O     -2.698281   -2.032489    1.146987
  H      0.678534    1.831988    1.211418
  H      0.136423    1.994603   -0.473361
  H     -1.053856    1.848580    0.834573
  H      0.946023   -0.327227   -0.000397
  H     -1.134296   -0.660040    1.838390
  H     -2.074855   -0.115096   -0.394802
  H     -0.823705   -0.171108   -1.666172
  H     -1.218809   -4.652642    0.379700
  H     -2.901535   -4.573874    1.000946
  H     -2.539299   -4.498389   -0.756327

 Total Charge           Charge          ....    0
 Multiplicity           Mult            ....    1
 Number of Electrons    NEL             ....   70
 Basis Dimension        Dim             ....  339

ORBITAL ENERGIES
----------------

  NO   OCC          E(Eh)            E(eV)
   0   2.0000     -20.582279      -560.0723
   1   2.0000     -20.580656      -560.0281
   2   2.0000     -20.556126      -559.3606
   3   2.0000     -11.358812      -309.0890
   4   2.0000     -11.353687      -308.9495
   5   2.0000     -11.297358      -307.4167
   6   2.0000     -11.247854      -306.0697
   7   2.0000     -11.244230      -305.9711
   8   2.0000     -11.224050      -305.4219
   9   2.0000      -1.430661       -38.9303
  10   2.0000      -1.411792       -38.4168
  11   2.0000      -1.366219       -37.1767
  12   2.0000      -1.071480       -29.1564
  13   2.0000      -1.032063       -28.0839
  14   2.0000      -0.986826       -26.8529
  15   2.0000      -0.880502       -23.9597
  16   2.0000      -0.828234       -22.5374
  17   2.0000      -0.735342       -20.0097
  18   2.0000      -0.713210       -19.4074
  19   2.0000      -0.680495       -18.5172
  20   2.0000      -0.662293       -18.0219
  21   2.0000      -0.651534       -17.7291
  22   2.0000      -0.629470       -17.1288
  23   2.0000      -0.613841       -16.7035
  24   2.0000      -0.599769       -16.3206
  25   2.0000      -0.578535       -15.7427
  26   2.0000      -0.554809       -15.0971
  27   2.0000      -0.550578       -14.9820
  28   2.0000      -0.541075       -14.7234
  29   2.0000      -0.526040       -14.3143
  30   2.0000      -0.520370       -14.1600
  31   2.0000      -0.512083       -13.9345
  32   2.0000      -0.475032       -12.9263
  33   2.0000      -0.448612       -12.2074
  34   2.0000      -0.409101       -11.1322
  35   0.0000       0.061796         1.6815
  36   0.0000       0.133989         3.6460
  37   0.0000       0.144800         3.9402
  38   0.0000       0.174696         4.7537
  39   0.0000       0.184560         5.0221

MULLIKEN ATOMIC CHARGES
-----------------------
   0 C :   -0.373745
   1 C :    0.071547
   2 O :   -0.477331
   3 C :   -0.263786
   4 C :    0.214863
   5 O :   -0.266218
   6 C :    0.208614
   7 C :   -0.389466
   8 O :   -0.316679
   9 H :    0.146410
  10 H :    0.125215
  11 H :    0.120697
  12 H :    0.102172
  13 H :    0.328996
  14 H :    0.151036
  15 H :    0.145427
  16 H :    0.162057
  17 H :    0.156145
  18 H :    0.154044
Sum of atomic charges:    0.0000000

LOEWDIN ATOMIC CHARGES
----------------------
   0 C :   -0.299296
   1 C :   -0.366289
   2 O :   -0.012270
   3 C :   -0.223183
   4 C :   -0.290013
   5 O :    0.182554
   6 C :   -0.310738
   7 C :   -0.272105
   8 O :    0.154285
   9 H :    0.128532
  10 H :    0.125770
  11 H :    0.122884
  12 H :    0.147088
  13 H :    0.175388
  14 H :    0.153612
  15 H :    0.155460
  16 H :    0.148382
  17 H :    0.134656
  18 H :    0.145283

  Mayer bond orders larger than 0.1
B(  0-C ,  1-C ) :   0.9293 B(  0-C ,  9-H ) :   0.9396 B(  0-C , 10-H ) :   0.9324
B(  0-C , 11-H ) :   0.9263 B(  1-C ,  2-O ) :   0.9434 B(  1-C ,  3-C ) :   0.9163
B(  1-C , 12-H ) :   0.9274 B(  2-O , 13-H ) :   0.8229 B(  3-C ,  4-C ) :   0.9033
B(  3-C , 14-H ) :   0.9129 B(  3-C , 15-H ) :   0.9100 B(  4-C ,  5-O ) :   1.9484
B(  4-C ,  6-C ) :   0.8660 B(  6-C ,  7-C ) :   0.9401 B(  6-C ,  8-O ) :   1.8437
B(  7-C , 16-H ) :   0.9067 B(  7-C , 17-H ) :   0.9377 B(  7-C , 18-H ) :   0.9057

MP2 TOTAL ENERGY:     -459.459130142 Eh
FINAL SINGLE POINT ENERGY      -459.459130142044

DIPOLE MOMENT
-------------
                                X             Y             Z
Electronic contribution:     -1.48327      -4.83295      -0.51754
Nuclear contribution   :      1.04279       5.04240       0.12639
                        -----------------------------------------
Total Dipole Moment    :     -0.44048       0.20945      -0.39115
                        -----------------------------------------
Magnitude (a.u.)       :      0.62521
Magnitude (Debye)      :      1.58917

                             ****ORCA TERMINATED NORMALLY****
TOTAL RUN TIME: 0 days 0 hours 18 minutes 43 seconds 429 msec
