                         Program Version 3.0.3 - RELEASE   -
|  1> ! RI-MP2 RIJK def2-TZVP def2-TZVP/C def2-TZVP/JK TIGHTSCF
|  2> % maxcore 2000
|  3> % mp2 density relaxed end
|  4> *xyz 0 1
|  5>  N        0.1566996083    -1.1992287378     0.0422283721
|  6>  C        0.2249187073    -0.0667204469    -0.1728244551
|  7>  C        0.2882282091     1.3747674948    -0.4285883566
|  8>  N        1.1628444097     2.0393726294     0.5495211856
|  9>  C        1.3731801688     3.4111934102     0.3109145715
| 10>  C        0.7234458580     4.5649254467     0.7104011625
| 11>  C        1.4678425664     5.6096686864     0.1224667972
| 12>  N        2.4917235334     5.1536884576    -0.5944383850
| 13>  N        2.4165499770     3.8169289685    -0.4609194747
| 14>  H        0.7006546833     1.5348910505    -1.4299404571
| 15>  H       -0.7391039117     1.7717626085    -0.4416329710
| 16>  H        0.8179469930     1.8841228073     1.4892202650
| 17>  H       -0.1568254350     4.6341420740     1.3289308397
| 18>  H        1.2954670654     6.6740496449     0.1881684173
| 19>  H        3.1266764370     3.2288779358    -0.8657467413
| 20> *
| 21>
| 22>                          ****END OF INPUT****

CARTESIAN COORDINATES (ANGSTROEM)
---------------------------------
  N      0.156700   -1.199229    0.042228
  C      0.224919   -0.066720   -0.172824
  C      0.288228    1.374767   -0.428588
  N      1.162844    2.039373    0.549521
  C      1.373180    3.411193    0.310915
  C      0.723446    4.564925    0.710401
  C      1.467843    5.609669    0.122467
  N      2.491724    5.153688   -0.594438
  N      2.416550    3.816929   -0.460919
  H      0.700655    1.534891   -1.429940
  H     -0.739104    1.771763   -0.441633
  H      0.817947    1.884123    1.489220
  H     -0.156825    4.634142    1.328931
  H      1.295467    6.674050    0.188168
  H      3.126676    3.228878   -0.865747

 Total Charge           Charge          ....    0
 Multiplicity           Mult            ....    1
 Number of Electrons    NEL             ....   64
 Basis Dimension        Dim             ....  315

ORBITAL ENERGIES
----------------

  NO   OCC          E(Eh)            E(eV)
   0   2.0000     -15.645296      -425.7301
   1   2.0000     -15.608559      -424.7305
   2   2.0000     -15.595027      -424.3623
   3   2.0000     -15.587455      -424.1562
   4   2.0000     -11.334471      -308.4266
   5   2.0000     -11.324284      -308.1494
   6   2.0000     -11.288120      -307.1654
   7   2.0000     -11.263720      -306.5014
   8   2.0000     -11.232966      -305.6645
   9   2.0000      -1.389626       -37.8136
  10   2.0000      -1.273199       -34.6455
  11   2.0000      -1.229210       -33.4485
  12   2.0000      -1.103409       -30.0253
  13   2.0000      -1.065572       -28.9957
  14   2.0000      -0.996862       -27.1260
  15   2.0000      -0.831021       -22.6132
  16   2.0000      -0.823949       -22.4208
  17   2.0000      -0.764882       -20.8135
  18   2.0000      -0.724732       -19.7210
  19   2.0000      -0.689348       -18.7581
  20   2.0000      -0.645677       -17.5698
  21   2.0000      -0.629376       -17.1262
  22   2.0000      -0.613633       -16.6978
  23   2.0000      -0.606996       -16.5172
  24   2.0000      -0.592543       -16.1239
  25   2.0000      -0.569563       -15.4986
  26   2.0000      -0.489195       -13.3117
  27   2.0000      -0.482997       -13.1430
  28   2.0000      -0.472795       -12.8654
  29   2.0000      -0.441878       -12.0241
  30   2.0000      -0.377144       -10.2626
  31   2.0000      -0.350079        -9.5261
  32   0.0000       0.107802         2.9334
  33   0.0000       0.136899         3.7252
  34   0.0000       0.138854         3.7784
  35   0.0000       0.152137         4.1399
  36   0.0000       0.160840         4.3767

MULLIKEN ATOMIC CHARGES
-----------------------
   0 N :   -0.051614
   1 C :   -0.158692
   2 C :   -0.049689
   3 N :   -0.331838
   4 C :    0.069088
   5 C :   -0.168152
   6 C :   -0.102183
   7 N :   -0.221072
   8 N :   -0.093487
   9 H :    0.164016
  10 H :    0.157097
  11 H :    0.239884
  12 H :    0.146766
  13 H :    0.138418
  14 H :    0.261458
Sum of atomic charges:    0.0000000

LOEWDIN ATOMIC CHARGES
----------------------
   0 N :    0.071022
   1 C :   -0.188821
   2 C :   -0.270907
   3 N :    0.039582
   4 C :   -0.328483
   5 C :   -0.193156
   6 C :   -0.272429
   7 N :    0.023737
   8 N :    0.148921
   9 H :    0.159966
  10 H :    0.148960
  11 H :    0.191842
  12 H :    0.142511
  13 H :    0.134497
  14 H :    0.192757

  Mayer bond orders larger than 0.1
B(  0-N ,  1-C ) :   2.8557 B(  1-C ,  2-C ) :   0.9056 B(  2-C ,  3-N ) :   0.9116
B(  2-C ,  9-H ) :   0.9115 B(  2-C , 10-H ) :   0.9057 B(  3-N ,  4-C ) :   1.0797
B(  3-N , 11-H ) :   0.8744 B(  4-C ,  5-C ) :   1.4148 B(  4-C ,  7-N ) :   0.1165
B(  4-C ,  8-N ) :   1.1876 B(  5-C ,  6-C ) :   1.2832 B(  5-C , 12-H ) :   0.9235
B(  6-C ,  7-N ) :   1.5281 B(  6-C , 13-H ) :   0.9356 B(  7-N ,  8-N ) :   1.0513
B(  8-N , 14-H ) :   0.8635

MP2 TOTAL ENERGY:     -412.296049560 Eh
FINAL SINGLE POINT ENERGY      -412.296049559921

DIPOLE MOMENT
-------------
                                X             Y             Z
Electronic contribution:      1.31532      -2.36333      -0.18431
Nuclear contribution   :     -1.77057       3.00626       0.23631
                        -----------------------------------------
Total Dipole Moment    :     -0.45525       0.64293       0.05200
                        -----------------------------------------
Magnitude (a.u.)       :      0.78950
Magnitude (Debye)      :      2.00676

                             ****ORCA TERMINATED NORMALLY****
TOTAL RUN TIME: 0 days 0 hours 14 minutes 43 seconds 418 msec
