                         Program Version 3.0.3 - RELEASE   -
|  1> ! RI-MP2 RIJK def2-TZVP def2-TZVP/C def2-TZVP/JK TIGHTSCF
|  2> % maxcore 2000
|  3> % mp2 density relaxed end
|  4> *xyz 0 1
|  5>  C        0.0416872342     1.5916226533     0.1732812362
|  6>  C        0.0314613700     0.0857058943    -0.0710602779
|  7>  C        1.2578256540    -0.4977022869    -0.8399684353
|  8>  C        1.3119152317    -1.6636576371     0.1869118862
|  9>  C        0.4271034813    -0.8135499259     1.1415243697
| 10>  C        0.6563538755    -2.9549486343    -0.2937573389
| 11>  C       -0.7345348073    -2.8548054741    -0.8608903725
| 12>  C       -1.5245512554    -1.7914092008    -1.0225938370
| 13>  C       -1.3014806428    -0.3380415071    -0.6974378112
| 14>  H        0.9884663918     1.9113276078     0.6211340974
| 15>  H       -0.0892816589     2.1479803840    -0.7627539493
| 16>  H       -0.7662189731     1.8905509831     0.8520878948
| 17>  H        1.1101724597    -0.7617208053    -1.8914126946
| 18>  H        2.1305780395     0.1574906975    -0.7632600364
| 19>  H        2.3099273059    -1.8992841523     0.5677595963
| 20>  H        1.0250885801    -0.2628229647     1.8736257238
| 21>  H       -0.3819243696    -1.3290274751     1.6676408549
| 22>  H        1.3022352963    -3.4217510636    -1.0535878778
| 23>  H        0.6347802928    -3.6755452650     0.5385192425
| 24>  H       -1.1387523114    -3.8139678241    -1.1832237060
| 25>  H       -2.5038162201    -1.9781048737    -1.4628805499
| 26>  H       -2.1176719609    -0.0135469369    -0.0324694951
| 27>  H       -1.4506923230     0.2399968968    -1.6233194199
| 28> *
| 29>
| 30>                          ****END OF INPUT****

CARTESIAN COORDINATES (ANGSTROEM)
---------------------------------
  C      0.041687    1.591623    0.173281
  C      0.031461    0.085706   -0.071060
  C      1.257826   -0.497702   -0.839968
  C      1.311915   -1.663658    0.186912
  C      0.427103   -0.813550    1.141524
  C      0.656354   -2.954949   -0.293757
  C     -0.734535   -2.854805   -0.860890
  C     -1.524551   -1.791409   -1.022594
  C     -1.301481   -0.338042   -0.697438
  H      0.988466    1.911328    0.621134
  H     -0.089282    2.147980   -0.762754
  H     -0.766219    1.890551    0.852088
  H      1.110172   -0.761721   -1.891413
  H      2.130578    0.157491   -0.763260
  H      2.309927   -1.899284    0.567760
  H      1.025089   -0.262823    1.873626
  H     -0.381924   -1.329027    1.667641
  H      1.302235   -3.421751   -1.053588
  H      0.634780   -3.675545    0.538519
  H     -1.138752   -3.813968   -1.183224
  H     -2.503816   -1.978105   -1.462881
  H     -2.117672   -0.013547   -0.032469
  H     -1.450692    0.239997   -1.623319

 Total Charge           Charge          ....    0
 Multiplicity           Mult            ....    1
 Number of Electrons    NEL             ....   68
 Basis Dimension        Dim             ....  363

ORBITAL ENERGIES
----------------

  NO   OCC          E(Eh)            E(eV)
   0   2.0000     -11.228754      -305.5499
   1   2.0000     -11.221630      -305.3561
   2   2.0000     -11.221416      -305.3502
   3   2.0000     -11.221022      -305.3395
   4   2.0000     -11.220703      -305.3308
   5   2.0000     -11.219096      -305.2871
   6   2.0000     -11.209597      -305.0286
   7   2.0000     -11.209575      -305.0280
   8   2.0000     -11.209014      -305.0128
   9   2.0000      -1.152158       -31.3518
  10   2.0000      -1.054428       -28.6925
  11   2.0000      -1.032650       -28.0998
  12   2.0000      -0.944266       -25.6948
  13   2.0000      -0.894909       -24.3517
  14   2.0000      -0.894694       -24.3459
  15   2.0000      -0.817557       -22.2469
  16   2.0000      -0.711054       -19.3488
  17   2.0000      -0.684042       -18.6137
  18   2.0000      -0.661873       -18.0105
  19   2.0000      -0.628627       -17.1058
  20   2.0000      -0.601726       -16.3738
  21   2.0000      -0.592508       -16.1230
  22   2.0000      -0.588665       -16.0184
  23   2.0000      -0.543881       -14.7998
  24   2.0000      -0.542781       -14.7698
  25   2.0000      -0.539206       -14.6725
  26   2.0000      -0.513742       -13.9796
  27   2.0000      -0.513406       -13.9705
  28   2.0000      -0.447910       -12.1883
  29   2.0000      -0.443337       -12.0638
  30   2.0000      -0.438917       -11.9435
  31   2.0000      -0.421674       -11.4743
  32   2.0000      -0.407992       -11.1020
  33   2.0000      -0.340460        -9.2644
  34   0.0000       0.130874         3.5613
  35   0.0000       0.149252         4.0613
  36   0.0000       0.164495         4.4761
  37   0.0000       0.174114         4.7379
  38   0.0000       0.183983         5.0064

MULLIKEN ATOMIC CHARGES
-----------------------
   0 C :   -0.420943
   1 C :    0.204252
   2 C :   -0.323113
   3 C :    0.013500
   4 C :   -0.323110
   5 C :   -0.175969
   6 C :   -0.207217
   7 C :   -0.225740
   8 C :   -0.181654
   9 H :    0.127395
  10 H :    0.128537
  11 H :    0.128538
  12 H :    0.121139
  13 H :    0.112689
  14 H :    0.098167
  15 H :    0.112690
  16 H :    0.121140
  17 H :    0.118190
  18 H :    0.118190
  19 H :    0.111485
  20 H :    0.111464
  21 H :    0.115185
  22 H :    0.115185
Sum of atomic charges:    0.0000000

LOEWDIN ATOMIC CHARGES
----------------------
   0 C :   -0.277811
   1 C :   -0.275625
   2 C :   -0.171592
   3 C :   -0.223096
   4 C :   -0.171592
   5 C :   -0.243484
   6 C :   -0.180916
   7 C :   -0.179060
   8 C :   -0.219565
   9 H :    0.123536
  10 H :    0.125216
  11 H :    0.125217
  12 H :    0.133025
  13 H :    0.135142
  14 H :    0.139300
  15 H :    0.135142
  16 H :    0.133025
  17 H :    0.149278
  18 H :    0.149278
  19 H :    0.145041
  20 H :    0.145765
  21 H :    0.151887
  22 H :    0.151888

  Mayer bond orders larger than 0.1
B(  0-C ,  1-C ) :   0.8790 B(  0-C ,  9-H ) :   0.9351 B(  0-C , 10-H ) :   0.9400
B(  0-C , 11-H ) :   0.9400 B(  1-C ,  2-C ) :   0.9063 B(  1-C ,  4-C ) :   0.9063
B(  1-C ,  8-C ) :   0.9276 B(  2-C ,  3-C ) :   0.9175 B(  2-C , 12-H ) :   0.9229
B(  2-C , 13-H ) :   0.9111 B(  3-C ,  4-C ) :   0.9175 B(  3-C ,  5-C ) :   0.9333
B(  3-C , 14-H ) :   0.9257 B(  4-C , 15-H ) :   0.9111 B(  4-C , 16-H ) :   0.9229
B(  5-C ,  6-C ) :   0.9461 B(  5-C , 17-H ) :   0.9107 B(  5-C , 18-H ) :   0.9107
B(  6-C ,  7-C ) :   1.8204 B(  6-C , 19-H ) :   0.9298 B(  7-C ,  8-C ) :   0.9521
B(  7-C , 20-H ) :   0.9312 B(  8-C , 21-H ) :   0.9072 B(  8-C , 22-H ) :   0.9072

MP2 TOTAL ENERGY:     -350.514731106 Eh
FINAL SINGLE POINT ENERGY      -350.514731106416

DIPOLE MOMENT
-------------
                                X             Y             Z
Electronic contribution:     -0.59346      -2.91292      -0.71311
Nuclear contribution   :      0.65973       2.95417       0.74747
                        -----------------------------------------
Total Dipole Moment    :      0.06628       0.04125       0.03436
                        -----------------------------------------
Magnitude (a.u.)       :      0.08529
Magnitude (Debye)      :      0.21679

                             ****ORCA TERMINATED NORMALLY****
TOTAL RUN TIME: 0 days 0 hours 22 minutes 24 seconds 107 msec
