                         Program Version 3.0.3 - RELEASE   -
|  1> ! RI-MP2 RIJK def2-TZVP def2-TZVP/C def2-TZVP/JK TIGHTSCF
|  2> % maxcore 2000
|  3> % mp2 density relaxed end
|  4> *xyz 0 1
|  5>  C       -0.2117159808     1.4736659819     0.0658922199
|  6>  C        0.2380335300     0.0097963585     0.1327413289
|  7>  C        0.7683482793    -0.5312503625    -1.1923139980
|  8>  C        0.6765341571    -2.0005886018    -1.4988308778
|  9>  N       -0.0924324695    -1.0461517078    -2.2707278511
| 10>  C       -1.5412618861    -1.0304890991    -2.1262649611
| 11>  C        1.9279266658     0.1909283486    -1.6900376591
| 12>  N        2.8605884340     0.7730945784    -2.0479567776
| 13>  H        0.6069287852     2.1207819335    -0.2624073787
| 14>  H       -1.0440869835     1.6064615091    -0.6317304740
| 15>  H       -0.5401031258     1.8180437866     1.0505809270
| 16>  H        1.0363910138    -0.0975342017     0.8763493787
| 17>  H       -0.5828281845    -0.6268736187     0.4744569067
| 18>  H        1.4829968370    -2.5070244755    -2.0213906423
| 19>  H        0.1591105413    -2.6018130381    -0.7508154545
| 20>  H       -1.9084989508    -1.2844930268    -1.1210864420
| 21>  H       -1.9218613403    -0.0424932048    -2.4000855215
| 22>  H       -1.9552280321    -1.7596299797    -2.8291726435
| 23> *
| 24>
| 25>                          ****END OF INPUT****

CARTESIAN COORDINATES (ANGSTROEM)
---------------------------------
  C     -0.211716    1.473666    0.065892
  C      0.238034    0.009796    0.132741
  C      0.768348   -0.531250   -1.192314
  C      0.676534   -2.000589   -1.498831
  N     -0.092432   -1.046152   -2.270728
  C     -1.541262   -1.030489   -2.126265
  C      1.927927    0.190928   -1.690038
  N      2.860588    0.773095   -2.047957
  H      0.606929    2.120782   -0.262407
  H     -1.044087    1.606462   -0.631730
  H     -0.540103    1.818044    1.050581
  H      1.036391   -0.097534    0.876349
  H     -0.582828   -0.626874    0.474457
  H      1.482997   -2.507024   -2.021391
  H      0.159111   -2.601813   -0.750815
  H     -1.908499   -1.284493   -1.121086
  H     -1.921861   -0.042493   -2.400086
  H     -1.955228   -1.759630   -2.829173

 Total Charge           Charge          ....    0
 Multiplicity           Mult            ....    1
 Number of Electrons    NEL             ....   60
 Basis Dimension        Dim             ....  308

ORBITAL ENERGIES
----------------

  NO   OCC          E(Eh)            E(eV)
   0   2.0000     -15.588584      -424.1869
   1   2.0000     -15.565579      -423.5609
   2   2.0000     -11.315345      -307.9062
   3   2.0000     -11.283070      -307.0279
   4   2.0000     -11.267859      -306.6140
   5   2.0000     -11.266851      -306.5866
   6   2.0000     -11.255017      -306.2646
   7   2.0000     -11.230226      -305.5900
   8   2.0000      -1.308581       -35.6083
   9   2.0000      -1.210106       -32.9287
  10   2.0000      -1.074138       -29.2288
  11   2.0000      -1.017790       -27.6955
  12   2.0000      -0.917092       -24.9554
  13   2.0000      -0.869191       -23.6519
  14   2.0000      -0.833149       -22.6711
  15   2.0000      -0.714976       -19.4555
  16   2.0000      -0.676418       -18.4063
  17   2.0000      -0.636352       -17.3160
  18   2.0000      -0.615323       -16.7438
  19   2.0000      -0.600446       -16.3390
  20   2.0000      -0.587561       -15.9883
  21   2.0000      -0.557793       -15.1783
  22   2.0000      -0.552165       -15.0252
  23   2.0000      -0.526482       -14.3263
  24   2.0000      -0.522730       -14.2242
  25   2.0000      -0.501806       -13.6548
  26   2.0000      -0.489349       -13.3159
  27   2.0000      -0.449522       -12.2321
  28   2.0000      -0.441624       -12.0172
  29   2.0000      -0.392507       -10.6807
  30   0.0000       0.126700         3.4477
  31   0.0000       0.149067         4.0563
  32   0.0000       0.155180         4.2227
  33   0.0000       0.163266         4.4427
  34   0.0000       0.178100         4.8463

MULLIKEN ATOMIC CHARGES
-----------------------
   0 C :   -0.415328
   1 C :   -0.180711
   2 C :    0.215640
   3 C :   -0.179185
   4 N :   -0.221743
   5 C :   -0.310533
   6 C :   -0.222115
   7 N :   -0.054624
   8 H :    0.156962
   9 H :    0.130065
  10 H :    0.139831
  11 H :    0.141226
  12 H :    0.115427
  13 H :    0.147363
  14 H :    0.126429
  15 H :    0.112321
  16 H :    0.146023
  17 H :    0.152951
Sum of atomic charges:    0.0000000

LOEWDIN ATOMIC CHARGES
----------------------
   0 C :   -0.303271
   1 C :   -0.240298
   2 C :   -0.275497
   3 C :   -0.200575
   4 N :    0.128210
   5 C :   -0.320601
   6 C :   -0.144907
   7 N :    0.067167
   8 H :    0.131645
   9 H :    0.122547
  10 H :    0.125065
  11 H :    0.152599
  12 H :    0.141537
  13 H :    0.133984
  14 H :    0.129746
  15 H :    0.106369
  16 H :    0.121650
  17 H :    0.124627

  Mayer bond orders larger than 0.1
B(  0-C ,  1-C ) :   0.9179 B(  0-C ,  8-H ) :   0.9307 B(  0-C ,  9-H ) :   0.9373
B(  0-C , 10-H ) :   0.9362 B(  1-C ,  2-C ) :   0.9185 B(  1-C , 11-H ) :   0.9256
B(  1-C , 12-H ) :   0.9271 B(  2-C ,  3-C ) :   0.8943 B(  2-C ,  4-N ) :   0.7909
B(  2-C ,  6-C ) :   0.9090 B(  3-C ,  4-N ) :   0.9365 B(  3-C , 13-H ) :   0.9053
B(  3-C , 14-H ) :   0.9171 B(  4-N ,  5-C ) :   0.8759 B(  5-C , 15-H ) :   0.9262
B(  5-C , 16-H ) :   0.9371 B(  5-C , 17-H ) :   0.9323 B(  6-C ,  7-N ) :   2.8732

MP2 TOTAL ENERGY:     -343.361773255 Eh
FINAL SINGLE POINT ENERGY      -343.361773255459

DIPOLE MOMENT
-------------
                                X             Y             Z
Electronic contribution:      7.69827      -0.20956      -4.13342
Nuclear contribution   :     -9.17096      -0.61783       5.10502
                        -----------------------------------------
Total Dipole Moment    :     -1.47269      -0.82739       0.97160
                        -----------------------------------------
Magnitude (a.u.)       :      1.94869
Magnitude (Debye)      :      4.95319

                             ****ORCA TERMINATED NORMALLY****
TOTAL RUN TIME: 0 days 0 hours 13 minutes 28 seconds 713 msec
