                         Program Version 3.0.3 - RELEASE   -
|  1> ! RI-MP2 RIJK def2-TZVP def2-TZVP/C def2-TZVP/JK TIGHTSCF
|  2> % maxcore 2000
|  3> % mp2 density relaxed end
|  4> *xyz 0 1
|  5>  O       -0.1554957148     0.1310838351     0.3574644283
|  6>  C       -0.0358195217     1.2696907076     0.0492738591
|  7>  O       -0.9985416432     2.1199071586    -0.4363797637
|  8>  C       -0.0280732416     3.2010084017    -0.6473165933
|  9>  C       -0.2447862764     4.4414623823     0.2293855168
| 10>  C        0.6037900333     4.2125653926     1.4685437471
| 11>  O        0.2595979083     3.0296950755     2.1925708251
| 12>  C        1.3975881347     2.9755684730     1.3245108696
| 13>  C        1.0829904262     2.3263288942    -0.0126738249
| 14>  H        0.0400017732     3.4164184146    -1.7145331586
| 15>  H        0.0975753433     5.3388973331    -0.2974844861
| 16>  H       -1.3035623377     4.5749988171     0.4700819789
| 17>  H        0.9259360074     5.0529019777     2.0793693972
| 18>  H        2.3542709146     2.8109612330     1.8108117454
| 19>  H        1.9621349945     2.0641428640    -0.6007331710
| 20> *
| 21>
| 22>                          ****END OF INPUT****

CARTESIAN COORDINATES (ANGSTROEM)
---------------------------------
  O     -0.155496    0.131084    0.357464
  C     -0.035820    1.269691    0.049274
  O     -0.998542    2.119907   -0.436380
  C     -0.028073    3.201008   -0.647317
  C     -0.244786    4.441462    0.229386
  C      0.603790    4.212565    1.468544
  O      0.259598    3.029695    2.192571
  C      1.397588    2.975568    1.324511
  C      1.082990    2.326329   -0.012674
  H      0.040002    3.416418   -1.714533
  H      0.097575    5.338897   -0.297484
  H     -1.303562    4.574999    0.470082
  H      0.925936    5.052902    2.079369
  H      2.354271    2.810961    1.810812
  H      1.962135    2.064143   -0.600733

 Total Charge           Charge          ....    0
 Multiplicity           Mult            ....    1
 Number of Electrons    NEL             ....   66
 Basis Dimension        Dim             ....  315

ORBITAL ENERGIES
----------------

  NO   OCC          E(Eh)            E(eV)
   0   2.0000     -20.601402      -560.5926
   1   2.0000     -20.588963      -560.2542
   2   2.0000     -20.552368      -559.2584
   3   2.0000     -11.385513      -309.8155
   4   2.0000     -11.320328      -308.0418
   5   2.0000     -11.314402      -307.8805
   6   2.0000     -11.310608      -307.7773
   7   2.0000     -11.275007      -306.8086
   8   2.0000     -11.257346      -306.3279
   9   2.0000      -1.467250       -39.9259
  10   2.0000      -1.435712       -39.0677
  11   2.0000      -1.380645       -37.5692
  12   2.0000      -1.109441       -30.1894
  13   2.0000      -1.033565       -28.1247
  14   2.0000      -0.935311       -25.4511
  15   2.0000      -0.871410       -23.7123
  16   2.0000      -0.824191       -22.4274
  17   2.0000      -0.756107       -20.5747
  18   2.0000      -0.743825       -20.2405
  19   2.0000      -0.705584       -19.1999
  20   2.0000      -0.678610       -18.4659
  21   2.0000      -0.654928       -17.8215
  22   2.0000      -0.626654       -17.0521
  23   2.0000      -0.611218       -16.6321
  24   2.0000      -0.585117       -15.9219
  25   2.0000      -0.556543       -15.1443
  26   2.0000      -0.543399       -14.7866
  27   2.0000      -0.538643       -14.6572
  28   2.0000      -0.509894       -13.8749
  29   2.0000      -0.474587       -12.9142
  30   2.0000      -0.465454       -12.6657
  31   2.0000      -0.446193       -12.1415
  32   2.0000      -0.429106       -11.6766
  33   0.0000       0.126810         3.4507
  34   0.0000       0.147609         4.0166
  35   0.0000       0.159558         4.3418
  36   0.0000       0.172950         4.7062
  37   0.0000       0.180533         4.9126

MULLIKEN ATOMIC CHARGES
-----------------------
   0 O :   -0.250354
   1 C :    0.244923
   2 O :   -0.238752
   3 C :    0.045821
   4 C :   -0.176502
   5 C :   -0.030885
   6 O :   -0.307893
   7 C :   -0.026813
   8 C :   -0.075023
   9 H :    0.124966
  10 H :    0.123809
  11 H :    0.141765
  12 H :    0.131533
  13 H :    0.148615
  14 H :    0.144791
Sum of atomic charges:   -0.0000000

LOEWDIN ATOMIC CHARGES
----------------------
   0 O :    0.167458
   1 C :   -0.433985
   2 O :    0.252913
   3 C :   -0.203195
   4 C :   -0.216394
   5 C :   -0.250357
   6 O :    0.190267
   7 C :   -0.228451
   8 C :   -0.158875
   9 H :    0.139389
  10 H :    0.150123
  11 H :    0.156013
  12 H :    0.136978
  13 H :    0.139706
  14 H :    0.158411

  Mayer bond orders larger than 0.1
B(  0-O ,  1-C ) :   2.0657 B(  1-C ,  2-O ) :   1.0779 B(  1-C ,  8-C ) :   0.8698
B(  2-O ,  3-C ) :   0.9044 B(  3-C ,  4-C ) :   0.9367 B(  3-C ,  8-C ) :   0.9226
B(  3-C ,  9-H ) :   0.9249 B(  4-C ,  5-C ) :   0.9374 B(  4-C , 10-H ) :   0.9063
B(  4-C , 11-H ) :   0.8968 B(  5-C ,  6-O ) :   0.9443 B(  5-C ,  7-C ) :   0.9525
B(  5-C , 12-H ) :   0.9305 B(  6-O ,  7-C ) :   0.8752 B(  7-C ,  8-C ) :   0.9070
B(  7-C , 13-H ) :   0.9185 B(  8-C , 14-H ) :   0.8965

MP2 TOTAL ENERGY:     -457.040995893 Eh
FINAL SINGLE POINT ENERGY      -457.040995892734

DIPOLE MOMENT
-------------
                                X             Y             Z
Electronic contribution:     -1.62062      -5.30573       0.60571
Nuclear contribution   :      2.77021       7.08625      -1.23299
                        -----------------------------------------
Total Dipole Moment    :      1.14959       1.78052      -0.62728
                        -----------------------------------------
Magnitude (a.u.)       :      2.21027
Magnitude (Debye)      :      5.61805

                             ****ORCA TERMINATED NORMALLY****
TOTAL RUN TIME: 0 days 0 hours 16 minutes 55 seconds 372 msec
