                         Program Version 3.0.3 - RELEASE   -
|  1> ! RI-MP2 RIJK def2-TZVP def2-TZVP/C def2-TZVP/JK TIGHTSCF
|  2> % maxcore 2000
|  3> % mp2 density relaxed end
|  4> *xyz 0 1
|  5>  C        0.1121517812     1.4197530277    -0.5435526899
|  6>  C        0.0206669600     0.0266308845    -0.1304354056
|  7>  C       -0.0526915848    -1.1219164240     0.2213934156
|  8>  C       -0.1467234500    -2.5191278029     0.6366317822
|  9>  C       -1.4503300618    -3.1688105626     0.2492653371
| 10>  N       -2.1015668239    -3.8931846816     1.1275394969
| 11>  O       -3.2276289355    -4.3726806424     0.4633535066
| 12>  C       -3.2132402073    -3.9125641290    -0.7959687164
| 13>  C       -2.1193441980    -3.1416014735    -1.0092206668
| 14>  H        0.8274216594     1.5479882577    -1.3634205361
| 15>  H       -0.8576900106     1.7960174485    -0.8871228886
| 16>  H        0.4391996766     2.0579344811     0.2846456924
| 17>  H        0.6790125054    -3.0904946024     0.1902171225
| 18>  H       -0.0315821860    -2.6120746528     1.7220262348
| 19>  H       -4.0440328165    -4.2140738593    -1.4151600441
| 20>  H       -1.8270234382    -2.6213212590    -1.9052989407
| 21> *
| 22>
| 23>                          ****END OF INPUT****

CARTESIAN COORDINATES (ANGSTROEM)
---------------------------------
  C      0.112152    1.419753   -0.543553
  C      0.020667    0.026631   -0.130435
  C     -0.052692   -1.121916    0.221393
  C     -0.146723   -2.519128    0.636632
  C     -1.450330   -3.168811    0.249265
  N     -2.101567   -3.893185    1.127539
  O     -3.227629   -4.372681    0.463354
  C     -3.213240   -3.912564   -0.795969
  C     -2.119344   -3.141601   -1.009221
  H      0.827422    1.547988   -1.363421
  H     -0.857690    1.796017   -0.887123
  H      0.439200    2.057934    0.284646
  H      0.679013   -3.090495    0.190217
  H     -0.031582   -2.612075    1.722026
  H     -4.044033   -4.214074   -1.415160
  H     -1.827023   -2.621321   -1.905299

 Total Charge           Charge          ....    0
 Multiplicity           Mult            ....    1
 Number of Electrons    NEL             ....   64
 Basis Dimension        Dim             ....  321

ORBITAL ENERGIES
----------------

  NO   OCC          E(Eh)            E(eV)
   0   2.0000     -20.642480      -561.7104
   1   2.0000     -15.617259      -424.9672
   2   2.0000     -11.315419      -307.9082
   3   2.0000     -11.288900      -307.1866
   4   2.0000     -11.270616      -306.6891
   5   2.0000     -11.251617      -306.1721
   6   2.0000     -11.237557      -305.7895
   7   2.0000     -11.232194      -305.6435
   8   2.0000     -11.226917      -305.4999
   9   2.0000      -1.492309       -40.6078
  10   2.0000      -1.178912       -32.0798
  11   2.0000      -1.080908       -29.4130
  12   2.0000      -1.066756       -29.0279
  13   2.0000      -1.018973       -27.7277
  14   2.0000      -0.935647       -25.4602
  15   2.0000      -0.834034       -22.6952
  16   2.0000      -0.786119       -21.3914
  17   2.0000      -0.730795       -19.8859
  18   2.0000      -0.674009       -18.3407
  19   2.0000      -0.654615       -17.8130
  20   2.0000      -0.630195       -17.1485
  21   2.0000      -0.614700       -16.7268
  22   2.0000      -0.605059       -16.4645
  23   2.0000      -0.592201       -16.1146
  24   2.0000      -0.588101       -16.0030
  25   2.0000      -0.566199       -15.4071
  26   2.0000      -0.555704       -15.1215
  27   2.0000      -0.478664       -13.0251
  28   2.0000      -0.419493       -11.4150
  29   2.0000      -0.379681       -10.3316
  30   2.0000      -0.375073       -10.2063
  31   2.0000      -0.368072       -10.0157
  32   0.0000       0.120965         3.2916
  33   0.0000       0.132390         3.6025
  34   0.0000       0.151420         4.1204
  35   0.0000       0.169230         4.6050
  36   0.0000       0.180637         4.9154

MULLIKEN ATOMIC CHARGES
-----------------------
   0 C :   -0.480136
   1 C :    0.024995
   2 C :   -0.018189
   3 C :   -0.337753
   4 C :    0.135188
   5 N :   -0.116126
   6 O :   -0.104282
   7 C :    0.015997
   8 C :   -0.256408
   9 H :    0.161255
  10 H :    0.162542
  11 H :    0.163974
  12 H :    0.162316
  13 H :    0.167443
  14 H :    0.161989
  15 H :    0.157194
Sum of atomic charges:    0.0000000

LOEWDIN ATOMIC CHARGES
----------------------
   0 C :   -0.294136
   1 C :   -0.103640
   2 C :   -0.081420
   3 C :   -0.207421
   4 C :   -0.270078
   5 N :    0.058674
   6 O :    0.275895
   7 C :   -0.261452
   8 C :   -0.167721
   9 H :    0.140450
  10 H :    0.141265
  11 H :    0.141973
  12 H :    0.167776
  13 H :    0.169932
  14 H :    0.138267
  15 H :    0.151637

  Mayer bond orders larger than 0.1
B(  0-C ,  1-C ) :   0.8668 B(  0-C ,  9-H ) :   0.9476 B(  0-C , 10-H ) :   0.9448
B(  0-C , 11-H ) :   0.9470 B(  1-C ,  2-C ) :   2.7044 B(  2-C ,  3-C ) :   0.9790
B(  3-C ,  4-C ) :   0.9031 B(  3-C , 12-H ) :   0.9354 B(  3-C , 13-H ) :   0.9298
B(  4-C ,  5-N ) :   1.6152 B(  4-C ,  8-C ) :   1.1912 B(  5-N ,  6-O ) :   0.8859
B(  6-O ,  7-C ) :   1.1200 B(  7-C ,  8-C ) :   1.5589 B(  7-C , 14-H ) :   0.9194
B(  8-C , 15-H ) :   0.9074

MP2 TOTAL ENERGY:     -400.010149597 Eh
FINAL SINGLE POINT ENERGY      -400.010149596964

DIPOLE MOMENT
-------------
                                X             Y             Z
Electronic contribution:     -4.35458      -7.86470       2.29618
Nuclear contribution   :      4.57027       8.49065      -3.33342
                        -----------------------------------------
Total Dipole Moment    :      0.21568       0.62595      -1.03724
                        -----------------------------------------
Magnitude (a.u.)       :      1.23053
Magnitude (Debye)      :      3.12776

                             ****ORCA TERMINATED NORMALLY****
TOTAL RUN TIME: 0 days 0 hours 14 minutes 11 seconds 339 msec
