                         Program Version 3.0.3 - RELEASE   -
|  1> ! RI-MP2 RIJK def2-TZVP def2-TZVP/C def2-TZVP/JK TIGHTSCF
|  2> % maxcore 2000
|  3> % mp2 density relaxed end
|  4> *xyz 0 1
|  5>  O       -0.0737429226     1.4879894584    -0.0938137018
|  6>  C        0.0638641263     0.0741595776     0.0202924655
|  7>  C       -1.3012681163    -0.6155700837     0.0407482807
|  8>  C       -2.1592237078    -0.1794784230     1.2411283528
|  9>  O       -2.5951552553     1.1584040158     1.1589624469
| 10>  O       -1.8704147207    -0.2714024783    -1.2245661617
| 11>  C       -3.2373261338    -0.5809712434    -1.3865178910
| 12>  C       -3.5999697487    -0.3538189397    -2.7885827960
| 13>  N       -3.9122867547    -0.1792320550    -3.8861612101
| 14>  H       -0.5217608651     1.6406565387    -0.9355137856
| 15>  H        0.6644915676    -0.3268551753    -0.8068060571
| 16>  H        0.5956481204    -0.1177027591     0.9564430175
| 17>  H       -1.1524691038    -1.7073952522     0.1027385350
| 18>  H       -3.0590819547    -0.8004985629     1.3139450666
| 19>  H       -1.5714434930    -0.3772250006     2.1533877391
| 20>  H       -1.8102395724     1.6857876232     0.9493138391
| 21>  H       -3.4480020991    -1.6335430763    -1.1410021263
| 22>  H       -3.8671900563     0.0540310756    -0.7497431636
| 23> *
| 24>
| 25>                          ****END OF INPUT****

CARTESIAN COORDINATES (ANGSTROEM)
---------------------------------
  O     -0.073743    1.487989   -0.093814
  C      0.063864    0.074160    0.020292
  C     -1.301268   -0.615570    0.040748
  C     -2.159224   -0.179478    1.241128
  O     -2.595155    1.158404    1.158962
  O     -1.870415   -0.271402   -1.224566
  C     -3.237326   -0.580971   -1.386518
  C     -3.599970   -0.353819   -2.788583
  N     -3.912287   -0.179232   -3.886161
  H     -0.521761    1.640657   -0.935514
  H      0.664492   -0.326855   -0.806806
  H      0.595648   -0.117703    0.956443
  H     -1.152469   -1.707395    0.102739
  H     -3.059082   -0.800499    1.313945
  H     -1.571443   -0.377225    2.153388
  H     -1.810240    1.685788    0.949314
  H     -3.448002   -1.633543   -1.141002
  H     -3.867190    0.054031   -0.749743

 Total Charge           Charge          ....    0
 Multiplicity           Mult            ....    1
 Number of Electrons    NEL             ....   70
 Basis Dimension        Dim             ....  333

ORBITAL ENERGIES
----------------

  NO   OCC          E(Eh)            E(eV)
   0   2.0000     -20.599952      -560.5532
   1   2.0000     -20.582553      -560.0798
   2   2.0000     -20.564698      -559.5939
   3   2.0000     -15.580434      -423.9652
   4   2.0000     -11.344098      -308.6886
   5   2.0000     -11.314002      -307.8696
   6   2.0000     -11.301533      -307.5303
   7   2.0000     -11.299045      -307.4627
   8   2.0000     -11.280398      -306.9552
   9   2.0000      -1.428237       -38.8643
  10   2.0000      -1.384579       -37.6763
  11   2.0000      -1.369996       -37.2795
  12   2.0000      -1.225886       -33.3580
  13   2.0000      -1.077674       -29.3250
  14   2.0000      -0.999307       -27.1925
  15   2.0000      -0.940124       -25.5821
  16   2.0000      -0.832510       -22.6537
  17   2.0000      -0.747877       -20.3508
  18   2.0000      -0.739685       -20.1279
  19   2.0000      -0.726268       -19.7628
  20   2.0000      -0.693404       -18.8685
  21   2.0000      -0.669966       -18.2307
  22   2.0000      -0.641462       -17.4551
  23   2.0000      -0.627308       -17.0699
  24   2.0000      -0.607186       -16.5224
  25   2.0000      -0.596307       -16.2263
  26   2.0000      -0.570792       -15.5320
  27   2.0000      -0.551600       -15.0098
  28   2.0000      -0.538584       -14.6556
  29   2.0000      -0.523638       -14.2489
  30   2.0000      -0.491180       -13.3657
  31   2.0000      -0.478690       -13.0258
  32   2.0000      -0.468943       -12.7606
  33   2.0000      -0.457769       -12.4565
  34   2.0000      -0.442604       -12.0439
  35   0.0000       0.114377         3.1124
  36   0.0000       0.139737         3.8024
  37   0.0000       0.142992         3.8910
  38   0.0000       0.163041         4.4366
  39   0.0000       0.168729         4.5914

MULLIKEN ATOMIC CHARGES
-----------------------
   0 O :   -0.501765
   1 C :    0.001680
   2 C :   -0.071001
   3 C :   -0.017238
   4 O :   -0.480166
   5 O :   -0.296499
   6 C :   -0.003663
   7 C :   -0.155912
   8 N :   -0.052112
   9 H :    0.342929
  10 H :    0.129641
  11 H :    0.120291
  12 H :    0.098333
  13 H :    0.123992
  14 H :    0.116370
  15 H :    0.333209
  16 H :    0.140668
  17 H :    0.171244
Sum of atomic charges:    0.0000000

LOEWDIN ATOMIC CHARGES
----------------------
   0 O :   -0.045053
   1 C :   -0.317778
   2 C :   -0.344606
   3 C :   -0.345199
   4 O :   -0.040530
   5 O :    0.182295
   6 C :   -0.306761
   7 C :   -0.179580
   8 N :    0.072738
   9 H :    0.182757
  10 H :    0.127699
  11 H :    0.135276
  12 H :    0.146338
  13 H :    0.129222
  14 H :    0.128360
  15 H :    0.173135
  16 H :    0.146936
  17 H :    0.154750

  Mayer bond orders larger than 0.1
B(  0-O ,  1-C ) :   0.8861 B(  0-O ,  9-H ) :   0.8214 B(  1-C ,  2-C ) :   0.9348
B(  1-C , 10-H ) :   0.9309 B(  1-C , 11-H ) :   0.9264 B(  2-C ,  3-C ) :   0.9213
B(  2-C ,  5-O ) :   0.9154 B(  2-C , 12-H ) :   0.9188 B(  3-C ,  4-O ) :   0.9375
B(  3-C , 13-H ) :   0.9344 B(  3-C , 14-H ) :   0.9103 B(  4-O , 15-H ) :   0.8080
B(  5-O ,  6-C ) :   0.9496 B(  6-C ,  7-C ) :   0.9476 B(  6-C , 16-H ) :   0.8996
B(  6-C , 17-H ) :   0.8975 B(  7-C ,  8-N ) :   2.8552

MP2 TOTAL ENERGY:     -475.467498061 Eh
FINAL SINGLE POINT ENERGY      -475.467498060809

DIPOLE MOMENT
-------------
                                X             Y             Z
Electronic contribution:     -3.09169       1.37742      -6.29513
Nuclear contribution   :      3.75742      -2.35789       7.51070
                        -----------------------------------------
Total Dipole Moment    :      0.66573      -0.98047       1.21557
                        -----------------------------------------
Magnitude (a.u.)       :      1.69768
Magnitude (Debye)      :      4.31516

                             ****ORCA TERMINATED NORMALLY****
TOTAL RUN TIME: 0 days 0 hours 15 minutes 47 seconds 634 msec
