                         Program Version 3.0.3 - RELEASE   -
|  1> ! RI-MP2 RIJK def2-TZVP def2-TZVP/C def2-TZVP/JK TIGHTSCF
|  2> % maxcore 2000
|  3> % mp2 density relaxed end
|  4> *xyz 0 1
|  5>  C       -0.1597053186     1.5222788440    -0.0198962806
|  6>  C       -0.0453390545     0.0275111105     0.0130797838
|  7>  C        0.0786907866    -0.8102078888    -1.0796109779
|  8>  N        0.1156255334    -2.1045225509    -0.6388227719
|  9>  C        0.0571005629    -2.1198228144     0.7412259912
| 10>  C       -0.0501928811    -0.8083904608     1.1606411678
| 11>  C        0.0829367815    -3.3470652033     1.5457772624
| 12>  N       -0.1466278376    -4.5224234787     0.8320437937
| 13>  O        0.3245245664    -3.3535332831     2.7380540166
| 14>  H        0.6124710064     1.9979626545     0.5947010413
| 15>  H       -0.0539996716     1.9046613909    -1.0393295857
| 16>  H       -1.1286437590     1.8643363410     0.3618265597
| 17>  H        0.1451809893    -0.5778140560    -2.1314659199
| 18>  H        0.3673757327    -2.8991548621    -1.2016997404
| 19>  H       -0.1428667783    -0.5035897202     2.1917511769
| 20>  H       -0.8214641664    -4.4799427658     0.0820093629
| 21>  H       -0.2535211922    -5.3288176869     1.4321376501
| 22> *
| 23>
| 24>                          ****END OF INPUT****

CARTESIAN COORDINATES (ANGSTROEM)
---------------------------------
  C     -0.159705    1.522279   -0.019896
  C     -0.045339    0.027511    0.013080
  C      0.078691   -0.810208   -1.079611
  N      0.115626   -2.104523   -0.638823
  C      0.057101   -2.119823    0.741226
  C     -0.050193   -0.808390    1.160641
  C      0.082937   -3.347065    1.545777
  N     -0.146628   -4.522423    0.832044
  O      0.324525   -3.353533    2.738054
  H      0.612471    1.997963    0.594701
  H     -0.054000    1.904661   -1.039330
  H     -1.128644    1.864336    0.361827
  H      0.145181   -0.577814   -2.131466
  H      0.367376   -2.899155   -1.201700
  H     -0.142867   -0.503590    2.191751
  H     -0.821464   -4.479943    0.082009
  H     -0.253521   -5.328818    1.432138

 Total Charge           Charge          ....    0
 Multiplicity           Mult            ....    1
 Number of Electrons    NEL             ....   66
 Basis Dimension        Dim             ....  327

ORBITAL ENERGIES
----------------

  NO   OCC          E(Eh)            E(eV)
   0   2.0000     -20.520801      -558.3994
   1   2.0000     -15.617945      -424.9859
   2   2.0000     -15.583392      -424.0457
   3   2.0000     -11.357309      -309.0481
   4   2.0000     -11.267033      -306.5916
   5   2.0000     -11.262836      -306.4774
   6   2.0000     -11.228579      -305.5452
   7   2.0000     -11.225969      -305.4742
   8   2.0000     -11.224780      -305.4418
   9   2.0000      -1.383757       -37.6539
  10   2.0000      -1.305592       -35.5270
  11   2.0000      -1.207316       -32.8527
  12   2.0000      -1.076533       -29.2940
  13   2.0000      -1.017579       -27.6897
  14   2.0000      -0.945763       -25.7355
  15   2.0000      -0.857414       -23.3314
  16   2.0000      -0.783274       -21.3140
  17   2.0000      -0.763061       -20.7640
  18   2.0000      -0.743577       -20.2338
  19   2.0000      -0.684863       -18.6361
  20   2.0000      -0.649645       -17.6777
  21   2.0000      -0.607999       -16.5445
  22   2.0000      -0.606620       -16.5070
  23   2.0000      -0.591031       -16.0828
  24   2.0000      -0.574699       -15.6384
  25   2.0000      -0.569323       -15.4921
  26   2.0000      -0.542546       -14.7634
  27   2.0000      -0.535417       -14.5694
  28   2.0000      -0.511206       -13.9106
  29   2.0000      -0.441341       -12.0095
  30   2.0000      -0.422847       -11.5063
  31   2.0000      -0.352289        -9.5863
  32   2.0000      -0.309440        -8.4203
  33   0.0000       0.107498         2.9252
  34   0.0000       0.119837         3.2609
  35   0.0000       0.145439         3.9576
  36   0.0000       0.157629         4.2893
  37   0.0000       0.183520         4.9938

MULLIKEN ATOMIC CHARGES
-----------------------
   0 C :   -0.424361
   1 C :    0.125851
   2 C :   -0.135077
   3 N :   -0.292992
   4 C :    0.185540
   5 C :   -0.307515
   6 C :    0.223913
   7 N :   -0.514682
   8 O :   -0.332787
   9 H :    0.145205
  10 H :    0.132476
  11 H :    0.142940
  12 H :    0.145673
  13 H :    0.254450
  14 H :    0.139708
  15 H :    0.252432
  16 H :    0.259228
Sum of atomic charges:    0.0000000

LOEWDIN ATOMIC CHARGES
----------------------
   0 C :   -0.272167
   1 C :   -0.205017
   2 C :   -0.204526
   3 N :    0.201368
   4 C :   -0.208237
   5 C :   -0.109862
   6 C :   -0.451003
   7 N :   -0.060883
   8 O :    0.099682
   9 H :    0.131593
  10 H :    0.129438
  11 H :    0.130608
  12 H :    0.135176
  13 H :    0.193155
  14 H :    0.150847
  15 H :    0.166238
  16 H :    0.173591

  Mayer bond orders larger than 0.1
B(  0-C ,  1-C ) :   0.8550 B(  0-C ,  9-H ) :   0.9384 B(  0-C , 10-H ) :   0.9554
B(  0-C , 11-H ) :   0.9347 B(  1-C ,  2-C ) :   1.4331 B(  1-C ,  5-C ) :   1.2551
B(  2-C ,  3-N ) :   1.1737 B(  2-C , 12-H ) :   0.9081 B(  3-N ,  4-C ) :   1.0648
B(  3-N , 13-H ) :   0.8634 B(  4-C ,  5-C ) :   1.4091 B(  4-C ,  6-C ) :   0.9185
B(  4-C ,  8-O ) :  -0.1156 B(  5-C , 14-H ) :   0.9519 B(  6-C ,  7-N ) :   1.1105
B(  6-C ,  8-O ) :   2.0329 B(  7-N , 15-H ) :   0.8661 B(  7-N , 16-H ) :   0.8675

MP2 TOTAL ENERGY:     -417.377125845 Eh
FINAL SINGLE POINT ENERGY      -417.377125844853

DIPOLE MOMENT
-------------
                                X             Y             Z
Electronic contribution:      0.88314      -6.09179       2.63152
Nuclear contribution   :     -1.37602       5.79782      -4.24639
                        -----------------------------------------
Total Dipole Moment    :     -0.49288      -0.29397      -1.61488
                        -----------------------------------------
Magnitude (a.u.)       :      1.71382
Magnitude (Debye)      :      4.35618

                             ****ORCA TERMINATED NORMALLY****
TOTAL RUN TIME: 0 days 0 hours 16 minutes 9 seconds 990 msec
