                         Program Version 3.0.3 - RELEASE   -
|  1> ! RI-MP2 RIJK def2-TZVP def2-TZVP/C def2-TZVP/JK TIGHTSCF
|  2> % maxcore 2000
|  3> % mp2 density relaxed end
|  4> *xyz 0 1
|  5>  O        0.4894470334     0.6079754539    -0.8943155613
|  6>  C       -0.0332921715    -0.2820315986     0.0408649872
|  7>  C       -0.0317165487     0.0798530418     1.5542413836
|  8>  C       -1.4307311089    -0.5348914711     1.6528334872
|  9>  C       -1.8274844377    -1.7032353990     2.5077206813
| 10>  C       -2.4786969492    -0.3511874462     2.7019098099
| 11>  C       -1.6025717888    -0.4880527871     0.1150634511
| 12>  C       -2.3270477320     0.6689705069    -0.3745873320
| 13>  C       -2.8642574195     1.6656455833    -0.7853740821
| 14>  H       -0.1059138890     1.3680584767    -0.9390625208
| 15>  H        0.4519541328    -1.2455967247    -0.1335058862
| 16>  H        0.7629259098    -0.3490734787     2.1697986568
| 17>  H       -0.0461850982     1.1661073767     1.6944302853
| 18>  H       -2.4185491805    -2.4945537150     2.0570357706
| 19>  H       -1.1229294079    -2.0460791381     3.2591256510
| 20>  H       -2.2173604767     0.2215622317     3.5860095229
| 21>  H       -3.5062119947    -0.2245645023     2.3767172002
| 22>  H       -1.9768910650    -1.4024878283    -0.3552103437
| 23>  H       -3.3763874977     2.5242332282    -1.1440941408
| 24> *
| 25>
| 26>                          ****END OF INPUT****

CARTESIAN COORDINATES (ANGSTROEM)
---------------------------------
  O      0.489447    0.607975   -0.894316
  C     -0.033292   -0.282032    0.040865
  C     -0.031717    0.079853    1.554241
  C     -1.430731   -0.534891    1.652833
  C     -1.827484   -1.703235    2.507721
  C     -2.478697   -0.351187    2.701910
  C     -1.602572   -0.488053    0.115063
  C     -2.327048    0.668971   -0.374587
  C     -2.864257    1.665646   -0.785374
  H     -0.105914    1.368058   -0.939063
  H      0.451954   -1.245597   -0.133506
  H      0.762926   -0.349073    2.169799
  H     -0.046185    1.166107    1.694430
  H     -2.418549   -2.494554    2.057036
  H     -1.122929   -2.046079    3.259126
  H     -2.217360    0.221562    3.586010
  H     -3.506212   -0.224565    2.376717
  H     -1.976891   -1.402488   -0.355210
  H     -3.376387    2.524233   -1.144094

 Total Charge           Charge          ....    0
 Multiplicity           Mult            ....    1
 Number of Electrons    NEL             ....   66
 Basis Dimension        Dim             ....  339

ORBITAL ENERGIES
----------------

  NO   OCC          E(Eh)            E(eV)
   0   2.0000     -20.555796      -559.3516
   1   2.0000     -11.290849      -307.2396
   2   2.0000     -11.258892      -306.3700
   3   2.0000     -11.248138      -306.0774
   4   2.0000     -11.242232      -305.9167
   5   2.0000     -11.231688      -305.6298
   6   2.0000     -11.230519      -305.5980
   7   2.0000     -11.228845      -305.5524
   8   2.0000     -11.226579      -305.4908
   9   2.0000      -1.368946       -37.2509
  10   2.0000      -1.177697       -32.0468
  11   2.0000      -1.083453       -29.4823
  12   2.0000      -1.030354       -28.0374
  13   2.0000      -0.931165       -25.3383
  14   2.0000      -0.847253       -23.0549
  15   2.0000      -0.829506       -22.5720
  16   2.0000      -0.762450       -20.7473
  17   2.0000      -0.716705       -19.5025
  18   2.0000      -0.694877       -18.9086
  19   2.0000      -0.665322       -18.1043
  20   2.0000      -0.657917       -17.9028
  21   2.0000      -0.628389       -17.0993
  22   2.0000      -0.591700       -16.1010
  23   2.0000      -0.575235       -15.6529
  24   2.0000      -0.547643       -14.9021
  25   2.0000      -0.518310       -14.1039
  26   2.0000      -0.506375       -13.7792
  27   2.0000      -0.481392       -13.0993
  28   2.0000      -0.442059       -12.0290
  29   2.0000      -0.417787       -11.3686
  30   2.0000      -0.404582       -11.0092
  31   2.0000      -0.387030       -10.5316
  32   2.0000      -0.383139       -10.4257
  33   0.0000       0.137403         3.7389
  34   0.0000       0.145994         3.9727
  35   0.0000       0.157490         4.2855
  36   0.0000       0.162821         4.4306
  37   0.0000       0.172724         4.7001

MULLIKEN ATOMIC CHARGES
-----------------------
   0 O :   -0.446078
   1 C :    0.013903
   2 C :   -0.202253
   3 C :    0.014699
   4 C :   -0.303459
   5 C :   -0.243362
   6 C :   -0.042565
   7 C :   -0.121329
   8 C :   -0.178027
   9 H :    0.325478
  10 H :    0.104054
  11 H :    0.117238
  12 H :    0.114477
  13 H :    0.129581
  14 H :    0.129361
  15 H :    0.129365
  16 H :    0.136559
  17 H :    0.130867
  18 H :    0.191493
Sum of atomic charges:   -0.0000000

LOEWDIN ATOMIC CHARGES
----------------------
   0 O :    0.003336
   1 C :   -0.289028
   2 C :   -0.180513
   3 C :   -0.203633
   4 C :   -0.202614
   5 C :   -0.203358
   6 C :   -0.161998
   7 C :   -0.092738
   8 C :   -0.101895
   9 H :    0.183100
  10 H :    0.144684
  11 H :    0.130068
  12 H :    0.142231
  13 H :    0.133827
  14 H :    0.134007
  15 H :    0.135559
  16 H :    0.138361
  17 H :    0.162465
  18 H :    0.128136

  Mayer bond orders larger than 0.1
B(  0-O ,  1-C ) :   1.0442 B(  0-O ,  9-H ) :   0.8228 B(  1-C ,  2-C ) :   0.9449
B(  1-C ,  6-C ) :   0.8575 B(  1-C , 10-H ) :   0.9267 B(  2-C ,  3-C ) :   0.9106
B(  2-C , 11-H ) :   0.9128 B(  2-C , 12-H ) :   0.9075 B(  3-C ,  4-C ) :   0.8441
B(  3-C ,  5-C ) :   0.8308 B(  3-C ,  6-C ) :   0.8392 B(  4-C ,  5-C ) :   0.9409
B(  4-C , 13-H ) :   0.9244 B(  4-C , 14-H ) :   0.9212 B(  5-C , 15-H ) :   0.9270
B(  5-C , 16-H ) :   0.9197 B(  6-C ,  7-C ) :   1.1370 B(  6-C , 17-H ) :   0.9174
B(  7-C ,  8-C ) :   2.5611 B(  8-C , 18-H ) :   0.9018

MP2 TOTAL ENERGY:     -385.144407531 Eh
FINAL SINGLE POINT ENERGY      -385.144407531029

DIPOLE MOMENT
-------------
                                X             Y             Z
Electronic contribution:      0.19688       1.97829      -4.61260
Nuclear contribution   :     -0.62516      -2.00267       5.05860
                        -----------------------------------------
Total Dipole Moment    :     -0.42828      -0.02438       0.44600
                        -----------------------------------------
Magnitude (a.u.)       :      0.61882
Magnitude (Debye)      :      1.57291

                             ****ORCA TERMINATED NORMALLY****
TOTAL RUN TIME: 0 days 0 hours 20 minutes 12 seconds 776 msec
