                         Program Version 3.0.3 - RELEASE   -
|  1> ! RI-MP2 RIJK def2-TZVP def2-TZVP/C def2-TZVP/JK TIGHTSCF
|  2> % maxcore 2000
|  3> % mp2 density relaxed end
|  4> *xyz 0 1
|  5>  O        0.0020067060     1.4553199149    -0.0899233766
|  6>  C        0.0232254539     0.0720356241    -0.0115082245
|  7>  C        0.2710891945    -0.7550215903     1.3742031753
|  8>  C       -0.4243575830    -1.8214117088     0.5025424739
|  9>  C       -1.5287942661    -2.8698002267     0.2303991894
| 10>  C       -2.0189231880    -1.8766078692    -0.9121734276
| 11>  C       -1.3091362512    -0.7447053745    -0.0829520751
| 12>  O        0.5799653913    -2.0479158131    -0.5410196892
| 13>  C        0.9345469029    -0.7236855754    -0.9459007289
| 14>  H        0.9072629386     1.7836276088    -0.0456897553
| 15>  H        1.3047956960    -0.9213905861     1.6904423353
| 16>  H       -0.3421261629    -0.3613284246     2.1848477593
| 17>  H       -1.1950774464    -3.8678482213    -0.0604409722
| 18>  H       -2.2591022942    -2.9380665901     1.0395476870
| 19>  H       -1.5555942002    -2.1073142614    -1.8700735893
| 20>  H       -3.0968317728    -1.7628777866    -1.0404296008
| 21>  H       -2.0006185070    -0.3612349283     0.6699070231
| 22>  H        0.7060611794    -0.5574807450    -2.0062942902
| 23>  H        2.0037989493    -0.5329720366    -0.7769092635
| 24> *
| 25>
| 26>                          ****END OF INPUT****

CARTESIAN COORDINATES (ANGSTROEM)
---------------------------------
  O      0.002007    1.455320   -0.089923
  C      0.023225    0.072036   -0.011508
  C      0.271089   -0.755022    1.374203
  C     -0.424358   -1.821412    0.502542
  C     -1.528794   -2.869800    0.230399
  C     -2.018923   -1.876608   -0.912173
  C     -1.309136   -0.744705   -0.082952
  O      0.579965   -2.047916   -0.541020
  C      0.934547   -0.723686   -0.945901
  H      0.907263    1.783628   -0.045690
  H      1.304796   -0.921391    1.690442
  H     -0.342126   -0.361328    2.184848
  H     -1.195077   -3.867848   -0.060441
  H     -2.259102   -2.938067    1.039548
  H     -1.555594   -2.107314   -1.870074
  H     -3.096832   -1.762878   -1.040430
  H     -2.000619   -0.361235    0.669907
  H      0.706061   -0.557481   -2.006294
  H      2.003799   -0.532972   -0.776909

 Total Charge           Charge          ....    0
 Multiplicity           Mult            ....    1
 Number of Electrons    NEL             ....   68
 Basis Dimension        Dim             ....  339

ORBITAL ENERGIES
----------------

  NO   OCC          E(Eh)            E(eV)
   0   2.0000     -20.573642      -559.8373
   1   2.0000     -20.548333      -559.1486
   2   2.0000     -11.310505      -307.7745
   3   2.0000     -11.280899      -306.9689
   4   2.0000     -11.273994      -306.7810
   5   2.0000     -11.239675      -305.8471
   6   2.0000     -11.237845      -305.7973
   7   2.0000     -11.235300      -305.7281
   8   2.0000     -11.220701      -305.3308
   9   2.0000      -1.395863       -37.9834
  10   2.0000      -1.372334       -37.3431
  11   2.0000      -1.144507       -31.1436
  12   2.0000      -1.051179       -28.6040
  13   2.0000      -0.956788       -26.0355
  14   2.0000      -0.884812       -24.0769
  15   2.0000      -0.843223       -22.9453
  16   2.0000      -0.793181       -21.5835
  17   2.0000      -0.755312       -20.5531
  18   2.0000      -0.691845       -18.8261
  19   2.0000      -0.663731       -18.0610
  20   2.0000      -0.642170       -17.4743
  21   2.0000      -0.616565       -16.7776
  22   2.0000      -0.614163       -16.7122
  23   2.0000      -0.597844       -16.2682
  24   2.0000      -0.554659       -15.0930
  25   2.0000      -0.534377       -14.5411
  26   2.0000      -0.525551       -14.3010
  27   2.0000      -0.504029       -13.7153
  28   2.0000      -0.481660       -13.1066
  29   2.0000      -0.473753       -12.8915
  30   2.0000      -0.462708       -12.5909
  31   2.0000      -0.441061       -12.0019
  32   2.0000      -0.399786       -10.8787
  33   2.0000      -0.359756        -9.7895
  34   0.0000       0.129174         3.5150
  35   0.0000       0.145738         3.9657
  36   0.0000       0.160104         4.3567
  37   0.0000       0.175843         4.7849
  38   0.0000       0.178501         4.8572

MULLIKEN ATOMIC CHARGES
-----------------------
   0 O :   -0.449161
   1 C :    0.160334
   2 C :   -0.225784
   3 C :    0.133787
   4 C :   -0.238487
   5 C :   -0.227392
   6 C :   -0.137957
   7 O :   -0.330239
   8 C :   -0.080009
   9 H :    0.323892
  10 H :    0.120876
  11 H :    0.126182
  12 H :    0.126377
  13 H :    0.120513
  14 H :    0.127618
  15 H :    0.123989
  16 H :    0.110226
  17 H :    0.112429
  18 H :    0.102804
Sum of atomic charges:   -0.0000000

LOEWDIN ATOMIC CHARGES
----------------------
   0 O :    0.030384
   1 C :   -0.338003
   2 C :   -0.165721
   3 C :   -0.274374
   4 C :   -0.193493
   5 C :   -0.205764
   6 C :   -0.146077
   7 O :    0.178875
   8 C :   -0.273354
   9 H :    0.184038
  10 H :    0.125955
  11 H :    0.139262
  12 H :    0.129514
  13 H :    0.137403
  14 H :    0.136814
  15 H :    0.123522
  16 H :    0.163912
  17 H :    0.125681
  18 H :    0.121425

  Mayer bond orders larger than 0.1
B(  0-O ,  1-C ) :   1.0164 B(  0-O ,  9-H ) :   0.8330 B(  1-C ,  2-C ) :   0.8852
B(  1-C ,  6-C ) :   0.8689 B(  1-C ,  8-C ) :   0.9533 B(  2-C ,  3-C ) :   0.9102
B(  2-C , 10-H ) :   0.9084 B(  2-C , 11-H ) :   0.9150 B(  3-C ,  4-C ) :   0.9068
B(  3-C ,  6-C ) :   0.8624 B(  3-C ,  7-O ) :   0.8935 B(  4-C ,  5-C ) :   0.9637
B(  4-C , 12-H ) :   0.9184 B(  4-C , 13-H ) :   0.9200 B(  5-C ,  6-C ) :   0.9090
B(  5-C , 14-H ) :   0.9087 B(  5-C , 15-H ) :   0.9262 B(  6-C , 16-H ) :   0.9325
B(  7-O ,  8-C ) :   0.9359 B(  8-C , 17-H ) :   0.9293 B(  8-C , 18-H ) :   0.9059

MP2 TOTAL ENERGY:     -422.235224634 Eh
FINAL SINGLE POINT ENERGY      -422.235224634204

DIPOLE MOMENT
-------------
                                X             Y             Z
Electronic contribution:      2.01048       1.79754      -0.18099
Nuclear contribution   :     -1.82500      -1.52249       0.41957
                        -----------------------------------------
Total Dipole Moment    :      0.18548       0.27505       0.23858
                        -----------------------------------------
Magnitude (a.u.)       :      0.40863
Magnitude (Debye)      :      1.03866

                             ****ORCA TERMINATED NORMALLY****
TOTAL RUN TIME: 0 days 0 hours 19 minutes 48 seconds 480 msec
