                         Program Version 3.0.3 - RELEASE   -
|  1> ! RI-MP2 RIJK def2-TZVP def2-TZVP/C def2-TZVP/JK TIGHTSCF
|  2> % maxcore 2000
|  3> % mp2 density relaxed end
|  4> *xyz 0 1
|  5>  C       -0.2833801721     1.5027834724     0.2872365058
|  6>  C       -0.0774456310     0.0063771172     0.0438930099
|  7>  N        0.7233559450    -0.1863017558    -1.1740264093
|  8>  C        0.4578186791    -1.3762124865    -1.9756901601
|  9>  C        0.0515390695    -0.0269346107    -2.4567543407
| 10>  C        0.6994517979    -0.6425599747     1.1803364456
| 11>  O        2.0034082425    -0.1436510351     1.2962128746
| 12>  C        0.0353006893    -0.9861673502     2.4724194930
| 13>  C        0.4746745780    -2.0954544294     1.5313531206
| 14>  H        0.6809242759     1.9928908258     0.4401728512
| 15>  H       -0.7868663009     1.9749157217    -0.5614756102
| 16>  H       -0.8947087891     1.6602194519     1.1801572962
| 17>  H       -1.0606420773    -0.4892953793    -0.0459503052
| 18>  H        1.3283148529    -1.8739742167    -2.3928657762
| 19>  H       -0.3343362808    -2.0457304226    -1.6465464864
| 20>  H       -1.0130854906     0.2011300198    -2.4471021668
| 21>  H        0.6174096239     0.4809267641    -3.2325648048
| 22>  H        2.3430262453    -0.1202895592     0.3900603051
| 23>  H        0.6212091787    -0.8309507509     3.3710708723
| 24>  H       -1.0268502548    -0.7930980662     2.5835634544
| 25>  H       -0.2914822923    -2.6593832453     1.0096474729
| 26>  H        1.3525241108    -2.6647743204     1.8139661481
| 27> *
| 28>
| 29>                          ****END OF INPUT****

CARTESIAN COORDINATES (ANGSTROEM)
---------------------------------
  C     -0.283380    1.502783    0.287237
  C     -0.077446    0.006377    0.043893
  N      0.723356   -0.186302   -1.174026
  C      0.457819   -1.376212   -1.975690
  C      0.051539   -0.026935   -2.456754
  C      0.699452   -0.642560    1.180336
  O      2.003408   -0.143651    1.296213
  C      0.035301   -0.986167    2.472419
  C      0.474675   -2.095454    1.531353
  H      0.680924    1.992891    0.440173
  H     -0.786866    1.974916   -0.561476
  H     -0.894709    1.660219    1.180157
  H     -1.060642   -0.489295   -0.045950
  H      1.328315   -1.873974   -2.392866
  H     -0.334336   -2.045730   -1.646546
  H     -1.013085    0.201130   -2.447102
  H      0.617410    0.480927   -3.232565
  H      2.343026   -0.120290    0.390060
  H      0.621209   -0.830951    3.371071
  H     -1.026850   -0.793098    2.583563
  H     -0.291482   -2.659383    1.009647
  H      1.352524   -2.664774    1.813966

 Total Charge           Charge          ....    0
 Multiplicity           Mult            ....    1
 Number of Electrons    NEL             ....   70
 Basis Dimension        Dim             ....  357

ORBITAL ENERGIES
----------------

  NO   OCC          E(Eh)            E(eV)
   0   2.0000     -20.545625      -559.0749
   1   2.0000     -15.566152      -423.5765
   2   2.0000     -11.279278      -306.9248
   3   2.0000     -11.264236      -306.5154
   4   2.0000     -11.260964      -306.4264
   5   2.0000     -11.260067      -306.4020
   6   2.0000     -11.219621      -305.3014
   7   2.0000     -11.218427      -305.2689
   8   2.0000     -11.211185      -305.0718
   9   2.0000      -1.362612       -37.0786
  10   2.0000      -1.279659       -34.8213
  11   2.0000      -1.126371       -30.6501
  12   2.0000      -1.042560       -28.3695
  13   2.0000      -0.912004       -24.8169
  14   2.0000      -0.851529       -23.1713
  15   2.0000      -0.830116       -22.5886
  16   2.0000      -0.822688       -22.3865
  17   2.0000      -0.763698       -20.7813
  18   2.0000      -0.703662       -19.1476
  19   2.0000      -0.675487       -18.3809
  20   2.0000      -0.652521       -17.7560
  21   2.0000      -0.637563       -17.3490
  22   2.0000      -0.603548       -16.4234
  23   2.0000      -0.582083       -15.8393
  24   2.0000      -0.559187       -15.2162
  25   2.0000      -0.535534       -14.5726
  26   2.0000      -0.531345       -14.4586
  27   2.0000      -0.521132       -14.1807
  28   2.0000      -0.505798       -13.7635
  29   2.0000      -0.486585       -13.2406
  30   2.0000      -0.476808       -12.9746
  31   2.0000      -0.459889       -12.5142
  32   2.0000      -0.410181       -11.1616
  33   2.0000      -0.387846       -10.5538
  34   2.0000      -0.378999       -10.3131
  35   0.0000       0.136282         3.7084
  36   0.0000       0.150537         4.0963
  37   0.0000       0.164887         4.4868
  38   0.0000       0.169055         4.6002
  39   0.0000       0.188825         5.1382

MULLIKEN ATOMIC CHARGES
-----------------------
   0 C :   -0.394223
   1 C :   -0.051054
   2 N :   -0.256556
   3 C :   -0.163321
   4 C :   -0.197180
   5 C :    0.296641
   6 O :   -0.479921
   7 C :   -0.300932
   8 C :   -0.285836
   9 H :    0.140762
  10 H :    0.128055
  11 H :    0.132193
  12 H :    0.083972
  13 H :    0.133103
  14 H :    0.119272
  15 H :    0.125445
  16 H :    0.133010
  17 H :    0.330425
  18 H :    0.136410
  19 H :    0.127316
  20 H :    0.113702
  21 H :    0.128716
Sum of atomic charges:   -0.0000000

LOEWDIN ATOMIC CHARGES
----------------------
   0 C :   -0.280062
   1 C :   -0.288826
   2 N :    0.106669
   3 C :   -0.262862
   4 C :   -0.266086
   5 C :   -0.356653
   6 O :    0.025912
   7 C :   -0.205601
   8 C :   -0.214575
   9 H :    0.131161
  10 H :    0.121562
  11 H :    0.127647
  12 H :    0.145026
  13 H :    0.124909
  14 H :    0.122650
  15 H :    0.124942
  16 H :    0.125159
  17 H :    0.181759
  18 H :    0.140561
  19 H :    0.133046
  20 H :    0.127822
  21 H :    0.135841

  Mayer bond orders larger than 0.1
B(  0-C ,  1-C ) :   0.9246 B(  0-C ,  9-H ) :   0.9302 B(  0-C , 10-H ) :   0.9352
B(  0-C , 11-H ) :   0.9400 B(  1-C ,  2-N ) :   0.8218 B(  1-C ,  5-C ) :   0.9228
B(  1-C , 12-H ) :   0.9063 B(  2-N ,  3-C ) :   0.8641 B(  2-N ,  4-C ) :   0.9061
B(  3-C ,  4-C ) :   0.9448 B(  3-C , 13-H ) :   0.9295 B(  3-C , 14-H ) :   0.9224
B(  4-C , 15-H ) :   0.9251 B(  4-C , 16-H ) :   0.9250 B(  5-C ,  6-O ) :   0.9447
B(  5-C ,  7-C ) :   0.8728 B(  5-C ,  8-C ) :   0.8507 B(  6-O , 17-H ) :   0.8135
B(  7-C ,  8-C ) :   0.9282 B(  7-C , 18-H ) :   0.9192 B(  7-C , 19-H ) :   0.9231
B(  8-C , 20-H ) :   0.9157 B(  8-C , 21-H ) :   0.9211

MP2 TOTAL ENERGY:     -403.615122111 Eh
FINAL SINGLE POINT ENERGY      -403.615122111001

DIPOLE MOMENT
-------------
                                X             Y             Z
Electronic contribution:      3.60552      -0.54196       0.57351
Nuclear contribution   :     -4.29311       0.29484      -1.26008
                        -----------------------------------------
Total Dipole Moment    :     -0.68760      -0.24712      -0.68657
                        -----------------------------------------
Magnitude (a.u.)       :      1.00261
Magnitude (Debye)      :      2.54844

                             ****ORCA TERMINATED NORMALLY****
TOTAL RUN TIME: 0 days 0 hours 20 minutes 29 seconds 85 msec
