                         Program Version 3.0.3 - RELEASE   -
|  1> ! RI-MP2 RIJK def2-TZVP def2-TZVP/C def2-TZVP/JK TIGHTSCF
|  2> % maxcore 2000
|  3> % mp2 density relaxed end
|  4> *xyz 0 1
|  5>  O       -0.3557372916     1.6615937106     0.2179581887
|  6>  C       -0.1900788898     0.2870329706     0.1175394880
|  7>  C       -0.4034659221    -0.7191342409     1.2230521568
|  8>  C       -1.2729250539    -0.3486980385     2.4191475991
|  9>  C       -2.6042760860     0.1913124362     1.8581589417
| 10>  O       -2.5351360752     1.6292528751     1.8907941575
| 11>  C       -2.7095546063    -0.3665629491     0.4176957069
| 12>  C       -1.2976358492    -0.7325174587    -0.0218564541
| 13>  H       -1.0814968281     1.8562653976     0.8350187325
| 14>  H        0.6763246129     0.0819898302    -0.5055146631
| 15>  H        0.3567384251    -1.4774719978     1.3818736556
| 16>  H       -1.4630883326    -1.2456267303     3.0178966044
| 17>  H       -0.8229794698     0.3960287866     3.0837534769
| 18>  H       -3.4575710732    -0.1187530854     2.4730543072
| 19>  H       -3.3160001762     1.9761673669     1.4458012273
| 20>  H       -3.3340482082    -1.2673231271     0.4181244402
| 21>  H       -3.2000472272     0.3583734793    -0.2447506729
| 22>  H       -1.1993364386    -1.4997214952    -0.7834781227
| 23> *
| 24>
| 25>                          ****END OF INPUT****

CARTESIAN COORDINATES (ANGSTROEM)
---------------------------------
  O     -0.355737    1.661594    0.217958
  C     -0.190079    0.287033    0.117539
  C     -0.403466   -0.719134    1.223052
  C     -1.272925   -0.348698    2.419148
  C     -2.604276    0.191312    1.858159
  O     -2.535136    1.629253    1.890794
  C     -2.709555   -0.366563    0.417696
  C     -1.297636   -0.732517   -0.021856
  H     -1.081497    1.856265    0.835019
  H      0.676325    0.081990   -0.505515
  H      0.356738   -1.477472    1.381874
  H     -1.463088   -1.245627    3.017897
  H     -0.822979    0.396029    3.083753
  H     -3.457571   -0.118753    2.473054
  H     -3.316000    1.976167    1.445801
  H     -3.334048   -1.267323    0.418124
  H     -3.200047    0.358373   -0.244751
  H     -1.199336   -1.499721   -0.783478

 Total Charge           Charge          ....    0
 Multiplicity           Mult            ....    1
 Number of Electrons    NEL             ....   62
 Basis Dimension        Dim             ....  308

ORBITAL ENERGIES
----------------

  NO   OCC          E(Eh)            E(eV)
   0   2.0000     -20.576170      -559.9061
   1   2.0000     -20.534500      -558.7721
   2   2.0000     -11.293160      -307.3025
   3   2.0000     -11.273893      -306.7782
   4   2.0000     -11.234485      -305.7059
   5   2.0000     -11.229007      -305.5568
   6   2.0000     -11.225745      -305.4681
   7   2.0000     -11.225135      -305.4514
   8   2.0000      -1.382850       -37.6293
   9   2.0000      -1.346919       -36.6515
  10   2.0000      -1.157148       -31.4876
  11   2.0000      -1.020703       -27.7747
  12   2.0000      -0.975560       -26.5463
  13   2.0000      -0.844497       -22.9799
  14   2.0000      -0.778828       -21.1930
  15   2.0000      -0.766966       -20.8702
  16   2.0000      -0.716861       -19.5068
  17   2.0000      -0.689584       -18.7645
  18   2.0000      -0.654057       -17.7978
  19   2.0000      -0.622832       -16.9481
  20   2.0000      -0.613258       -16.6876
  21   2.0000      -0.572017       -15.5654
  22   2.0000      -0.562016       -15.2932
  23   2.0000      -0.529270       -14.4022
  24   2.0000      -0.525118       -14.2892
  25   2.0000      -0.506370       -13.7790
  26   2.0000      -0.501365       -13.6428
  27   2.0000      -0.478418       -13.0184
  28   2.0000      -0.453310       -12.3352
  29   2.0000      -0.391469       -10.6524
  30   2.0000      -0.367247        -9.9933
  31   0.0000       0.123265         3.3542
  32   0.0000       0.152633         4.1534
  33   0.0000       0.172655         4.6982
  34   0.0000       0.175993         4.7890
  35   0.0000       0.181226         4.9314

MULLIKEN ATOMIC CHARGES
-----------------------
   0 O :   -0.471504
   1 C :    0.035848
   2 C :   -0.140848
   3 C :   -0.234118
   4 C :    0.060024
   5 O :   -0.498109
   6 C :   -0.288059
   7 C :   -0.097105
   8 H :    0.339011
   9 H :    0.112759
  10 H :    0.120192
  11 H :    0.124848
  12 H :    0.136521
  13 H :    0.108636
  14 H :    0.325869
  15 H :    0.122337
  16 H :    0.122409
  17 H :    0.121288
Sum of atomic charges:   -0.0000000

LOEWDIN ATOMIC CHARGES
----------------------
   0 O :   -0.002943
   1 C :   -0.306266
   2 C :   -0.192240
   3 C :   -0.215737
   4 C :   -0.312987
   5 O :   -0.026006
   6 C :   -0.226804
   7 C :   -0.194250
   8 H :    0.163926
   9 H :    0.144822
  10 H :    0.141302
  11 H :    0.145887
  12 H :    0.147816
  13 H :    0.133338
  14 H :    0.175120
  15 H :    0.145373
  16 H :    0.138923
  17 H :    0.140725

  Mayer bond orders larger than 0.1
B(  0-O ,  1-C ) :   1.0348 B(  0-O ,  8-H ) :   0.7879 B(  1-C ,  2-C ) :   0.8868
B(  1-C ,  7-C ) :   0.8770 B(  1-C ,  9-H ) :   0.9536 B(  2-C ,  3-C ) :   0.9502
B(  2-C ,  7-C ) :   0.8157 B(  2-C , 10-H ) :   0.9169 B(  3-C ,  4-C ) :   0.9119
B(  3-C , 11-H ) :   0.9224 B(  3-C , 12-H ) :   0.9256 B(  4-C ,  5-O ) :   0.8942
B(  4-C ,  6-C ) :   0.9418 B(  4-C , 13-H ) :   0.9398 B(  5-O , 14-H ) :   0.8382
B(  6-C ,  7-C ) :   0.9299 B(  6-C , 15-H ) :   0.9195 B(  6-C , 16-H ) :   0.9295
B(  7-C , 17-H ) :   0.9178

MP2 TOTAL ENERGY:     -384.307568829 Eh
FINAL SINGLE POINT ENERGY      -384.307568829176

DIPOLE MOMENT
-------------
                                X             Y             Z
Electronic contribution:      1.22958       2.65848      -0.60402
Nuclear contribution   :     -2.23396      -3.42402       0.80374
                        -----------------------------------------
Total Dipole Moment    :     -1.00438      -0.76553       0.19972
                        -----------------------------------------
Magnitude (a.u.)       :      1.27856
Magnitude (Debye)      :      3.24984

                             ****ORCA TERMINATED NORMALLY****
TOTAL RUN TIME: 0 days 0 hours 12 minutes 40 seconds 685 msec
