                         Program Version 3.0.3 - RELEASE   -
|  1> ! RI-MP2 RIJK def2-TZVP def2-TZVP/C def2-TZVP/JK TIGHTSCF
|  2> % maxcore 2000
|  3> % mp2 density relaxed end
|  4> *xyz 0 1
|  5>  C        0.0047181101     1.5233853311     0.1176664138
|  6>  O        1.3015420368     2.0144004367    -0.3424008049
|  7>  C        2.2727457410     1.1850009483    -0.7455832823
|  8>  N        2.2740843666    -0.0951520174    -0.8087215272
|  9>  C        1.0800173075    -0.6310122080    -0.3891280698
| 10>  C       -0.0228291629     0.0325578040     0.0550661895
| 11>  C       -0.9320744690    -1.0091899504     0.3435892052
| 12>  N       -0.4143745149    -2.1938201534     0.0924319258
| 13>  O        0.8798160998    -1.9512440567    -0.3789247879
| 14>  H       -0.1275599390     1.9179073291     1.1322708943
| 15>  H       -0.7460942775     1.9989119716    -0.5247705898
| 16>  H        3.1491815131     1.7531311075    -1.0449901678
| 17>  H       -1.9432670616    -0.9598533225     0.7235288111
| 18> *
| 19>
| 20>                          ****END OF INPUT****

CARTESIAN COORDINATES (ANGSTROEM)
---------------------------------
  C      0.004718    1.523385    0.117666
  O      1.301542    2.014400   -0.342401
  C      2.272746    1.185001   -0.745583
  N      2.274084   -0.095152   -0.808722
  C      1.080017   -0.631012   -0.389128
  C     -0.022829    0.032558    0.055066
  C     -0.932074   -1.009190    0.343589
  N     -0.414375   -2.193820    0.092432
  O      0.879816   -1.951244   -0.378925
  H     -0.127560    1.917907    1.132271
  H     -0.746094    1.998912   -0.524771
  H      3.149182    1.753131   -1.044990
  H     -1.943267   -0.959853    0.723529

 Total Charge           Charge          ....    0
 Multiplicity           Mult            ....    1
 Number of Electrons    NEL             ....   64
 Basis Dimension        Dim             ....  303

ORBITAL ENERGIES
----------------

  NO   OCC          E(Eh)            E(eV)
   0   2.0000     -20.647057      -561.8350
   1   2.0000     -20.635043      -561.5081
   2   2.0000     -15.623296      -425.1315
   3   2.0000     -15.582240      -424.0143
   4   2.0000     -11.383590      -309.7632
   5   2.0000     -11.348595      -308.8110
   6   2.0000     -11.334043      -308.4150
   7   2.0000     -11.291794      -307.2653
   8   2.0000     -11.244262      -305.9719
   9   2.0000      -1.500737       -40.8371
  10   2.0000      -1.463361       -39.8201
  11   2.0000      -1.269958       -34.5573
  12   2.0000      -1.169380       -31.8205
  13   2.0000      -1.103462       -30.0267
  14   2.0000      -0.979894       -26.6643
  15   2.0000      -0.904519       -24.6132
  16   2.0000      -0.841843       -22.9077
  17   2.0000      -0.770696       -20.9717
  18   2.0000      -0.756471       -20.5846
  19   2.0000      -0.705648       -19.2017
  20   2.0000      -0.704351       -19.1664
  21   2.0000      -0.658272       -17.9125
  22   2.0000      -0.656852       -17.8738
  23   2.0000      -0.610684       -16.6176
  24   2.0000      -0.574328       -15.6283
  25   2.0000      -0.572869       -15.5886
  26   2.0000      -0.557933       -15.1821
  27   2.0000      -0.486153       -13.2289
  28   2.0000      -0.481523       -13.1029
  29   2.0000      -0.466194       -12.6858
  30   2.0000      -0.432429       -11.7670
  31   2.0000      -0.331772        -9.0280
  32   0.0000       0.088013         2.3949
  33   0.0000       0.131736         3.5847
  34   0.0000       0.154171         4.1952
  35   0.0000       0.162220         4.4142
  36   0.0000       0.170125         4.6293

MULLIKEN ATOMIC CHARGES
-----------------------
   0 C :   -0.022066
   1 O :   -0.234759
   2 C :    0.138251
   3 N :   -0.273333
   4 C :    0.213125
   5 C :   -0.101863
   6 C :   -0.117851
   7 N :   -0.099063
   8 O :   -0.086833
   9 H :    0.138788
  10 H :    0.138785
  11 H :    0.156433
  12 H :    0.150387
Sum of atomic charges:   -0.0000000

LOEWDIN ATOMIC CHARGES
----------------------
   0 C :   -0.202850
   1 O :    0.248967
   2 C :   -0.311682
   3 N :    0.124033
   4 C :   -0.341511
   5 C :   -0.186757
   6 C :   -0.246124
   7 N :    0.044703
   8 O :    0.311970
   9 H :    0.137068
  10 H :    0.137067
  11 H :    0.141552
  12 H :    0.143565

  Mayer bond orders larger than 0.1
B(  0-C ,  1-O ) :   0.8575 B(  0-C ,  5-C ) :   0.9280 B(  0-C ,  9-H ) :   0.9224
B(  0-C , 10-H ) :   0.9224 B(  1-O ,  2-C ) :   1.1238 B(  2-C ,  3-N ) :   1.6878
B(  2-C , 11-H ) :   0.9263 B(  3-N ,  4-C ) :   1.1200 B(  4-C ,  5-C ) :   1.4574
B(  4-C ,  7-N ) :   0.1088 B(  4-C ,  8-O ) :   1.1630 B(  5-C ,  6-C ) :   1.1964
B(  6-C ,  7-N ) :   1.5846 B(  6-C , 12-H ) :   0.9285 B(  7-N ,  8-O ) :   0.8845

MP2 TOTAL ENERGY:     -451.993935918 Eh
FINAL SINGLE POINT ENERGY      -451.993935918125

DIPOLE MOMENT
-------------
                                X             Y             Z
Electronic contribution:      1.80081      -3.19731      -0.82860
Nuclear contribution   :     -2.40109       4.80712       1.13140
                        -----------------------------------------
Total Dipole Moment    :     -0.60028       1.60981       0.30279
                        -----------------------------------------
Magnitude (a.u.)       :      1.74457
Magnitude (Debye)      :      4.43433

                             ****ORCA TERMINATED NORMALLY****
TOTAL RUN TIME: 0 days 0 hours 14 minutes 21 seconds 357 msec
