                         Program Version 3.0.3 - RELEASE   -
|  1> ! RI-MP2 RIJK def2-TZVP def2-TZVP/C def2-TZVP/JK TIGHTSCF
|  2> % maxcore 2000
|  3> % mp2 density relaxed end
|  4> *xyz 0 1
|  5>  N        0.1939755964     1.3626367962     0.1084561730
|  6>  C        0.0083357023     0.0019336653     0.0266464795
|  7>  C       -1.1122208353    -0.7826337241     0.0071566869
|  8>  N       -2.4400784544    -0.3042292179    -0.0250686111
|  9>  N       -0.7189688793    -2.1080615195     0.0090007336
| 10>  C        0.5803245963    -2.0832962316     0.0226256066
| 11>  O        1.0961179287    -0.7977867482     0.0476729933
| 12>  C        1.4963330162    -3.1483535435     0.0041491870
| 13>  C        2.2864211646    -4.0570376975    -0.0084585052
| 14>  H        0.9877145203     1.7058215303    -0.4173041345
| 15>  H       -0.6583521910     1.8578377245    -0.1226468409
| 16>  H       -2.9023513196    -0.4334568969     0.8712983392
| 17>  H       -2.9857503702    -0.8219115300    -0.7076661187
| 18>  H        2.9770929549    -4.8635677472    -0.0198852685
| 19> *
| 20>
| 21>                          ****END OF INPUT****

CARTESIAN COORDINATES (ANGSTROEM)
---------------------------------
  N      0.193976    1.362637    0.108456
  C      0.008336    0.001934    0.026646
  C     -1.112221   -0.782634    0.007157
  N     -2.440078   -0.304229   -0.025069
  N     -0.718969   -2.108062    0.009001
  C      0.580325   -2.083296    0.022626
  O      1.096118   -0.797787    0.047673
  C      1.496333   -3.148354    0.004149
  C      2.286421   -4.057038   -0.008459
  H      0.987715    1.705822   -0.417304
  H     -0.658352    1.857838   -0.122647
  H     -2.902351   -0.433457    0.871298
  H     -2.985750   -0.821912   -0.707666
  H      2.977093   -4.863568   -0.019885

 Total Charge           Charge          ....    0
 Multiplicity           Mult            ....    1
 Number of Electrons    NEL             ....   64
 Basis Dimension        Dim             ....  309

ORBITAL ENERGIES
----------------

  NO   OCC          E(Eh)            E(eV)
   0   2.0000     -20.641629      -561.6873
   1   2.0000     -15.584547      -424.0771
   2   2.0000     -15.576967      -423.8708
   3   2.0000     -15.562492      -423.4769
   4   2.0000     -11.347075      -308.7696
   5   2.0000     -11.336232      -308.4746
   6   2.0000     -11.274411      -306.7923
   7   2.0000     -11.252970      -306.2089
   8   2.0000     -11.248555      -306.0888
   9   2.0000      -1.493359       -40.6364
  10   2.0000      -1.256572       -34.1931
  11   2.0000      -1.234865       -33.6024
  12   2.0000      -1.173570       -31.9345
  13   2.0000      -1.067237       -29.0410
  14   2.0000      -0.984552       -26.7910
  15   2.0000      -0.871708       -23.7204
  16   2.0000      -0.820845       -22.3363
  17   2.0000      -0.763171       -20.7669
  18   2.0000      -0.722097       -19.6493
  19   2.0000      -0.700514       -19.0620
  20   2.0000      -0.683183       -18.5904
  21   2.0000      -0.663037       -18.0422
  22   2.0000      -0.652395       -17.7526
  23   2.0000      -0.644163       -17.5286
  24   2.0000      -0.586174       -15.9506
  25   2.0000      -0.509003       -13.8507
  26   2.0000      -0.473895       -12.8954
  27   2.0000      -0.465387       -12.6638
  28   2.0000      -0.441860       -12.0236
  29   2.0000      -0.418905       -11.3990
  30   2.0000      -0.413490       -11.2516
  31   2.0000      -0.288938        -7.8624
  32   0.0000       0.098208         2.6724
  33   0.0000       0.126577         3.4443
  34   0.0000       0.148513         4.0412
  35   0.0000       0.158896         4.3238
  36   0.0000       0.164339         4.4719

MULLIKEN ATOMIC CHARGES
-----------------------
   0 N :   -0.512485
   1 C :    0.224894
   2 C :    0.039708
   3 N :   -0.555901
   4 N :   -0.252125
   5 C :    0.047816
   6 O :   -0.215097
   7 C :    0.070267
   8 C :   -0.092404
   9 H :    0.263191
  10 H :    0.273852
  11 H :    0.253117
  12 H :    0.255170
  13 H :    0.199996
Sum of atomic charges:   -0.0000000

LOEWDIN ATOMIC CHARGES
----------------------
   0 N :   -0.061160
   1 C :   -0.346230
   2 C :   -0.368114
   3 N :   -0.119693
   4 N :    0.152025
   5 C :   -0.328059
   6 O :    0.369426
   7 C :   -0.074690
   8 C :   -0.052475
   9 H :    0.176578
  10 H :    0.185019
  11 H :    0.167797
  12 H :    0.169185
  13 H :    0.130391

  Mayer bond orders larger than 0.1
B(  0-N ,  1-C ) :   1.0926 B(  0-N ,  9-H ) :   0.8642 B(  0-N , 10-H ) :   0.8616
B(  1-C ,  2-C ) :   1.5191 B(  1-C ,  6-O ) :   1.1007 B(  2-C ,  3-N ) :   1.1206
B(  2-C ,  4-N ) :   1.2279 B(  3-N , 11-H ) :   0.8820 B(  3-N , 12-H ) :   0.8836
B(  4-N ,  5-C ) :   1.5837 B(  5-C ,  6-O ) :   1.0019 B(  5-C ,  7-C ) :   1.2043
B(  5-C ,  8-C ) :  -0.1536 B(  7-C ,  8-C ) :   2.6221 B(  8-C , 13-H ) :   0.8697

MP2 TOTAL ENERGY:     -432.129723337 Eh
FINAL SINGLE POINT ENERGY      -432.129723337154

DIPOLE MOMENT
-------------
                                X             Y             Z
Electronic contribution:      2.87466      -2.73275       0.14807
Nuclear contribution   :     -2.90348       3.37631      -0.45808
                        -----------------------------------------
Total Dipole Moment    :     -0.02882       0.64356      -0.31001
                        -----------------------------------------
Magnitude (a.u.)       :      0.71491
Magnitude (Debye)      :      1.81716

                             ****ORCA TERMINATED NORMALLY****
TOTAL RUN TIME: 0 days 0 hours 12 minutes 53 seconds 285 msec
