                         Program Version 3.0.3 - RELEASE   -
|  1> ! RI-MP2 RIJK def2-TZVP def2-TZVP/C def2-TZVP/JK TIGHTSCF
|  2> % maxcore 2000
|  3> % mp2 density relaxed end
|  4> *xyz 0 1
|  5>  N        1.0969602444    -1.0231867121    -0.4444208727
|  6>  C        0.6468268528     0.0259495601    -0.2653811663
|  7>  C        0.0455597447     1.3363960717    -0.0826152441
|  8>  C       -0.1624329526     1.8557132571     1.2836287843
|  9>  O        0.9092160698     2.3309303140     0.4709244529
| 10>  C       -0.8325867581     1.7789818975    -1.2225059250
| 11>  C       -2.2639775330     1.4520678636    -1.2417430446
| 12>  O       -1.8024702696     2.7671491493    -0.9162145883
| 13>  H       -0.9787798058     2.5572346670     1.4323778416
| 14>  H        0.1291229621     1.2421098016     2.1330071484
| 15>  H       -0.3076871636     1.9213172624    -2.1666077385
| 16>  H       -2.7770257550     1.3586622348    -2.1961053789
| 17>  H       -2.6967254361     0.8925424531    -0.4146402688
| 18> *
| 19>
| 20>                          ****END OF INPUT****

CARTESIAN COORDINATES (ANGSTROEM)
---------------------------------
  N      1.096960   -1.023187   -0.444421
  C      0.646827    0.025950   -0.265381
  C      0.045560    1.336396   -0.082615
  C     -0.162433    1.855713    1.283629
  O      0.909216    2.330930    0.470924
  C     -0.832587    1.778982   -1.222506
  C     -2.263978    1.452068   -1.241743
  O     -1.802470    2.767149   -0.916215
  H     -0.978780    2.557235    1.432378
  H      0.129123    1.242110    2.133007
  H     -0.307687    1.921317   -2.166608
  H     -2.777026    1.358662   -2.196105
  H     -2.696725    0.892542   -0.414640

 Total Charge           Charge          ....    0
 Multiplicity           Mult            ....    1
 Number of Electrons    NEL             ....   58
 Basis Dimension        Dim             ....  278

ORBITAL ENERGIES
----------------

  NO   OCC          E(Eh)            E(eV)
   0   2.0000     -20.612883      -560.9051
   1   2.0000     -20.603102      -560.6389
   2   2.0000     -15.594693      -424.3532
   3   2.0000     -11.360492      -309.1347
   4   2.0000     -11.327494      -308.2368
   5   2.0000     -11.324152      -308.1458
   6   2.0000     -11.315738      -307.9169
   7   2.0000     -11.292706      -307.2902
   8   2.0000      -1.465838       -39.8875
   9   2.0000      -1.442687       -39.2575
  10   2.0000      -1.237713       -33.6799
  11   2.0000      -1.047883       -28.5143
  12   2.0000      -0.953136       -25.9362
  13   2.0000      -0.931164       -25.3383
  14   2.0000      -0.874729       -23.8026
  15   2.0000      -0.776355       -21.1257
  16   2.0000      -0.725456       -19.7407
  17   2.0000      -0.712164       -19.3790
  18   2.0000      -0.650170       -17.6920
  19   2.0000      -0.615820       -16.7573
  20   2.0000      -0.593320       -16.1451
  21   2.0000      -0.583579       -15.8800
  22   2.0000      -0.569261       -15.4904
  23   2.0000      -0.534506       -14.5446
  24   2.0000      -0.511668       -13.9232
  25   2.0000      -0.493598       -13.4315
  26   2.0000      -0.477746       -13.0001
  27   2.0000      -0.471715       -12.8360
  28   2.0000      -0.448971       -12.2171
  29   0.0000       0.128889         3.5073
  30   0.0000       0.139721         3.8020
  31   0.0000       0.147585         4.0160
  32   0.0000       0.157552         4.2872
  33   0.0000       0.167536         4.5589

MULLIKEN ATOMIC CHARGES
-----------------------
   0 N :   -0.040409
   1 C :   -0.227723
   2 C :    0.289242
   3 C :   -0.063526
   4 O :   -0.301695
   5 C :    0.022464
   6 C :   -0.085514
   7 O :   -0.315655
   8 H :    0.155849
   9 H :    0.141147
  10 H :    0.160782
  11 H :    0.133503
  12 H :    0.131534
Sum of atomic charges:    0.0000000

LOEWDIN ATOMIC CHARGES
----------------------
   0 N :    0.088685
   1 C :   -0.135819
   2 C :   -0.314820
   3 C :   -0.201203
   4 O :    0.206498
   5 C :   -0.247449
   6 C :   -0.238552
   7 O :    0.172484
   8 H :    0.134460
   9 H :    0.130363
  10 H :    0.152383
  11 H :    0.126372
  12 H :    0.126598

  Mayer bond orders larger than 0.1
B(  0-N ,  1-C ) :   2.8455 B(  1-C ,  2-C ) :   0.8972 B(  2-C ,  3-C ) :   0.9379
B(  2-C ,  4-O ) :   0.8760 B(  2-C ,  5-C ) :   0.9171 B(  3-C ,  4-O ) :   0.8944
B(  3-C ,  8-H ) :   0.9056 B(  3-C ,  9-H ) :   0.9067 B(  5-C ,  6-C ) :   0.9819
B(  5-C ,  7-O ) :   0.9121 B(  5-C , 10-H ) :   0.8968 B(  6-C ,  7-O ) :   0.8936
B(  6-C , 11-H ) :   0.9227 B(  6-C , 12-H ) :   0.9023

MP2 TOTAL ENERGY:     -397.900694637 Eh
FINAL SINGLE POINT ENERGY      -397.900694637366

DIPOLE MOMENT
-------------
                                X             Y             Z
Electronic contribution:      3.54661      -0.81357      -0.11421
Nuclear contribution   :     -4.67832       1.05203       0.25475
                        -----------------------------------------
Total Dipole Moment    :     -1.13171       0.23846       0.14054
                        -----------------------------------------
Magnitude (a.u.)       :      1.16506
Magnitude (Debye)      :      2.96135

                             ****ORCA TERMINATED NORMALLY****
TOTAL RUN TIME: 0 days 0 hours 9 minutes 29 seconds 240 msec
