                         Program Version 3.0.3 - RELEASE   -
|  1> ! RI-MP2 RIJK def2-TZVP def2-TZVP/C def2-TZVP/JK TIGHTSCF
|  2> % maxcore 2000
|  3> % mp2 density relaxed end
|  4> *xyz 0 1
|  5>  C       -0.1167078682     1.2625369656     0.1887149915
|  6>  C        0.7221162572     0.2001342280    -0.4781927877
|  7>  O        1.8860670889     0.0050197805    -0.2008019626
|  8>  C        0.0428991593    -0.6724802384    -1.5409159643
|  9>  C       -0.1064418225    -2.1068010991    -1.0518114427
| 10>  C        0.4619477283    -3.2367782374    -1.8620010024
| 11>  N        1.0813723976    -2.8718452021    -0.6006329728
| 12>  C       -1.3039110429    -2.3941319665    -0.2093852735
| 13>  O       -2.1736463002    -1.5935803191     0.0359976435
| 14>  H       -0.4462482086     1.9942060576    -0.5592582111
| 15>  H       -1.0242073023     0.8049894958     0.5973599551
| 16>  H        0.4525606539     1.7655667028     0.9709010278
| 17>  H       -0.9433964480    -0.2847114742    -1.8057769333
| 18>  H        0.6827767447    -0.6504496750    -2.4280368440
| 19>  H       -0.0321027923    -4.2052280910    -1.8708390863
| 20>  H        0.9319684681    -2.9569025343    -2.8014760901
| 21>  H        1.8993186575    -2.2767825572    -0.7228685781
| 22>  H       -1.3233926405    -3.4285689962     0.1951748110
| 23> *
| 24>
| 25>                          ****END OF INPUT****

CARTESIAN COORDINATES (ANGSTROEM)
---------------------------------
  C     -0.116708    1.262537    0.188715
  C      0.722116    0.200134   -0.478193
  O      1.886067    0.005020   -0.200802
  C      0.042899   -0.672480   -1.540916
  C     -0.106442   -2.106801   -1.051811
  C      0.461948   -3.236778   -1.862001
  N      1.081372   -2.871845   -0.600633
  C     -1.303911   -2.394132   -0.209385
  O     -2.173646   -1.593580    0.035998
  H     -0.446248    1.994206   -0.559258
  H     -1.024207    0.804989    0.597360
  H      0.452561    1.765567    0.970901
  H     -0.943396   -0.284711   -1.805777
  H      0.682777   -0.650450   -2.428037
  H     -0.032103   -4.205228   -1.870839
  H      0.931968   -2.956903   -2.801476
  H      1.899319   -2.276783   -0.722869
  H     -1.323393   -3.428569    0.195175

 Total Charge           Charge          ....    0
 Multiplicity           Mult            ....    1
 Number of Electrons    NEL             ....   68
 Basis Dimension        Dim             ....  333

ORBITAL ENERGIES
----------------

  NO   OCC          E(Eh)            E(eV)
   0   2.0000     -20.566950      -559.6552
   1   2.0000     -20.553247      -559.2823
   2   2.0000     -15.581376      -423.9908
   3   2.0000     -11.341852      -308.6275
   4   2.0000     -11.341395      -308.6151
   5   2.0000     -11.294375      -307.3356
   6   2.0000     -11.285269      -307.0878
   7   2.0000     -11.255482      -306.2772
   8   2.0000     -11.235238      -305.7264
   9   2.0000      -1.407446       -38.2985
  10   2.0000      -1.397912       -38.0391
  11   2.0000      -1.291627       -35.1470
  12   2.0000      -1.061160       -28.8756
  13   2.0000      -0.996891       -27.1268
  14   2.0000      -0.936736       -25.4899
  15   2.0000      -0.895671       -24.3724
  16   2.0000      -0.785368       -21.3710
  17   2.0000      -0.745790       -20.2940
  18   2.0000      -0.706356       -19.2209
  19   2.0000      -0.693030       -18.8583
  20   2.0000      -0.658980       -17.9318
  21   2.0000      -0.647140       -17.6096
  22   2.0000      -0.633604       -17.2413
  23   2.0000      -0.606765       -16.5109
  24   2.0000      -0.579684       -15.7740
  25   2.0000      -0.569206       -15.4889
  26   2.0000      -0.559380       -15.2215
  27   2.0000      -0.546335       -14.8665
  28   2.0000      -0.504881       -13.7385
  29   2.0000      -0.500115       -13.6088
  30   2.0000      -0.486051       -13.2261
  31   2.0000      -0.446490       -12.1496
  32   2.0000      -0.421681       -11.4745
  33   2.0000      -0.400840       -10.9074
  34   0.0000       0.116885         3.1806
  35   0.0000       0.126533         3.4431
  36   0.0000       0.142261         3.8711
  37   0.0000       0.155797         4.2394
  38   0.0000       0.172453         4.6927

MULLIKEN ATOMIC CHARGES
-----------------------
   0 C :   -0.433362
   1 C :    0.238488
   2 O :   -0.311004
   3 C :   -0.205460
   4 C :    0.126258
   5 C :   -0.182835
   6 N :   -0.373247
   7 C :    0.050782
   8 O :   -0.288241
   9 H :    0.146790
  10 H :    0.174044
  11 H :    0.150111
  12 H :    0.146335
  13 H :    0.136542
  14 H :    0.131833
  15 H :    0.137274
  16 H :    0.248629
  17 H :    0.107062
Sum of atomic charges:    0.0000000

LOEWDIN ATOMIC CHARGES
----------------------
   0 C :   -0.276816
   1 C :   -0.336645
   2 O :    0.141151
   3 C :   -0.194812
   4 C :   -0.296677
   5 C :   -0.235711
   6 N :    0.031437
   7 C :   -0.256956
   8 O :    0.129965
   9 H :    0.140852
  10 H :    0.144819
  11 H :    0.132738
  12 H :    0.157377
  13 H :    0.157369
  14 H :    0.129319
  15 H :    0.128070
  16 H :    0.177972
  17 H :    0.126548

  Mayer bond orders larger than 0.1
B(  0-C ,  1-C ) :   0.9333 B(  0-C ,  9-H ) :   0.9083 B(  0-C , 10-H ) :   0.9058
B(  0-C , 11-H ) :   0.9382 B(  1-C ,  2-O ) :   1.9312 B(  1-C ,  3-C ) :   0.8669
B(  3-C ,  4-C ) :   0.9146 B(  3-C , 12-H ) :   0.9046 B(  3-C , 13-H ) :   0.9144
B(  4-C ,  5-C ) :   0.9030 B(  4-C ,  6-N ) :   0.8293 B(  4-C ,  7-C ) :   0.8563
B(  5-C ,  6-N ) :   0.9372 B(  5-C , 14-H ) :   0.9154 B(  5-C , 15-H ) :   0.9045
B(  6-N , 16-H ) :   0.8525 B(  7-C ,  8-O ) :   1.9657 B(  7-C , 17-H ) :   0.9553

MP2 TOTAL ENERGY:     -438.362630111 Eh
FINAL SINGLE POINT ENERGY      -438.362630110823

DIPOLE MOMENT
-------------
                                X             Y             Z
Electronic contribution:      0.14132      -1.81897       1.60003
Nuclear contribution   :     -0.28937       1.85700      -2.63887
                        -----------------------------------------
Total Dipole Moment    :     -0.14805       0.03803      -1.03884
                        -----------------------------------------
Magnitude (a.u.)       :      1.05003
Magnitude (Debye)      :      2.66897

                             ****ORCA TERMINATED NORMALLY****
TOTAL RUN TIME: 0 days 0 hours 17 minutes 4 seconds 913 msec
