                         Program Version 3.0.3 - RELEASE   -
|  1> ! RI-MP2 RIJK def2-TZVP def2-TZVP/C def2-TZVP/JK TIGHTSCF
|  2> % maxcore 2000
|  3> % mp2 density relaxed end
|  4> *xyz 0 1
|  5>  C       -0.1930419094     1.4332559179    -0.1211165059
|  6>  C       -0.2787298045    -0.0743459284    -0.3304135169
|  7>  N       -1.3359144450    -0.6599935923     0.5009292438
|  8>  C       -1.4501671154    -2.0811759607     0.3844609635
|  9>  C       -2.6467969165    -2.7572278600     0.9850214233
| 10>  C       -2.5612650513    -2.5987420077    -0.5370686426
| 11>  N       -3.3408332296    -1.6212458709    -1.2456727074
| 12>  C       -2.2680615742    -3.7954345219    -1.2929371410
| 13>  N       -2.0344321979    -4.7678934431    -1.8744303701
| 14>  H        0.5816817644     1.8664983419    -0.7596322760
| 15>  H       -1.1467407018     1.9141958187    -0.3570230756
| 16>  H        0.0603438727     1.6750096734     0.9177976543
| 17>  H       -0.5225332531    -0.2972319165    -1.3752672432
| 18>  H        0.7031375073    -0.5382135115    -0.1303849490
| 19>  H       -1.2071301514    -0.3970642867     1.4730538672
| 20>  H       -0.5245507274    -2.6598012850     0.3601096403
| 21>  H       -2.5173898692    -3.7418966134     1.4189317390
| 22>  H       -3.3834591643    -2.1245837466     1.4683623187
| 23>  H       -4.3319923345    -1.8291466886    -1.1828653223
| 24>  H       -3.1714478588    -0.7177652185    -0.8098818001
| 25> *
| 26>
| 27>                          ****END OF INPUT****

CARTESIAN COORDINATES (ANGSTROEM)
---------------------------------
  C     -0.193042    1.433256   -0.121117
  C     -0.278730   -0.074346   -0.330414
  N     -1.335914   -0.659994    0.500929
  C     -1.450167   -2.081176    0.384461
  C     -2.646797   -2.757228    0.985021
  C     -2.561265   -2.598742   -0.537069
  N     -3.340833   -1.621246   -1.245673
  C     -2.268062   -3.795435   -1.292937
  N     -2.034432   -4.767893   -1.874430
  H      0.581682    1.866498   -0.759632
  H     -1.146741    1.914196   -0.357023
  H      0.060344    1.675010    0.917798
  H     -0.522533   -0.297232   -1.375267
  H      0.703138   -0.538214   -0.130385
  H     -1.207130   -0.397064    1.473054
  H     -0.524551   -2.659801    0.360110
  H     -2.517390   -3.741897    1.418932
  H     -3.383459   -2.124584    1.468362
  H     -4.331992   -1.829147   -1.182865
  H     -3.171448   -0.717765   -0.809882

 Total Charge           Charge          ....    0
 Multiplicity           Mult            ....    1
 Number of Electrons    NEL             ....   68
 Basis Dimension        Dim             ....  345

ORBITAL ENERGIES
----------------

  NO   OCC          E(Eh)            E(eV)
   0   2.0000     -15.570707      -423.7005
   1   2.0000     -15.560532      -423.4236
   2   2.0000     -15.558571      -423.3702
   3   2.0000     -11.310498      -307.7743
   4   2.0000     -11.289720      -307.2089
   5   2.0000     -11.265134      -306.5399
   6   2.0000     -11.264539      -306.5237
   7   2.0000     -11.255060      -306.2658
   8   2.0000     -11.228787      -305.5508
   9   2.0000      -1.269273       -34.5387
  10   2.0000      -1.215146       -33.0658
  11   2.0000      -1.191840       -32.4316
  12   2.0000      -1.107217       -30.1289
  13   2.0000      -1.009875       -27.4801
  14   2.0000      -0.894138       -24.3307
  15   2.0000      -0.848860       -23.0987
  16   2.0000      -0.831142       -22.6165
  17   2.0000      -0.737230       -20.0610
  18   2.0000      -0.684415       -18.6239
  19   2.0000      -0.668935       -18.2027
  20   2.0000      -0.647583       -17.6216
  21   2.0000      -0.630230       -17.1494
  22   2.0000      -0.607203       -16.5228
  23   2.0000      -0.579388       -15.7659
  24   2.0000      -0.550583       -14.9821
  25   2.0000      -0.544780       -14.8242
  26   2.0000      -0.533888       -14.5278
  27   2.0000      -0.517190       -14.0735
  28   2.0000      -0.507713       -13.8156
  29   2.0000      -0.486501       -13.2384
  30   2.0000      -0.451798       -12.2940
  31   2.0000      -0.431052       -11.7295
  32   2.0000      -0.416089       -11.3223
  33   2.0000      -0.371637       -10.1128
  34   0.0000       0.121295         3.3006
  35   0.0000       0.143149         3.8953
  36   0.0000       0.148274         4.0347
  37   0.0000       0.150407         4.0928
  38   0.0000       0.175775         4.7831

MULLIKEN ATOMIC CHARGES
-----------------------
   0 C :   -0.386221
   1 C :   -0.115346
   2 N :   -0.407018
   3 C :   -0.033307
   4 C :   -0.290349
   5 C :    0.270411
   6 N :   -0.534100
   7 C :   -0.214498
   8 N :   -0.058401
   9 H :    0.137353
  10 H :    0.134356
  11 H :    0.119748
  12 H :    0.138606
  13 H :    0.102648
  14 H :    0.214182
  15 H :    0.133030
  16 H :    0.154300
  17 H :    0.149314
  18 H :    0.235959
  19 H :    0.249332
Sum of atomic charges:   -0.0000000

LOEWDIN ATOMIC CHARGES
----------------------
   0 C :   -0.319701
   1 C :   -0.324575
   2 N :   -0.001308
   3 C :   -0.244106
   4 C :   -0.173427
   5 C :   -0.310416
   6 N :   -0.095073
   7 C :   -0.152968
   8 N :    0.060883
   9 H :    0.126737
  10 H :    0.123461
  11 H :    0.119639
  12 H :    0.137370
  13 H :    0.119500
  14 H :    0.177742
  15 H :    0.145046
  16 H :    0.142836
  17 H :    0.141667
  18 H :    0.162302
  19 H :    0.164391

  Mayer bond orders larger than 0.1
B(  0-C ,  1-C ) :   0.9322 B(  0-C ,  9-H ) :   0.9384 B(  0-C , 10-H ) :   0.9371
B(  0-C , 11-H ) :   0.9353 B(  1-C ,  2-N ) :   0.8772 B(  1-C , 12-H ) :   0.9288
B(  1-C , 13-H ) :   0.9198 B(  2-N ,  3-C ) :   0.9464 B(  2-N , 14-H ) :   0.8766
B(  3-C ,  4-C ) :   0.8985 B(  3-C ,  5-C ) :   0.8094 B(  3-C , 15-H ) :   0.9323
B(  4-C ,  5-C ) :   0.8367 B(  4-C , 16-H ) :   0.9182 B(  4-C , 17-H ) :   0.9294
B(  5-C ,  6-N ) :   0.9766 B(  5-C ,  7-C ) :   0.9604 B(  6-N , 18-H ) :   0.8830
B(  6-N , 19-H ) :   0.8634 B(  7-C ,  8-N ) :   2.8709

MP2 TOTAL ENERGY:     -398.625601472 Eh
FINAL SINGLE POINT ENERGY      -398.625601472050

DIPOLE MOMENT
-------------
                                X             Y             Z
Electronic contribution:     -3.78288     -10.56277      -3.23741
Nuclear contribution   :      3.82924      12.05109       4.79440
                        -----------------------------------------
Total Dipole Moment    :      0.04636       1.48833       1.55699
                        -----------------------------------------
Magnitude (a.u.)       :      2.15441
Magnitude (Debye)      :      5.47607

                             ****ORCA TERMINATED NORMALLY****
TOTAL RUN TIME: 0 days 0 hours 17 minutes 30 seconds 609 msec
