                         Program Version 3.0.3 - RELEASE   -
|  1> ! RI-MP2 RIJK def2-TZVP def2-TZVP/C def2-TZVP/JK TIGHTSCF
|  2> % maxcore 2000
|  3> % mp2 density relaxed end
|  4> *xyz 0 1
|  5>  C       -0.0660355029     1.6423356307     0.0386430884
|  6>  C       -0.0405463086     0.1106200404     0.0418635841
|  7>  C        0.5194680444    -0.4356516059    -1.2985130459
|  8>  C        1.0084492128    -1.8980608681    -1.3040193734
|  9>  C        0.1762482409    -2.9054194853    -0.4848935625
| 10>  C        0.5790618434    -2.9728554835     0.9982156849
| 11>  C        0.2697586853    -1.7201548949     1.8491051314
| 12>  C        0.7763072437    -0.4277634882     1.2206632310
| 13>  O        1.7758201235     0.1301074698     1.6157154590
| 14>  H        0.9553134344     2.0308752429     0.0568822283
| 15>  H       -0.5711683412     2.0193432382    -0.8562506563
| 16>  H       -0.5892816651     2.0361994261     0.9154408183
| 17>  H       -1.0631263421    -0.2682523015     0.1521044451
| 18>  H       -0.2659861355    -0.3077933696    -2.0529330308
| 19>  H        1.3515688706     0.2066066901    -1.6093774385
| 20>  H        1.0559834728    -2.2289962630    -2.3472955623
| 21>  H        2.0416198260    -1.9333813600    -0.9350184806
| 22>  H       -0.8965201445    -2.6907356176    -0.5828891384
| 23>  H        0.3214445092    -3.9049700181    -0.9100056478
| 24>  H        0.0840739912    -3.8278925831     1.4720095267
| 25>  H        1.6569133313    -3.1710745445     1.0523099561
| 26>  H       -0.8157439867    -1.6399174965     1.9868663157
| 27>  H        0.7348578672    -1.8239046884     2.8330351475
| 28> *
| 29>
| 30>                          ****END OF INPUT****

CARTESIAN COORDINATES (ANGSTROEM)
---------------------------------
  C     -0.066036    1.642336    0.038643
  C     -0.040546    0.110620    0.041864
  C      0.519468   -0.435652   -1.298513
  C      1.008449   -1.898061   -1.304019
  C      0.176248   -2.905419   -0.484894
  C      0.579062   -2.972855    0.998216
  C      0.269759   -1.720155    1.849105
  C      0.776307   -0.427763    1.220663
  O      1.775820    0.130107    1.615715
  H      0.955313    2.030875    0.056882
  H     -0.571168    2.019343   -0.856251
  H     -0.589282    2.036199    0.915441
  H     -1.063126   -0.268252    0.152104
  H     -0.265986   -0.307793   -2.052933
  H      1.351569    0.206607   -1.609377
  H      1.055983   -2.228996   -2.347296
  H      2.041620   -1.933381   -0.935018
  H     -0.896520   -2.690736   -0.582889
  H      0.321445   -3.904970   -0.910006
  H      0.084074   -3.827893    1.472010
  H      1.656913   -3.171075    1.052310
  H     -0.815744   -1.639917    1.986866
  H      0.734858   -1.823905    2.833035

 Total Charge           Charge          ....    0
 Multiplicity           Mult            ....    1
 Number of Electrons    NEL             ....   70
 Basis Dimension        Dim             ....  363

ORBITAL ENERGIES
----------------

  NO   OCC          E(Eh)            E(eV)
   0   2.0000     -20.537784      -558.8615
   1   2.0000     -11.319355      -308.0153
   2   2.0000     -11.236569      -305.7626
   3   2.0000     -11.234494      -305.7061
   4   2.0000     -11.231921      -305.6361
   5   2.0000     -11.230027      -305.5846
   6   2.0000     -11.228700      -305.5485
   7   2.0000     -11.225669      -305.4660
   8   2.0000     -11.214296      -305.1565
   9   2.0000      -1.381091       -37.5814
  10   2.0000      -1.113606       -30.3027
  11   2.0000      -1.059103       -28.8197
  12   2.0000      -1.021837       -27.8056
  13   2.0000      -0.944697       -25.7065
  14   2.0000      -0.864811       -23.5327
  15   2.0000      -0.859570       -23.3901
  16   2.0000      -0.773856       -21.0577
  17   2.0000      -0.714073       -19.4309
  18   2.0000      -0.663689       -18.0599
  19   2.0000      -0.646657       -17.5964
  20   2.0000      -0.634082       -17.2543
  21   2.0000      -0.609796       -16.5934
  22   2.0000      -0.590853       -16.0779
  23   2.0000      -0.569004       -15.4834
  24   2.0000      -0.565924       -15.3996
  25   2.0000      -0.550598       -14.9825
  26   2.0000      -0.538118       -14.6429
  27   2.0000      -0.517040       -14.0694
  28   2.0000      -0.495612       -13.4863
  29   2.0000      -0.489088       -13.3088
  30   2.0000      -0.473601       -12.8873
  31   2.0000      -0.466252       -12.6874
  32   2.0000      -0.453399       -12.3376
  33   2.0000      -0.449769       -12.2388
  34   2.0000      -0.393274       -10.7015
  35   0.0000       0.120051         3.2667
  36   0.0000       0.143190         3.8964
  37   0.0000       0.151739         4.1290
  38   0.0000       0.157440         4.2842
  39   0.0000       0.171273         4.6606

MULLIKEN ATOMIC CHARGES
-----------------------
   0 C :   -0.400897
   1 C :   -0.017403
   2 C :   -0.302352
   3 C :   -0.215411
   4 C :   -0.217633
   5 C :   -0.248255
   6 C :   -0.235087
   7 C :    0.182295
   8 O :   -0.290383
   9 H :    0.149185
  10 H :    0.132607
  11 H :    0.131029
  12 H :    0.092669
  13 H :    0.121197
  14 H :    0.125058
  15 H :    0.128497
  16 H :    0.123937
  17 H :    0.108506
  18 H :    0.127518
  19 H :    0.125219
  20 H :    0.124826
  21 H :    0.122428
  22 H :    0.132452
Sum of atomic charges:   -0.0000000

LOEWDIN ATOMIC CHARGES
----------------------
   0 C :   -0.287865
   1 C :   -0.253244
   2 C :   -0.238396
   3 C :   -0.266175
   4 C :   -0.266741
   5 C :   -0.260774
   6 C :   -0.231978
   7 C :   -0.299630
   8 O :    0.152787
   9 H :    0.131076
  10 H :    0.124341
  11 H :    0.124310
  12 H :    0.154264
  13 H :    0.139900
  14 H :    0.146351
  15 H :    0.138716
  16 H :    0.142292
  17 H :    0.136969
  18 H :    0.139962
  19 H :    0.139482
  20 H :    0.142180
  21 H :    0.145324
  22 H :    0.146848

  Mayer bond orders larger than 0.1
B(  0-C ,  1-C ) :   0.8944 B(  0-C ,  9-H ) :   0.9326 B(  0-C , 10-H ) :   0.9395
B(  0-C , 11-H ) :   0.9406 B(  1-C ,  2-C ) :   0.8909 B(  1-C ,  7-C ) :   0.8664
B(  1-C , 12-H ) :   0.9157 B(  2-C ,  3-C ) :   0.9321 B(  2-C , 13-H ) :   0.9307
B(  2-C , 14-H ) :   0.9311 B(  3-C ,  4-C ) :   0.9042 B(  3-C , 15-H ) :   0.9331
B(  3-C , 16-H ) :   0.9330 B(  4-C ,  5-C ) :   0.9239 B(  4-C , 17-H ) :   0.9297
B(  4-C , 18-H ) :   0.9315 B(  5-C ,  6-C ) :   0.9142 B(  5-C , 19-H ) :   0.9296
B(  5-C , 20-H ) :   0.9314 B(  6-C ,  7-C ) :   0.9107 B(  6-C , 21-H ) :   0.9230
B(  6-C , 22-H ) :   0.9230 B(  7-C ,  8-O ) :   1.9902

MP2 TOTAL ENERGY:     -387.654545644 Eh
FINAL SINGLE POINT ENERGY      -387.654545644479

DIPOLE MOMENT
-------------
                                X             Y             Z
Electronic contribution:      2.83821       1.75617       4.20947
Nuclear contribution   :     -3.63466      -2.36057      -4.68487
                        -----------------------------------------
Total Dipole Moment    :     -0.79645      -0.60439      -0.47540
                        -----------------------------------------
Magnitude (a.u.)       :      1.10709
Magnitude (Debye)      :      2.81399

                             ****ORCA TERMINATED NORMALLY****
TOTAL RUN TIME: 0 days 0 hours 22 minutes 36 seconds 868 msec
