                         Program Version 3.0.3 - RELEASE   -
|  1> ! RI-MP2 RIJK def2-TZVP def2-TZVP/C def2-TZVP/JK TIGHTSCF
|  2> % maxcore 2000
|  3> % mp2 density relaxed end
|  4> *xyz 0 1
|  5>  C       -0.0238593605     1.5665904409    -0.0345999917
|  6>  C        0.0821127749     0.0547956757    -0.0681773781
|  7>  C        0.6746030974    -0.7642758120    -1.1609731013
|  8>  C        1.3509472931    -0.7354711979     0.2471595104
|  9>  C        2.5487818376    -0.1097866522    -0.3976132801
| 10>  O        3.6775490238     0.0786141134    -0.0354169462
| 11>  C        1.8917115311    -0.0753884857    -1.8073387249
| 12>  C        2.6771385602    -0.9199062992    -2.8098595466
| 13>  H        0.8540212596     2.0612578372    -0.4556142895
| 14>  H       -0.9017318169     1.9033942227    -0.5967860790
| 15>  H       -0.1335827183     1.9163293754     0.9969104968
| 16>  H       -0.7765606367    -0.4339942060     0.3900372529
| 17>  H        0.1624982925    -1.6122910463    -1.5991902383
| 18>  H        1.3701795114    -1.4725551942     1.0411832554
| 19>  H        1.6994078238     0.9188769986    -2.2231778358
| 20>  H        2.8585645790    -1.9282018560    -2.4226705160
| 21>  H        2.1340804481    -1.0118049463    -3.7558322434
| 22>  H        3.6480047902    -0.4596352582    -3.0123352945
| 23> *
| 24>
| 25>                          ****END OF INPUT****

CARTESIAN COORDINATES (ANGSTROEM)
---------------------------------
  C     -0.023859    1.566590   -0.034600
  C      0.082113    0.054796   -0.068177
  C      0.674603   -0.764276   -1.160973
  C      1.350947   -0.735471    0.247160
  C      2.548782   -0.109787   -0.397613
  O      3.677549    0.078614   -0.035417
  C      1.891712   -0.075388   -1.807339
  C      2.677139   -0.919906   -2.809860
  H      0.854021    2.061258   -0.455614
  H     -0.901732    1.903394   -0.596786
  H     -0.133583    1.916329    0.996910
  H     -0.776561   -0.433994    0.390037
  H      0.162498   -1.612291   -1.599190
  H      1.370180   -1.472555    1.041183
  H      1.699408    0.918877   -2.223178
  H      2.858565   -1.928202   -2.422671
  H      2.134080   -1.011805   -3.755832
  H      3.648005   -0.459635   -3.012335

 Total Charge           Charge          ....    0
 Multiplicity           Mult            ....    1
 Number of Electrons    NEL             ....   60
 Basis Dimension        Dim             ....  308

ORBITAL ENERGIES
----------------

  NO   OCC          E(Eh)            E(eV)
   0   2.0000     -20.541323      -558.9578
   1   2.0000     -11.327149      -308.2274
   2   2.0000     -11.260469      -306.4129
   3   2.0000     -11.255894      -306.2885
   4   2.0000     -11.247464      -306.0590
   5   2.0000     -11.246549      -306.0342
   6   2.0000     -11.229360      -305.5664
   7   2.0000     -11.226517      -305.4891
   8   2.0000      -1.385285       -37.6955
   9   2.0000      -1.207483       -32.8573
  10   2.0000      -1.044923       -28.4338
  11   2.0000      -0.982220       -26.7276
  12   2.0000      -0.899071       -24.4650
  13   2.0000      -0.864785       -23.5320
  14   2.0000      -0.769031       -20.9264
  15   2.0000      -0.708208       -19.2713
  16   2.0000      -0.689958       -18.7747
  17   2.0000      -0.648905       -17.6576
  18   2.0000      -0.636884       -17.3305
  19   2.0000      -0.586165       -15.9504
  20   2.0000      -0.575417       -15.6579
  21   2.0000      -0.568393       -15.4667
  22   2.0000      -0.550684       -14.9849
  23   2.0000      -0.535729       -14.5779
  24   2.0000      -0.528623       -14.3846
  25   2.0000      -0.510825       -13.9002
  26   2.0000      -0.480522       -13.0757
  27   2.0000      -0.428075       -11.6485
  28   2.0000      -0.400916       -10.9095
  29   2.0000      -0.387501       -10.5444
  30   0.0000       0.130369         3.5475
  31   0.0000       0.134185         3.6514
  32   0.0000       0.152926         4.1613
  33   0.0000       0.166626         4.5341
  34   0.0000       0.185968         5.0604

MULLIKEN ATOMIC CHARGES
-----------------------
   0 C :   -0.391294
   1 C :   -0.054840
   2 C :   -0.154490
   3 C :   -0.139229
   4 C :    0.097971
   5 O :   -0.268677
   6 C :   -0.018051
   7 C :   -0.445196
   8 H :    0.142101
   9 H :    0.133857
  10 H :    0.139836
  11 H :    0.124921
  12 H :    0.143684
  13 H :    0.147174
  14 H :    0.119221
  15 H :    0.134702
  16 H :    0.137096
  17 H :    0.151214
Sum of atomic charges:   -0.0000000

LOEWDIN ATOMIC CHARGES
----------------------
   0 C :   -0.285243
   1 C :   -0.205146
   2 C :   -0.127968
   3 C :   -0.117405
   4 C :   -0.297213
   5 O :    0.154246
   6 C :   -0.205193
   7 C :   -0.282223
   8 H :    0.128883
   9 H :    0.127583
  10 H :    0.129822
  11 H :    0.160892
  12 H :    0.141896
  13 H :    0.142092
  14 H :    0.148107
  15 H :    0.129361
  16 H :    0.125172
  17 H :    0.132339

  Mayer bond orders larger than 0.1
B(  0-C ,  1-C ) :   0.9148 B(  0-C ,  8-H ) :   0.9341 B(  0-C ,  9-H ) :   0.9349
B(  0-C , 10-H ) :   0.9368 B(  1-C ,  2-C ) :   0.8857 B(  1-C ,  3-C ) :   0.8144
B(  1-C , 11-H ) :   0.9265 B(  2-C ,  3-C ) :   0.8310 B(  2-C ,  6-C ) :   0.8887
B(  2-C , 12-H ) :   0.9207 B(  3-C ,  4-C ) :   0.9221 B(  3-C ,  6-C ) :  -0.1044
B(  3-C , 13-H ) :   0.9129 B(  4-C ,  5-O ) :   2.0308 B(  4-C ,  6-C ) :   0.8786
B(  6-C ,  7-C ) :   0.8679 B(  6-C , 14-H ) :   0.9139 B(  7-C , 15-H ) :   0.9345
B(  7-C , 16-H ) :   0.9392 B(  7-C , 17-H ) :   0.9380

MP2 TOTAL ENERGY:     -347.189120679 Eh
FINAL SINGLE POINT ENERGY      -347.189120678816

DIPOLE MOMENT
-------------
                                X             Y             Z
Electronic contribution:      3.87683      -1.01924       3.30909
Nuclear contribution   :     -5.09045       0.80038      -3.68998
                        -----------------------------------------
Total Dipole Moment    :     -1.21362      -0.21885      -0.38089
                        -----------------------------------------
Magnitude (a.u.)       :      1.29067
Magnitude (Debye)      :      3.28063

                             ****ORCA TERMINATED NORMALLY****
TOTAL RUN TIME: 0 days 0 hours 14 minutes 48 seconds 106 msec
