                         Program Version 3.0.3 - RELEASE   -
|  1> ! RI-MP2 RIJK def2-TZVP def2-TZVP/C def2-TZVP/JK TIGHTSCF
|  2> % maxcore 2000
|  3> % mp2 density relaxed end
|  4> *xyz 0 1
|  5>  C       -0.0745881951     1.5208515721     0.0954986550
|  6>  C       -0.0271853225     0.0295133573     0.0139985140
|  7>  C        0.0614115609    -0.7271636186    -1.0830345676
|  8>  C        0.0665909371    -2.2209322293    -0.7676963391
|  9>  C        1.1889225162    -2.9450574846    -1.3708847986
| 10>  N        2.0555709025    -3.5284353967    -1.8646880288
| 11>  C        0.0753203286    -2.2456367063     0.7681214255
| 12>  N        1.2520697779    -1.5981861060     1.3666984312
| 13>  C       -0.0233960940    -0.8403137668     1.2352412284
| 14>  H        0.7876908323     1.9064143231     0.6529918067
| 15>  H       -0.0747721746     1.9789738212    -0.8965128561
| 16>  H       -0.9719201408     1.8596300058     0.6281364487
| 17>  H        0.1533847755    -0.3647367467    -2.0996156246
| 18>  H       -0.8546831247    -2.6931640985    -1.1374195804
| 19>  H       -0.3989210005    -3.0733606909     1.2819608785
| 20>  H        1.3493433682    -1.9338779380     2.3235393928
| 21>  H       -0.5642241569    -0.5552167572     2.1317741743
| 22> *
| 23>
| 24>                          ****END OF INPUT****

CARTESIAN COORDINATES (ANGSTROEM)
---------------------------------
  C     -0.074588    1.520852    0.095499
  C     -0.027185    0.029513    0.013999
  C      0.061412   -0.727164   -1.083035
  C      0.066591   -2.220932   -0.767696
  C      1.188923   -2.945057   -1.370885
  N      2.055571   -3.528435   -1.864688
  C      0.075320   -2.245637    0.768121
  N      1.252070   -1.598186    1.366698
  C     -0.023396   -0.840314    1.235241
  H      0.787691    1.906414    0.652992
  H     -0.074772    1.978974   -0.896513
  H     -0.971920    1.859630    0.628136
  H      0.153385   -0.364737   -2.099616
  H     -0.854683   -2.693164   -1.137420
  H     -0.398921   -3.073361    1.281961
  H      1.349343   -1.933878    2.323539
  H     -0.564224   -0.555217    2.131774

 Total Charge           Charge          ....    0
 Multiplicity           Mult            ....    1
 Number of Electrons    NEL             ....   64
 Basis Dimension        Dim             ....  327

ORBITAL ENERGIES
----------------

  NO   OCC          E(Eh)            E(eV)
   0   2.0000     -15.579367      -423.9361
   1   2.0000     -15.559678      -423.4004
   2   2.0000     -11.290401      -307.2274
   3   2.0000     -11.286687      -307.1264
   4   2.0000     -11.281522      -306.9858
   5   2.0000     -11.264681      -306.5276
   6   2.0000     -11.256549      -306.3063
   7   2.0000     -11.244163      -305.9692
   8   2.0000     -11.239036      -305.8297
   9   2.0000      -1.295928       -35.2640
  10   2.0000      -1.208752       -32.8918
  11   2.0000      -1.119926       -30.4747
  12   2.0000      -1.046566       -28.4785
  13   2.0000      -0.941598       -25.6222
  14   2.0000      -0.909502       -24.7488
  15   2.0000      -0.830953       -22.6114
  16   2.0000      -0.748239       -20.3606
  17   2.0000      -0.731097       -19.8942
  18   2.0000      -0.694483       -18.8978
  19   2.0000      -0.630113       -17.1462
  20   2.0000      -0.611428       -16.6378
  21   2.0000      -0.586198       -15.9513
  22   2.0000      -0.579792       -15.7769
  23   2.0000      -0.551864       -15.0170
  24   2.0000      -0.540988       -14.7210
  25   2.0000      -0.532329       -14.4854
  26   2.0000      -0.503702       -13.7064
  27   2.0000      -0.495307       -13.4780
  28   2.0000      -0.453982       -12.3535
  29   2.0000      -0.448606       -12.2072
  30   2.0000      -0.404243       -11.0000
  31   2.0000      -0.357999        -9.7416
  32   0.0000       0.121974         3.3191
  33   0.0000       0.129333         3.5193
  34   0.0000       0.138892         3.7794
  35   0.0000       0.156362         4.2548
  36   0.0000       0.170057         4.6275

MULLIKEN ATOMIC CHARGES
-----------------------
   0 C :   -0.437646
   1 C :    0.085445
   2 C :   -0.265078
   3 C :    0.162048
   4 C :   -0.206800
   5 N :   -0.059372
   6 C :   -0.087811
   7 N :   -0.375133
   8 C :   -0.047015
   9 H :    0.152772
  10 H :    0.144495
  11 H :    0.142133
  12 H :    0.144085
  13 H :    0.138208
  14 H :    0.148808
  15 H :    0.220350
  16 H :    0.140510
Sum of atomic charges:    0.0000000

LOEWDIN ATOMIC CHARGES
----------------------
   0 C :   -0.265147
   1 C :   -0.163327
   2 C :   -0.085035
   3 C :   -0.197486
   4 C :   -0.160516
   5 N :    0.061008
   6 C :   -0.202586
   7 N :    0.025944
   8 C :   -0.196691
   9 H :    0.137554
  10 H :    0.133369
  11 H :    0.133195
  12 H :    0.145856
  13 H :    0.180919
  14 H :    0.140070
  15 H :    0.172357
  16 H :    0.140516

  Mayer bond orders larger than 0.1
B(  0-C ,  1-C ) :   0.8815 B(  0-C ,  9-H ) :   0.9268 B(  0-C , 10-H ) :   0.9513
B(  0-C , 11-H ) :   0.9313 B(  1-C ,  2-C ) :   1.7608 B(  1-C ,  8-C ) :   0.9228
B(  2-C ,  3-C ) :   0.9001 B(  2-C , 12-H ) :   0.9100 B(  3-C ,  4-C ) :   0.9095
B(  3-C ,  6-C ) :   0.8815 B(  3-C , 13-H ) :   0.9058 B(  4-C ,  5-N ) :   2.8730
B(  6-C ,  7-N ) :   1.0077 B(  6-C ,  8-C ) :   0.9314 B(  6-C , 14-H ) :   0.9204
B(  7-N ,  8-C ) :   0.9233 B(  7-N , 15-H ) :   0.8653 B(  8-C , 16-H ) :   0.9121

MP2 TOTAL ENERGY:     -380.188555772 Eh
FINAL SINGLE POINT ENERGY      -380.188555772425

DIPOLE MOMENT
-------------
                                X             Y             Z
Electronic contribution:      2.73088      -6.63659      -2.62944
Nuclear contribution   :     -4.33446       7.52923       3.79128
                        -----------------------------------------
Total Dipole Moment    :     -1.60357       0.89264       1.16184
                        -----------------------------------------
Magnitude (a.u.)       :      2.17212
Magnitude (Debye)      :      5.52109

                             ****ORCA TERMINATED NORMALLY****
TOTAL RUN TIME: 0 days 0 hours 16 minutes 47 seconds 241 msec
