                         Program Version 3.0.3 - RELEASE   -
|  1> ! RI-MP2 RIJK def2-TZVP def2-TZVP/C def2-TZVP/JK TIGHTSCF
|  2> % maxcore 2000
|  3> % mp2 density relaxed end
|  4> *xyz 0 1
|  5>  O        0.1694378445     1.3644730282     0.2703067518
|  6>  C        0.0195215907    -0.0161049885     0.0091296041
|  7>  C       -1.4472003748    -0.5343716898    -0.0979533836
|  8>  C       -2.2724518037     0.2964550055    -1.1078163759
|  9>  C       -1.5752595122    -0.5020314255    -2.2330000277
| 10>  C       -0.1434456374     0.0367881281    -2.4947013294
| 11>  C        0.6585637015    -0.5374121739    -1.3040167965
| 12>  C        0.1779098469    -2.0017196418    -1.2911261415
| 13>  C       -1.3085699512    -1.6550054003    -1.1926520665
| 14>  H       -0.2868384813     1.8573332498    -0.4185985578
| 15>  H        0.5105713730    -0.5056888895     0.8571538908
| 16>  H       -1.8938357859    -0.7592753938     0.8717480274
| 17>  H       -3.3378949667     0.0594294619    -1.0368465109
| 18>  H       -2.1717588039     1.3892288749    -1.1060153871
| 19>  H       -2.1390660925    -0.7111823168    -3.1436994716
| 20>  H        0.2575778366    -0.3474212287    -3.4383531510
| 21>  H       -0.1105210407     1.1309480978    -2.5585874881
| 22>  H        1.7362486514    -0.3733263958    -1.3573543008
| 23>  H        0.4338440345    -2.5484072794    -2.2047800343
| 24>  H        0.5501464799    -2.5690543117    -0.4315151206
| 25>  H       -2.0363232187    -2.4650860710    -1.1640370906
| 26> *
| 27>
| 28>                          ****END OF INPUT****

CARTESIAN COORDINATES (ANGSTROEM)
---------------------------------
  O      0.169438    1.364473    0.270307
  C      0.019522   -0.016105    0.009130
  C     -1.447200   -0.534372   -0.097953
  C     -2.272452    0.296455   -1.107816
  C     -1.575260   -0.502031   -2.233000
  C     -0.143446    0.036788   -2.494701
  C      0.658564   -0.537412   -1.304017
  C      0.177910   -2.001720   -1.291126
  C     -1.308570   -1.655005   -1.192652
  H     -0.286838    1.857333   -0.418599
  H      0.510571   -0.505689    0.857154
  H     -1.893836   -0.759275    0.871748
  H     -3.337895    0.059429   -1.036847
  H     -2.171759    1.389229   -1.106015
  H     -2.139066   -0.711182   -3.143699
  H      0.257578   -0.347421   -3.438353
  H     -0.110521    1.130948   -2.558587
  H      1.736249   -0.373326   -1.357354
  H      0.433844   -2.548407   -2.204780
  H      0.550146   -2.569054   -0.431515
  H     -2.036323   -2.465086   -1.164037

 Total Charge           Charge          ....    0
 Multiplicity           Mult            ....    1
 Number of Electrons    NEL             ....   68
 Basis Dimension        Dim             ....  351

ORBITAL ENERGIES
----------------

  NO   OCC          E(Eh)            E(eV)
   0   2.0000     -20.549589      -559.1828
   1   2.0000     -11.272730      -306.7466
   2   2.0000     -11.228481      -305.5425
   3   2.0000     -11.227224      -305.5083
   4   2.0000     -11.224784      -305.4419
   5   2.0000     -11.223211      -305.3991
   6   2.0000     -11.222630      -305.3833
   7   2.0000     -11.222337      -305.3753
   8   2.0000     -11.218316      -305.2659
   9   2.0000      -1.357854       -36.9491
  10   2.0000      -1.187674       -32.3183
  11   2.0000      -1.040500       -28.3134
  12   2.0000      -0.986074       -26.8324
  13   2.0000      -0.948567       -25.8118
  14   2.0000      -0.856879       -23.3169
  15   2.0000      -0.813088       -22.1253
  16   2.0000      -0.772664       -21.0253
  17   2.0000      -0.723125       -19.6772
  18   2.0000      -0.692216       -18.8361
  19   2.0000      -0.661700       -18.0058
  20   2.0000      -0.627595       -17.0777
  21   2.0000      -0.620739       -16.8912
  22   2.0000      -0.571653       -15.5555
  23   2.0000      -0.569286       -15.4911
  24   2.0000      -0.549166       -14.9436
  25   2.0000      -0.529988       -14.4217
  26   2.0000      -0.504085       -13.7169
  27   2.0000      -0.493692       -13.4340
  28   2.0000      -0.468168       -12.7395
  29   2.0000      -0.465806       -12.6752
  30   2.0000      -0.444616       -12.0986
  31   2.0000      -0.422680       -11.5017
  32   2.0000      -0.405092       -11.0231
  33   2.0000      -0.402462       -10.9516
  34   0.0000       0.132443         3.6040
  35   0.0000       0.147650         4.0178
  36   0.0000       0.163039         4.4365
  37   0.0000       0.171489         4.6665
  38   0.0000       0.183479         4.9927

MULLIKEN ATOMIC CHARGES
-----------------------
   0 O :   -0.444231
   1 C :   -0.090542
   2 C :    0.049852
   3 C :   -0.366324
   4 C :    0.031464
   5 C :   -0.396321
   6 C :    0.083006
   7 C :   -0.306228
   8 C :   -0.152650
   9 H :    0.313919
  10 H :    0.101187
  11 H :    0.117205
  12 H :    0.119219
  13 H :    0.103581
  14 H :    0.113757
  15 H :    0.123288
  16 H :    0.121605
  17 H :    0.121041
  18 H :    0.114299
  19 H :    0.120278
  20 H :    0.122596
Sum of atomic charges:    0.0000000

LOEWDIN ATOMIC CHARGES
----------------------
   0 O :   -0.006666
   1 C :   -0.292575
   2 C :   -0.170740
   3 C :   -0.213341
   4 C :   -0.183045
   5 C :   -0.210888
   6 C :   -0.217422
   7 C :   -0.212462
   8 C :   -0.162779
   9 H :    0.165964
  10 H :    0.148182
  11 H :    0.134805
  12 H :    0.139048
  13 H :    0.117774
  14 H :    0.133149
  15 H :    0.140105
  16 H :    0.131913
  17 H :    0.143163
  18 H :    0.137850
  19 H :    0.138678
  20 H :    0.139286

  Mayer bond orders larger than 0.1
B(  0-O ,  1-C ) :   0.9972 B(  0-O ,  9-H ) :   0.8356 B(  1-C ,  2-C ) :   0.9020
B(  1-C ,  6-C ) :   0.8850 B(  1-C , 10-H ) :   0.9319 B(  2-C ,  3-C ) :   0.8643
B(  2-C ,  8-C ) :   0.8458 B(  2-C , 11-H ) :   0.9133 B(  3-C ,  4-C ) :   0.8918
B(  3-C , 12-H ) :   0.9189 B(  3-C , 13-H ) :   0.9312 B(  4-C ,  5-C ) :   0.8999
B(  4-C ,  8-C ) :   0.8733 B(  4-C , 14-H ) :   0.9187 B(  5-C ,  6-C ) :   0.8637
B(  5-C , 15-H ) :   0.9206 B(  5-C , 16-H ) :   0.9444 B(  6-C ,  7-C ) :   0.8906
B(  6-C , 17-H ) :   0.9231 B(  7-C ,  8-C ) :   0.9626 B(  7-C , 18-H ) :   0.9137
B(  7-C , 19-H ) :   0.9250 B(  8-C , 20-H ) :   0.9054

MP2 TOTAL ENERGY:     -386.438009298 Eh
FINAL SINGLE POINT ENERGY      -386.438009298378

DIPOLE MOMENT
-------------
                                X             Y             Z
Electronic contribution:      0.68833       1.18267       2.07215
Nuclear contribution   :     -1.00703      -1.55102      -2.61019
                        -----------------------------------------
Total Dipole Moment    :     -0.31870      -0.36834      -0.53804
                        -----------------------------------------
Magnitude (a.u.)       :      0.72576
Magnitude (Debye)      :      1.84473

                             ****ORCA TERMINATED NORMALLY****
TOTAL RUN TIME: 0 days 0 hours 21 minutes 29 seconds 955 msec
