                         Program Version 3.0.3 - RELEASE   -
|  1> ! RI-MP2 RIJK def2-TZVP def2-TZVP/C def2-TZVP/JK TIGHTSCF
|  2> % maxcore 2000
|  3> % mp2 density relaxed end
|  4> *xyz 0 1
|  5>  C       -0.1458823593     1.2616873314     1.7155285783
|  6>  C       -0.2577061646    -0.2052854568     1.2865564225
|  7>  C       -1.6849444043    -0.7486664222     0.9798587394
|  8>  C       -2.5628258941    -0.6659365780     2.2378493031
|  9>  C       -2.3367255894     0.0398478940    -0.1730870313
| 10>  C       -1.4598736318    -2.1772178587     0.4781566836
| 11>  O       -1.1454990082    -3.2173543487     1.4105438982
| 12>  C       -2.2919577633    -3.3936914372     0.5645204373
| 13>  C       -3.6410795005    -3.5846563455     1.2119312263
| 14>  H        0.9048668216     1.5234853858     1.8756976711
| 15>  H       -0.5380371947     1.9445828486     0.9554601576
| 16>  H       -0.6741911754     1.4640506934     2.6519079189
| 17>  H        0.3597379164    -0.3517056671     0.3905191802
| 18>  H        0.1819694724    -0.8435597616     2.0625620266
| 19>  H       -2.5384244331     0.3441021682     2.6555645900
| 20>  H       -3.6085855795    -0.8894983625     2.0135062228
| 21>  H       -2.2128208645    -1.3627974637     3.0040713704
| 22>  H       -1.7048681714     0.0364124444    -1.0685995891
| 23>  H       -3.3041164096    -0.3958187173    -0.4443607739
| 24>  H       -2.5118589611     1.0826419563     0.1067578998
| 25>  H       -0.7803736295    -2.1725156684    -0.3817030963
| 26>  H       -2.1111779663    -4.1141995030    -0.2391278513
| 27>  H       -3.7634560375    -2.9820763097     2.1094654901
| 28>  H       -4.4423665520    -3.3364404477     0.5068352646
| 29>  H       -3.7642043403    -4.6366309041     1.4914779911
| 30> *
| 31>
| 32>                          ****END OF INPUT****

CARTESIAN COORDINATES (ANGSTROEM)
---------------------------------
  C     -0.145882    1.261687    1.715529
  C     -0.257706   -0.205285    1.286556
  C     -1.684944   -0.748666    0.979859
  C     -2.562826   -0.665937    2.237849
  C     -2.336726    0.039848   -0.173087
  C     -1.459874   -2.177218    0.478157
  O     -1.145499   -3.217354    1.410544
  C     -2.291958   -3.393691    0.564520
  C     -3.641080   -3.584656    1.211931
  H      0.904867    1.523485    1.875698
  H     -0.538037    1.944583    0.955460
  H     -0.674191    1.464051    2.651908
  H      0.359738   -0.351706    0.390519
  H      0.181969   -0.843560    2.062562
  H     -2.538424    0.344102    2.655565
  H     -3.608586   -0.889498    2.013506
  H     -2.212821   -1.362797    3.004071
  H     -1.704868    0.036412   -1.068600
  H     -3.304116   -0.395819   -0.444361
  H     -2.511859    1.082642    0.106758
  H     -0.780374   -2.172516   -0.381703
  H     -2.111178   -4.114200   -0.239128
  H     -3.763456   -2.982076    2.109465
  H     -4.442367   -3.336440    0.506835
  H     -3.764204   -4.636631    1.491478

 Total Charge           Charge          ....    0
 Multiplicity           Mult            ....    1
 Number of Electrons    NEL             ....   72
 Basis Dimension        Dim             ....  375

ORBITAL ENERGIES
----------------

  NO   OCC          E(Eh)            E(eV)
   0   2.0000     -20.555709      -559.3493
   1   2.0000     -11.282780      -307.0200
   2   2.0000     -11.277318      -306.8714
   3   2.0000     -11.241038      -305.8842
   4   2.0000     -11.221918      -305.3639
   5   2.0000     -11.217978      -305.2567
   6   2.0000     -11.216715      -305.2223
   7   2.0000     -11.212178      -305.0989
   8   2.0000     -11.209288      -305.0202
   9   2.0000      -1.399896       -38.0931
  10   2.0000      -1.105524       -30.0828
  11   2.0000      -1.008612       -27.4457
  12   2.0000      -0.993170       -27.0255
  13   2.0000      -0.935667       -25.4608
  14   2.0000      -0.908305       -24.7162
  15   2.0000      -0.860711       -23.4211
  16   2.0000      -0.800576       -21.7848
  17   2.0000      -0.727863       -19.8062
  18   2.0000      -0.688131       -18.7250
  19   2.0000      -0.641492       -17.4559
  20   2.0000      -0.622022       -16.9261
  21   2.0000      -0.606979       -16.5167
  22   2.0000      -0.586111       -15.9489
  23   2.0000      -0.569686       -15.5019
  24   2.0000      -0.557679       -15.1752
  25   2.0000      -0.553419       -15.0593
  26   2.0000      -0.536848       -14.6084
  27   2.0000      -0.526552       -14.3282
  28   2.0000      -0.515944       -14.0396
  29   2.0000      -0.504552       -13.7296
  30   2.0000      -0.490269       -13.3409
  31   2.0000      -0.473312       -12.8795
  32   2.0000      -0.458461       -12.4754
  33   2.0000      -0.456937       -12.4339
  34   2.0000      -0.429323       -11.6825
  35   2.0000      -0.405155       -11.0248
  36   0.0000       0.129370         3.5203
  37   0.0000       0.153726         4.1831
  38   0.0000       0.166115         4.5202
  39   0.0000       0.174570         4.7503
  40   0.0000       0.179763         4.8916

MULLIKEN ATOMIC CHARGES
-----------------------
   0 C :   -0.427767
   1 C :   -0.223262
   2 C :    0.183330
   3 C :   -0.493026
   4 C :   -0.461846
   5 C :    0.000119
   6 O :   -0.346286
   7 C :    0.066260
   8 C :   -0.410647
   9 H :    0.140067
  10 H :    0.129210
  11 H :    0.128567
  12 H :    0.108904
  13 H :    0.134027
  14 H :    0.139959
  15 H :    0.133952
  16 H :    0.158434
  17 H :    0.132089
  18 H :    0.135595
  19 H :    0.141103
  20 H :    0.106726
  21 H :    0.098732
  22 H :    0.154789
  23 H :    0.130199
  24 H :    0.140772
Sum of atomic charges:   -0.0000000

LOEWDIN ATOMIC CHARGES
----------------------
   0 C :   -0.318717
   1 C :   -0.246494
   2 C :   -0.312463
   3 C :   -0.268799
   4 C :   -0.265078
   5 C :   -0.239319
   6 O :    0.156851
   7 C :   -0.286270
   8 C :   -0.298365
   9 H :    0.123985
  10 H :    0.119761
  11 H :    0.119054
  12 H :    0.140321
  13 H :    0.146412
  14 H :    0.125629
  15 H :    0.123844
  16 H :    0.131322
  17 H :    0.126864
  18 H :    0.126436
  19 H :    0.126216
  20 H :    0.144070
  21 H :    0.136670
  22 H :    0.128529
  23 H :    0.129954
  24 H :    0.129588

  Mayer bond orders larger than 0.1
B(  0-C ,  1-C ) :   0.9068 B(  0-C ,  9-H ) :   0.9425 B(  0-C , 10-H ) :   0.9405
B(  0-C , 11-H ) :   0.9407 B(  1-C ,  2-C ) :   0.9064 B(  1-C , 12-H ) :   0.9267
B(  1-C , 13-H ) :   0.9326 B(  2-C ,  3-C ) :   0.8763 B(  2-C ,  4-C ) :   0.9033
B(  2-C ,  5-C ) :   0.8870 B(  3-C , 14-H ) :   0.9379 B(  3-C , 15-H ) :   0.9365
B(  3-C , 16-H ) :   0.9356 B(  4-C , 17-H ) :   0.9325 B(  4-C , 18-H ) :   0.9367
B(  4-C , 19-H ) :   0.9365 B(  5-C ,  6-O ) :   0.8788 B(  5-C ,  7-C ) :   0.9864
B(  5-C , 20-H ) :   0.9126 B(  6-O ,  7-C ) :   0.9046 B(  7-C ,  8-C ) :   0.8720
B(  7-C , 21-H ) :   0.9149 B(  8-C , 22-H ) :   0.9455 B(  8-C , 23-H ) :   0.9255
B(  8-C , 24-H ) :   0.9358

MP2 TOTAL ENERGY:     -388.804851212 Eh
FINAL SINGLE POINT ENERGY      -388.804851212108

DIPOLE MOMENT
-------------
                                X             Y             Z
Electronic contribution:      2.19531      -6.96777      -0.59603
Nuclear contribution   :     -2.64478       7.27355       0.19811
                        -----------------------------------------
Total Dipole Moment    :     -0.44947       0.30577      -0.39791
                        -----------------------------------------
Magnitude (a.u.)       :      0.67369
Magnitude (Debye)      :      1.71239

                             ****ORCA TERMINATED NORMALLY****
TOTAL RUN TIME: 0 days 0 hours 22 minutes 35 seconds 382 msec
