                         Program Version 3.0.3 - RELEASE   -
|  1> ! RI-MP2 RIJK def2-TZVP def2-TZVP/C def2-TZVP/JK TIGHTSCF
|  2> % maxcore 2000
|  3> % mp2 density relaxed end
|  4> *xyz 0 1
|  5>  C       -0.0474377025     1.5081824948     0.0533896973
|  6>  C       -0.0812925703     0.0174945631    -0.0207289594
|  7>  C       -0.0752743374    -0.7628976876    -1.1060800343
|  8>  C       -0.0013745856    -2.2066910696    -0.7302790402
|  9>  N        1.2565364056    -2.5397808867     0.0152451596
| 10>  C       -0.0014007724    -2.2573938980     0.7466953581
| 11>  C       -0.0120504757    -0.8159956429     1.2648557346
| 12>  O        1.1351860674    -0.5067118568     2.0413602400
| 13>  H        0.8181812139     1.8345139719     0.6406037485
| 14>  H        0.0051490165     1.9670642021    -0.9373121476
| 15>  H       -0.9360411777     1.8980305529     0.5671135565
| 16>  H       -0.0685428161    -0.4151103412    -2.1331059692
| 17>  H       -0.4528299527    -2.9798195379    -1.3422430076
| 18>  H        1.3989149626    -3.5484538776    -0.0033684455
| 19>  H       -0.4709739875    -3.0515142732     1.3154323496
| 20>  H       -0.8732142077    -0.6256397374     1.9171473473
| 21>  H        1.8729156096    -0.8940096861     1.5478259323
| 22> *
| 23>
| 24>                          ****END OF INPUT****

CARTESIAN COORDINATES (ANGSTROEM)
---------------------------------
  C     -0.047438    1.508182    0.053390
  C     -0.081293    0.017495   -0.020729
  C     -0.075274   -0.762898   -1.106080
  C     -0.001375   -2.206691   -0.730279
  N      1.256536   -2.539781    0.015245
  C     -0.001401   -2.257394    0.746695
  C     -0.012050   -0.815996    1.264856
  O      1.135186   -0.506712    2.041360
  H      0.818181    1.834514    0.640604
  H      0.005149    1.967064   -0.937312
  H     -0.936041    1.898031    0.567114
  H     -0.068543   -0.415110   -2.133106
  H     -0.452830   -2.979820   -1.342243
  H      1.398915   -3.548454   -0.003368
  H     -0.470974   -3.051514    1.315432
  H     -0.873214   -0.625640    1.917147
  H      1.872916   -0.894010    1.547826

 Total Charge           Charge          ....    0
 Multiplicity           Mult            ....    1
 Number of Electrons    NEL             ....   60
 Basis Dimension        Dim             ....  302

ORBITAL ENERGIES
----------------

  NO   OCC          E(Eh)            E(eV)
   0   2.0000     -20.546143      -559.0890
   1   2.0000     -15.568042      -423.6280
   2   2.0000     -11.283426      -307.0376
   3   2.0000     -11.268497      -306.6314
   4   2.0000     -11.261050      -306.4288
   5   2.0000     -11.234124      -305.6960
   6   2.0000     -11.224595      -305.4368
   7   2.0000     -11.219456      -305.2969
   8   2.0000      -1.357633       -36.9431
   9   2.0000      -1.270013       -34.5588
  10   2.0000      -1.093605       -29.7585
  11   2.0000      -0.970548       -26.4100
  12   2.0000      -0.948360       -25.8062
  13   2.0000      -0.863263       -23.4906
  14   2.0000      -0.794254       -21.6128
  15   2.0000      -0.743651       -20.2358
  16   2.0000      -0.708499       -19.2792
  17   2.0000      -0.662322       -18.0227
  18   2.0000      -0.617023       -16.7900
  19   2.0000      -0.597711       -16.2645
  20   2.0000      -0.594640       -16.1810
  21   2.0000      -0.559566       -15.2266
  22   2.0000      -0.542468       -14.7613
  23   2.0000      -0.522820       -14.2267
  24   2.0000      -0.506898       -13.7934
  25   2.0000      -0.486638       -13.2421
  26   2.0000      -0.477151       -12.9839
  27   2.0000      -0.437571       -11.9069
  28   2.0000      -0.395198       -10.7539
  29   2.0000      -0.340286        -9.2597
  30   0.0000       0.135432         3.6853
  31   0.0000       0.140596         3.8258
  32   0.0000       0.155167         4.2223
  33   0.0000       0.173196         4.7129
  34   0.0000       0.181685         4.9439

MULLIKEN ATOMIC CHARGES
-----------------------
   0 C :   -0.432828
   1 C :   -0.031964
   2 C :   -0.188989
   3 C :    0.020446
   4 N :   -0.424124
   5 C :   -0.105293
   6 C :    0.158356
   7 O :   -0.474807
   8 H :    0.156995
   9 H :    0.134152
  10 H :    0.135457
  11 H :    0.132421
  12 H :    0.136758
  13 H :    0.217657
  14 H :    0.138023
  15 H :    0.099088
  16 H :    0.328651
Sum of atomic charges:    0.0000000

LOEWDIN ATOMIC CHARGES
----------------------
   0 C :   -0.272607
   1 C :   -0.159450
   2 C :   -0.120048
   3 C :   -0.227406
   4 N :   -0.007342
   5 C :   -0.225119
   6 C :   -0.277215
   7 O :   -0.016799
   8 H :    0.138000
   9 H :    0.129114
  10 H :    0.132546
  11 H :    0.139572
  12 H :    0.137074
  13 H :    0.167457
  14 H :    0.135052
  15 H :    0.146439
  16 H :    0.180733

  Mayer bond orders larger than 0.1
B(  0-C ,  1-C ) :   0.9080 B(  0-C ,  8-H ) :   0.9255 B(  0-C ,  9-H ) :   0.9453
B(  0-C , 10-H ) :   0.9287 B(  1-C ,  2-C ) :   1.7578 B(  1-C ,  6-C ) :   0.9401
B(  2-C ,  3-C ) :   0.9275 B(  2-C , 11-H ) :   0.9204 B(  3-C ,  4-N ) :   0.8641
B(  3-C ,  5-C ) :   0.9400 B(  3-C , 12-H ) :   0.9194 B(  4-N ,  5-C ) :   0.9512
B(  4-N , 13-H ) :   0.8697 B(  5-C ,  6-C ) :   0.9203 B(  5-C , 14-H ) :   0.9224
B(  6-C ,  7-O ) :   0.9555 B(  6-C , 15-H ) :   0.9298 B(  7-O , 16-H ) :   0.8191

MP2 TOTAL ENERGY:     -363.227039820 Eh
FINAL SINGLE POINT ENERGY      -363.227039820258

DIPOLE MOMENT
-------------
                                X             Y             Z
Electronic contribution:      0.88367      -3.05339       0.75076
Nuclear contribution   :     -1.38522       2.42773      -1.30900
                        -----------------------------------------
Total Dipole Moment    :     -0.50155      -0.62566      -0.55823
                        -----------------------------------------
Magnitude (a.u.)       :      0.97705
Magnitude (Debye)      :      2.48347

                             ****ORCA TERMINATED NORMALLY****
TOTAL RUN TIME: 0 days 0 hours 12 minutes 29 seconds 931 msec
