                         Program Version 3.0.3 - RELEASE   -
|  1> ! RI-MP2 RIJK def2-TZVP def2-TZVP/C def2-TZVP/JK TIGHTSCF
|  2> % maxcore 2000
|  3> % mp2 density relaxed end
|  4> *xyz 0 1
|  5>  C       -0.1421524261     1.5123946090    -0.0023340475
|  6>  C        0.0815043123     0.0006226518     0.0315870886
|  7>  C        1.0992023612    -0.5911757144    -0.9756248574
|  8>  C        2.4278903543     0.1048944100    -0.6140276704
|  9>  C        2.2630279543    -0.7516590350     0.6382179938
| 10>  N        1.6253318239    -1.8432432121    -0.2237089088
| 11>  C        0.6731064544    -2.0980882809     0.9081567219
| 12>  C        0.8058945974    -0.6042181031     1.2697623520
| 13>  C        0.5276431550    -0.0561046787     2.6493194329
| 14>  H        0.7490821631     2.0848535120     0.2672219009
| 15>  H       -0.4550665444     1.8365560248    -1.0013409696
| 16>  H       -0.9348893367     1.7992086529     0.6965085611
| 17>  H       -0.8962243802    -0.4804134146    -0.0920363316
| 18>  H        0.7809696939    -0.7424387674    -2.0073270161
| 19>  H        3.2544840011    -0.2754598570    -1.2182903931
| 20>  H        2.4711516410     1.1919744529    -0.5521198531
| 21>  H        3.0807677400    -1.0352259165     1.3040471574
| 22>  H       -0.3144452338    -2.4933111553     0.6448658874
| 23>  H        1.1621233319    -2.7753370962     1.6161361064
| 24>  H        1.1197897467    -0.5776286784     3.4092282506
| 25>  H        0.7650189550     1.0110786284     2.7184553528
| 26>  H       -0.5294668643    -0.1760483322     2.9154845415
| 27> *
| 28>
| 29>                          ****END OF INPUT****

CARTESIAN COORDINATES (ANGSTROEM)
---------------------------------
  C     -0.142152    1.512395   -0.002334
  C      0.081504    0.000623    0.031587
  C      1.099202   -0.591176   -0.975625
  C      2.427890    0.104894   -0.614028
  C      2.263028   -0.751659    0.638218
  N      1.625332   -1.843243   -0.223709
  C      0.673106   -2.098088    0.908157
  C      0.805895   -0.604218    1.269762
  C      0.527643   -0.056105    2.649319
  H      0.749082    2.084854    0.267222
  H     -0.455067    1.836556   -1.001341
  H     -0.934889    1.799209    0.696509
  H     -0.896224   -0.480413   -0.092036
  H      0.780970   -0.742439   -2.007327
  H      3.254484   -0.275460   -1.218290
  H      2.471152    1.191974   -0.552120
  H      3.080768   -1.035226    1.304047
  H     -0.314445   -2.493311    0.644866
  H      1.162123   -2.775337    1.616136
  H      1.119790   -0.577629    3.409228
  H      0.765019    1.011079    2.718455
  H     -0.529467   -0.176048    2.915485

 Total Charge           Charge          ....    0
 Multiplicity           Mult            ....    1
 Number of Electrons    NEL             ....   68
 Basis Dimension        Dim             ....  357

ORBITAL ENERGIES
----------------

  NO   OCC          E(Eh)            E(eV)
   0   2.0000     -15.545042      -423.0021
   1   2.0000     -11.255857      -306.2874
   2   2.0000     -11.255025      -306.2648
   3   2.0000     -11.241160      -305.8875
   4   2.0000     -11.237413      -305.7856
   5   2.0000     -11.227857      -305.5255
   6   2.0000     -11.219946      -305.3103
   7   2.0000     -11.218163      -305.2617
   8   2.0000     -11.217354      -305.2397
   9   2.0000      -1.284742       -34.9596
  10   2.0000      -1.054529       -28.6952
  11   2.0000      -1.039165       -28.2771
  12   2.0000      -0.979934       -26.6654
  13   2.0000      -0.903706       -24.5911
  14   2.0000      -0.890892       -24.2424
  15   2.0000      -0.841125       -22.8882
  16   2.0000      -0.729894       -19.8614
  17   2.0000      -0.719354       -19.5746
  18   2.0000      -0.659973       -17.9588
  19   2.0000      -0.644483       -17.5373
  20   2.0000      -0.612653       -16.6711
  21   2.0000      -0.605845       -16.4859
  22   2.0000      -0.565752       -15.3949
  23   2.0000      -0.564876       -15.3711
  24   2.0000      -0.543281       -14.7834
  25   2.0000      -0.540805       -14.7161
  26   2.0000      -0.505365       -13.7517
  27   2.0000      -0.488825       -13.3016
  28   2.0000      -0.468778       -12.7561
  29   2.0000      -0.450826       -12.2676
  30   2.0000      -0.441935       -12.0257
  31   2.0000      -0.422901       -11.5077
  32   2.0000      -0.417549       -11.3621
  33   2.0000      -0.360464        -9.8087
  34   0.0000       0.130038         3.5385
  35   0.0000       0.156102         4.2477
  36   0.0000       0.163100         4.4382
  37   0.0000       0.171118         4.6563
  38   0.0000       0.189581         5.1588

MULLIKEN ATOMIC CHARGES
-----------------------
   0 C :   -0.443521
   1 C :   -0.105059
   2 C :    0.006154
   3 C :   -0.250639
   4 C :   -0.131427
   5 N :   -0.200852
   6 C :   -0.168487
   7 C :    0.078223
   8 C :   -0.408040
   9 H :    0.129301
  10 H :    0.141171
  11 H :    0.138524
  12 H :    0.097867
  13 H :    0.125303
  14 H :    0.120107
  15 H :    0.122529
  16 H :    0.119709
  17 H :    0.109175
  18 H :    0.113658
  19 H :    0.135719
  20 H :    0.136119
  21 H :    0.134467
Sum of atomic charges:   -0.0000000

LOEWDIN ATOMIC CHARGES
----------------------
   0 C :   -0.290918
   1 C :   -0.215551
   2 C :   -0.190366
   3 C :   -0.214558
   4 C :   -0.170133
   5 N :    0.122525
   6 C :   -0.227577
   7 C :   -0.233822
   8 C :   -0.278921
   9 H :    0.121990
  10 H :    0.127873
  11 H :    0.125380
  12 H :    0.153206
  13 H :    0.129223
  14 H :    0.144742
  15 H :    0.125013
  16 H :    0.131596
  17 H :    0.120466
  18 H :    0.133733
  19 H :    0.127844
  20 H :    0.128146
  21 H :    0.130110

  Mayer bond orders larger than 0.1
B(  0-C ,  1-C ) :   0.8857 B(  0-C ,  9-H ) :   0.9379 B(  0-C , 10-H ) :   0.9389
B(  0-C , 11-H ) :   0.9407 B(  1-C ,  2-C ) :   0.9392 B(  1-C ,  7-C ) :   0.8796
B(  1-C , 12-H ) :   0.9282 B(  2-C ,  3-C ) :   0.9191 B(  2-C ,  5-N ) :   0.9328
B(  2-C , 13-H ) :   0.9069 B(  3-C ,  4-C ) :   0.9711 B(  3-C , 14-H ) :   0.9069
B(  3-C , 15-H ) :   0.9283 B(  4-C ,  5-N ) :   0.9408 B(  4-C ,  7-C ) :   0.9012
B(  4-C , 16-H ) :   0.8984 B(  5-N ,  6-C ) :   0.9427 B(  6-C ,  7-C ) :   0.9225
B(  6-C , 17-H ) :   0.9173 B(  6-C , 18-H ) :   0.9256 B(  7-C ,  8-C ) :   0.8450
B(  8-C , 19-H ) :   0.9436 B(  8-C , 20-H ) :   0.9375 B(  8-C , 21-H ) :   0.9398

MP2 TOTAL ENERGY:     -366.513631561 Eh
FINAL SINGLE POINT ENERGY      -366.513631561333

DIPOLE MOMENT
-------------
                                X             Y             Z
Electronic contribution:      2.52779      -4.39635      -2.59336
Nuclear contribution   :     -2.85283       4.97108       2.95799
                        -----------------------------------------
Total Dipole Moment    :     -0.32504       0.57473       0.36463
                        -----------------------------------------
Magnitude (a.u.)       :      0.75427
Magnitude (Debye)      :      1.91719

                             ****ORCA TERMINATED NORMALLY****
TOTAL RUN TIME: 0 days 0 hours 24 minutes 19 seconds 775 msec
