                         Program Version 3.0.3 - RELEASE   -
|  1> ! RI-MP2 RIJK def2-TZVP def2-TZVP/C def2-TZVP/JK TIGHTSCF
|  2> % maxcore 2000
|  3> % mp2 density relaxed end
|  4> *xyz 0 1
|  5>  C        0.0777981380     1.3743223035    -0.3471039924
|  6>  C        0.1274680996    -0.0960121082     0.0074707476
|  7>  C        1.4612116025    -0.7981074686    -0.0351545522
|  8>  C        0.7890007843    -0.5245155433     1.3104595818
|  9>  C        1.3426427384     0.4382483272     2.2182281530
| 10>  N        1.7901317460     1.2202063595     2.9447187118
| 11>  N       -1.1208791900    -0.7480205310    -0.3152986484
| 12>  C       -1.2868145445    -1.2721762895    -1.6695161674
| 13>  C       -1.2018518884    -2.1901988848    -0.5005345213
| 14>  H        0.9743900713     1.8993266892    -0.0107293398
| 15>  H       -0.0064641793     1.4958974540    -1.4319656738
| 16>  H       -0.7944808151     1.8419175397     0.1173620109
| 17>  H        1.5330490176    -1.8375314431    -0.3335570548
| 18>  H        2.3327611535    -0.2029797461    -0.2820373662
| 19>  H        0.3392420453    -1.3838636137     1.7970961314
| 20>  H       -2.2397942059    -1.0616186470    -2.1453245291
| 21>  H       -0.4236049084    -1.2470346227    -2.3323698684
| 22>  H       -0.3038395423    -2.7971894862    -0.4129342508
| 23>  H       -2.0964403428    -2.6534156789    -0.0947283318
| 24> *
| 25>
| 26>                          ****END OF INPUT****

CARTESIAN COORDINATES (ANGSTROEM)
---------------------------------
  C      0.077798    1.374322   -0.347104
  C      0.127468   -0.096012    0.007471
  C      1.461212   -0.798107   -0.035155
  C      0.789001   -0.524516    1.310460
  C      1.342643    0.438248    2.218228
  N      1.790132    1.220206    2.944719
  N     -1.120879   -0.748021   -0.315299
  C     -1.286815   -1.272176   -1.669516
  C     -1.201852   -2.190199   -0.500535
  H      0.974390    1.899327   -0.010729
  H     -0.006464    1.495897   -1.431966
  H     -0.794481    1.841918    0.117362
  H      1.533049   -1.837531   -0.333557
  H      2.332761   -0.202980   -0.282037
  H      0.339242   -1.383864    1.797096
  H     -2.239794   -1.061619   -2.145325
  H     -0.423605   -1.247035   -2.332370
  H     -0.303840   -2.797189   -0.412934
  H     -2.096440   -2.653416   -0.094728

 Total Charge           Charge          ....    0
 Multiplicity           Mult            ....    1
 Number of Electrons    NEL             ....   66
 Basis Dimension        Dim             ....  339

ORBITAL ENERGIES
----------------

  NO   OCC          E(Eh)            E(eV)
   0   2.0000     -15.580673      -423.9717
   1   2.0000     -15.563251      -423.4976
   2   2.0000     -11.301746      -307.5361
   3   2.0000     -11.280328      -306.9533
   4   2.0000     -11.273712      -306.7733
   5   2.0000     -11.271505      -306.7132
   6   2.0000     -11.270371      -306.6824
   7   2.0000     -11.259285      -306.3807
   8   2.0000     -11.229437      -305.5685
   9   2.0000      -1.301241       -35.4086
  10   2.0000      -1.217037       -33.1173
  11   2.0000      -1.169191       -31.8153
  12   2.0000      -1.004535       -27.3348
  13   2.0000      -0.926237       -25.2042
  14   2.0000      -0.908532       -24.7224
  15   2.0000      -0.860460       -23.4143
  16   2.0000      -0.780504       -21.2386
  17   2.0000      -0.725559       -19.7435
  18   2.0000      -0.706632       -19.2284
  19   2.0000      -0.678180       -18.4542
  20   2.0000      -0.601102       -16.3568
  21   2.0000      -0.584357       -15.9012
  22   2.0000      -0.579193       -15.7607
  23   2.0000      -0.567641       -15.4463
  24   2.0000      -0.548803       -14.9337
  25   2.0000      -0.542432       -14.7603
  26   2.0000      -0.523941       -14.2572
  27   2.0000      -0.493140       -13.4190
  28   2.0000      -0.491946       -13.3865
  29   2.0000      -0.478726       -13.0268
  30   2.0000      -0.448480       -12.2038
  31   2.0000      -0.408470       -11.1150
  32   2.0000      -0.377720       -10.2783
  33   0.0000       0.130909         3.5622
  34   0.0000       0.139452         3.7947
  35   0.0000       0.150741         4.1019
  36   0.0000       0.164386         4.4732
  37   0.0000       0.182391         4.9631

MULLIKEN ATOMIC CHARGES
-----------------------
   0 C :   -0.430699
   1 C :    0.128279
   2 C :   -0.284215
   3 C :    0.011518
   4 C :   -0.231378
   5 N :   -0.054745
   6 N :   -0.202258
   7 C :   -0.171271
   8 C :   -0.196637
   9 H :    0.146396
  10 H :    0.137806
  11 H :    0.152024
  12 H :    0.146865
  13 H :    0.152907
  14 H :    0.161821
  15 H :    0.140049
  16 H :    0.130636
  17 H :    0.123402
  18 H :    0.139501
Sum of atomic charges:   -0.0000000

LOEWDIN ATOMIC CHARGES
----------------------
   0 C :   -0.248312
   1 C :   -0.294163
   2 C :   -0.164434
   3 C :   -0.171899
   4 C :   -0.179550
   5 N :    0.059108
   6 N :    0.147058
   7 C :   -0.250598
   8 C :   -0.261933
   9 H :    0.136039
  10 H :    0.130863
  11 H :    0.137092
  12 H :    0.136838
  13 H :    0.145588
  14 H :    0.174648
  15 H :    0.126452
  16 H :    0.126896
  17 H :    0.122486
  18 H :    0.127822

  Mayer bond orders larger than 0.1
B(  0-C ,  1-C ) :   0.9465 B(  0-C ,  9-H ) :   0.9269 B(  0-C , 10-H ) :   0.9281
B(  0-C , 11-H ) :   0.9357 B(  1-C ,  2-C ) :   0.8975 B(  1-C ,  3-C ) :   0.8001
B(  1-C ,  6-N ) :   0.9079 B(  2-C ,  3-C ) :   0.8067 B(  2-C , 12-H ) :   0.9201
B(  2-C , 13-H ) :   0.9172 B(  3-C ,  4-C ) :   0.9929 B(  3-C , 14-H ) :   0.9034
B(  4-C ,  5-N ) :   2.8558 B(  6-N ,  7-C ) :   0.8728 B(  6-N ,  8-C ) :   0.8778
B(  7-C ,  8-C ) :   0.9339 B(  7-C , 15-H ) :   0.9262 B(  7-C , 16-H ) :   0.9208
B(  8-C , 17-H ) :   0.9253 B(  8-C , 18-H ) :   0.9268

MP2 TOTAL ENERGY:     -381.360637988 Eh
FINAL SINGLE POINT ENERGY      -381.360637988301

DIPOLE MOMENT
-------------
                                X             Y             Z
Electronic contribution:      2.14559       1.60857       6.65299
Nuclear contribution   :     -2.51594      -2.79042      -8.14022
                        -----------------------------------------
Total Dipole Moment    :     -0.37035      -1.18185      -1.48722
                        -----------------------------------------
Magnitude (a.u.)       :      1.93540
Magnitude (Debye)      :      4.91938

                             ****ORCA TERMINATED NORMALLY****
TOTAL RUN TIME: 0 days 0 hours 18 minutes 30 seconds 669 msec
