                         Program Version 3.0.3 - RELEASE   -
|  1> ! RI-MP2 RIJK def2-TZVP def2-TZVP/C def2-TZVP/JK TIGHTSCF
|  2> % maxcore 2000
|  3> % mp2 density relaxed end
|  4> *xyz 0 1
|  5>  C       -0.1085014135     1.5165493774     0.0717727267
|  6>  C        0.1753262309     0.0514732842     0.0009578187
|  7>  C        0.6997558510    -0.7590821159    -1.2044086017
|  8>  C        1.3063947066    -1.7534896368    -0.1851415459
|  9>  C        1.4138607122    -3.2447116902    -0.2615029588
| 10>  C        2.6632295018    -2.3888953521    -0.2593175320
| 11>  C        0.7603045150    -0.9118551382     0.9605293713
| 12>  C        1.2702737466    -0.7850079930     2.3583370991
| 13>  O       -0.6682179086    -0.8430718906     0.7481486271
| 14>  H        0.7329387615     2.0957380764    -0.3222721552
| 15>  H       -0.9957792283     1.7678605094    -0.5209314270
| 16>  H       -0.2956895024     1.8251218098     1.1038740597
| 17>  H       -0.0777287057    -1.1440447380    -1.8701006242
| 18>  H        1.4589791424    -0.2291753696    -1.7876544857
| 19>  H        1.1876428405    -3.8249322302     0.6273669810
| 20>  H        1.1280223806    -3.7269082659    -1.1906591273
| 21>  H        3.2231103073    -2.2926685410    -1.1843250005
| 22>  H        3.2814615958    -2.3936470293     0.6332390816
| 23>  H        2.3459461663    -0.5820423514     2.3648966230
| 24>  H        0.7567926135     0.0262753230     2.8808414874
| 25>  H        1.0970634864    -1.7088285480     2.9228498425
| 26> *
| 27>
| 28>                          ****END OF INPUT****

CARTESIAN COORDINATES (ANGSTROEM)
---------------------------------
  C     -0.108501    1.516549    0.071773
  C      0.175326    0.051473    0.000958
  C      0.699756   -0.759082   -1.204409
  C      1.306395   -1.753490   -0.185142
  C      1.413861   -3.244712   -0.261503
  C      2.663230   -2.388895   -0.259318
  C      0.760305   -0.911855    0.960529
  C      1.270274   -0.785008    2.358337
  O     -0.668218   -0.843072    0.748149
  H      0.732939    2.095738   -0.322272
  H     -0.995779    1.767861   -0.520931
  H     -0.295690    1.825122    1.103874
  H     -0.077729   -1.144045   -1.870101
  H      1.458979   -0.229175   -1.787654
  H      1.187643   -3.824932    0.627367
  H      1.128022   -3.726908   -1.190659
  H      3.223110   -2.292669   -1.184325
  H      3.281462   -2.393647    0.633239
  H      2.345946   -0.582042    2.364897
  H      0.756793    0.026275    2.880841
  H      1.097063   -1.708829    2.922850

 Total Charge           Charge          ....    0
 Multiplicity           Mult            ....    1
 Number of Electrons    NEL             ....   68
 Basis Dimension        Dim             ....  351

ORBITAL ENERGIES
----------------

  NO   OCC          E(Eh)            E(eV)
   0   2.0000     -20.550732      -559.2139
   1   2.0000     -11.282619      -307.0157
   2   2.0000     -11.281811      -306.9937
   3   2.0000     -11.239128      -305.8322
   4   2.0000     -11.227330      -305.5112
   5   2.0000     -11.227212      -305.5080
   6   2.0000     -11.226232      -305.4813
   7   2.0000     -11.225161      -305.4522
   8   2.0000     -11.223023      -305.3940
   9   2.0000      -1.403805       -38.1995
  10   2.0000      -1.149827       -31.2884
  11   2.0000      -1.040495       -28.3133
  12   2.0000      -1.006004       -27.3748
  13   2.0000      -0.978176       -26.6175
  14   2.0000      -0.846339       -23.0301
  15   2.0000      -0.824999       -22.4494
  16   2.0000      -0.780423       -21.2364
  17   2.0000      -0.700216       -19.0539
  18   2.0000      -0.674675       -18.3588
  19   2.0000      -0.653299       -17.7772
  20   2.0000      -0.611565       -16.6415
  21   2.0000      -0.597485       -16.2584
  22   2.0000      -0.594401       -16.1745
  23   2.0000      -0.569564       -15.4986
  24   2.0000      -0.557797       -15.1784
  25   2.0000      -0.554676       -15.0935
  26   2.0000      -0.518835       -14.1182
  27   2.0000      -0.513116       -13.9626
  28   2.0000      -0.505759       -13.7624
  29   2.0000      -0.476555       -12.9677
  30   2.0000      -0.438061       -11.9202
  31   2.0000      -0.412034       -11.2120
  32   2.0000      -0.407773       -11.0961
  33   2.0000      -0.368904       -10.0384
  34   0.0000       0.133700         3.6382
  35   0.0000       0.154282         4.1982
  36   0.0000       0.163664         4.4535
  37   0.0000       0.172675         4.6987
  38   0.0000       0.194330         5.2880

MULLIKEN ATOMIC CHARGES
-----------------------
   0 C :   -0.417582
   1 C :    0.113689
   2 C :   -0.144966
   3 C :    0.031388
   4 C :   -0.289036
   5 C :   -0.313312
   6 C :    0.189360
   7 C :   -0.425868
   8 O :   -0.335039
   9 H :    0.133178
  10 H :    0.141523
  11 H :    0.141522
  12 H :    0.113083
  13 H :    0.113168
  14 H :    0.132389
  15 H :    0.128768
  16 H :    0.128763
  17 H :    0.128486
  18 H :    0.139208
  19 H :    0.146674
  20 H :    0.144606
Sum of atomic charges:   -0.0000000

LOEWDIN ATOMIC CHARGES
----------------------
   0 C :   -0.272516
   1 C :   -0.277114
   2 C :   -0.148896
   3 C :   -0.188196
   4 C :   -0.203087
   5 C :   -0.205256
   6 C :   -0.247292
   7 C :   -0.267412
   8 O :    0.197607
   9 H :    0.132170
  10 H :    0.133545
  11 H :    0.133978
  12 H :    0.134667
  13 H :    0.138225
  14 H :    0.135263
  15 H :    0.134952
  16 H :    0.132966
  17 H :    0.132887
  18 H :    0.133333
  19 H :    0.135908
  20 H :    0.134269

  Mayer bond orders larger than 0.1
B(  0-C ,  1-C ) :   0.8671 B(  0-C ,  9-H ) :   0.9354 B(  0-C , 10-H ) :   0.9402
B(  0-C , 11-H ) :   0.9410 B(  1-C ,  2-C ) :   0.9151 B(  1-C ,  6-C ) :   0.9065
B(  1-C ,  8-O ) :   0.8769 B(  2-C ,  3-C ) :   0.9308 B(  2-C , 12-H ) :   0.8917
B(  2-C , 13-H ) :   0.8999 B(  3-C ,  4-C ) :   0.8367 B(  3-C ,  5-C ) :   0.8500
B(  3-C ,  6-C ) :   0.8899 B(  4-C ,  5-C ) :   0.9284 B(  4-C , 14-H ) :   0.9268
B(  4-C , 15-H ) :   0.9264 B(  5-C , 16-H ) :   0.9180 B(  5-C , 17-H ) :   0.9222
B(  6-C ,  7-C ) :   0.8346 B(  6-C ,  8-O ) :   0.8863 B(  7-C , 18-H ) :   0.9421
B(  7-C , 19-H ) :   0.9417 B(  7-C , 20-H ) :   0.9418

MP2 TOTAL ENERGY:     -386.370431394 Eh
FINAL SINGLE POINT ENERGY      -386.370431393646

DIPOLE MOMENT
-------------
                                X             Y             Z
Electronic contribution:     -3.07408      -1.27241      -0.49650
Nuclear contribution   :      3.76140       1.60907       0.40589
                        -----------------------------------------
Total Dipole Moment    :      0.68732       0.33666      -0.09061
                        -----------------------------------------
Magnitude (a.u.)       :      0.77068
Magnitude (Debye)      :      1.95892

                             ****ORCA TERMINATED NORMALLY****
TOTAL RUN TIME: 0 days 0 hours 18 minutes 34 seconds 853 msec
