                         Program Version 3.0.3 - RELEASE   -
|  1> ! RI-MP2 RIJK def2-TZVP def2-TZVP/C def2-TZVP/JK TIGHTSCF
|  2> % maxcore 2000
|  3> % mp2 density relaxed end
|  4> *xyz 0 1
|  5>  C       -0.4762867358     1.3957221743     0.4603147033
|  6>  O       -0.3196159202    -0.0298441394     0.4607495409
|  7>  C        0.9443603210    -0.4727968328     0.5757977828
|  8>  O        1.9066083252     0.2555946155     0.6475718589
|  9>  C        0.9868463835    -1.9834897482     0.6384707175
| 10>  C        2.3092029596    -2.6927499415     0.2580676040
| 11>  C        2.3344363504    -3.2247564665     1.6897300777
| 12>  C        2.2934242418    -2.1251146846     2.6676319680
| 13>  N        1.0142471147    -2.5548159085     2.0525514082
| 14>  H        0.0762632146     1.8427738136    -0.3698196410
| 15>  H       -1.5454457374     1.5762601395     0.3512732410
| 16>  H       -0.1088872299     1.8223705295     1.3969663598
| 17>  H        0.1093595593    -2.3912140280     0.1365824138
| 18>  H        2.1624925939    -3.4627615183    -0.5005763072
| 19>  H        3.1429547228    -2.0488831827    -0.0300916000
| 20>  H        2.5324854278    -4.2531994019     1.9725868331
| 21>  H        2.3346226645    -2.3909868155     3.7192365865
| 22>  H        2.7099883942    -1.1540758244     2.4179673228
| 23> *
| 24>
| 25>                          ****END OF INPUT****

CARTESIAN COORDINATES (ANGSTROEM)
---------------------------------
  C     -0.476287    1.395722    0.460315
  O     -0.319616   -0.029844    0.460750
  C      0.944360   -0.472797    0.575798
  O      1.906608    0.255595    0.647572
  C      0.986846   -1.983490    0.638471
  C      2.309203   -2.692750    0.258068
  C      2.334436   -3.224756    1.689730
  C      2.293424   -2.125115    2.667632
  N      1.014247   -2.554816    2.052551
  H      0.076263    1.842774   -0.369820
  H     -1.545446    1.576260    0.351273
  H     -0.108887    1.822371    1.396966
  H      0.109360   -2.391214    0.136582
  H      2.162493   -3.462762   -0.500576
  H      3.142955   -2.048883   -0.030092
  H      2.532485   -4.253199    1.972587
  H      2.334623   -2.390987    3.719237
  H      2.709988   -1.154076    2.417967

 Total Charge           Charge          ....    0
 Multiplicity           Mult            ....    1
 Number of Electrons    NEL             ....   68
 Basis Dimension        Dim             ....  333

ORBITAL ENERGIES
----------------

  NO   OCC          E(Eh)            E(eV)
   0   2.0000     -20.606660      -560.7357
   1   2.0000     -20.547896      -559.1367
   2   2.0000     -15.570973      -423.7077
   3   2.0000     -11.380416      -309.6769
   4   2.0000     -11.287161      -307.1393
   5   2.0000     -11.277699      -306.8818
   6   2.0000     -11.268248      -306.6246
   7   2.0000     -11.255373      -306.2743
   8   2.0000     -11.239649      -305.8464
   9   2.0000      -1.464736       -39.8575
  10   2.0000      -1.363697       -37.1081
  11   2.0000      -1.292437       -35.1690
  12   2.0000      -1.040047       -28.3011
  13   2.0000      -0.985372       -26.8133
  14   2.0000      -0.938321       -25.5330
  15   2.0000      -0.853840       -23.2342
  16   2.0000      -0.793523       -21.5929
  17   2.0000      -0.752545       -20.4778
  18   2.0000      -0.709774       -19.3139
  19   2.0000      -0.685720       -18.6594
  20   2.0000      -0.676454       -18.4072
  21   2.0000      -0.671234       -18.2652
  22   2.0000      -0.623004       -16.9528
  23   2.0000      -0.604429       -16.4473
  24   2.0000      -0.562756       -15.3134
  25   2.0000      -0.555488       -15.1156
  26   2.0000      -0.544334       -14.8121
  27   2.0000      -0.532941       -14.5021
  28   2.0000      -0.492429       -13.3997
  29   2.0000      -0.481462       -13.1012
  30   2.0000      -0.466271       -12.6879
  31   2.0000      -0.458051       -12.4642
  32   2.0000      -0.418193       -11.3796
  33   2.0000      -0.378796       -10.3076
  34   0.0000       0.143147         3.8952
  35   0.0000       0.150344         4.0911
  36   0.0000       0.155918         4.2427
  37   0.0000       0.176438         4.8011
  38   0.0000       0.185209         5.0398

MULLIKEN ATOMIC CHARGES
-----------------------
   0 C :   -0.223475
   1 O :   -0.243789
   2 C :    0.268480
   3 O :   -0.344240
   4 C :    0.047332
   5 C :   -0.238193
   6 C :   -0.062365
   7 C :   -0.192015
   8 N :   -0.259258
   9 H :    0.140739
  10 H :    0.147360
  11 H :    0.141008
  12 H :    0.127124
  13 H :    0.131710
  14 H :    0.136198
  15 H :    0.131110
  16 H :    0.132766
  17 H :    0.159506
Sum of atomic charges:   -0.0000000

LOEWDIN ATOMIC CHARGES
----------------------
   0 C :   -0.306743
   1 O :    0.238978
   2 C :   -0.467240
   3 O :    0.121837
   4 C :   -0.209957
   5 C :   -0.203287
   6 C :   -0.216887
   7 C :   -0.247635
   8 N :    0.115190
   9 H :    0.114225
  10 H :    0.115641
  11 H :    0.114727
  12 H :    0.154509
  13 H :    0.137834
  14 H :    0.139477
  15 H :    0.131307
  16 H :    0.134049
  17 H :    0.133976

  Mayer bond orders larger than 0.1
B(  0-C ,  1-O ) :   0.8356 B(  0-C ,  9-H ) :   0.9379 B(  0-C , 10-H ) :   0.9338
B(  0-C , 11-H ) :   0.9376 B(  1-O ,  2-C ) :   1.1510 B(  2-C ,  3-O ) :   1.8712
B(  2-C ,  4-C ) :   0.9191 B(  4-C ,  5-C ) :   0.9486 B(  4-C ,  8-N ) :   0.8845
B(  4-C , 12-H ) :   0.9168 B(  5-C ,  6-C ) :   0.9546 B(  5-C , 13-H ) :   0.9346
B(  5-C , 14-H ) :   0.9009 B(  6-C ,  7-C ) :   0.9509 B(  6-C ,  8-N ) :   0.8555
B(  6-C , 15-H ) :   0.9065 B(  7-C ,  8-N ) :   0.8838 B(  7-C , 16-H ) :   0.9306
B(  7-C , 17-H ) :   0.8985

MP2 TOTAL ENERGY:     -438.339529332 Eh
FINAL SINGLE POINT ENERGY      -438.339529331660

DIPOLE MOMENT
-------------
                                X             Y             Z
Electronic contribution:     -0.65117      -0.27005      -0.16672
Nuclear contribution   :      0.60775       0.31619      -0.18952
                        -----------------------------------------
Total Dipole Moment    :     -0.04342       0.04614      -0.35624
                        -----------------------------------------
Magnitude (a.u.)       :      0.36183
Magnitude (Debye)      :      0.91969

                             ****ORCA TERMINATED NORMALLY****
TOTAL RUN TIME: 0 days 0 hours 15 minutes 47 seconds 156 msec
