                         Program Version 3.0.3 - RELEASE   -
|  1> ! RI-MP2 RIJK def2-TZVP def2-TZVP/C def2-TZVP/JK TIGHTSCF
|  2> % maxcore 2000
|  3> % mp2 density relaxed end
|  4> *xyz 0 1
|  5>  C        0.0180265441    -1.1794949764    -0.0039021768
|  6>  C        0.0017348271     0.0225662683     0.0026855955
|  7>  C       -0.0177156624     1.4557461204     0.0105335507
|  8>  N       -1.2237872099     2.0452818060     0.0298723770
|  9>  C       -1.2247519603     3.3770966757     0.0369795592
| 10>  C       -0.0539743807     4.1274270408     0.0252608857
| 11>  C        1.1367320030     3.4093191878     0.0054657034
| 12>  N        1.1719102350     2.0779708709    -0.0020983582
| 13>  H        0.0324299358    -2.2416022110    -0.0097240437
| 14>  H       -2.2005616128     3.8575838098     0.0526322582
| 15>  H       -0.0686721063     5.2104135637     0.0312211752
| 16>  H        2.0991410473     3.9162529440    -0.0047475064
| 17> *
| 18>
| 19>                          ****END OF INPUT****

CARTESIAN COORDINATES (ANGSTROEM)
---------------------------------
  C      0.018027   -1.179495   -0.003902
  C      0.001735    0.022566    0.002686
  C     -0.017716    1.455746    0.010534
  N     -1.223787    2.045282    0.029872
  C     -1.224752    3.377097    0.036980
  C     -0.053974    4.127427    0.025261
  C      1.136732    3.409319    0.005466
  N      1.171910    2.077971   -0.002098
  H      0.032430   -2.241602   -0.009724
  H     -2.200562    3.857584    0.052632
  H     -0.068672    5.210414    0.031221
  H      2.099141    3.916253   -0.004748

 Total Charge           Charge          ....    0
 Multiplicity           Mult            ....    1
 Number of Electrons    NEL             ....   54
 Basis Dimension        Dim             ....  272

ORBITAL ENERGIES
----------------

  NO   OCC          E(Eh)            E(eV)
   0   2.0000     -15.582514      -424.0218
   1   2.0000     -15.582490      -424.0211
   2   2.0000     -11.345602      -308.7295
   3   2.0000     -11.305248      -307.6314
   4   2.0000     -11.305236      -307.6311
   5   2.0000     -11.255668      -306.2823
   6   2.0000     -11.244365      -305.9747
   7   2.0000     -11.240532      -305.8704
   8   2.0000      -1.325653       -36.0729
   9   2.0000      -1.205554       -32.8048
  10   2.0000      -1.100386       -29.9430
  11   2.0000      -1.030494       -28.0412
  12   2.0000      -0.914526       -24.8855
  13   2.0000      -0.904285       -24.6068
  14   2.0000      -0.780980       -21.2515
  15   2.0000      -0.716218       -19.4893
  16   2.0000      -0.715837       -19.4789
  17   2.0000      -0.670369       -18.2417
  18   2.0000      -0.608219       -16.5505
  19   2.0000      -0.602761       -16.4020
  20   2.0000      -0.595052       -16.1922
  21   2.0000      -0.492861       -13.4114
  22   2.0000      -0.442692       -12.0463
  23   2.0000      -0.431297       -11.7362
  24   2.0000      -0.423342       -11.5197
  25   2.0000      -0.407426       -11.0866
  26   2.0000      -0.356267        -9.6945
  27   0.0000       0.072341         1.9685
  28   0.0000       0.086670         2.3584
  29   0.0000       0.149514         4.0685
  30   0.0000       0.163628         4.4525
  31   0.0000       0.172047         4.6816

MULLIKEN ATOMIC CHARGES
-----------------------
   0 C :   -0.080272
   1 C :    0.075967
   2 C :    0.024216
   3 N :   -0.236795
   4 C :   -0.036334
   5 C :   -0.100930
   6 C :   -0.036334
   7 N :   -0.236795
   8 H :    0.198419
   9 H :    0.140603
  10 H :    0.147651
  11 H :    0.140603
Sum of atomic charges:   -0.0000000

LOEWDIN ATOMIC CHARGES
----------------------
   0 C :   -0.054334
   1 C :   -0.053753
   2 C :   -0.290414
   3 N :    0.175809
   4 C :   -0.189927
   5 C :   -0.143142
   6 C :   -0.189927
   7 N :    0.175809
   8 H :    0.129962
   9 H :    0.143612
  10 H :    0.152694
  11 H :    0.143612

  Mayer bond orders larger than 0.1
B(  0-C ,  1-C ) :   2.5994 B(  0-C ,  2-C ) :  -0.1641 B(  0-C ,  8-H ) :   0.8763
B(  1-C ,  2-C ) :   1.1900 B(  2-C ,  3-N ) :   1.3883 B(  2-C ,  7-N ) :   1.3883
B(  3-N ,  4-C ) :   1.4038 B(  4-C ,  5-C ) :   1.3213 B(  4-C ,  9-H ) :   0.9443
B(  5-C ,  6-C ) :   1.3213 B(  5-C , 10-H ) :   0.9100 B(  6-C ,  7-N ) :   1.4038
B(  6-C , 11-H ) :   0.9443

MP2 TOTAL ENERGY:     -339.772366912 Eh
FINAL SINGLE POINT ENERGY      -339.772366912286

DIPOLE MOMENT
-------------
                                X             Y             Z
Electronic contribution:      0.02472      -1.82014      -0.01007
Nuclear contribution   :     -0.03739       2.75328       0.01521
                        -----------------------------------------
Total Dipole Moment    :     -0.01267       0.93314       0.00514
                        -----------------------------------------
Magnitude (a.u.)       :      0.93324
Magnitude (Debye)      :      2.37212

                             ****ORCA TERMINATED NORMALLY****
TOTAL RUN TIME: 0 days 0 hours 9 minutes 55 seconds 284 msec
