                         Program Version 3.0.3 - RELEASE   -
|  1> ! RI-MP2 RIJK def2-TZVP def2-TZVP/C def2-TZVP/JK TIGHTSCF
|  2> % maxcore 2000
|  3> % mp2 density relaxed end
|  4> *xyz 0 1
|  5>  O       -0.4722912699     0.4753140298    -0.5749165682
|  6>  C        0.1200974268     0.9722428346     0.3450613667
|  7>  C        1.2525014864     1.9629705553     0.1871588403
|  8>  C        1.1990871324     3.0927168740    -0.9009141944
|  9>  C        0.0508839604     3.2313729726    -1.7859207717
| 10>  N       -0.8595948362     3.3941986019    -2.4788820097
| 11>  C        1.2867089434     4.0638063332     0.2865546820
| 12>  C        0.2101799786     3.8152490988     1.2573572765
| 13>  N        1.4111136901     2.9497553445     1.3078650485
| 14>  H       -0.1035266665     0.7181088158     1.4057671046
| 15>  H        2.1785984153     1.3857303171     0.0923955595
| 16>  H        2.1110719647     3.0876219167    -1.5003096678
| 17>  H        1.9257359495     4.9386039984     0.3087266199
| 18>  H        0.1441994028     4.4802165560     2.1114484742
| 19>  H       -0.7419612977     3.4085796010     0.9223664996
| 20> *
| 21>
| 22>                          ****END OF INPUT****

CARTESIAN COORDINATES (ANGSTROEM)
---------------------------------
  O     -0.472291    0.475314   -0.574917
  C      0.120097    0.972243    0.345061
  C      1.252501    1.962971    0.187159
  C      1.199087    3.092717   -0.900914
  C      0.050884    3.231373   -1.785921
  N     -0.859595    3.394199   -2.478882
  C      1.286709    4.063806    0.286555
  C      0.210180    3.815249    1.257357
  N      1.411114    2.949755    1.307865
  H     -0.103527    0.718109    1.405767
  H      2.178598    1.385730    0.092396
  H      2.111072    3.087622   -1.500310
  H      1.925736    4.938604    0.308727
  H      0.144199    4.480217    2.111448
  H     -0.741961    3.408580    0.922366

 Total Charge           Charge          ....    0
 Multiplicity           Mult            ....    1
 Number of Electrons    NEL             ....   64
 Basis Dimension        Dim             ....  315

ORBITAL ENERGIES
----------------

  NO   OCC          E(Eh)            E(eV)
   0   2.0000     -20.580522      -560.0245
   1   2.0000     -15.602906      -424.5767
   2   2.0000     -15.576520      -423.8587
   3   2.0000     -11.353509      -308.9447
   4   2.0000     -11.313982      -307.8691
   5   2.0000     -11.312265      -307.8224
   6   2.0000     -11.308296      -307.7144
   7   2.0000     -11.292052      -307.2723
   8   2.0000     -11.278701      -306.9091
   9   2.0000      -1.420221       -38.6462
  10   2.0000      -1.336780       -36.3756
  11   2.0000      -1.222863       -33.2758
  12   2.0000      -1.078069       -29.3357
  13   2.0000      -1.019349       -27.7379
  14   2.0000      -0.905347       -24.6357
  15   2.0000      -0.845774       -23.0147
  16   2.0000      -0.798894       -21.7390
  17   2.0000      -0.744133       -20.2489
  18   2.0000      -0.722610       -19.6632
  19   2.0000      -0.686460       -18.6795
  20   2.0000      -0.648353       -17.6426
  21   2.0000      -0.640172       -17.4200
  22   2.0000      -0.605325       -16.4717
  23   2.0000      -0.571313       -15.5462
  24   2.0000      -0.560791       -15.2599
  25   2.0000      -0.529602       -14.4112
  26   2.0000      -0.513293       -13.9674
  27   2.0000      -0.502464       -13.6727
  28   2.0000      -0.467752       -12.7282
  29   2.0000      -0.458526       -12.4771
  30   2.0000      -0.427872       -11.6430
  31   2.0000      -0.418340       -11.3836
  32   0.0000       0.102040         2.7766
  33   0.0000       0.123571         3.3625
  34   0.0000       0.139525         3.7967
  35   0.0000       0.151411         4.1201
  36   0.0000       0.159025         4.3273

MULLIKEN ATOMIC CHARGES
-----------------------
   0 O :   -0.232477
   1 C :    0.026877
   2 C :    0.071055
   3 C :   -0.010466
   4 C :   -0.200834
   5 N :   -0.042232
   6 C :   -0.059881
   7 C :   -0.180876
   8 N :   -0.244351
   9 H :    0.110661
  10 H :    0.147020
  11 H :    0.158754
  12 H :    0.149988
  13 H :    0.147493
  14 H :    0.159268
Sum of atomic charges:   -0.0000000

LOEWDIN ATOMIC CHARGES
----------------------
   0 O :    0.166324
   1 C :   -0.278521
   2 C :   -0.214757
   3 C :   -0.181089
   4 C :   -0.172158
   5 N :    0.076371
   6 C :   -0.175268
   7 C :   -0.230163
   8 N :    0.123543
   9 H :    0.122146
  10 H :    0.166272
  11 H :    0.178739
  12 H :    0.140564
  13 H :    0.140104
  14 H :    0.137895

  Mayer bond orders larger than 0.1
B(  0-O ,  1-C ) :   1.9944 B(  1-C ,  2-C ) :   0.8507 B(  1-C ,  9-H ) :   0.9458
B(  2-C ,  3-C ) :   0.9430 B(  2-C ,  8-N ) :   0.9303 B(  2-C , 10-H ) :   0.8912
B(  3-C ,  4-C ) :   0.9582 B(  3-C ,  6-C ) :   0.8929 B(  3-C , 11-H ) :   0.9041
B(  4-C ,  5-N ) :   2.8399 B(  6-C ,  7-C ) :   0.9481 B(  6-C ,  8-N ) :   0.8902
B(  6-C , 12-H ) :   0.9010 B(  7-C ,  8-N ) :   0.8599 B(  7-C , 13-H ) :   0.9311
B(  7-C , 14-H ) :   0.8987

MP2 TOTAL ENERGY:     -416.059862368 Eh
FINAL SINGLE POINT ENERGY      -416.059862368151

DIPOLE MOMENT
-------------
                                X             Y             Z
Electronic contribution:     -1.37325      -1.67847      -3.40892
Nuclear contribution   :      2.61306       2.10779       4.48804
                        -----------------------------------------
Total Dipole Moment    :      1.23981       0.42932       1.07913
                        -----------------------------------------
Magnitude (a.u.)       :      1.69881
Magnitude (Debye)      :      4.31803

                             ****ORCA TERMINATED NORMALLY****
TOTAL RUN TIME: 0 days 0 hours 15 minutes 16 seconds 835 msec
