                         Program Version 3.0.3 - RELEASE   -
|  1> ! RI-MP2 RIJK def2-TZVP def2-TZVP/C def2-TZVP/JK TIGHTSCF
|  2> % maxcore 2000
|  3> % mp2 density relaxed end
|  4> *xyz 0 1
|  5>  C       -0.4381204673     1.4798422374     0.5393359244
|  6>  O        0.0400116563     0.2315073473     0.0841760227
|  7>  C        0.6661633914    -0.5140664509     1.0806100994
|  8>  C       -0.1649815373    -1.4244224017     2.0450258355
|  9>  C       -0.5302724203    -2.2975640382     0.8160875269
| 10>  C        1.0006488916    -1.9862234118     0.7249891938
| 11>  C        2.0194580948    -2.4898103910    -0.2549288843
| 12>  N        1.1440936011    -2.1617603273     2.2366532811
| 13>  C        1.1046775327    -3.5106444145     2.7886764115
| 14>  H        0.3703996133     2.0874619290     0.9732715546
| 15>  H       -0.8502853294     2.0046249171    -0.3256527357
| 16>  H       -1.2278042575     1.3657652481     1.2964044444
| 17>  H        1.4770428782     0.0352492046     1.5747349621
| 18>  H       -0.7851957809    -1.1382847258     2.8961567176
| 19>  H       -0.8178517261    -3.3320113632     1.0028012897
| 20>  H       -1.1659953703    -1.8411789025     0.0563617229
| 21>  H        1.7783132531    -2.1386255552    -1.2630940268
| 22>  H        3.0174617459    -2.1247046660     0.0084154772
| 23>  H        2.0472234856    -3.5844531963    -0.2750259728
| 24>  H        2.0738356523    -3.9884381129     2.6096293850
| 25>  H        0.9725845754    -3.4351911222     3.8732909078
| 26>  H        0.3223858272    -4.1817638840     2.4021779429
| 27> *
| 28>
| 29>                          ****END OF INPUT****

CARTESIAN COORDINATES (ANGSTROEM)
---------------------------------
  C     -0.438120    1.479842    0.539336
  O      0.040012    0.231507    0.084176
  C      0.666163   -0.514066    1.080610
  C     -0.164982   -1.424422    2.045026
  C     -0.530272   -2.297564    0.816088
  C      1.000649   -1.986223    0.724989
  C      2.019458   -2.489810   -0.254929
  N      1.144094   -2.161760    2.236653
  C      1.104678   -3.510644    2.788676
  H      0.370400    2.087462    0.973272
  H     -0.850285    2.004625   -0.325653
  H     -1.227804    1.365765    1.296404
  H      1.477043    0.035249    1.574735
  H     -0.785196   -1.138285    2.896157
  H     -0.817852   -3.332011    1.002801
  H     -1.165995   -1.841179    0.056362
  H      1.778313   -2.138626   -1.263094
  H      3.017462   -2.124705    0.008415
  H      2.047223   -3.584453   -0.275026
  H      2.073836   -3.988438    2.609629
  H      0.972585   -3.435191    3.873291
  H      0.322386   -4.181764    2.402178

 Total Charge           Charge          ....    0
 Multiplicity           Mult            ....    1
 Number of Electrons    NEL             ....   70
 Basis Dimension        Dim             ....  357

ORBITAL ENERGIES
----------------

  NO   OCC          E(Eh)            E(eV)
   0   2.0000     -20.557362      -559.3942
   1   2.0000     -15.546010      -423.0284
   2   2.0000     -11.278365      -306.8999
   3   2.0000     -11.272593      -306.7429
   4   2.0000     -11.270186      -306.6774
   5   2.0000     -11.263740      -306.5020
   6   2.0000     -11.235640      -305.7373
   7   2.0000     -11.220367      -305.3217
   8   2.0000     -11.216125      -305.2063
   9   2.0000      -1.385025       -37.6884
  10   2.0000      -1.275105       -34.6974
  11   2.0000      -1.051308       -28.6076
  12   2.0000      -0.989306       -26.9204
  13   2.0000      -0.943284       -25.6681
  14   2.0000      -0.912084       -24.8191
  15   2.0000      -0.840703       -22.8767
  16   2.0000      -0.820577       -22.3290
  17   2.0000      -0.722626       -19.6637
  18   2.0000      -0.669193       -18.2097
  19   2.0000      -0.647535       -17.6203
  20   2.0000      -0.642029       -17.4705
  21   2.0000      -0.632951       -17.2235
  22   2.0000      -0.597442       -16.2572
  23   2.0000      -0.591265       -16.0891
  24   2.0000      -0.569798       -15.5050
  25   2.0000      -0.551695       -15.0124
  26   2.0000      -0.539770       -14.6879
  27   2.0000      -0.530982       -14.4487
  28   2.0000      -0.499223       -13.5845
  29   2.0000      -0.473692       -12.8898
  30   2.0000      -0.452992       -12.3265
  31   2.0000      -0.441811       -12.0223
  32   2.0000      -0.429416       -11.6850
  33   2.0000      -0.404437       -11.0053
  34   2.0000      -0.356660        -9.7052
  35   0.0000       0.141445         3.8489
  36   0.0000       0.149043         4.0557
  37   0.0000       0.166594         4.5333
  38   0.0000       0.184644         5.0244
  39   0.0000       0.192765         5.2454

MULLIKEN ATOMIC CHARGES
-----------------------
   0 C :   -0.214775
   1 O :   -0.317045
   2 C :    0.127335
   3 C :   -0.112178
   4 C :   -0.217541
   5 C :    0.050293
   6 C :   -0.424026
   7 N :   -0.202295
   8 C :   -0.329417
   9 H :    0.115716
  10 H :    0.140428
  11 H :    0.115403
  12 H :    0.086756
  13 H :    0.136488
  14 H :    0.117677
  15 H :    0.124324
  16 H :    0.148981
  17 H :    0.140823
  18 H :    0.137617
  19 H :    0.137995
  20 H :    0.139375
  21 H :    0.098066
Sum of atomic charges:   -0.0000000

LOEWDIN ATOMIC CHARGES
----------------------
   0 C :   -0.349207
   1 O :    0.167516
   2 C :   -0.265414
   3 C :   -0.194011
   4 C :   -0.189334
   5 C :   -0.244140
   6 C :   -0.275060
   7 N :    0.119385
   8 C :   -0.341751
   9 H :    0.104292
  10 H :    0.113465
  11 H :    0.103021
  12 H :    0.135501
  13 H :    0.120712
  14 H :    0.123222
  15 H :    0.132537
  16 H :    0.136849
  17 H :    0.133879
  18 H :    0.129738
  19 H :    0.118327
  20 H :    0.119172
  21 H :    0.101301

  Mayer bond orders larger than 0.1
B(  0-C ,  1-O ) :   0.9045 B(  0-C ,  9-H ) :   0.9366 B(  0-C , 10-H ) :   0.9405
B(  0-C , 11-H ) :   0.9358 B(  1-O ,  2-C ) :   1.0163 B(  2-C ,  3-C ) :   0.9090
B(  2-C ,  5-C ) :   0.8959 B(  2-C , 12-H ) :   0.9204 B(  3-C ,  4-C ) :   0.9553
B(  3-C ,  7-N ) :   0.8840 B(  3-C , 13-H ) :   0.8818 B(  4-C ,  5-C ) :   0.9091
B(  4-C , 14-H ) :   0.9268 B(  4-C , 15-H ) :   0.8968 B(  5-C ,  6-C ) :   0.8224
B(  5-C ,  7-N ) :   0.8562 B(  6-C , 16-H ) :   0.9366 B(  6-C , 17-H ) :   0.9432
B(  6-C , 18-H ) :   0.9399 B(  7-N ,  8-C ) :   0.9049 B(  8-C , 19-H ) :   0.9388
B(  8-C , 20-H ) :   0.9389 B(  8-C , 21-H ) :   0.9186

MP2 TOTAL ENERGY:     -403.575394511 Eh
FINAL SINGLE POINT ENERGY      -403.575394511194

DIPOLE MOMENT
-------------
                                X             Y             Z
Electronic contribution:     -0.54821       2.13035      -0.35422
Nuclear contribution   :      0.25441      -2.11751       0.42260
                        -----------------------------------------
Total Dipole Moment    :     -0.29380       0.01284       0.06838
                        -----------------------------------------
Magnitude (a.u.)       :      0.30193
Magnitude (Debye)      :      0.76744

                             ****ORCA TERMINATED NORMALLY****
TOTAL RUN TIME: 0 days 0 hours 30 minutes 45 seconds 726 msec
