                         Program Version 3.0.3 - RELEASE   -
|  1> ! RI-MP2 RIJK def2-TZVP def2-TZVP/C def2-TZVP/JK TIGHTSCF
|  2> % maxcore 2000
|  3> % mp2 density relaxed end
|  4> *xyz 0 1
|  5>  O        0.0522812636     0.0137686630     0.1284237395
|  6>  C       -0.0497787210     1.1994539684     0.0934140275
|  7>  C       -1.3038452755     2.0646476065     0.0866391404
|  8>  C       -0.7902270029     3.4529643410     0.4712337989
|  9>  C        0.6780754206     3.3959493301    -0.0208516093
| 10>  O        1.0585935923     2.0187027332     0.0528074782
| 11>  C        0.8248253699     3.8859143602    -1.4025935291
| 12>  N        0.9191197251     4.2898966322    -2.4805242546
| 13>  H       -1.7204674718     2.0463592410    -0.9264928197
| 14>  H       -2.0512408677     1.6491645245     0.7624605191
| 15>  H       -1.3422457765     4.2789996322     0.0230384132
| 16>  H       -0.7905852209     3.5826242056     1.5563723279
| 17>  H        1.3581696048     3.9617164319     0.6204710881
| 18> *
| 19>
| 20>                          ****END OF INPUT****

CARTESIAN COORDINATES (ANGSTROEM)
---------------------------------
  O      0.052281    0.013769    0.128424
  C     -0.049779    1.199454    0.093414
  C     -1.303845    2.064648    0.086639
  C     -0.790227    3.452964    0.471234
  C      0.678075    3.395949   -0.020852
  O      1.058594    2.018703    0.052807
  C      0.824825    3.885914   -1.402594
  N      0.919120    4.289897   -2.480524
  H     -1.720467    2.046359   -0.926493
  H     -2.051241    1.649165    0.762461
  H     -1.342246    4.279000    0.023038
  H     -0.790585    3.582624    1.556372
  H      1.358170    3.961716    0.620471

 Total Charge           Charge          ....    0
 Multiplicity           Mult            ....    1
 Number of Electrons    NEL             ....   58
 Basis Dimension        Dim             ....  278

ORBITAL ENERGIES
----------------

  NO   OCC          E(Eh)            E(eV)
   0   2.0000     -20.632555      -561.4404
   1   2.0000     -20.564876      -559.5987
   2   2.0000     -15.596821      -424.4111
   3   2.0000     -11.402474      -310.2771
   4   2.0000     -11.371187      -309.4257
   5   2.0000     -11.293025      -307.2988
   6   2.0000     -11.286532      -307.1222
   7   2.0000     -11.280051      -306.9458
   8   2.0000      -1.486392       -40.4468
   9   2.0000      -1.396350       -37.9966
  10   2.0000      -1.241026       -33.7700
  11   2.0000      -1.124776       -30.6067
  12   2.0000      -1.044676       -28.4271
  13   2.0000      -0.900785       -24.5116
  14   2.0000      -0.820833       -22.3360
  15   2.0000      -0.771189       -20.9851
  16   2.0000      -0.735050       -20.0017
  17   2.0000      -0.681259       -18.5380
  18   2.0000      -0.664439       -18.0803
  19   2.0000      -0.629179       -17.1208
  20   2.0000      -0.612438       -16.6653
  21   2.0000      -0.586074       -15.9479
  22   2.0000      -0.572074       -15.5669
  23   2.0000      -0.565412       -15.3856
  24   2.0000      -0.536685       -14.6039
  25   2.0000      -0.498851       -13.5744
  26   2.0000      -0.486991       -13.2517
  27   2.0000      -0.479614       -13.0510
  28   2.0000      -0.461369       -12.5545
  29   0.0000       0.104618         2.8468
  30   0.0000       0.129413         3.5215
  31   0.0000       0.137851         3.7511
  32   0.0000       0.146597         3.9891
  33   0.0000       0.157681         4.2907

MULLIKEN ATOMIC CHARGES
-----------------------
   0 O :   -0.256163
   1 C :    0.246738
   2 C :   -0.259155
   3 C :   -0.270358
   4 C :    0.232732
   5 O :   -0.220807
   6 C :   -0.219202
   7 N :   -0.043030
   8 H :    0.164241
   9 H :    0.157915
  10 H :    0.161024
  11 H :    0.147925
  12 H :    0.158140
Sum of atomic charges:    0.0000000

LOEWDIN ATOMIC CHARGES
----------------------
   0 O :    0.164129
   1 C :   -0.444678
   2 C :   -0.220554
   3 C :   -0.212011
   4 C :   -0.271805
   5 O :    0.277700
   6 C :   -0.161877
   7 N :    0.083878
   8 H :    0.163863
   9 H :    0.155599
  10 H :    0.149635
  11 H :    0.148192
  12 H :    0.167930

  Mayer bond orders larger than 0.1
B(  0-O ,  1-C ) :   2.0595 B(  1-C ,  2-C ) :   0.9235 B(  1-C ,  5-O ) :   1.0571
B(  2-C ,  3-C ) :   0.9379 B(  2-C ,  8-H ) :   0.9042 B(  2-C ,  9-H ) :   0.9164
B(  3-C ,  4-C ) :   0.8741 B(  3-C , 10-H ) :   0.9265 B(  3-C , 11-H ) :   0.9254
B(  4-C ,  5-O ) :   0.8856 B(  4-C ,  6-C ) :   0.9165 B(  4-C , 12-H ) :   0.9147
B(  6-C ,  7-N ) :   2.8349

MP2 TOTAL ENERGY:     -398.003565575 Eh
FINAL SINGLE POINT ENERGY      -398.003565574794

DIPOLE MOMENT
-------------
                                X             Y             Z
Electronic contribution:      4.04995      -1.88770      -2.30463
Nuclear contribution   :     -5.02505       2.85604       3.56086
                        -----------------------------------------
Total Dipole Moment    :     -0.97510       0.96834       1.25622
                        -----------------------------------------
Magnitude (a.u.)       :      1.86188
Magnitude (Debye)      :      4.73252

                             ****ORCA TERMINATED NORMALLY****
TOTAL RUN TIME: 0 days 0 hours 10 minutes 40 seconds 320 msec
