                         Program Version 3.0.3 - RELEASE   -
|  1> ! RI-MP2 RIJK def2-TZVP def2-TZVP/C def2-TZVP/JK TIGHTSCF
|  2> % maxcore 2000
|  3> % mp2 density relaxed end
|  4> *xyz 0 1
|  5>  C       -0.2405842865     1.4744425518     0.3085757870
|  6>  C        0.1415418737     0.0671054064    -0.1215825865
|  7>  O        1.2462896967    -0.2539121939    -0.4671603542
|  8>  N       -0.9499026825    -0.8254307491    -0.0708999700
|  9>  C       -0.9543949647    -2.1828811706    -0.3926091201
| 10>  O        0.0089259022    -2.8081666891    -0.7561222258
| 11>  C       -2.3188229075    -2.8534960219    -0.2210815232
| 12>  C       -2.1998479649    -4.0765939289     0.6821780434
| 13>  O       -3.0107190542    -4.3608938643     1.5218918939
| 14>  H        0.6412275984     2.1098215021     0.2394131182
| 15>  H       -1.0305909281     1.8786301477    -0.3335783343
| 16>  H       -0.6116676359     1.4799412041     1.3391678678
| 17>  H       -1.8294038268    -0.4360999710     0.2319820765
| 18>  H       -3.1125289970    -2.2044607559     0.1562280712
| 19>  H       -2.6090132855    -3.2182572613    -1.2150925314
| 20>  H       -1.2952190575    -4.6880271861     0.4912197874
| 21> *
| 22>
| 23>                          ****END OF INPUT****

CARTESIAN COORDINATES (ANGSTROEM)
---------------------------------
  C     -0.240584    1.474443    0.308576
  C      0.141542    0.067105   -0.121583
  O      1.246290   -0.253912   -0.467160
  N     -0.949903   -0.825431   -0.070900
  C     -0.954395   -2.182881   -0.392609
  O      0.008926   -2.808167   -0.756122
  C     -2.318823   -2.853496   -0.221082
  C     -2.199848   -4.076594    0.682178
  O     -3.010719   -4.360894    1.521892
  H      0.641228    2.109822    0.239413
  H     -1.030591    1.878630   -0.333578
  H     -0.611668    1.479941    1.339168
  H     -1.829404   -0.436100    0.231982
  H     -3.112529   -2.204461    0.156228
  H     -2.609013   -3.218257   -1.215093
  H     -1.295219   -4.688027    0.491220

 Total Charge           Charge          ....    0
 Multiplicity           Mult            ....    1
 Number of Electrons    NEL             ....   68
 Basis Dimension        Dim             ....  321

ORBITAL ENERGIES
----------------

  NO   OCC          E(Eh)            E(eV)
   0   2.0000     -20.574962      -559.8732
   1   2.0000     -20.554897      -559.3272
   2   2.0000     -20.551450      -559.2334
   3   2.0000     -15.629872      -425.3104
   4   2.0000     -11.389883      -309.9345
   5   2.0000     -11.381654      -309.7105
   6   2.0000     -11.351889      -308.9006
   7   2.0000     -11.277505      -306.8765
   8   2.0000     -11.260628      -306.4173
   9   2.0000      -1.430866       -38.9358
  10   2.0000      -1.415014       -38.5045
  11   2.0000      -1.403949       -38.2034
  12   2.0000      -1.263791       -34.3895
  13   2.0000      -1.073085       -29.2001
  14   2.0000      -1.029480       -28.0136
  15   2.0000      -0.888803       -24.1856
  16   2.0000      -0.814200       -22.1555
  17   2.0000      -0.794590       -21.6219
  18   2.0000      -0.735806       -20.0223
  19   2.0000      -0.695951       -18.9378
  20   2.0000      -0.676467       -18.4076
  21   2.0000      -0.662177       -18.0188
  22   2.0000      -0.641547       -17.4574
  23   2.0000      -0.636621       -17.3233
  24   2.0000      -0.623504       -16.9664
  25   2.0000      -0.608261       -16.5516
  26   2.0000      -0.585771       -15.9396
  27   2.0000      -0.577227       -15.7072
  28   2.0000      -0.531922       -14.4743
  29   2.0000      -0.520921       -14.1750
  30   2.0000      -0.482408       -13.1270
  31   2.0000      -0.448369       -12.2007
  32   2.0000      -0.442553       -12.0425
  33   2.0000      -0.423030       -11.5112
  34   0.0000       0.096788         2.6337
  35   0.0000       0.106634         2.9016
  36   0.0000       0.126578         3.4444
  37   0.0000       0.143913         3.9161
  38   0.0000       0.161907         4.4057

MULLIKEN ATOMIC CHARGES
-----------------------
   0 C :   -0.449642
   1 C :    0.304186
   2 O :   -0.263420
   3 N :   -0.330666
   4 C :    0.279950
   5 O :   -0.280102
   6 C :   -0.207664
   7 C :    0.080223
   8 O :   -0.257144
   9 H :    0.167205
  10 H :    0.151278
  11 H :    0.153985
  12 H :    0.248451
  13 H :    0.123861
  14 H :    0.158676
  15 H :    0.120824
Sum of atomic charges:   -0.0000000

LOEWDIN ATOMIC CHARGES
----------------------
   0 C :   -0.278996
   1 C :   -0.429069
   2 O :    0.161138
   3 N :    0.133515
   4 C :   -0.418063
   5 O :    0.155293
   6 C :   -0.230544
   7 C :   -0.281236
   8 O :    0.140057
   9 H :    0.140632
  10 H :    0.135089
  11 H :    0.135932
  12 H :    0.197787
  13 H :    0.142901
  14 H :    0.171894
  15 H :    0.123670

  Mayer bond orders larger than 0.1
B(  0-C ,  1-C ) :   0.9108 B(  0-C ,  9-H ) :   0.9380 B(  0-C , 10-H ) :   0.9173
B(  0-C , 11-H ) :   0.9168 B(  1-C ,  2-O ) :   2.0261 B(  1-C ,  3-N ) :   0.9579
B(  3-N ,  4-C ) :   1.0089 B(  3-N , 12-H ) :   0.8698 B(  4-C ,  5-O ) :   1.9726
B(  4-C ,  6-C ) :   0.8743 B(  6-C ,  7-C ) :   0.8799 B(  6-C , 13-H ) :   0.9144
B(  6-C , 14-H ) :   0.8950 B(  7-C ,  8-O ) :   1.9898 B(  7-C , 15-H ) :   0.9264

MP2 TOTAL ENERGY:     -474.327091828 Eh
FINAL SINGLE POINT ENERGY      -474.327091828024

DIPOLE MOMENT
-------------
                                X             Y             Z
Electronic contribution:      1.89886      -5.36059      -0.49064
Nuclear contribution   :     -3.20962       6.72318       0.45896
                        -----------------------------------------
Total Dipole Moment    :     -1.31076       1.36259      -0.03168
                        -----------------------------------------
Magnitude (a.u.)       :      1.89097
Magnitude (Debye)      :      4.80645

                             ****ORCA TERMINATED NORMALLY****
TOTAL RUN TIME: 0 days 0 hours 14 minutes 27 seconds 314 msec
