                         Program Version 3.0.3 - RELEASE   -
|  1> ! RI-MP2 RIJK def2-TZVP def2-TZVP/C def2-TZVP/JK TIGHTSCF
|  2> % maxcore 2000
|  3> % mp2 density relaxed end
|  4> *xyz 0 1
|  5>  N        0.0949559836     1.3393527665    -0.2289650679
|  6>  C        0.0080898865    -0.0444588192    -0.0504716600
|  7>  C       -1.1787448505    -0.7099033727    -0.1889179958
|  8>  N       -1.4955624578    -1.9718099212     0.2419451359
|  9>  C       -0.6723152901    -2.9454800515     0.3554477929
| 10>  C        0.7554210134    -2.9225769920    -0.0672914284
| 11>  N        1.2018736765    -3.8564985630    -0.8090984002
| 12>  N        1.5383183870    -1.9120312753     0.4932329785
| 13>  C        1.2044637178    -0.6726042060     0.4901223004
| 14>  H        0.9617488910     1.6612678404    -0.6374043756
| 15>  H       -0.7030007175     1.7540010997    -0.6903456928
| 16>  H       -2.0375470633    -0.1448902303    -0.5497047842
| 17>  H       -1.0423968660    -3.8866346295     0.7616959391
| 18>  H        2.2001171170    -3.7098872463    -0.9852249140
| 19>  H        1.9154589524     0.0184096804     0.9514323023
| 20> *
| 21>
| 22>                          ****END OF INPUT****

CARTESIAN COORDINATES (ANGSTROEM)
---------------------------------
  N      0.094956    1.339353   -0.228965
  C      0.008090   -0.044459   -0.050472
  C     -1.178745   -0.709903   -0.188918
  N     -1.495562   -1.971810    0.241945
  C     -0.672315   -2.945480    0.355448
  C      0.755421   -2.922577   -0.067291
  N      1.201874   -3.856499   -0.809098
  N      1.538318   -1.912031    0.493233
  C      1.204464   -0.672604    0.490122
  H      0.961749    1.661268   -0.637404
  H     -0.703001    1.754001   -0.690346
  H     -2.037547   -0.144890   -0.549705
  H     -1.042397   -3.886635    0.761696
  H      2.200117   -3.709887   -0.985225
  H      1.915459    0.018410    0.951432

 Total Charge           Charge          ....    0
 Multiplicity           Mult            ....    1
 Number of Electrons    NEL             ....   64
 Basis Dimension        Dim             ....  315

ORBITAL ENERGIES
----------------

  NO   OCC          E(Eh)            E(eV)
   0   2.0000     -15.590839      -424.2483
   1   2.0000     -15.586568      -424.1321
   2   2.0000     -15.585076      -424.0915
   3   2.0000     -15.550696      -423.1560
   4   2.0000     -11.323252      -308.1214
   5   2.0000     -11.318501      -307.9921
   6   2.0000     -11.300362      -307.4985
   7   2.0000     -11.300208      -307.4943
   8   2.0000     -11.281657      -306.9895
   9   2.0000      -1.307920       -35.5903
  10   2.0000      -1.250267       -34.0215
  11   2.0000      -1.239185       -33.7199
  12   2.0000      -1.185535       -32.2601
  13   2.0000      -1.035324       -28.1726
  14   2.0000      -0.939833       -25.5741
  15   2.0000      -0.918890       -25.0043
  16   2.0000      -0.790534       -21.5115
  17   2.0000      -0.782937       -21.3048
  18   2.0000      -0.716386       -19.4938
  19   2.0000      -0.685676       -18.6582
  20   2.0000      -0.659431       -17.9440
  21   2.0000      -0.647005       -17.6059
  22   2.0000      -0.635314       -17.2878
  23   2.0000      -0.609938       -16.5972
  24   2.0000      -0.557346       -15.1662
  25   2.0000      -0.513321       -13.9682
  26   2.0000      -0.490704       -13.3527
  27   2.0000      -0.462287       -12.5795
  28   2.0000      -0.444888       -12.1060
  29   2.0000      -0.416332       -11.3290
  30   2.0000      -0.406331       -11.0568
  31   2.0000      -0.315060        -8.5732
  32   0.0000       0.060520         1.6468
  33   0.0000       0.089171         2.4265
  34   0.0000       0.120575         3.2810
  35   0.0000       0.158009         4.2997
  36   0.0000       0.171586         4.6691

MULLIKEN ATOMIC CHARGES
-----------------------
   0 N :   -0.515062
   1 C :    0.235269
   2 C :   -0.110615
   3 N :   -0.212379
   4 C :    0.023375
   5 C :    0.087928
   6 N :   -0.341771
   7 N :   -0.189694
   8 C :   -0.114601
   9 H :    0.259534
  10 H :    0.248371
  11 H :    0.119760
  12 H :    0.147482
  13 H :    0.216419
  14 H :    0.145985
Sum of atomic charges:   -0.0000000

LOEWDIN ATOMIC CHARGES
----------------------
   0 N :   -0.062692
   1 C :   -0.260853
   2 C :   -0.211858
   3 N :    0.157873
   4 C :   -0.160644
   5 C :   -0.384032
   6 N :   -0.020678
   7 N :    0.174867
   8 C :   -0.179232
   9 H :    0.171584
  10 H :    0.170806
  11 H :    0.143418
  12 H :    0.147234
  13 H :    0.166239
  14 H :    0.147969

  Mayer bond orders larger than 0.1
B(  0-N ,  1-C ) :   1.0047 B(  0-N ,  9-H ) :   0.8698 B(  0-N , 10-H ) :   0.8773
B(  1-C ,  2-C ) :   1.4543 B(  1-C ,  8-C ) :   1.0078 B(  2-C ,  3-N ) :   1.1680
B(  2-C , 11-H ) :   0.9607 B(  3-N ,  4-C ) :   1.6926 B(  4-C ,  5-C ) :   0.9115
B(  4-C , 12-H ) :   0.9218 B(  5-C ,  6-N ) :   1.9723 B(  5-C ,  7-N ) :   1.0238
B(  6-N , 13-H ) :   0.8538 B(  7-N ,  8-C ) :   1.7310 B(  8-C , 14-H ) :   0.9434

MP2 TOTAL ENERGY:     -412.269719772 Eh
FINAL SINGLE POINT ENERGY      -412.269719772124

DIPOLE MOMENT
-------------
                                X             Y             Z
Electronic contribution:      0.04362      -2.68300       0.80255
Nuclear contribution   :      0.22818       4.32708      -1.12972
                        -----------------------------------------
Total Dipole Moment    :      0.27180       1.64408      -0.32718
                        -----------------------------------------
Magnitude (a.u.)       :      1.69821
Magnitude (Debye)      :      4.31651

                             ****ORCA TERMINATED NORMALLY****
TOTAL RUN TIME: 0 days 0 hours 16 minutes 3 seconds 271 msec
