                         Program Version 3.0.3 - RELEASE   -
|  1> ! RI-MP2 RIJK def2-TZVP def2-TZVP/C def2-TZVP/JK TIGHTSCF
|  2> % maxcore 2000
|  3> % mp2 density relaxed end
|  4> *xyz 0 1
|  5>  O       -0.0648767014     1.4133675050    -0.1210395793
|  6>  C       -0.0038987373     0.0088017783     0.0994915873
|  7>  C       -1.4048607176    -0.5545840637    -0.0818826355
|  8>  C       -2.0153180283    -0.3456397714    -1.4833597126
|  9>  C       -3.1657021912    -1.3713451664    -1.5437859504
| 10>  C       -2.6434610674    -2.5935443922    -0.7716834500
| 11>  C       -1.5297420663    -3.4075059109    -1.4620748850
| 12>  O       -0.5057411208    -2.8045262681    -0.6430067562
| 13>  C       -1.4899947779    -2.0692072513     0.1289697092
| 14>  H        0.8315302247     1.7592400319    -0.0862559247
| 15>  H        0.6744069858    -0.4832419296    -0.6114952607
| 16>  H        0.3605261815    -0.2163954217     1.1153056165
| 17>  H       -2.0628201407    -0.0845412613     0.6633135522
| 18>  H       -2.3436808807     0.6817632772    -1.6490243980
| 19>  H       -1.2601972958    -0.5710486125    -2.2458509619
| 20>  H       -4.0512540812    -0.9710008912    -1.0361569451
| 21>  H       -3.4674902507    -1.6183385209    -2.5669677283
| 22>  H       -3.4294122717    -3.1860205035    -0.3021893958
| 23>  H       -1.5812733457    -4.4931364129    -1.3091253147
| 24>  H       -1.3762054771    -3.2065594668    -2.5304405988
| 25>  H       -1.4656331903    -2.3717743679     1.1821416719
| 26> *
| 27>
| 28>                          ****END OF INPUT****

CARTESIAN COORDINATES (ANGSTROEM)
---------------------------------
  O     -0.064877    1.413368   -0.121040
  C     -0.003899    0.008802    0.099492
  C     -1.404861   -0.554584   -0.081883
  C     -2.015318   -0.345640   -1.483360
  C     -3.165702   -1.371345   -1.543786
  C     -2.643461   -2.593544   -0.771683
  C     -1.529742   -3.407506   -1.462075
  O     -0.505741   -2.804526   -0.643007
  C     -1.489995   -2.069207    0.128970
  H      0.831530    1.759240   -0.086256
  H      0.674407   -0.483242   -0.611495
  H      0.360526   -0.216395    1.115306
  H     -2.062820   -0.084541    0.663314
  H     -2.343681    0.681763   -1.649024
  H     -1.260197   -0.571049   -2.245851
  H     -4.051254   -0.971001   -1.036157
  H     -3.467490   -1.618339   -2.566968
  H     -3.429412   -3.186021   -0.302189
  H     -1.581273   -4.493136   -1.309125
  H     -1.376205   -3.206559   -2.530441
  H     -1.465633   -2.371774    1.182142

 Total Charge           Charge          ....    0
 Multiplicity           Mult            ....    1
 Number of Electrons    NEL             ....   70
 Basis Dimension        Dim             ....  351

ORBITAL ENERGIES
----------------

  NO   OCC          E(Eh)            E(eV)
   0   2.0000     -20.550867      -559.2175
   1   2.0000     -20.542973      -559.0027
   2   2.0000     -11.276522      -306.8498
   3   2.0000     -11.274375      -306.7913
   4   2.0000     -11.268077      -306.6200
   5   2.0000     -11.229683      -305.5752
   6   2.0000     -11.221833      -305.3616
   7   2.0000     -11.221459      -305.3514
   8   2.0000     -11.213496      -305.1347
   9   2.0000      -1.374432       -37.4002
  10   2.0000      -1.353983       -36.8438
  11   2.0000      -1.110949       -30.2305
  12   2.0000      -1.021290       -27.7907
  13   2.0000      -0.949521       -25.8378
  14   2.0000      -0.915263       -24.9056
  15   2.0000      -0.862014       -23.4566
  16   2.0000      -0.771722       -20.9996
  17   2.0000      -0.730361       -19.8741
  18   2.0000      -0.706799       -19.2330
  19   2.0000      -0.679412       -18.4877
  20   2.0000      -0.649667       -17.6783
  21   2.0000      -0.624716       -16.9994
  22   2.0000      -0.618551       -16.8316
  23   2.0000      -0.582303       -15.8453
  24   2.0000      -0.577532       -15.7154
  25   2.0000      -0.558962       -15.2101
  26   2.0000      -0.532042       -14.4776
  27   2.0000      -0.511069       -13.9069
  28   2.0000      -0.473598       -12.8873
  29   2.0000      -0.470774       -12.8104
  30   2.0000      -0.462065       -12.5734
  31   2.0000      -0.446132       -12.1399
  32   2.0000      -0.437243       -11.8980
  33   2.0000      -0.430784       -11.7222
  34   2.0000      -0.407528       -11.0894
  35   0.0000       0.137423         3.7395
  36   0.0000       0.143501         3.9049
  37   0.0000       0.158919         4.3244
  38   0.0000       0.171036         4.6541
  39   0.0000       0.176009         4.7895

MULLIKEN ATOMIC CHARGES
-----------------------
   0 O :   -0.467059
   1 C :   -0.101403
   2 C :   -0.043663
   3 C :   -0.272045
   4 C :   -0.233075
   5 C :   -0.105270
   6 C :   -0.040410
   7 O :   -0.352882
   8 C :    0.092524
   9 H :    0.314755
  10 H :    0.118816
  11 H :    0.094290
  12 H :    0.090627
  13 H :    0.140348
  14 H :    0.115432
  15 H :    0.111584
  16 H :    0.124247
  17 H :    0.118350
  18 H :    0.098653
  19 H :    0.093697
  20 H :    0.102486
Sum of atomic charges:   -0.0000000

LOEWDIN ATOMIC CHARGES
----------------------
   0 O :   -0.050186
   1 C :   -0.325580
   2 C :   -0.240457
   3 C :   -0.224914
   4 C :   -0.239180
   5 C :   -0.206824
   6 C :   -0.252635
   7 O :    0.129805
   8 C :   -0.224970
   9 H :    0.171490
  10 H :    0.122498
  11 H :    0.118137
  12 H :    0.161170
  13 H :    0.138461
  14 H :    0.142227
  15 H :    0.139190
  16 H :    0.135328
  17 H :    0.140391
  18 H :    0.116554
  19 H :    0.117438
  20 H :    0.132057

  Mayer bond orders larger than 0.1
B(  0-O ,  1-C ) :   1.0204 B(  0-O ,  9-H ) :   0.8493 B(  1-C ,  2-C ) :   0.9226
B(  1-C , 10-H ) :   0.9211 B(  1-C , 11-H ) :   0.9334 B(  2-C ,  3-C ) :   0.9141
B(  2-C ,  8-C ) :   0.9075 B(  2-C , 12-H ) :   0.9131 B(  3-C ,  4-C ) :   0.9340
B(  3-C , 13-H ) :   0.9307 B(  3-C , 14-H ) :   0.9301 B(  4-C ,  5-C ) :   0.9409
B(  4-C , 15-H ) :   0.9247 B(  4-C , 16-H ) :   0.9282 B(  5-C ,  6-C ) :   0.9627
B(  5-C ,  8-C ) :   0.9252 B(  5-C , 17-H ) :   0.9252 B(  6-C ,  7-O ) :   0.9410
B(  6-C , 18-H ) :   0.9189 B(  6-C , 19-H ) :   0.9069 B(  7-O ,  8-C ) :   0.9326
B(  8-C , 20-H ) :   0.9199

MP2 TOTAL ENERGY:     -423.520416969 Eh
FINAL SINGLE POINT ENERGY      -423.520416969028

DIPOLE MOMENT
-------------
                                X             Y             Z
Electronic contribution:      2.32643      -0.49033       1.53236
Nuclear contribution   :     -2.52787       0.33150      -1.48959
                        -----------------------------------------
Total Dipole Moment    :     -0.20144      -0.15883       0.04277
                        -----------------------------------------
Magnitude (a.u.)       :      0.26006
Magnitude (Debye)      :      0.66102

                             ****ORCA TERMINATED NORMALLY****
TOTAL RUN TIME: 0 days 0 hours 18 minutes 27 seconds 811 msec
