                         Program Version 3.0.3 - RELEASE   -
|  1> ! RI-MP2 RIJK def2-TZVP def2-TZVP/C def2-TZVP/JK TIGHTSCF
|  2> % maxcore 2000
|  3> % mp2 density relaxed end
|  4> *xyz 0 1
|  5>  C        0.4010771567     1.5422043360     0.6206139749
|  6>  O        1.7211820593     1.1103354363     0.2443212248
|  7>  C        1.2301588150    -0.1746471312    -0.1777686025
|  8>  C       -0.2451747704     0.2734063309     0.0025580467
|  9>  C       -1.1433098368    -0.5526050068     0.8454641042
| 10>  N       -0.8469273640    -0.9802113814     2.0715175852
| 11>  N       -1.9449294653    -1.6534153551     2.3799744369
| 12>  N       -2.8752993906    -1.6643212857     1.4381874225
| 13>  N       -2.3791562067    -0.9655509598     0.4510742679
| 14>  H        0.2841900681     1.6146833619     1.7089337419
| 15>  H        0.1283586167     2.4965646582     0.1572015337
| 16>  H        1.5373454487    -0.4216182420    -1.1998403286
| 17>  H        1.5362749005    -0.9785768639     0.5029739433
| 18>  H       -0.7495119820     0.4694823327    -0.9434013476
| 19>  H       -2.0679800792    -2.1246228601     3.2642137667
| 20> *
| 21>
| 22>                          ****END OF INPUT****

CARTESIAN COORDINATES (ANGSTROEM)
---------------------------------
  C      0.401077    1.542204    0.620614
  O      1.721182    1.110335    0.244321
  C      1.230159   -0.174647   -0.177769
  C     -0.245175    0.273406    0.002558
  C     -1.143310   -0.552605    0.845464
  N     -0.846927   -0.980211    2.071518
  N     -1.944929   -1.653415    2.379974
  N     -2.875299   -1.664321    1.438187
  N     -2.379156   -0.965551    0.451074
  H      0.284190    1.614683    1.708934
  H      0.128359    2.496565    0.157202
  H      1.537345   -0.421618   -1.199840
  H      1.536275   -0.978577    0.502974
  H     -0.749512    0.469482   -0.943401
  H     -2.067980   -2.124623    3.264214

 Total Charge           Charge          ....    0
 Multiplicity           Mult            ....    1
 Number of Electrons    NEL             ....   66
 Basis Dimension        Dim             ....  315

ORBITAL ENERGIES
----------------

  NO   OCC          E(Eh)            E(eV)
   0   2.0000     -20.555438      -559.3419
   1   2.0000     -15.710159      -427.4952
   2   2.0000     -15.679184      -426.6523
   3   2.0000     -15.632392      -425.3790
   4   2.0000     -15.615712      -424.9251
   5   2.0000     -11.312903      -307.8397
   6   2.0000     -11.290393      -307.2272
   7   2.0000     -11.290376      -307.2267
   8   2.0000     -11.258492      -306.3591
   9   2.0000      -1.508955       -41.0607
  10   2.0000      -1.387828       -37.7647
  11   2.0000      -1.269697       -34.5502
  12   2.0000      -1.196497       -32.5583
  13   2.0000      -1.041639       -28.3444
  14   2.0000      -0.943562       -25.6756
  15   2.0000      -0.929022       -25.2800
  16   2.0000      -0.873958       -23.7816
  17   2.0000      -0.790758       -21.5176
  18   2.0000      -0.770086       -20.9551
  19   2.0000      -0.692146       -18.8342
  20   2.0000      -0.689986       -18.7755
  21   2.0000      -0.680366       -18.5137
  22   2.0000      -0.610209       -16.6046
  23   2.0000      -0.590255       -16.0617
  24   2.0000      -0.572594       -15.5811
  25   2.0000      -0.561544       -15.2804
  26   2.0000      -0.510020       -13.8783
  27   2.0000      -0.497713       -13.5434
  28   2.0000      -0.484699       -13.1893
  29   2.0000      -0.471540       -12.8313
  30   2.0000      -0.452718       -12.3191
  31   2.0000      -0.422808       -11.5052
  32   2.0000      -0.398296       -10.8382
  33   0.0000       0.108070         2.9407
  34   0.0000       0.122567         3.3352
  35   0.0000       0.150302         4.0899
  36   0.0000       0.161368         4.3910
  37   0.0000       0.168653         4.5893

MULLIKEN ATOMIC CHARGES
-----------------------
   0 C :   -0.030327
   1 O :   -0.326247
   2 C :   -0.030333
   3 C :   -0.045695
   4 C :   -0.003776
   5 N :   -0.205519
   6 N :    0.024238
   7 N :   -0.112154
   8 N :   -0.119835
   9 H :    0.107522
  10 H :    0.108891
  11 H :    0.108866
  12 H :    0.107521
  13 H :    0.136942
  14 H :    0.279904
Sum of atomic charges:    0.0000000

LOEWDIN ATOMIC CHARGES
----------------------
   0 C :   -0.240751
   1 O :    0.115044
   2 C :   -0.240841
   3 C :   -0.203674
   4 C :   -0.360480
   5 N :    0.051694
   6 N :    0.063060
   7 N :   -0.050077
   8 N :    0.026686
   9 H :    0.121838
  10 H :    0.118930
  11 H :    0.118917
  12 H :    0.121826
  13 H :    0.164224
  14 H :    0.193604

  Mayer bond orders larger than 0.1
B(  0-C ,  1-O ) :   0.9535 B(  0-C ,  3-C ) :   0.9314 B(  0-C ,  9-H ) :   0.9050
B(  0-C , 10-H ) :   0.9150 B(  1-O ,  2-C ) :   0.9535 B(  2-C ,  3-C ) :   0.9314
B(  2-C , 11-H ) :   0.9149 B(  2-C , 12-H ) :   0.9050 B(  3-C ,  4-C ) :   0.9598
B(  3-C , 13-H ) :   0.9160 B(  4-C ,  5-N ) :   1.4802 B(  4-C ,  8-N ) :   1.4349
B(  5-N ,  6-N ) :   1.1297 B(  5-N ,  7-N ) :   0.1158 B(  6-N ,  7-N ) :   1.1286
B(  6-N , 14-H ) :   0.8619 B(  7-N ,  8-N ) :   1.2519

MP2 TOTAL ENERGY:     -449.353526176 Eh
FINAL SINGLE POINT ENERGY      -449.353526175871

DIPOLE MOMENT
-------------
                                X             Y             Z
Electronic contribution:     -4.34270      -3.21461       2.40370
Nuclear contribution   :      4.27335       2.85705      -1.70735
                        -----------------------------------------
Total Dipole Moment    :     -0.06934      -0.35757       0.69635
                        -----------------------------------------
Magnitude (a.u.)       :      0.78585
Magnitude (Debye)      :      1.99748

                             ****ORCA TERMINATED NORMALLY****
TOTAL RUN TIME: 0 days 0 hours 15 minutes 2 seconds 207 msec
