                         Program Version 3.0.3 - RELEASE   -
|  1> ! RI-MP2 RIJK def2-TZVP def2-TZVP/C def2-TZVP/JK TIGHTSCF
|  2> % maxcore 2000
|  3> % mp2 density relaxed end
|  4> *xyz 0 1
|  5>  N       -0.1077090848     1.4061476775     0.3238988015
|  6>  C       -0.0092633988     0.1349392142     0.3111137611
|  7>  N       -1.1235812166    -0.6640876778     0.1906620627
|  8>  C       -2.4384330415    -0.0528954976     0.2569444041
|  9>  C       -3.4633842093    -0.9751970663    -0.2338334041
| 10>  N       -4.2716976561    -1.7133000766    -0.6021455034
| 11>  C        1.2843044002    -0.6333051720     0.3571428303
| 12>  C        2.2922844064    -0.4512764483    -0.7024546069
| 13>  O        2.4479180552     0.1464292959     0.5847275677
| 14>  H        0.8245204905     1.8148325388     0.3892504673
| 15>  H       -1.0538426734    -1.6271932647     0.4773112410
| 16>  H       -2.7051353890     0.2722139092     1.2734360154
| 17>  H       -2.4218572976     0.8524968678    -0.3571338465
| 18>  H        1.2623002355    -1.5874708700     0.8866281899
| 19>  H        2.9850210266    -1.2587597922    -0.9316402853
| 20>  H        2.0780135828     0.2420316821    -1.5130067547
| 21> *
| 22>
| 23>                          ****END OF INPUT****

CARTESIAN COORDINATES (ANGSTROEM)
---------------------------------
  N     -0.107709    1.406148    0.323899
  C     -0.009263    0.134939    0.311114
  N     -1.123581   -0.664088    0.190662
  C     -2.438433   -0.052895    0.256944
  C     -3.463384   -0.975197   -0.233833
  N     -4.271698   -1.713300   -0.602146
  C      1.284304   -0.633305    0.357143
  C      2.292284   -0.451276   -0.702455
  O      2.447918    0.146429    0.584728
  H      0.824520    1.814833    0.389250
  H     -1.053843   -1.627193    0.477311
  H     -2.705135    0.272214    1.273436
  H     -2.421857    0.852497   -0.357134
  H      1.262300   -1.587471    0.886628
  H      2.985021   -1.258760   -0.931640
  H      2.078014    0.242032   -1.513007

 Total Charge           Charge          ....    0
 Multiplicity           Mult            ....    1
 Number of Electrons    NEL             ....   66
 Basis Dimension        Dim             ....  321

ORBITAL ENERGIES
----------------

  NO   OCC          E(Eh)            E(eV)
   0   2.0000     -20.603193      -560.6414
   1   2.0000     -15.607410      -424.6992
   2   2.0000     -15.581933      -424.0060
   3   2.0000     -15.540348      -422.8744
   4   2.0000     -11.338129      -308.5262
   5   2.0000     -11.324901      -308.1662
   6   2.0000     -11.322357      -308.0970
   7   2.0000     -11.316017      -307.9245
   8   2.0000     -11.283501      -307.0397
   9   2.0000      -1.450364       -39.4664
  10   2.0000      -1.304910       -35.5084
  11   2.0000      -1.229289       -33.4507
  12   2.0000      -1.179710       -32.1015
  13   2.0000      -1.031738       -28.0750
  14   2.0000      -0.965074       -26.2610
  15   2.0000      -0.908863       -24.7314
  16   2.0000      -0.817282       -22.2394
  17   2.0000      -0.766726       -20.8637
  18   2.0000      -0.726380       -19.7658
  19   2.0000      -0.696340       -18.9484
  20   2.0000      -0.672976       -18.3126
  21   2.0000      -0.662564       -18.0293
  22   2.0000      -0.617609       -16.8060
  23   2.0000      -0.596366       -16.2279
  24   2.0000      -0.581602       -15.8262
  25   2.0000      -0.564654       -15.3650
  26   2.0000      -0.545079       -14.8324
  27   2.0000      -0.489549       -13.3213
  28   2.0000      -0.482059       -13.1175
  29   2.0000      -0.477375       -12.9900
  30   2.0000      -0.460143       -12.5211
  31   2.0000      -0.437426       -11.9030
  32   2.0000      -0.384580       -10.4650
  33   0.0000       0.114911         3.1269
  34   0.0000       0.132147         3.5959
  35   0.0000       0.152829         4.1587
  36   0.0000       0.160818         4.3761
  37   0.0000       0.165006         4.4901

MULLIKEN ATOMIC CHARGES
-----------------------
   0 N :   -0.443192
   1 C :    0.195616
   2 N :   -0.347662
   3 C :   -0.019600
   4 C :   -0.168443
   5 N :   -0.055895
   6 C :    0.003516
   7 C :   -0.080581
   8 O :   -0.323188
   9 H :    0.234169
  10 H :    0.243019
  11 H :    0.160102
  12 H :    0.188879
  13 H :    0.142274
  14 H :    0.131414
  15 H :    0.139572
Sum of atomic charges:   -0.0000000

LOEWDIN ATOMIC CHARGES
----------------------
   0 N :   -0.066925
   1 C :   -0.380996
   2 N :    0.096251
   3 C :   -0.258409
   4 C :   -0.189802
   5 N :    0.066695
   6 C :   -0.270414
   7 C :   -0.244175
   8 O :    0.164523
   9 H :    0.171038
  10 H :    0.190467
  11 H :    0.156124
  12 H :    0.171237
  13 H :    0.142929
  14 H :    0.123615
  15 H :    0.127842

  Mayer bond orders larger than 0.1
B(  0-N ,  1-C ) :   1.8524 B(  0-N ,  9-H ) :   0.8548 B(  1-C ,  2-N ) :   1.0744
B(  1-C ,  6-C ) :   0.9156 B(  2-N ,  3-C ) :   0.8834 B(  2-N , 10-H ) :   0.8728
B(  3-C ,  4-C ) :   0.8905 B(  3-C , 11-H ) :   0.9191 B(  3-C , 12-H ) :   0.9043
B(  4-C ,  5-N ) :   2.8571 B(  6-C ,  7-C ) :   0.9805 B(  6-C ,  8-O ) :   0.9253
B(  6-C , 13-H ) :   0.8945 B(  7-C ,  8-O ) :   0.8823 B(  7-C , 14-H ) :   0.9259
B(  7-C , 15-H ) :   0.9073

MP2 TOTAL ENERGY:     -433.328373123 Eh
FINAL SINGLE POINT ENERGY      -433.328373123181

DIPOLE MOMENT
-------------
                                X             Y             Z
Electronic contribution:     -3.19094      -1.08119       0.36369
Nuclear contribution   :      4.34155       0.70001      -0.21445
                        -----------------------------------------
Total Dipole Moment    :      1.15061      -0.38118       0.14924
                        -----------------------------------------
Magnitude (a.u.)       :      1.22126
Magnitude (Debye)      :      3.10420

                             ****ORCA TERMINATED NORMALLY****
TOTAL RUN TIME: 0 days 0 hours 19 minutes 29 seconds 364 msec
