                         Program Version 3.0.3 - RELEASE   -
|  1> ! RI-MP2 RIJK def2-TZVP def2-TZVP/C def2-TZVP/JK TIGHTSCF
|  2> % maxcore 2000
|  3> % mp2 density relaxed end
|  4> *xyz 0 1
|  5>  C        0.0914316413     1.4566360633    -0.1412271105
|  6>  N       -0.0607053153     0.0127465416    -0.0844314859
|  7>  C       -1.3019740946    -0.5384726321     0.1356816834
|  8>  O       -2.2952611922     0.0964760466     0.3900352674
|  9>  N       -1.2616924868    -1.9544729482     0.0783830650
| 10>  C       -2.3447058269    -2.8210301634     0.0526645748
| 11>  O       -3.5054548306    -2.5268747619    -0.0167990888
| 12>  H        1.0827008320     1.7395342471     0.2227985049
| 13>  H       -0.0425533574     1.8529082051    -1.1555994917
| 14>  H       -0.6705614331     1.8991450120     0.5004269180
| 15>  H        0.6265442973    -0.5400452885    -0.5714117105
| 16>  H       -0.3554511154    -2.3960847974     0.1251884425
| 17>  H       -1.9833649683    -3.8702720443     0.0918766914
| 18> *
| 19>
| 20>                          ****END OF INPUT****

CARTESIAN COORDINATES (ANGSTROEM)
---------------------------------
  C      0.091432    1.456636   -0.141227
  N     -0.060705    0.012747   -0.084431
  C     -1.301974   -0.538473    0.135682
  O     -2.295261    0.096476    0.390035
  N     -1.261692   -1.954473    0.078383
  C     -2.344706   -2.821030    0.052665
  O     -3.505455   -2.526875   -0.016799
  H      1.082701    1.739534    0.222799
  H     -0.042553    1.852908   -1.155599
  H     -0.670561    1.899145    0.500427
  H      0.626544   -0.540045   -0.571412
  H     -0.355451   -2.396085    0.125188
  H     -1.983365   -3.870272    0.091877

 Total Charge           Charge          ....    0
 Multiplicity           Mult            ....    1
 Number of Electrons    NEL             ....   54
 Basis Dimension        Dim             ....  253

ORBITAL ENERGIES
----------------

  NO   OCC          E(Eh)            E(eV)
   0   2.0000     -20.544199      -559.0361
   1   2.0000     -20.526745      -558.5611
   2   2.0000     -15.620113      -425.0449
   3   2.0000     -15.598098      -424.4458
   4   2.0000     -11.395605      -310.0902
   5   2.0000     -11.369127      -309.3697
   6   2.0000     -11.268164      -306.6223
   7   2.0000      -1.419914       -38.6378
   8   2.0000      -1.393259       -37.9125
   9   2.0000      -1.267622       -34.4937
  10   2.0000      -1.224779       -33.3279
  11   2.0000      -0.975809       -26.5531
  12   2.0000      -0.881248       -23.9800
  13   2.0000      -0.796629       -21.6774
  14   2.0000      -0.779114       -21.2008
  15   2.0000      -0.715187       -19.4612
  16   2.0000      -0.657235       -17.8843
  17   2.0000      -0.647771       -17.6267
  18   2.0000      -0.626120       -17.0376
  19   2.0000      -0.612454       -16.6657
  20   2.0000      -0.597597       -16.2614
  21   2.0000      -0.557327       -15.1656
  22   2.0000      -0.538848       -14.6628
  23   2.0000      -0.477072       -12.9818
  24   2.0000      -0.434280       -11.8174
  25   2.0000      -0.430188       -11.7060
  26   2.0000      -0.410341       -11.1659
  27   0.0000       0.102290         2.7835
  28   0.0000       0.139480         3.7954
  29   0.0000       0.143343         3.9006
  30   0.0000       0.164566         4.4781
  31   0.0000       0.196810         5.3555

MULLIKEN ATOMIC CHARGES
-----------------------
   0 C :   -0.282229
   1 N :   -0.374267
   2 C :    0.410001
   3 O :   -0.329391
   4 N :   -0.335882
   5 C :    0.186075
   6 O :   -0.272719
   7 H :    0.137850
   8 H :    0.138052
   9 H :    0.175009
  10 H :    0.230440
  11 H :    0.237784
  12 H :    0.079275
Sum of atomic charges:    0.0000000

LOEWDIN ATOMIC CHARGES
----------------------
   0 C :   -0.312036
   1 N :    0.050880
   2 C :   -0.517235
   3 O :    0.116169
   4 N :    0.099849
   5 C :   -0.403756
   6 O :    0.123963
   7 H :    0.116786
   8 H :    0.114459
   9 H :    0.134518
  10 H :    0.178208
  11 H :    0.188653
  12 H :    0.109543

  Mayer bond orders larger than 0.1
B(  0-C ,  1-N ) :   0.8703 B(  0-C ,  7-H ) :   0.9325 B(  0-C ,  8-H ) :   0.9405
B(  0-C ,  9-H ) :   0.9277 B(  1-N ,  2-C ) :   1.1314 B(  1-N , 10-H ) :   0.8755
B(  2-C ,  3-O ) :   1.9659 B(  2-C ,  4-N ) :   0.9292 B(  4-N ,  5-C ) :   1.0300
B(  4-N , 11-H ) :   0.8714 B(  5-C ,  6-O ) :   1.9961 B(  5-C , 12-H ) :   0.9266

MP2 TOTAL ENERGY:     -377.230418235 Eh
FINAL SINGLE POINT ENERGY      -377.230418234831

DIPOLE MOMENT
-------------
                                X             Y             Z
Electronic contribution:     -4.78988      -4.09165       0.65855
Nuclear contribution   :      7.27638       3.73248      -1.04690
                        -----------------------------------------
Total Dipole Moment    :      2.48650      -0.35917      -0.38835
                        -----------------------------------------
Magnitude (a.u.)       :      2.54214
Magnitude (Debye)      :      6.46161

                             ****ORCA TERMINATED NORMALLY****
TOTAL RUN TIME: 0 days 0 hours 6 minutes 7 seconds 30 msec
