                         Program Version 3.0.3 - RELEASE   -
|  1> ! RI-MP2 RIJK def2-TZVP def2-TZVP/C def2-TZVP/JK TIGHTSCF
|  2> % maxcore 2000
|  3> % mp2 density relaxed end
|  4> *xyz 0 1
|  5>  O       -0.0994421973     1.4116384010    -0.2714395149
|  6>  C        0.0035887827     0.0433594986     0.1086208169
|  7>  C       -1.3972400771    -0.5338967164     0.0720032659
|  8>  C       -1.9741315041    -0.8347732506    -1.3539123458
|  9>  O       -1.1350035554    -2.0404550597    -1.3752751559
| 10>  C       -1.5058312032    -2.0958247579     0.0425643356
| 11>  C       -3.0311129351    -2.2904874406    -0.0414691979
| 12>  C       -3.3516333628    -1.4237551115    -1.0045525440
| 13>  H        0.7883979089     1.7786844679    -0.3098726120
| 14>  H        0.6507799378    -0.5208750630    -0.5748667767
| 15>  H        0.4127122355    -0.0548304531     1.1279500102
| 16>  H       -2.0591930422    -0.0045382161     0.7613501650
| 17>  H       -1.8466560304    -0.1721634393    -2.2076441520
| 18>  H       -0.8947658749    -2.7651380247     0.6479584958
| 19>  H       -3.6394732433    -2.9585346256     0.5495791053
| 20>  H       -4.3044919592    -1.1641167690    -1.4409614456
| 21> *
| 22>
| 23>                          ****END OF INPUT****

CARTESIAN COORDINATES (ANGSTROEM)
---------------------------------
  O     -0.099442    1.411638   -0.271440
  C      0.003589    0.043359    0.108621
  C     -1.397240   -0.533897    0.072003
  C     -1.974132   -0.834773   -1.353912
  O     -1.135004   -2.040455   -1.375275
  C     -1.505831   -2.095825    0.042564
  C     -3.031113   -2.290487   -0.041469
  C     -3.351633   -1.423755   -1.004553
  H      0.788398    1.778684   -0.309873
  H      0.650780   -0.520875   -0.574867
  H      0.412712   -0.054830    1.127950
  H     -2.059193   -0.004538    0.761350
  H     -1.846656   -0.172163   -2.207644
  H     -0.894766   -2.765138    0.647958
  H     -3.639473   -2.958535    0.549579
  H     -4.304492   -1.164117   -1.440961

 Total Charge           Charge          ....    0
 Multiplicity           Mult            ....    1
 Number of Electrons    NEL             ....   60
 Basis Dimension        Dim             ....  296

ORBITAL ENERGIES
----------------

  NO   OCC          E(Eh)            E(eV)
   0   2.0000     -20.557957      -559.4104
   1   2.0000     -20.545586      -559.0738
   2   2.0000     -11.295963      -307.3788
   3   2.0000     -11.291700      -307.2628
   4   2.0000     -11.275404      -306.8193
   5   2.0000     -11.240258      -305.8630
   6   2.0000     -11.234523      -305.7069
   7   2.0000     -11.232795      -305.6599
   8   2.0000      -1.388755       -37.7899
   9   2.0000      -1.360033       -37.0084
  10   2.0000      -1.096085       -29.8260
  11   2.0000      -1.015150       -27.6236
  12   2.0000      -0.938244       -25.5309
  13   2.0000      -0.881011       -23.9735
  14   2.0000      -0.750753       -20.4290
  15   2.0000      -0.742995       -20.2179
  16   2.0000      -0.714950       -19.4548
  17   2.0000      -0.697843       -18.9893
  18   2.0000      -0.668273       -18.1846
  19   2.0000      -0.606888       -16.5143
  20   2.0000      -0.583317       -15.8729
  21   2.0000      -0.564130       -15.3508
  22   2.0000      -0.554724       -15.0948
  23   2.0000      -0.522622       -14.2213
  24   2.0000      -0.506135       -13.7726
  25   2.0000      -0.478472       -13.0199
  26   2.0000      -0.459795       -12.5116
  27   2.0000      -0.440190       -11.9782
  28   2.0000      -0.419445       -11.4137
  29   2.0000      -0.351817        -9.5734
  30   0.0000       0.128477         3.4960
  31   0.0000       0.142083         3.8663
  32   0.0000       0.162579         4.4240
  33   0.0000       0.174212         4.7406
  34   0.0000       0.185308         5.0425

MULLIKEN ATOMIC CHARGES
-----------------------
   0 O :   -0.469094
   1 C :   -0.139875
   2 C :    0.027611
   3 C :    0.045547
   4 O :   -0.306102
   5 C :    0.014560
   6 C :   -0.192163
   7 C :   -0.198955
   8 H :    0.317172
   9 H :    0.131861
  10 H :    0.098006
  11 H :    0.114299
  12 H :    0.139691
  13 H :    0.136875
  14 H :    0.140168
  15 H :    0.140398
Sum of atomic charges:    0.0000000

LOEWDIN ATOMIC CHARGES
----------------------
   0 O :   -0.050986
   1 C :   -0.331840
   2 C :   -0.184128
   3 C :   -0.208663
   4 O :    0.148959
   5 C :   -0.217066
   6 C :   -0.129966
   7 C :   -0.126519
   8 H :    0.172790
   9 H :    0.125667
  10 H :    0.117767
  11 H :    0.148022
  12 H :    0.135381
  13 H :    0.131842
  14 H :    0.134012
  15 H :    0.134727

  Mayer bond orders larger than 0.1
B(  0-O ,  1-C ) :   1.0196 B(  0-O ,  8-H ) :   0.8479 B(  1-C ,  2-C ) :   0.9077
B(  1-C ,  9-H ) :   0.9247 B(  1-C , 10-H ) :   0.9302 B(  2-C ,  3-C ) :   0.9167
B(  2-C ,  5-C ) :   0.9027 B(  2-C , 11-H ) :   0.9101 B(  3-C ,  4-O ) :   0.8992
B(  3-C ,  7-C ) :   0.9442 B(  3-C , 12-H ) :   0.9113 B(  4-O ,  5-C ) :   0.9130
B(  5-C ,  6-C ) :   0.9560 B(  5-C , 13-H ) :   0.9021 B(  6-C ,  7-C ) :   1.7734
B(  6-C , 14-H ) :   0.9235 B(  7-C , 15-H ) :   0.9259

MP2 TOTAL ENERGY:     -383.046378425 Eh
FINAL SINGLE POINT ENERGY      -383.046378425452

DIPOLE MOMENT
-------------
                                X             Y             Z
Electronic contribution:     -0.72340      -1.15277      -1.65452
Nuclear contribution   :      0.91295       1.32391       2.24392
                        -----------------------------------------
Total Dipole Moment    :      0.18955       0.17114       0.58940
                        -----------------------------------------
Magnitude (a.u.)       :      0.64235
Magnitude (Debye)      :      1.63272

                             ****ORCA TERMINATED NORMALLY****
TOTAL RUN TIME: 0 days 0 hours 10 minutes 56 seconds 269 msec
