                         Program Version 3.0.3 - RELEASE   -
|  1> ! RI-MP2 RIJK def2-TZVP def2-TZVP/C def2-TZVP/JK TIGHTSCF
|  2> % maxcore 2000
|  3> % mp2 density relaxed end
|  4> *xyz 0 1
|  5>  C       -0.0998593916     1.5540300903    -0.0607601859
|  6>  C        1.4662624870     1.6970058757     0.0222112287
|  7>  O        2.0812923528     2.1642541380     1.2251120847
|  8>  C        2.4371430691     1.0277085213     2.0888307293
|  9>  C        1.6516225532    -0.1119838905     1.4865360873
| 10>  C        1.3670692125     0.2258687879     0.2101472483
| 11>  N        0.0193203753    -0.0098279463    -0.0137906220
| 12>  N       -0.4325986678    -0.6954901569     1.1478737885
| 13>  N        0.5353116715    -0.7745656843     1.9906614695
| 14>  H       -0.6166655372     1.9030923652     0.8313015463
| 15>  H       -0.5784052411     1.8768988715    -0.9837450862
| 16>  H        1.9367285242     2.1699278401    -0.8400410556
| 17>  H        3.5251708904     0.9054296810     2.0719276780
| 18>  H        2.1170123917     1.2509702770     3.1098085292
| 19> *
| 20>
| 21>                          ****END OF INPUT****

CARTESIAN COORDINATES (ANGSTROEM)
---------------------------------
  C     -0.099859    1.554030   -0.060760
  C      1.466262    1.697006    0.022211
  O      2.081292    2.164254    1.225112
  C      2.437143    1.027709    2.088831
  C      1.651623   -0.111984    1.486536
  C      1.367069    0.225869    0.210147
  N      0.019320   -0.009828   -0.013791
  N     -0.432599   -0.695490    1.147874
  N      0.535312   -0.774566    1.990661
  H     -0.616666    1.903092    0.831302
  H     -0.578405    1.876899   -0.983745
  H      1.936729    2.169928   -0.840041
  H      3.525171    0.905430    2.071928
  H      2.117012    1.250970    3.109809

 Total Charge           Charge          ....    0
 Multiplicity           Mult            ....    1
 Number of Electrons    NEL             ....   64
 Basis Dimension        Dim             ....  309

ORBITAL ENERGIES
----------------

  NO   OCC          E(Eh)            E(eV)
   0   2.0000     -20.584473      -560.1320
   1   2.0000     -15.663085      -426.2142
   2   2.0000     -15.636913      -425.5020
   3   2.0000     -15.632619      -425.3852
   4   2.0000     -11.333182      -308.3916
   5   2.0000     -11.318149      -307.9825
   6   2.0000     -11.316711      -307.9434
   7   2.0000     -11.287620      -307.1518
   8   2.0000     -11.274345      -306.7905
   9   2.0000      -1.443695       -39.2849
  10   2.0000      -1.391817       -37.8733
  11   2.0000      -1.244741       -33.8711
  12   2.0000      -1.110340       -30.2139
  13   2.0000      -1.029753       -28.0210
  14   2.0000      -0.950793       -25.8724
  15   2.0000      -0.895239       -24.3607
  16   2.0000      -0.820725       -22.3331
  17   2.0000      -0.789747       -21.4901
  18   2.0000      -0.717462       -19.5231
  19   2.0000      -0.690308       -18.7842
  20   2.0000      -0.650941       -17.7130
  21   2.0000      -0.633556       -17.2399
  22   2.0000      -0.607453       -16.5296
  23   2.0000      -0.588401       -16.0112
  24   2.0000      -0.578652       -15.7459
  25   2.0000      -0.561224       -15.2717
  26   2.0000      -0.519500       -14.1363
  27   2.0000      -0.490826       -13.3561
  28   2.0000      -0.471799       -12.8383
  29   2.0000      -0.443457       -12.0671
  30   2.0000      -0.422826       -11.5057
  31   2.0000      -0.355973        -9.6865
  32   0.0000       0.064237         1.7480
  33   0.0000       0.122924         3.3449
  34   0.0000       0.140811         3.8317
  35   0.0000       0.165885         4.5140
  36   0.0000       0.169992         4.6257

MULLIKEN ATOMIC CHARGES
-----------------------
   0 C :   -0.159412
   1 C :    0.013241
   2 O :   -0.304768
   3 C :   -0.034553
   4 C :   -0.083774
   5 C :    0.100748
   6 N :   -0.031187
   7 N :   -0.103522
   8 N :   -0.107907
   9 H :    0.161930
  10 H :    0.152284
  11 H :    0.133018
  12 H :    0.130557
  13 H :    0.133345
Sum of atomic charges:    0.0000000

LOEWDIN ATOMIC CHARGES
----------------------
   0 C :   -0.132038
   1 C :   -0.244766
   2 O :    0.149141
   3 C :   -0.219997
   4 C :   -0.233366
   5 C :   -0.217548
   6 N :    0.144054
   7 N :   -0.000331
   8 N :    0.060872
   9 H :    0.145343
  10 H :    0.135689
  11 H :    0.142563
  12 H :    0.132057
  13 H :    0.138326

  Mayer bond orders larger than 0.1
B(  0-C ,  1-C ) :   0.9026 B(  0-C ,  6-N ) :   0.7873 B(  0-C ,  9-H ) :   0.9004
B(  0-C , 10-H ) :   0.9083 B(  1-C ,  2-O ) :   0.9868 B(  1-C ,  5-C ) :   0.9274
B(  1-C , 11-H ) :   0.9156 B(  2-O ,  3-C ) :   0.9175 B(  3-C ,  4-C ) :   0.9861
B(  3-C , 12-H ) :   0.9193 B(  3-C , 13-H ) :   0.9062 B(  4-C ,  5-C ) :   1.4753
B(  4-C ,  8-N ) :   1.2213 B(  5-C ,  6-N ) :   1.0666 B(  6-N ,  7-N ) :   0.9055
B(  7-N ,  8-N ) :   1.3781

MP2 TOTAL ENERGY:     -432.025520936 Eh
FINAL SINGLE POINT ENERGY      -432.025520935805

DIPOLE MOMENT
-------------
                                X             Y             Z
Electronic contribution:     -0.77091      -3.68995      -0.16244
Nuclear contribution   :      1.28808       4.75891      -0.35316
                        -----------------------------------------
Total Dipole Moment    :      0.51718       1.06896      -0.51560
                        -----------------------------------------
Magnitude (a.u.)       :      1.29460
Magnitude (Debye)      :      3.29062

                             ****ORCA TERMINATED NORMALLY****
TOTAL RUN TIME: 0 days 0 hours 17 minutes 3 seconds 900 msec
