                         Program Version 3.0.3 - RELEASE   -
|  1> ! RI-MP2 RIJK def2-TZVP def2-TZVP/C def2-TZVP/JK TIGHTSCF
|  2> % maxcore 2000
|  3> % mp2 density relaxed end
|  4> *xyz 0 1
|  5>  O       -0.0736974256     1.4534524875    -0.0418175635
|  6>  C       -0.0498900502     0.0722120705     0.0233606852
|  7>  C        0.2451370476    -0.6155152160     1.4320139522
|  8>  C       -1.0894498992    -1.3489222590     1.2952314268
|  9>  O       -2.0957478104    -0.3389524639     1.2247290182
| 10>  C       -1.4104778734    -0.6754639918     0.0226510586
| 11>  C        0.8834810863    -0.4965425971    -1.0189255530
| 12>  O        1.5047303434     0.2162140521    -1.7705126982
| 13>  H        0.5483667388     1.6980731923    -0.7467422784
| 14>  H        1.1315381347    -1.2550868285     1.4361976076
| 15>  H        0.2896351512     0.1016686981     2.2525193376
| 16>  H       -1.3777009406    -2.3277924965     1.6567239038
| 17>  H       -2.0152108413    -0.9753925587    -0.8259466452
| 18>  H        0.9738889589    -1.6008412290    -1.0525548417
| 19> *
| 20>
| 21>                          ****END OF INPUT****

CARTESIAN COORDINATES (ANGSTROEM)
---------------------------------
  O     -0.073697    1.453452   -0.041818
  C     -0.049890    0.072212    0.023361
  C      0.245137   -0.615515    1.432014
  C     -1.089450   -1.348922    1.295231
  O     -2.095748   -0.338952    1.224729
  C     -1.410478   -0.675464    0.022651
  C      0.883481   -0.496543   -1.018926
  O      1.504730    0.216214   -1.770513
  H      0.548367    1.698073   -0.746742
  H      1.131538   -1.255087    1.436198
  H      0.289635    0.101669    2.252519
  H     -1.377701   -2.327792    1.656724
  H     -2.015211   -0.975393   -0.825947
  H      0.973889   -1.600841   -1.052555

 Total Charge           Charge          ....    0
 Multiplicity           Mult            ....    1
 Number of Electrons    NEL             ....   60
 Basis Dimension        Dim             ....  284

ORBITAL ENERGIES
----------------

  NO   OCC          E(Eh)            E(eV)
   0   2.0000     -20.587455      -560.2131
   1   2.0000     -20.587144      -560.2047
   2   2.0000     -20.568426      -559.6953
   3   2.0000     -11.356737      -309.0325
   4   2.0000     -11.321329      -308.0690
   5   2.0000     -11.308316      -307.7149
   6   2.0000     -11.306992      -307.6789
   7   2.0000     -11.257815      -306.3407
   8   2.0000      -1.445635       -39.3377
   9   2.0000      -1.430730       -38.9321
  10   2.0000      -1.377100       -37.4728
  11   2.0000      -1.105986       -30.0954
  12   2.0000      -0.953695       -25.9514
  13   2.0000      -0.900254       -24.4972
  14   2.0000      -0.847694       -23.0669
  15   2.0000      -0.778318       -21.1791
  16   2.0000      -0.749356       -20.3910
  17   2.0000      -0.725090       -19.7307
  18   2.0000      -0.683657       -18.6033
  19   2.0000      -0.660393       -17.9702
  20   2.0000      -0.612838       -16.6762
  21   2.0000      -0.596887       -16.2421
  22   2.0000      -0.567366       -15.4388
  23   2.0000      -0.547776       -14.9058
  24   2.0000      -0.547291       -14.8925
  25   2.0000      -0.533075       -14.5057
  26   2.0000      -0.495505       -13.4834
  27   2.0000      -0.452262       -12.3067
  28   2.0000      -0.435321       -11.8457
  29   2.0000      -0.418283       -11.3821
  30   0.0000       0.101553         2.7634
  31   0.0000       0.139392         3.7930
  32   0.0000       0.158015         4.2998
  33   0.0000       0.172695         4.6993
  34   0.0000       0.181612         4.9419

MULLIKEN ATOMIC CHARGES
-----------------------
   0 O :   -0.455136
   1 C :    0.357876
   2 C :   -0.249571
   3 C :   -0.046626
   4 O :   -0.301119
   5 C :   -0.054698
   6 C :    0.029732
   7 O :   -0.287512
   8 H :    0.331868
   9 H :    0.136225
  10 H :    0.134375
  11 H :    0.143832
  12 H :    0.148148
  13 H :    0.112605
Sum of atomic charges:    0.0000000

LOEWDIN ATOMIC CHARGES
----------------------
   0 O :    0.044132
   1 C :   -0.361299
   2 C :   -0.169902
   3 C :   -0.244548
   4 O :    0.199292
   5 C :   -0.212311
   6 C :   -0.253465
   7 O :    0.133170
   8 H :    0.187666
   9 H :    0.138321
  10 H :    0.145593
  11 H :    0.132320
  12 H :    0.134462
  13 H :    0.126570

  Mayer bond orders larger than 0.1
B(  0-O ,  1-C ) :   1.1355 B(  0-O ,  8-H ) :   0.7993 B(  1-C ,  2-C ) :   0.8773
B(  1-C ,  5-C ) :   0.7914 B(  1-C ,  6-C ) :   0.8386 B(  2-C ,  3-C ) :   0.9433
B(  2-C ,  9-H ) :   0.9097 B(  2-C , 10-H ) :   0.8880 B(  3-C ,  4-O ) :   0.9405
B(  3-C ,  5-C ) :   0.9144 B(  3-C , 11-H ) :   0.9333 B(  4-O ,  5-C ) :   0.9115
B(  5-C , 12-H ) :   0.9255 B(  6-C ,  7-O ) :   1.9012 B(  6-C , 13-H ) :   0.9241

MP2 TOTAL ENERGY:     -418.971323241 Eh
FINAL SINGLE POINT ENERGY      -418.971323241034

DIPOLE MOMENT
-------------
                                X             Y             Z
Electronic contribution:     -0.65078       1.85817      -1.79015
Nuclear contribution   :      0.96858      -3.08026       1.82671
                        -----------------------------------------
Total Dipole Moment    :      0.31779      -1.22208       0.03656
                        -----------------------------------------
Magnitude (a.u.)       :      1.26326
Magnitude (Debye)      :      3.21094

                             ****ORCA TERMINATED NORMALLY****
TOTAL RUN TIME: 0 days 0 hours 10 minutes 37 seconds 853 msec
