                         Program Version 3.0.3 - RELEASE   -
|  1> ! RI-MP2 RIJK def2-TZVP def2-TZVP/C def2-TZVP/JK TIGHTSCF
|  2> % maxcore 2000
|  3> % mp2 density relaxed end
|  4> *xyz 0 1
|  5>  C       -0.0814563670    -1.2405453640    -0.0976298429
|  6>  C       -0.0565351372    -0.0396863947    -0.0257687239
|  7>  C        0.0104856077     1.4084676126     0.0538821087
|  8>  C       -0.2552265037     2.0891710531     1.4170028898
|  9>  C        0.8121370172     1.7444219838     2.4147898016
| 10>  C        1.1082700253     2.7808593118     1.3634629016
| 11>  C        1.4123720685     2.0948571281     0.0483070149
| 12>  C        2.7115125318     1.5197007752    -0.4238290650
| 13>  C        2.0768631802     2.6850731589    -1.1551563540
| 14>  H       -0.1183781905    -2.3001142636    -0.1549658657
| 15>  H       -0.6202543321     1.8539510297    -0.7227885446
| 16>  H       -1.2162095702     2.4916031086     1.7107887867
| 17>  H        0.6418050843     2.1289332185     3.4154412975
| 18>  H        1.3015570737     0.7748163867     2.3812228918
| 19>  H        1.3577449497     3.8068611465     1.6064942098
| 20>  H        3.6006237513     1.7076875416     0.1695184678
| 21>  H        2.6836346267     0.5441966831    -0.8985907779
| 22>  H        1.6352881507     2.5000297013    -2.1297563731
| 23>  H        2.5362638838     3.6636736230    -1.0544705033
| 24> *
| 25>
| 26>                          ****END OF INPUT****

CARTESIAN COORDINATES (ANGSTROEM)
---------------------------------
  C     -0.081456   -1.240545   -0.097630
  C     -0.056535   -0.039686   -0.025769
  C      0.010486    1.408468    0.053882
  C     -0.255227    2.089171    1.417003
  C      0.812137    1.744422    2.414790
  C      1.108270    2.780859    1.363463
  C      1.412372    2.094857    0.048307
  C      2.711513    1.519701   -0.423829
  C      2.076863    2.685073   -1.155156
  H     -0.118378   -2.300114   -0.154966
  H     -0.620254    1.853951   -0.722789
  H     -1.216210    2.491603    1.710789
  H      0.641805    2.128933    3.415441
  H      1.301557    0.774816    2.381223
  H      1.357745    3.806861    1.606494
  H      3.600624    1.707688    0.169518
  H      2.683635    0.544197   -0.898591
  H      1.635288    2.500030   -2.129756
  H      2.536264    3.663674   -1.054471

 Total Charge           Charge          ....    0
 Multiplicity           Mult            ....    1
 Number of Electrons    NEL             ....   64
 Basis Dimension        Dim             ....  339

ORBITAL ENERGIES
----------------

  NO   OCC          E(Eh)            E(eV)
   0   2.0000     -11.258254      -306.3527
   1   2.0000     -11.245141      -305.9958
   2   2.0000     -11.239984      -305.8555
   3   2.0000     -11.236181      -305.7520
   4   2.0000     -11.228655      -305.5472
   5   2.0000     -11.228022      -305.5300
   6   2.0000     -11.225853      -305.4710
   7   2.0000     -11.220759      -305.3324
   8   2.0000     -11.217304      -305.2383
   9   2.0000      -1.208597       -32.8876
  10   2.0000      -1.115841       -30.3636
  11   2.0000      -1.042598       -28.3705
  12   2.0000      -0.959223       -26.1018
  13   2.0000      -0.861861       -23.4524
  14   2.0000      -0.826130       -22.4801
  15   2.0000      -0.799719       -21.7615
  16   2.0000      -0.742359       -20.2006
  17   2.0000      -0.702040       -19.1035
  18   2.0000      -0.687430       -18.7059
  19   2.0000      -0.656094       -17.8532
  20   2.0000      -0.639876       -17.4119
  21   2.0000      -0.597794       -16.2668
  22   2.0000      -0.567894       -15.4532
  23   2.0000      -0.526879       -14.3371
  24   2.0000      -0.513264       -13.9666
  25   2.0000      -0.481905       -13.1133
  26   2.0000      -0.463623       -12.6158
  27   2.0000      -0.438917       -11.9436
  28   2.0000      -0.399964       -10.8836
  29   2.0000      -0.382303       -10.4030
  30   2.0000      -0.374062       -10.1788
  31   2.0000      -0.365163        -9.9366
  32   0.0000       0.146890         3.9971
  33   0.0000       0.154588         4.2065
  34   0.0000       0.158850         4.3225
  35   0.0000       0.166934         4.5425
  36   0.0000       0.176022         4.7898

MULLIKEN ATOMIC CHARGES
-----------------------
   0 C :   -0.179370
   1 C :   -0.038077
   2 C :   -0.119554
   3 C :   -0.115496
   4 C :   -0.261354
   5 C :   -0.111317
   6 C :    0.009234
   7 C :   -0.257853
   8 C :   -0.295751
   9 H :    0.186639
  10 H :    0.121887
  11 H :    0.132674
  12 H :    0.130192
  13 H :    0.144908
  14 H :    0.131797
  15 H :    0.127661
  16 H :    0.137331
  17 H :    0.129928
  18 H :    0.126523
Sum of atomic charges:   -0.0000000

LOEWDIN ATOMIC CHARGES
----------------------
   0 C :   -0.102145
   1 C :   -0.081979
   2 C :   -0.154105
   3 C :   -0.138436
   4 C :   -0.194357
   5 C :   -0.139762
   6 C :   -0.181314
   7 C :   -0.200346
   8 C :   -0.201792
   9 H :    0.125894
  10 H :    0.172778
  11 H :    0.136290
  12 H :    0.140071
  13 H :    0.138407
  14 H :    0.138160
  15 H :    0.134795
  16 H :    0.138648
  17 H :    0.134680
  18 H :    0.134512

  Mayer bond orders larger than 0.1
B(  0-C ,  1-C ) :   2.5722 B(  0-C ,  9-H ) :   0.9007 B(  1-C ,  2-C ) :   1.1639
B(  2-C ,  3-C ) :   0.9118 B(  2-C ,  6-C ) :   0.8987 B(  2-C , 10-H ) :   0.9250
B(  3-C ,  4-C ) :   0.8937 B(  3-C ,  5-C ) :   0.8581 B(  3-C , 11-H ) :   0.9274
B(  4-C ,  5-C ) :   0.8834 B(  4-C , 12-H ) :   0.9310 B(  4-C , 13-H ) :   0.9169
B(  5-C ,  6-C ) :   0.8922 B(  5-C , 14-H ) :   0.9160 B(  6-C ,  7-C ) :   0.8596
B(  6-C ,  8-C ) :   0.8666 B(  7-C ,  8-C ) :   0.9422 B(  7-C , 15-H ) :   0.9215
B(  7-C , 16-H ) :   0.9142 B(  8-C , 17-H ) :   0.9212 B(  8-C , 18-H ) :   0.9202

MP2 TOTAL ENERGY:     -348.012865245 Eh
FINAL SINGLE POINT ENERGY      -348.012865244699

DIPOLE MOMENT
-------------
                                X             Y             Z
Electronic contribution:     -2.71889      -2.00948      -0.20022
Nuclear contribution   :      2.74938       2.30000       0.28180
                        -----------------------------------------
Total Dipole Moment    :      0.03050       0.29052       0.08158
                        -----------------------------------------
Magnitude (a.u.)       :      0.30330
Magnitude (Debye)      :      0.77092

                             ****ORCA TERMINATED NORMALLY****
TOTAL RUN TIME: 0 days 0 hours 20 minutes 10 seconds 878 msec
