                         Program Version 3.0.3 - RELEASE   -
|  1> ! RI-MP2 RIJK def2-TZVP def2-TZVP/C def2-TZVP/JK TIGHTSCF
|  2> % maxcore 2000
|  3> % mp2 density relaxed end
|  4> *xyz 0 1
|  5>  O       -0.1894587208     0.0462282230     0.2345484846
|  6>  C       -0.0317221901     1.2048908855    -0.0579579346
|  7>  C        1.2811051298     1.8816088571    -0.0928388408
|  8>  N        1.3509794823     3.3409660008     0.2377911609
|  9>  C        1.6065219910     2.9021342303    -1.1380688728
| 10>  C        3.0992418540     2.7195510726    -1.4322981585
| 11>  O        3.7216884699     3.3050458280    -2.2817604440
| 12>  C        3.5791683758     1.6622688781    -0.4992920140
| 13>  C        2.5619672428     1.1718542544     0.2198654154
| 14>  H       -0.8885625845     1.8683918899    -0.3220188845
| 15>  H        0.4037353802     3.7240398207     0.2905409322
| 16>  H        0.9288076562     3.1793388484    -1.9379228873
| 17>  H        4.6195390339     1.3708568168    -0.4444682060
| 18>  H        2.6082142895     0.3840829445     0.9605365794
| 19> *
| 20>
| 21>                          ****END OF INPUT****

CARTESIAN COORDINATES (ANGSTROEM)
---------------------------------
  O     -0.189459    0.046228    0.234548
  C     -0.031722    1.204891   -0.057958
  C      1.281105    1.881609   -0.092839
  N      1.350979    3.340966    0.237791
  C      1.606522    2.902134   -1.138069
  C      3.099242    2.719551   -1.432298
  O      3.721688    3.305046   -2.281760
  C      3.579168    1.662269   -0.499292
  C      2.561967    1.171854    0.219865
  H     -0.888563    1.868392   -0.322019
  H      0.403735    3.724040    0.290541
  H      0.928808    3.179339   -1.937923
  H      4.619539    1.370857   -0.444468
  H      2.608214    0.384083    0.960537

 Total Charge           Charge          ....    0
 Multiplicity           Mult            ....    1
 Number of Electrons    NEL             ....   64
 Basis Dimension        Dim             ....  309

ORBITAL ENERGIES
----------------

  NO   OCC          E(Eh)            E(eV)
   0   2.0000     -20.584097      -560.1217
   1   2.0000     -20.564318      -559.5835
   2   2.0000     -15.618563      -425.0027
   3   2.0000     -11.364661      -309.2481
   4   2.0000     -11.352641      -308.9211
   5   2.0000     -11.312838      -307.8380
   6   2.0000     -11.308117      -307.7095
   7   2.0000     -11.284121      -307.0565
   8   2.0000     -11.258938      -306.3713
   9   2.0000      -1.423847       -38.7449
  10   2.0000      -1.407433       -38.2982
  11   2.0000      -1.323625       -36.0177
  12   2.0000      -1.120270       -30.4841
  13   2.0000      -0.989156       -26.9163
  14   2.0000      -0.953737       -25.9525
  15   2.0000      -0.875350       -23.8195
  16   2.0000      -0.800955       -21.7951
  17   2.0000      -0.758605       -20.6427
  18   2.0000      -0.740627       -20.1535
  19   2.0000      -0.682882       -18.5822
  20   2.0000      -0.680476       -18.5167
  21   2.0000      -0.641221       -17.4485
  22   2.0000      -0.623535       -16.9673
  23   2.0000      -0.598306       -16.2807
  24   2.0000      -0.580483       -15.7957
  25   2.0000      -0.571983       -15.5645
  26   2.0000      -0.532779       -14.4977
  27   2.0000      -0.524387       -14.2693
  28   2.0000      -0.461256       -12.5514
  29   2.0000      -0.455951       -12.4071
  30   2.0000      -0.414967       -11.2918
  31   2.0000      -0.389857       -10.6085
  32   0.0000       0.064987         1.7684
  33   0.0000       0.098889         2.6909
  34   0.0000       0.118577         3.2266
  35   0.0000       0.165058         4.4915
  36   0.0000       0.166850         4.5402

MULLIKEN ATOMIC CHARGES
-----------------------
   0 O :   -0.255377
   1 C :    0.087660
   2 C :    0.249826
   3 N :   -0.356663
   4 C :   -0.095851
   5 C :    0.182030
   6 O :   -0.256153
   7 C :   -0.134667
   8 C :   -0.201245
   9 H :    0.074476
  10 H :    0.226573
  11 H :    0.163174
  12 H :    0.155684
  13 H :    0.160533
Sum of atomic charges:   -0.0000000

LOEWDIN ATOMIC CHARGES
----------------------
   0 O :    0.147078
   1 C :   -0.275137
   2 C :   -0.254805
   3 N :    0.069634
   4 C :   -0.168756
   5 C :   -0.290841
   6 O :    0.170901
   7 C :   -0.094859
   8 C :   -0.049875
   9 H :    0.118952
  10 H :    0.176448
  11 H :    0.148828
  12 H :    0.149606
  13 H :    0.152825

  Mayer bond orders larger than 0.1
B(  0-O ,  1-C ) :   2.0115 B(  0-O ,  2-C ) :  -0.1086 B(  1-C ,  2-C ) :   0.8842
B(  1-C ,  9-H ) :   0.9431 B(  2-C ,  3-N ) :   0.8640 B(  2-C ,  4-C ) :   0.7862
B(  2-C ,  8-C ) :   0.9113 B(  3-N ,  4-C ) :   0.9498 B(  3-N , 10-H ) :   0.8581
B(  4-C ,  5-C ) :   0.8859 B(  4-C , 11-H ) :   0.9086 B(  5-C ,  6-O ) :   1.9949
B(  5-C ,  7-C ) :   0.9927 B(  7-C ,  8-C ) :   1.6819 B(  7-C , 12-H ) :   0.9146
B(  8-C , 13-H ) :   0.9090

MP2 TOTAL ENERGY:     -435.954973983 Eh
FINAL SINGLE POINT ENERGY      -435.954973983388

DIPOLE MOMENT
-------------
                                X             Y             Z
Electronic contribution:      0.88517      -0.19533      -0.91867
Nuclear contribution   :     -1.51285       0.35998       1.17676
                        -----------------------------------------
Total Dipole Moment    :     -0.62768       0.16465       0.25809
                        -----------------------------------------
Magnitude (a.u.)       :      0.69835
Magnitude (Debye)      :      1.77508

                             ****ORCA TERMINATED NORMALLY****
TOTAL RUN TIME: 0 days 0 hours 14 minutes 16 seconds 631 msec
