                         Program Version 3.0.3 - RELEASE   -
|  1> ! RI-MP2 RIJK def2-TZVP def2-TZVP/C def2-TZVP/JK TIGHTSCF
|  2> % maxcore 2000
|  3> % mp2 density relaxed end
|  4> *xyz 0 1
|  5>  C        0.4576676786     1.3541330555     1.1771085811
|  6>  C        0.1889107097    -0.1006717659     0.8179604167
|  7>  C        0.7095845588    -0.4500620862    -0.5954786361
|  8>  C        1.0296860459    -1.9218774403    -0.8242882202
|  9>  C        0.9352139671    -2.8683564593     0.3344209124
| 10>  C        0.5030483884    -2.2777963144     1.6720282072
| 11>  O        0.8182231786    -0.8996938329     1.8060122293
| 12>  N        0.0488934998    -2.9957247926    -0.8242168137
| 13>  C       -1.3789958439    -2.7458862340    -0.7531076876
| 14>  H        1.5356640902     1.5423629095     1.2003688578
| 15>  H        0.0036658246     2.0227713591     0.4390880255
| 16>  H        0.0460581747     1.5892663187     2.1620654114
| 17>  H       -0.8988426356    -0.2768844793     0.8630980798
| 18>  H        0.0011865523    -0.0826542692    -1.3488717998
| 19>  H        1.6440871323     0.1010249270    -0.7565547581
| 20>  H        1.8265055535    -2.0770061000    -1.5504499103
| 21>  H        1.6546548418    -3.6810962555     0.4112590898
| 22>  H       -0.5742982121    -2.4341168669     1.8473975111
| 23>  H        1.0408861592    -2.7812131986     2.4793133524
| 24>  H       -1.7474805548    -2.5562463500    -1.7667150595
| 25>  H       -1.8762376058    -3.6487497234    -0.3828408431
| 26>  H       -1.6970264533    -1.9055083713    -0.1205545861
| 27> *
| 28>
| 29>                          ****END OF INPUT****

CARTESIAN COORDINATES (ANGSTROEM)
---------------------------------
  C      0.457668    1.354133    1.177109
  C      0.188911   -0.100672    0.817960
  C      0.709585   -0.450062   -0.595479
  C      1.029686   -1.921877   -0.824288
  C      0.935214   -2.868356    0.334421
  C      0.503048   -2.277796    1.672028
  O      0.818223   -0.899694    1.806012
  N      0.048893   -2.995725   -0.824217
  C     -1.378996   -2.745886   -0.753108
  H      1.535664    1.542363    1.200369
  H      0.003666    2.022771    0.439088
  H      0.046058    1.589266    2.162065
  H     -0.898843   -0.276884    0.863098
  H      0.001187   -0.082654   -1.348872
  H      1.644087    0.101025   -0.756555
  H      1.826506   -2.077006   -1.550450
  H      1.654655   -3.681096    0.411259
  H     -0.574298   -2.434117    1.847398
  H      1.040886   -2.781213    2.479313
  H     -1.747481   -2.556246   -1.766715
  H     -1.876238   -3.648750   -0.382841
  H     -1.697026   -1.905508   -0.120555

 Total Charge           Charge          ....    0
 Multiplicity           Mult            ....    1
 Number of Electrons    NEL             ....   70
 Basis Dimension        Dim             ....  357

ORBITAL ENERGIES
----------------

  NO   OCC          E(Eh)            E(eV)
   0   2.0000     -20.552119      -559.2516
   1   2.0000     -15.553400      -423.2295
   2   2.0000     -11.281132      -306.9752
   3   2.0000     -11.277306      -306.8711
   4   2.0000     -11.257338      -306.3278
   5   2.0000     -11.253189      -306.2148
   6   2.0000     -11.246579      -306.0350
   7   2.0000     -11.228639      -305.5468
   8   2.0000     -11.214834      -305.1711
   9   2.0000      -1.377083       -37.4723
  10   2.0000      -1.268181       -34.5090
  11   2.0000      -1.061513       -28.8852
  12   2.0000      -1.013973       -27.5916
  13   2.0000      -0.952896       -25.9296
  14   2.0000      -0.937550       -25.5120
  15   2.0000      -0.832925       -22.6650
  16   2.0000      -0.786032       -21.3890
  17   2.0000      -0.750611       -20.4252
  18   2.0000      -0.687676       -18.7126
  19   2.0000      -0.666452       -18.1351
  20   2.0000      -0.643074       -17.4989
  21   2.0000      -0.625113       -17.0102
  22   2.0000      -0.617299       -16.7976
  23   2.0000      -0.584657       -15.9093
  24   2.0000      -0.559316       -15.2198
  25   2.0000      -0.548950       -14.9377
  26   2.0000      -0.540944       -14.7198
  27   2.0000      -0.531487       -14.4625
  28   2.0000      -0.522455       -14.2167
  29   2.0000      -0.491930       -13.3861
  30   2.0000      -0.469019       -12.7627
  31   2.0000      -0.444139       -12.0856
  32   2.0000      -0.431202       -11.7336
  33   2.0000      -0.407480       -11.0881
  34   2.0000      -0.363293        -9.8857
  35   0.0000       0.134681         3.6648
  36   0.0000       0.157095         4.2748
  37   0.0000       0.163435         4.4473
  38   0.0000       0.174326         4.7436
  39   0.0000       0.192775         5.2457

MULLIKEN ATOMIC CHARGES
-----------------------
   0 C :   -0.378883
   1 C :    0.049539
   2 C :   -0.213181
   3 C :   -0.058918
   4 C :   -0.069860
   5 C :   -0.091546
   6 O :   -0.294721
   7 N :   -0.213578
   8 C :   -0.307893
   9 H :    0.130851
  10 H :    0.123573
  11 H :    0.138339
  12 H :    0.072885
  13 H :    0.121695
  14 H :    0.117250
  15 H :    0.122926
  16 H :    0.122117
  17 H :    0.108116
  18 H :    0.131238
  19 H :    0.142025
  20 H :    0.142411
  21 H :    0.105615
Sum of atomic charges:   -0.0000000

LOEWDIN ATOMIC CHARGES
----------------------
   0 C :   -0.290775
   1 C :   -0.352782
   2 C :   -0.229726
   3 C :   -0.235544
   4 C :   -0.236524
   5 C :   -0.298698
   6 O :    0.179577
   7 N :    0.107769
   8 C :   -0.335706
   9 H :    0.127119
  10 H :    0.126810
  11 H :    0.126093
  12 H :    0.130293
  13 H :    0.144880
  14 H :    0.150949
  15 H :    0.142751
  16 H :    0.140709
  17 H :    0.124683
  18 H :    0.135418
  19 H :    0.121198
  20 H :    0.120654
  21 H :    0.100853

  Mayer bond orders larger than 0.1
B(  0-C ,  1-C ) :   0.9141 B(  0-C ,  9-H ) :   0.9391 B(  0-C , 10-H ) :   0.9314
B(  0-C , 11-H ) :   0.9405 B(  1-C ,  2-C ) :   0.9248 B(  1-C ,  6-O ) :   0.9506
B(  1-C , 12-H ) :   0.9375 B(  2-C ,  3-C ) :   0.9245 B(  2-C , 13-H ) :   0.9154
B(  2-C , 14-H ) :   0.9083 B(  3-C ,  4-C ) :   0.9071 B(  3-C ,  7-N ) :   0.9349
B(  3-C , 15-H ) :   0.9210 B(  4-C ,  5-C ) :   0.9035 B(  4-C ,  7-N ) :   0.9101
B(  4-C , 16-H ) :   0.9200 B(  5-C ,  6-O ) :   0.9437 B(  5-C , 17-H ) :   0.9378
B(  5-C , 18-H ) :   0.9297 B(  7-N ,  8-C ) :   0.8863 B(  8-C , 19-H ) :   0.9381
B(  8-C , 20-H ) :   0.9381 B(  8-C , 21-H ) :   0.9173

MP2 TOTAL ENERGY:     -403.629533568 Eh
FINAL SINGLE POINT ENERGY      -403.629533568495

DIPOLE MOMENT
-------------
                                X             Y             Z
Electronic contribution:      2.99340      -3.57879       0.73825
Nuclear contribution   :     -3.32498       3.84133      -0.82891
                        -----------------------------------------
Total Dipole Moment    :     -0.33158       0.26254      -0.09065
                        -----------------------------------------
Magnitude (a.u.)       :      0.43254
Magnitude (Debye)      :      1.09943

                             ****ORCA TERMINATED NORMALLY****
TOTAL RUN TIME: 0 days 0 hours 20 minutes 25 seconds 14 msec
