                         Program Version 3.0.3 - RELEASE   -
|  1> ! RI-MP2 RIJK def2-TZVP def2-TZVP/C def2-TZVP/JK TIGHTSCF
|  2> % maxcore 2000
|  3> % mp2 density relaxed end
|  4> *xyz 0 1
|  5>  C       -0.0947290325     1.5433796807     0.1047130438
|  6>  C        0.1176798323     0.0697976768     0.0018227002
|  7>  O       -0.7785964981    -0.8196895836     0.6772614366
|  8>  C        0.6292452416    -0.9119491724     0.9981811381
|  9>  C        1.2480417072    -1.7285911995    -0.1443211071
| 10>  O        1.9871587812    -2.6665784122    -0.2150106171
| 11>  C        0.6856063891    -0.7433951811    -1.1604904117
| 12>  C        0.1434934479    -1.0092235159    -2.5343825682
| 13>  C        1.4505945696    -0.2832325598    -2.3761351451
| 14>  H        0.8180876363     2.0856001928    -0.1595521333
| 15>  H       -0.8916179496     1.8688585728    -0.5732969382
| 16>  H       -0.3852479564     1.8137871225     1.1227500285
| 17>  H        0.9214430379    -0.7986756268     2.0356783070
| 18>  H        0.1662567243    -2.0378904618    -2.8782018367
| 19>  H       -0.7257576374    -0.4424144304    -2.8507724779
| 20>  H        1.4745012644     0.7820376994    -2.5816377486
| 21>  H        2.3691369822    -0.8144716313    -2.6025519404
| 22> *
| 23>
| 24>                          ****END OF INPUT****

CARTESIAN COORDINATES (ANGSTROEM)
---------------------------------
  C     -0.094729    1.543380    0.104713
  C      0.117680    0.069798    0.001823
  O     -0.778596   -0.819690    0.677261
  C      0.629245   -0.911949    0.998181
  C      1.248042   -1.728591   -0.144321
  O      1.987159   -2.666578   -0.215011
  C      0.685606   -0.743395   -1.160490
  C      0.143493   -1.009224   -2.534383
  C      1.450595   -0.283233   -2.376135
  H      0.818088    2.085600   -0.159552
  H     -0.891618    1.868859   -0.573297
  H     -0.385248    1.813787    1.122750
  H      0.921443   -0.798676    2.035678
  H      0.166257   -2.037890   -2.878202
  H     -0.725758   -0.442414   -2.850772
  H      1.474501    0.782038   -2.581638
  H      2.369137   -0.814472   -2.602552

 Total Charge           Charge          ....    0
 Multiplicity           Mult            ....    1
 Number of Electrons    NEL             ....   66
 Basis Dimension        Dim             ....  327

ORBITAL ENERGIES
----------------

  NO   OCC          E(Eh)            E(eV)
   0   2.0000     -20.589287      -560.2630
   1   2.0000     -20.559849      -559.4619
   2   2.0000     -11.344460      -308.6984
   3   2.0000     -11.317818      -307.9735
   4   2.0000     -11.302719      -307.5626
   5   2.0000     -11.261783      -306.4487
   6   2.0000     -11.251739      -306.1754
   7   2.0000     -11.248185      -306.0787
   8   2.0000     -11.246938      -306.0448
   9   2.0000      -1.440362       -39.1942
  10   2.0000      -1.399291       -38.0767
  11   2.0000      -1.171756       -31.8851
  12   2.0000      -1.048739       -28.5376
  13   2.0000      -1.013521       -27.5793
  14   2.0000      -0.872105       -23.7312
  15   2.0000      -0.843905       -22.9638
  16   2.0000      -0.805486       -21.9184
  17   2.0000      -0.723547       -19.6887
  18   2.0000      -0.703013       -19.1299
  19   2.0000      -0.684692       -18.6314
  20   2.0000      -0.644765       -17.5450
  21   2.0000      -0.629342       -17.1253
  22   2.0000      -0.603859       -16.4318
  23   2.0000      -0.597710       -16.2645
  24   2.0000      -0.564384       -15.3577
  25   2.0000      -0.554691       -15.0939
  26   2.0000      -0.536580       -14.6011
  27   2.0000      -0.528260       -14.3747
  28   2.0000      -0.510477       -13.8908
  29   2.0000      -0.473091       -12.8735
  30   2.0000      -0.434265       -11.8169
  31   2.0000      -0.408426       -11.1138
  32   2.0000      -0.394313       -10.7298
  33   0.0000       0.125039         3.4025
  34   0.0000       0.128427         3.4947
  35   0.0000       0.160967         4.3801
  36   0.0000       0.169774         4.6198
  37   0.0000       0.173250         4.7144

MULLIKEN ATOMIC CHARGES
-----------------------
   0 C :   -0.417062
   1 C :    0.267048
   2 O :   -0.304992
   3 C :   -0.072906
   4 C :    0.212513
   5 O :   -0.255498
   6 C :   -0.029022
   7 C :   -0.274984
   8 C :   -0.298893
   9 H :    0.146516
  10 H :    0.147694
  11 H :    0.154849
  12 H :    0.148502
  13 H :    0.147892
  14 H :    0.140580
  15 H :    0.139124
  16 H :    0.148639
Sum of atomic charges:    0.0000000

LOEWDIN ATOMIC CHARGES
----------------------
   0 C :   -0.262563
   1 C :   -0.260557
   2 O :    0.203513
   3 C :   -0.169312
   4 C :   -0.257702
   5 O :    0.169988
   6 C :   -0.166202
   7 C :   -0.185772
   8 C :   -0.183541
   9 H :    0.136873
  10 H :    0.136163
  11 H :    0.140194
  12 H :    0.135700
  13 H :    0.143507
  14 H :    0.139744
  15 H :    0.137339
  16 H :    0.142627

  Mayer bond orders larger than 0.1
B(  0-C ,  1-C ) :   0.8493 B(  0-C ,  9-H ) :   0.9365 B(  0-C , 10-H ) :   0.9379
B(  0-C , 11-H ) :   0.9379 B(  1-C ,  2-O ) :   0.8878 B(  1-C ,  3-C ) :   0.8365
B(  1-C ,  6-C ) :   0.8971 B(  2-O ,  3-C ) :   0.8700 B(  3-C ,  4-C ) :   0.8498
B(  3-C , 12-H ) :   0.9239 B(  4-C ,  5-O ) :   2.0340 B(  4-C ,  6-C ) :   0.8902
B(  6-C ,  7-C ) :   0.8184 B(  6-C ,  8-C ) :   0.8370 B(  7-C ,  8-C ) :   0.9570
B(  7-C , 13-H ) :   0.9221 B(  7-C , 14-H ) :   0.9261 B(  8-C , 15-H ) :   0.9235
B(  8-C , 16-H ) :   0.9127

MP2 TOTAL ENERGY:     -421.074639190 Eh
FINAL SINGLE POINT ENERGY      -421.074639190461

DIPOLE MOMENT
-------------
                                X             Y             Z
Electronic contribution:      0.88892      -6.40016       3.89284
Nuclear contribution   :     -0.91720       7.72182      -4.15975
                        -----------------------------------------
Total Dipole Moment    :     -0.02828       1.32166      -0.26691
                        -----------------------------------------
Magnitude (a.u.)       :      1.34864
Magnitude (Debye)      :      3.42796

                             ****ORCA TERMINATED NORMALLY****
TOTAL RUN TIME: 0 days 0 hours 17 minutes 56 seconds 191 msec
