                         Program Version 3.0.3 - RELEASE   -
|  1> ! RI-MP2 RIJK def2-TZVP def2-TZVP/C def2-TZVP/JK TIGHTSCF
|  2> % maxcore 2000
|  3> % mp2 density relaxed end
|  4> *xyz 0 1
|  5>  C        0.0292336023     1.3819620848     0.0715188827
|  6>  O        0.0002954084    -0.0363040349     0.1311523347
|  7>  C       -1.2592893570    -0.5892471346     0.0198900520
|  8>  C       -1.1480408048    -2.0983264319    -0.0837057304
|  9>  C       -2.5439778340    -2.7323115934    -0.0100516168
| 10>  C       -2.4770422883    -4.2549859999     0.1147322481
| 11>  N       -3.3302929461    -2.1945999773     1.1043468733
| 12>  C       -3.0035574887    -1.0719798327     1.5816751984
| 13>  O       -2.0240355815    -0.2188429170     1.1896659320
| 14>  H        1.0806022242     1.6751751448     0.0814219177
| 15>  H       -0.4376530103     1.7490375604    -0.8542466632
| 16>  H       -0.4825031121     1.8303936334     0.9297227204
| 17>  H       -1.7971779657    -0.1622133037    -0.8442200620
| 18>  H       -0.6338791041    -2.3584121567    -1.0133154657
| 19>  H       -0.5297408329    -2.4489005450     0.7503992837
| 20>  H       -3.0917651743    -2.4946048831    -0.9344727795
| 21>  H       -1.9499852025    -4.5410881642     1.0307158174
| 22>  H       -3.4857901848    -4.6726281027     0.1620466768
| 23>  H       -1.9516262976    -4.6956281323    -0.7388230908
| 24>  H       -3.5370892000    -0.6500530640     2.4318776413
| 25> *
| 26>
| 27>                          ****END OF INPUT****

CARTESIAN COORDINATES (ANGSTROEM)
---------------------------------
  C      0.029234    1.381962    0.071519
  O      0.000295   -0.036304    0.131152
  C     -1.259289   -0.589247    0.019890
  C     -1.148041   -2.098326   -0.083706
  C     -2.543978   -2.732312   -0.010052
  C     -2.477042   -4.254986    0.114732
  N     -3.330293   -2.194600    1.104347
  C     -3.003557   -1.071980    1.581675
  O     -2.024036   -0.218843    1.189666
  H      1.080602    1.675175    0.081422
  H     -0.437653    1.749038   -0.854247
  H     -0.482503    1.830394    0.929723
  H     -1.797178   -0.162213   -0.844220
  H     -0.633879   -2.358412   -1.013315
  H     -0.529741   -2.448901    0.750399
  H     -3.091765   -2.494605   -0.934473
  H     -1.949985   -4.541088    1.030716
  H     -3.485790   -4.672628    0.162047
  H     -1.951626   -4.695628   -0.738823
  H     -3.537089   -0.650053    2.431878

 Total Charge           Charge          ....    0
 Multiplicity           Mult            ....    1
 Number of Electrons    NEL             ....   70
 Basis Dimension        Dim             ....  345

ORBITAL ENERGIES
----------------

  NO   OCC          E(Eh)            E(eV)
   0   2.0000     -20.592840      -560.3597
   1   2.0000     -20.573647      -559.8374
   2   2.0000     -15.541146      -422.8961
   3   2.0000     -11.348848      -308.8179
   4   2.0000     -11.330811      -308.3271
   5   2.0000     -11.278622      -306.9069
   6   2.0000     -11.262709      -306.4739
   7   2.0000     -11.229530      -305.5710
   8   2.0000     -11.212236      -305.1005
   9   2.0000      -1.447102       -39.3776
  10   2.0000      -1.380073       -37.5537
  11   2.0000      -1.216858       -33.1124
  12   2.0000      -1.075599       -29.2685
  13   2.0000      -0.994211       -27.0539
  14   2.0000      -0.929582       -25.2952
  15   2.0000      -0.890586       -24.2341
  16   2.0000      -0.842014       -22.9124
  17   2.0000      -0.764084       -20.7918
  18   2.0000      -0.710331       -19.3291
  19   2.0000      -0.695498       -18.9255
  20   2.0000      -0.666339       -18.1320
  21   2.0000      -0.642449       -17.4819
  22   2.0000      -0.626913       -17.0592
  23   2.0000      -0.610764       -16.6197
  24   2.0000      -0.587206       -15.9787
  25   2.0000      -0.571405       -15.5487
  26   2.0000      -0.547058       -14.8862
  27   2.0000      -0.531395       -14.4600
  28   2.0000      -0.518572       -14.1111
  29   2.0000      -0.513137       -13.9632
  30   2.0000      -0.489657       -13.3242
  31   2.0000      -0.467445       -12.7198
  32   2.0000      -0.452829       -12.3221
  33   2.0000      -0.408128       -11.1057
  34   2.0000      -0.386605       -10.5200
  35   0.0000       0.130439         3.5494
  36   0.0000       0.153063         4.1651
  37   0.0000       0.164866         4.4862
  38   0.0000       0.185758         5.0547
  39   0.0000       0.188038         5.1168

MULLIKEN ATOMIC CHARGES
-----------------------
   0 C :   -0.225331
   1 O :   -0.274725
   2 C :    0.161942
   3 C :   -0.209350
   4 C :    0.015399
   5 C :   -0.366100
   6 N :   -0.270077
   7 C :    0.076629
   8 O :   -0.254589
   9 H :    0.143285
  10 H :    0.110954
  11 H :    0.143572
  12 H :    0.071940
  13 H :    0.132144
  14 H :    0.128428
  15 H :    0.096737
  16 H :    0.122512
  17 H :    0.140556
  18 H :    0.119482
  19 H :    0.136594
Sum of atomic charges:    0.0000000

LOEWDIN ATOMIC CHARGES
----------------------
   0 C :   -0.339772
   1 O :    0.181046
   2 C :   -0.388160
   3 C :   -0.223997
   4 C :   -0.315142
   5 C :   -0.290196
   6 N :    0.088918
   7 C :   -0.358641
   8 O :    0.229626
   9 H :    0.115075
  10 H :    0.103972
  11 H :    0.108732
  12 H :    0.129403
  13 H :    0.148973
  14 H :    0.152865
  15 H :    0.149788
  16 H :    0.124738
  17 H :    0.127098
  18 H :    0.122288
  19 H :    0.133385

  Mayer bond orders larger than 0.1
B(  0-C ,  1-O ) :   0.8854 B(  0-C ,  9-H ) :   0.9378 B(  0-C , 10-H ) :   0.9321
B(  0-C , 11-H ) :   0.9392 B(  1-O ,  2-C ) :   1.0901 B(  2-C ,  3-C ) :   0.9217
B(  2-C ,  8-O ) :   0.8747 B(  2-C , 12-H ) :   0.9493 B(  3-C ,  4-C ) :   0.9077
B(  3-C , 13-H ) :   0.9200 B(  3-C , 14-H ) :   0.9118 B(  4-C ,  5-C ) :   0.9252
B(  4-C ,  6-N ) :   0.8941 B(  4-C , 15-H ) :   0.9212 B(  5-C , 16-H ) :   0.9319
B(  5-C , 17-H ) :   0.9387 B(  5-C , 18-H ) :   0.9366 B(  6-N ,  7-C ) :   1.8544
B(  7-C ,  8-O ) :   1.0664 B(  7-C , 19-H ) :   0.9261

MP2 TOTAL ENERGY:     -439.577667752 Eh
FINAL SINGLE POINT ENERGY      -439.577667751647

DIPOLE MOMENT
-------------
                                X             Y             Z
Electronic contribution:     -1.56188       3.05242       3.07456
Nuclear contribution   :      1.88677      -2.58318      -3.68173
                        -----------------------------------------
Total Dipole Moment    :      0.32489       0.46925      -0.60716
                        -----------------------------------------
Magnitude (a.u.)       :      0.83330
Magnitude (Debye)      :      2.11809

                             ****ORCA TERMINATED NORMALLY****
TOTAL RUN TIME: 0 days 0 hours 27 minutes 57 seconds 821 msec
