                         Program Version 3.0.3 - RELEASE   -
|  1> ! RI-MP2 RIJK def2-TZVP def2-TZVP/C def2-TZVP/JK TIGHTSCF
|  2> % maxcore 2000
|  3> % mp2 density relaxed end
|  4> *xyz 0 1
|  5>  C       -0.1103109020     1.5590285250    -0.0036685318
|  6>  N        0.0340251966     0.1268408703     0.1077232799
|  7>  C       -1.1846181591    -0.6838936674     0.3172526707
|  8>  C       -0.4313865760    -1.5415670266     1.3487847313
|  9>  O        0.4048517554    -2.5628786312     0.7784449859
| 10>  C        1.5700428500    -1.6996755024     0.7956811388
| 11>  C        0.7214009174    -0.5015100629     1.2761709251
| 12>  C        1.2219202953     0.3759902397     2.3974891651
| 13>  H        0.8727457724     2.0387429165    -0.0470107713
| 14>  H       -0.6297240224     1.7937151374    -0.9394879757
| 15>  H       -0.6850312596     2.0266829752     0.8187657905
| 16>  H       -2.0073310234    -0.1176641185     0.7857184095
| 17>  H       -1.5609166325    -1.1982936303    -0.5735131790
| 18>  H       -0.9562638024    -1.8744268770     2.2473383457
| 19>  H        2.3160011543    -2.0610687894     1.5171826941
| 20>  H        2.0228460587    -1.5856702351    -0.1943169459
| 21>  H        2.0548141880     1.0060320340     2.0640562168
| 22>  H        0.4370205755     1.0346273975     2.7812540029
| 23>  H        1.5836557837    -0.2383443547     3.2276882074
| 24> *
| 25>
| 26>                          ****END OF INPUT****

CARTESIAN COORDINATES (ANGSTROEM)
---------------------------------
  C     -0.110311    1.559029   -0.003669
  N      0.034025    0.126841    0.107723
  C     -1.184618   -0.683894    0.317253
  C     -0.431387   -1.541567    1.348785
  O      0.404852   -2.562879    0.778445
  C      1.570043   -1.699676    0.795681
  C      0.721401   -0.501510    1.276171
  C      1.221920    0.375990    2.397489
  H      0.872746    2.038743   -0.047011
  H     -0.629724    1.793715   -0.939488
  H     -0.685031    2.026683    0.818766
  H     -2.007331   -0.117664    0.785718
  H     -1.560917   -1.198294   -0.573513
  H     -0.956264   -1.874427    2.247338
  H      2.316001   -2.061069    1.517183
  H      2.022846   -1.585670   -0.194317
  H      2.054814    1.006032    2.064056
  H      0.437021    1.034627    2.781254
  H      1.583656   -0.238344    3.227688

 Total Charge           Charge          ....    0
 Multiplicity           Mult            ....    1
 Number of Electrons    NEL             ....   62
 Basis Dimension        Dim             ....  314

ORBITAL ENERGIES
----------------

  NO   OCC          E(Eh)            E(eV)
   0   2.0000     -20.544224      -559.0368
   1   2.0000     -15.543266      -422.9538
   2   2.0000     -11.277919      -306.8878
   3   2.0000     -11.269533      -306.6596
   4   2.0000     -11.266269      -306.5708
   5   2.0000     -11.249786      -306.1222
   6   2.0000     -11.246071      -306.0212
   7   2.0000     -11.228759      -305.5501
   8   2.0000      -1.380110       -37.5547
   9   2.0000      -1.233105       -33.5545
  10   2.0000      -1.030840       -28.0506
  11   2.0000      -1.002122       -27.2691
  12   2.0000      -0.929911       -25.3042
  13   2.0000      -0.860686       -23.4204
  14   2.0000      -0.848541       -23.0900
  15   2.0000      -0.707164       -19.2429
  16   2.0000      -0.670507       -18.2454
  17   2.0000      -0.665441       -18.1076
  18   2.0000      -0.654503       -17.8099
  19   2.0000      -0.593258       -16.1434
  20   2.0000      -0.585629       -15.9358
  21   2.0000      -0.582652       -15.8548
  22   2.0000      -0.569784       -15.5046
  23   2.0000      -0.554354       -15.0847
  24   2.0000      -0.534521       -14.5451
  25   2.0000      -0.524140       -14.2626
  26   2.0000      -0.486671       -13.2430
  27   2.0000      -0.452669       -12.3177
  28   2.0000      -0.431677       -11.7465
  29   2.0000      -0.401347       -10.9212
  30   2.0000      -0.347456        -9.4548
  31   0.0000       0.128996         3.5102
  32   0.0000       0.160517         4.3679
  33   0.0000       0.169505         4.6125
  34   0.0000       0.188684         5.1343
  35   0.0000       0.192170         5.2292

MULLIKEN ATOMIC CHARGES
-----------------------
   0 C :   -0.339618
   1 N :   -0.179204
   2 C :   -0.149350
   3 C :    0.050166
   4 O :   -0.334400
   5 C :   -0.008549
   6 C :    0.072760
   7 C :   -0.400468
   8 H :    0.132597
   9 H :    0.145565
  10 H :    0.102964
  11 H :    0.091063
  12 H :    0.111939
  13 H :    0.104329
  14 H :    0.083077
  15 H :    0.094465
  16 H :    0.140616
  17 H :    0.137423
  18 H :    0.144625
Sum of atomic charges:   -0.0000000

LOEWDIN ATOMIC CHARGES
----------------------
   0 C :   -0.342511
   1 N :    0.101698
   2 C :   -0.233040
   3 C :   -0.229144
   4 O :    0.134659
   5 C :   -0.224974
   6 C :   -0.273128
   7 C :   -0.276478
   8 H :    0.118689
   9 H :    0.121098
  10 H :    0.099074
  11 H :    0.122719
  12 H :    0.125420
  13 H :    0.125477
  14 H :    0.115817
  15 H :    0.119563
  16 H :    0.131922
  17 H :    0.129602
  18 H :    0.133537

  Mayer bond orders larger than 0.1
B(  0-C ,  1-N ) :   0.9178 B(  0-C ,  8-H ) :   0.9381 B(  0-C ,  9-H ) :   0.9360
B(  0-C , 10-H ) :   0.9253 B(  1-N ,  2-C ) :   0.9491 B(  1-N ,  6-C ) :   0.9298
B(  2-C ,  3-C ) :   0.9261 B(  2-C , 11-H ) :   0.9074 B(  2-C , 12-H ) :   0.9028
B(  3-C ,  4-O ) :   0.9677 B(  3-C ,  6-C ) :   0.9373 B(  3-C , 13-H ) :   0.9220
B(  4-O ,  5-C ) :   0.9466 B(  5-C ,  6-C ) :   0.9679 B(  5-C , 14-H ) :   0.9116
B(  5-C , 15-H ) :   0.8985 B(  6-C ,  7-C ) :   0.9003 B(  7-C , 16-H ) :   0.9336
B(  7-C , 17-H ) :   0.9362 B(  7-C , 18-H ) :   0.9289

MP2 TOTAL ENERGY:     -364.386344222 Eh
FINAL SINGLE POINT ENERGY      -364.386344222285

DIPOLE MOMENT
-------------
                                X             Y             Z
Electronic contribution:     -0.32917      -6.13683      -1.36469
Nuclear contribution   :      0.32650       6.97931       1.89502
                        -----------------------------------------
Total Dipole Moment    :     -0.00267       0.84248       0.53033
                        -----------------------------------------
Magnitude (a.u.)       :      0.99550
Magnitude (Debye)      :      2.53037

                             ****ORCA TERMINATED NORMALLY****
TOTAL RUN TIME: 0 days 0 hours 13 minutes 20 seconds 911 msec
