                         Program Version 3.0.3 - RELEASE   -
|  1> ! RI-MP2 RIJK def2-TZVP def2-TZVP/C def2-TZVP/JK TIGHTSCF
|  2> % maxcore 2000
|  3> % mp2 density relaxed end
|  4> *xyz 0 1
|  5>  N        0.0372523352     1.4389897229    -0.1720294828
|  6>  C        0.0239692487     0.0342235670    -0.0460186634
|  7>  C       -1.0695721094    -0.8169019729    -0.0293595184
|  8>  N       -0.6150840649    -2.1319336388     0.0076119710
|  9>  C        0.7491088006    -2.1127252919     0.0439589646
| 10>  C        1.1645926633    -0.8111089500    -0.0055685525
| 11>  N        2.5832323830    -0.6625292697     0.0153183233
| 12>  C        3.0609755601    -2.0477894196     0.3088676768
| 13>  C        1.9005608014    -3.0665070345     0.0097810555
| 14>  H        0.7999776229     1.8428718779     0.3598777105
| 15>  H       -0.8293392368     1.8595455619     0.1405170345
| 16>  H       -2.1247024773    -0.5953314021    -0.0327978436
| 17>  H       -1.2072670273    -2.9331086391     0.1291148743
| 18>  H        2.9274042489    -0.3609309264    -0.8932759787
| 19>  H        3.9736977949    -2.2655308314    -0.2512100063
| 20>  H        3.3031109232    -2.1008006904     1.3759649506
| 21>  H        1.8796876359    -3.8568811072     0.7679322954
| 22>  H        2.0117216477    -3.5602675858    -0.9676459310
| 23> *
| 24>
| 25>                          ****END OF INPUT****

CARTESIAN COORDINATES (ANGSTROEM)
---------------------------------
  N      0.037252    1.438990   -0.172029
  C      0.023969    0.034224   -0.046019
  C     -1.069572   -0.816902   -0.029360
  N     -0.615084   -2.131934    0.007612
  C      0.749109   -2.112725    0.043959
  C      1.164593   -0.811109   -0.005569
  N      2.583232   -0.662529    0.015318
  C      3.060976   -2.047789    0.308868
  C      1.900561   -3.066507    0.009781
  H      0.799978    1.842872    0.359878
  H     -0.829339    1.859546    0.140517
  H     -2.124702   -0.595331   -0.032798
  H     -1.207267   -2.933109    0.129115
  H      2.927404   -0.360931   -0.893276
  H      3.973698   -2.265531   -0.251210
  H      3.303111   -2.100801    1.375965
  H      1.879688   -3.856881    0.767932
  H      2.011722   -3.560268   -0.967646

 Total Charge           Charge          ....    0
 Multiplicity           Mult            ....    1
 Number of Electrons    NEL             ....   66
 Basis Dimension        Dim             ....  333

ORBITAL ENERGIES
----------------

  NO   OCC          E(Eh)            E(eV)
   0   2.0000     -15.590294      -424.2335
   1   2.0000     -15.546318      -423.0368
   2   2.0000     -15.546129      -423.0317
   3   2.0000     -11.253970      -306.2361
   4   2.0000     -11.244560      -305.9800
   5   2.0000     -11.235770      -305.7408
   6   2.0000     -11.235079      -305.7220
   7   2.0000     -11.232231      -305.6445
   8   2.0000     -11.218018      -305.2578
   9   2.0000      -1.284185       -34.9444
  10   2.0000      -1.208530       -32.8858
  11   2.0000      -1.183844       -32.2140
  12   2.0000      -1.021060       -27.7845
  13   2.0000      -1.001705       -27.2578
  14   2.0000      -0.936326       -25.4787
  15   2.0000      -0.824385       -22.4327
  16   2.0000      -0.778339       -21.1797
  17   2.0000      -0.749321       -20.3901
  18   2.0000      -0.707053       -19.2399
  19   2.0000      -0.646338       -17.5877
  20   2.0000      -0.643351       -17.5065
  21   2.0000      -0.611489       -16.6395
  22   2.0000      -0.593929       -16.1616
  23   2.0000      -0.580357       -15.7923
  24   2.0000      -0.558725       -15.2037
  25   2.0000      -0.538689       -14.6585
  26   2.0000      -0.515577       -14.0296
  27   2.0000      -0.493371       -13.4253
  28   2.0000      -0.489594       -13.3225
  29   2.0000      -0.464519       -12.6402
  30   2.0000      -0.415274       -11.3002
  31   2.0000      -0.291023        -7.9191
  32   2.0000      -0.265182        -7.2160
  33   0.0000       0.135660         3.6915
  34   0.0000       0.139913         3.8072
  35   0.0000       0.153803         4.1852
  36   0.0000       0.170047         4.6272
  37   0.0000       0.179210         4.8765

MULLIKEN ATOMIC CHARGES
-----------------------
   0 N :   -0.530249
   1 C :    0.054558
   2 C :   -0.152626
   3 N :   -0.298860
   4 C :    0.034796
   5 C :    0.023997
   6 N :   -0.336092
   7 C :   -0.128354
   8 C :   -0.209541
   9 H :    0.252214
  10 H :    0.234377
  11 H :    0.129817
  12 H :    0.240810
  13 H :    0.220767
  14 H :    0.126290
  15 H :    0.105981
  16 H :    0.126596
  17 H :    0.105519
Sum of atomic charges:    0.0000000

LOEWDIN ATOMIC CHARGES
----------------------
   0 N :   -0.107023
   1 C :   -0.263259
   2 C :   -0.235902
   3 N :    0.180768
   4 C :   -0.235961
   5 C :   -0.219229
   6 N :    0.014838
   7 C :   -0.248532
   8 C :   -0.228282
   9 H :    0.168895
  10 H :    0.163225
  11 H :    0.127601
  12 H :    0.187622
  13 H :    0.173526
  14 H :    0.122768
  15 H :    0.129908
  16 H :    0.135623
  17 H :    0.133413

  Mayer bond orders larger than 0.1
B(  0-N ,  1-C ) :   0.9698 B(  0-N ,  9-H ) :   0.8768 B(  0-N , 10-H ) :   0.8852
B(  1-C ,  2-C ) :   1.4983 B(  1-C ,  5-C ) :   1.3088 B(  2-C ,  3-N ) :   1.0842
B(  2-C , 11-H ) :   0.9200 B(  3-N ,  4-C ) :   1.1308 B(  3-N , 12-H ) :   0.8735
B(  4-C ,  5-C ) :   1.4454 B(  4-C ,  8-C ) :   0.9223 B(  5-C ,  6-N ) :   1.0076
B(  6-N ,  7-C ) :   0.9424 B(  6-N , 13-H ) :   0.8689 B(  7-C ,  8-C ) :   0.9426
B(  7-C , 14-H ) :   0.9382 B(  7-C , 15-H ) :   0.9257 B(  8-C , 16-H ) :   0.9351
B(  8-C , 17-H ) :   0.8995

MP2 TOTAL ENERGY:     -397.453614664 Eh
FINAL SINGLE POINT ENERGY      -397.453614664367

DIPOLE MOMENT
-------------
                                X             Y             Z
Electronic contribution:     -2.93966       1.16780      -0.30809
Nuclear contribution   :      2.59905      -1.82703       0.45636
                        -----------------------------------------
Total Dipole Moment    :     -0.34061      -0.65922       0.14826
                        -----------------------------------------
Magnitude (a.u.)       :      0.75669
Magnitude (Debye)      :      1.92335

                             ****ORCA TERMINATED NORMALLY****
TOTAL RUN TIME: 0 days 0 hours 18 minutes 6 seconds 91 msec
