                         Program Version 3.0.3 - RELEASE   -
|  1> ! RI-MP2 RIJK def2-TZVP def2-TZVP/C def2-TZVP/JK TIGHTSCF
|  2> % maxcore 2000
|  3> % mp2 density relaxed end
|  4> *xyz 0 1
|  5>  O       -0.0766458719     1.1946833790    -0.5375157035
|  6>  C       -0.0989425386    -0.1405813331    -0.1584085704
|  7>  C       -0.3676462764    -0.4881891668     1.2779281978
|  8>  O       -0.8525285218     0.6141906545     2.0187760212
|  9>  C       -2.2858342769     0.6220581635     1.9102404442
| 10>  C       -2.5940963252     0.0279081706     0.5380366325
| 11>  C       -3.9943012592    -0.3394866122     0.1310372334
| 12>  C       -3.2982533216     0.8249753623    -0.5314142559
| 13>  C       -1.3994120068    -0.8452363917     0.2302331248
| 14>  H       -0.2203167875     1.7003629995     0.2753552232
| 15>  H        0.6283146308    -0.7381032951    -0.7014541472
| 16>  H        0.2174597258    -1.2017951740     1.8496152818
| 17>  H       -2.7162618886     0.0079177067     2.7156977948
| 18>  H       -2.6245342779     1.6547595281     2.0360571030
| 19>  H       -4.1391060865    -1.2499994050    -0.4412375108
| 20>  H       -4.7971789728    -0.1257097200     0.8301385077
| 21>  H       -3.6352844450     1.8271628567    -0.2854574746
| 22>  H       -2.9526878824     0.7072667835    -1.5517228310
| 23>  H       -1.5532884776    -1.8715038866    -0.0846362512
| 24> *
| 25>
| 26>                          ****END OF INPUT****

CARTESIAN COORDINATES (ANGSTROEM)
---------------------------------
  O     -0.076646    1.194683   -0.537516
  C     -0.098943   -0.140581   -0.158409
  C     -0.367646   -0.488189    1.277928
  O     -0.852529    0.614191    2.018776
  C     -2.285834    0.622058    1.910240
  C     -2.594096    0.027908    0.538037
  C     -3.994301   -0.339487    0.131037
  C     -3.298253    0.824975   -0.531414
  C     -1.399412   -0.845236    0.230233
  H     -0.220317    1.700363    0.275355
  H      0.628315   -0.738103   -0.701454
  H      0.217460   -1.201795    1.849615
  H     -2.716262    0.007918    2.715698
  H     -2.624534    1.654760    2.036057
  H     -4.139106   -1.249999   -0.441238
  H     -4.797179   -0.125710    0.830139
  H     -3.635284    1.827163   -0.285457
  H     -2.952688    0.707267   -1.551723
  H     -1.553288   -1.871504   -0.084636

 Total Charge           Charge          ....    0
 Multiplicity           Mult            ....    1
 Number of Electrons    NEL             ....   68
 Basis Dimension        Dim             ....  339

ORBITAL ENERGIES
----------------

  NO   OCC          E(Eh)            E(eV)
   0   2.0000     -20.569557      -559.7261
   1   2.0000     -20.555160      -559.3343
   2   2.0000     -11.285241      -307.0870
   3   2.0000     -11.284277      -307.0608
   4   2.0000     -11.283357      -307.0358
   5   2.0000     -11.246042      -306.0204
   6   2.0000     -11.235512      -305.7338
   7   2.0000     -11.231670      -305.6293
   8   2.0000     -11.226279      -305.4826
   9   2.0000      -1.403118       -38.1808
  10   2.0000      -1.358787       -36.9745
  11   2.0000      -1.159878       -31.5619
  12   2.0000      -1.108834       -30.1729
  13   2.0000      -0.965269       -26.2663
  14   2.0000      -0.852185       -23.1891
  15   2.0000      -0.830168       -22.5900
  16   2.0000      -0.806907       -21.9571
  17   2.0000      -0.756753       -20.5923
  18   2.0000      -0.726733       -19.7754
  19   2.0000      -0.687620       -18.7111
  20   2.0000      -0.644969       -17.5505
  21   2.0000      -0.624204       -16.9855
  22   2.0000      -0.616970       -16.7886
  23   2.0000      -0.613022       -16.6812
  24   2.0000      -0.574091       -15.6218
  25   2.0000      -0.564485       -15.3604
  26   2.0000      -0.531975       -14.4758
  27   2.0000      -0.518357       -14.1052
  28   2.0000      -0.502042       -13.6613
  29   2.0000      -0.462537       -12.5863
  30   2.0000      -0.438605       -11.9350
  31   2.0000      -0.431806       -11.7500
  32   2.0000      -0.386501       -10.5172
  33   2.0000      -0.370459       -10.0807
  34   0.0000       0.142114         3.8671
  35   0.0000       0.153389         4.1739
  36   0.0000       0.162003         4.4083
  37   0.0000       0.169976         4.6253
  38   0.0000       0.180209         4.9037

MULLIKEN ATOMIC CHARGES
-----------------------
   0 O :   -0.466558
   1 C :    0.029442
   2 C :    0.040871
   3 O :   -0.351957
   4 C :   -0.030070
   5 C :    0.013253
   6 C :   -0.306289
   7 C :   -0.261454
   8 C :   -0.132464
   9 H :    0.336072
  10 H :    0.120858
  11 H :    0.124050
  12 H :    0.099321
  13 H :    0.118812
  14 H :    0.133692
  15 H :    0.131677
  16 H :    0.125951
  17 H :    0.137792
  18 H :    0.137001
Sum of atomic charges:    0.0000000

LOEWDIN ATOMIC CHARGES
----------------------
   0 O :    0.011868
   1 C :   -0.295969
   2 C :   -0.260714
   3 O :    0.167001
   4 C :   -0.239282
   5 C :   -0.232910
   6 C :   -0.203768
   7 C :   -0.199381
   8 C :   -0.151474
   9 H :    0.185228
  10 H :    0.140455
  11 H :    0.132641
  12 H :    0.126033
  13 H :    0.129889
  14 H :    0.134916
  15 H :    0.134891
  16 H :    0.132421
  17 H :    0.139146
  18 H :    0.149008

  Mayer bond orders larger than 0.1
B(  0-O ,  1-C ) :   0.9924 B(  0-O ,  9-H ) :   0.8137 B(  1-C ,  2-C ) :   0.8983
B(  1-C ,  8-C ) :   0.8355 B(  1-C , 10-H ) :   0.9512 B(  2-C ,  3-O ) :   0.9333
B(  2-C ,  8-C ) :   0.8605 B(  2-C , 11-H ) :   0.9341 B(  3-O ,  4-C ) :   0.8998
B(  4-C ,  5-C ) :   0.9533 B(  4-C , 12-H ) :   0.9223 B(  4-C , 13-H ) :   0.9218
B(  5-C ,  6-C ) :   0.8564 B(  5-C ,  7-C ) :   0.8533 B(  5-C ,  8-C ) :   0.9036
B(  6-C ,  7-C ) :   0.9166 B(  6-C , 14-H ) :   0.9220 B(  6-C , 15-H ) :   0.9273
B(  7-C , 16-H ) :   0.9263 B(  7-C , 17-H ) :   0.9237 B(  8-C , 18-H ) :   0.9081

MP2 TOTAL ENERGY:     -422.280221355 Eh
FINAL SINGLE POINT ENERGY      -422.280221354562

DIPOLE MOMENT
-------------
                                X             Y             Z
Electronic contribution:      4.59899       0.68222       1.04496
Nuclear contribution   :     -5.13250      -1.21585      -0.78422
                        -----------------------------------------
Total Dipole Moment    :     -0.53351      -0.53363       0.26074
                        -----------------------------------------
Magnitude (a.u.)       :      0.79836
Magnitude (Debye)      :      2.02927

                             ****ORCA TERMINATED NORMALLY****
TOTAL RUN TIME: 0 days 0 hours 17 minutes 24 seconds 704 msec
