                         Program Version 3.0.3 - RELEASE   -
|  1> ! RI-MP2 RIJK def2-TZVP def2-TZVP/C def2-TZVP/JK TIGHTSCF
|  2> % maxcore 2000
|  3> % mp2 density relaxed end
|  4> *xyz 0 1
|  5>  C       -0.2273606041     1.5853329915    -0.0782461352
|  6>  C       -0.2364849295     0.0609941519    -0.2199565833
|  7>  C        0.6673048248    -0.4963243789    -1.3115881079
|  8>  C        1.0964131135     0.3185384054    -2.4580086734
|  9>  O        1.9874930147     0.0579727789    -1.3636222743
| 10>  C        0.6520786374    -2.0217927518    -1.5103249468
| 11>  C        0.9857932152    -2.7984247126    -0.2289341177
| 12>  C       -0.6904792538    -2.4478944015    -2.0873971035
| 13>  O       -0.9205882270    -2.5515602665    -3.2643922689
| 14>  H        0.7977241412     1.9572770107    -0.0012626892
| 15>  H       -0.7098243339     2.0766985926    -0.9283211363
| 16>  H       -0.7684310096     1.8850471135     0.8234373221
| 17>  H        0.0742057603    -0.3865216775     0.7317519463
| 18>  H       -1.2605777819    -0.2920912684    -0.3998414266
| 19>  H        1.3472705850    -0.1746103321    -3.3953798235
| 20>  H        0.7714117527     1.3513043474    -2.5512887048
| 21>  H        1.4015725831    -2.2362603355    -2.2776315355
| 22>  H        0.1889571259    -2.7194438823     0.5175277332
| 23>  H        1.1296843427    -3.8608241760    -0.4472846595
| 24>  H        1.9086400204    -2.4157112941     0.2152826696
| 25>  H       -1.4834056371    -2.6575078845    -1.3306174348
| 26> *
| 27>
| 28>                          ****END OF INPUT****

CARTESIAN COORDINATES (ANGSTROEM)
---------------------------------
  C     -0.227361    1.585333   -0.078246
  C     -0.236485    0.060994   -0.219957
  C      0.667305   -0.496324   -1.311588
  C      1.096413    0.318538   -2.458009
  O      1.987493    0.057973   -1.363622
  C      0.652079   -2.021793   -1.510325
  C      0.985793   -2.798425   -0.228934
  C     -0.690479   -2.447894   -2.087397
  O     -0.920588   -2.551560   -3.264392
  H      0.797724    1.957277   -0.001263
  H     -0.709824    2.076699   -0.928321
  H     -0.768431    1.885047    0.823437
  H      0.074206   -0.386522    0.731752
  H     -1.260578   -0.292091   -0.399841
  H      1.347271   -0.174610   -3.395380
  H      0.771412    1.351304   -2.551289
  H      1.401573   -2.236260   -2.277632
  H      0.188957   -2.719444    0.517528
  H      1.129684   -3.860824   -0.447285
  H      1.908640   -2.415711    0.215283
  H     -1.483406   -2.657508   -1.330617

 Total Charge           Charge          ....    0
 Multiplicity           Mult            ....    1
 Number of Electrons    NEL             ....   70
 Basis Dimension        Dim             ....  351

ORBITAL ENERGIES
----------------

  NO   OCC          E(Eh)            E(eV)
   0   2.0000     -20.571021      -559.7659
   1   2.0000     -20.563898      -559.5721
   2   2.0000     -11.336718      -308.4878
   3   2.0000     -11.304071      -307.5994
   4   2.0000     -11.284129      -307.0568
   5   2.0000     -11.252747      -306.2028
   6   2.0000     -11.241387      -305.8937
   7   2.0000     -11.235211      -305.7256
   8   2.0000     -11.223320      -305.4021
   9   2.0000      -1.416443       -38.5434
  10   2.0000      -1.402122       -38.1537
  11   2.0000      -1.097776       -29.8720
  12   2.0000      -1.044646       -28.4263
  13   2.0000      -0.942301       -25.6413
  14   2.0000      -0.899825       -24.4855
  15   2.0000      -0.887459       -24.1490
  16   2.0000      -0.823472       -22.4078
  17   2.0000      -0.759686       -20.6721
  18   2.0000      -0.695870       -18.9356
  19   2.0000      -0.673556       -18.3284
  20   2.0000      -0.651510       -17.7285
  21   2.0000      -0.639197       -17.3934
  22   2.0000      -0.624875       -17.0037
  23   2.0000      -0.589673       -16.0458
  24   2.0000      -0.563823       -15.3424
  25   2.0000      -0.558163       -15.1884
  26   2.0000      -0.550595       -14.9824
  27   2.0000      -0.533992       -14.5307
  28   2.0000      -0.523759       -14.2522
  29   2.0000      -0.516883       -14.0651
  30   2.0000      -0.498646       -13.5688
  31   2.0000      -0.491267       -13.3681
  32   2.0000      -0.448258       -12.1977
  33   2.0000      -0.433673       -11.8008
  34   2.0000      -0.415449       -11.3050
  35   0.0000       0.119826         3.2606
  36   0.0000       0.131260         3.5718
  37   0.0000       0.148893         4.0516
  38   0.0000       0.161091         4.3835
  39   0.0000       0.174534         4.7493

MULLIKEN ATOMIC CHARGES
-----------------------
   0 C :   -0.422587
   1 C :   -0.239764
   2 C :    0.176427
   3 C :   -0.092643
   4 O :   -0.344254
   5 C :    0.038303
   6 C :   -0.471427
   7 C :    0.049222
   8 O :   -0.253707
   9 H :    0.156516
  10 H :    0.126653
  11 H :    0.140399
  12 H :    0.127135
  13 H :    0.122694
  14 H :    0.127393
  15 H :    0.121728
  16 H :    0.108764
  17 H :    0.137972
  18 H :    0.149511
  19 H :    0.161935
  20 H :    0.079730
Sum of atomic charges:   -0.0000000

LOEWDIN ATOMIC CHARGES
----------------------
   0 C :   -0.311080
   1 C :   -0.248784
   2 C :   -0.307818
   3 C :   -0.233537
   4 O :    0.166774
   5 C :   -0.241670
   6 C :   -0.283471
   7 C :   -0.268021
   8 O :    0.140336
   9 H :    0.130176
  10 H :    0.120681
  11 H :    0.124047
  12 H :    0.147984
  13 H :    0.145869
  14 H :    0.125277
  15 H :    0.122434
  16 H :    0.170696
  17 H :    0.124389
  18 H :    0.128614
  19 H :    0.135079
  20 H :    0.112025

  Mayer bond orders larger than 0.1
B(  0-C ,  1-C ) :   0.9290 B(  0-C ,  9-H ) :   0.9367 B(  0-C , 10-H ) :   0.9378
B(  0-C , 11-H ) :   0.9384 B(  1-C ,  2-C ) :   0.9075 B(  1-C , 12-H ) :   0.9305
B(  1-C , 13-H ) :   0.9164 B(  2-C ,  3-C ) :   0.9761 B(  2-C ,  4-O ) :   0.8554
B(  2-C ,  5-C ) :   0.8815 B(  3-C ,  4-O ) :   0.8873 B(  3-C , 14-H ) :   0.9021
B(  3-C , 15-H ) :   0.9147 B(  5-C ,  6-C ) :   0.9006 B(  5-C ,  7-C ) :   0.8312
B(  5-C , 16-H ) :   0.9078 B(  6-C , 17-H ) :   0.9264 B(  6-C , 18-H ) :   0.9372
B(  6-C , 19-H ) :   0.9355 B(  7-C ,  8-O ) :   2.0022 B(  7-C , 20-H ) :   0.9330

MP2 TOTAL ENERGY:     -423.510452887 Eh
FINAL SINGLE POINT ENERGY      -423.510452887124

DIPOLE MOMENT
-------------
                                X             Y             Z
Electronic contribution:      0.71389      -3.14082      -6.39736
Nuclear contribution   :     -0.97897       3.26393       7.12127
                        -----------------------------------------
Total Dipole Moment    :     -0.26508       0.12311       0.72391
                        -----------------------------------------
Magnitude (a.u.)       :      0.78068
Magnitude (Debye)      :      1.98434

                             ****ORCA TERMINATED NORMALLY****
TOTAL RUN TIME: 0 days 0 hours 18 minutes 41 seconds 184 msec
