                         Program Version 3.0.3 - RELEASE   -
|  1> ! RI-MP2 RIJK def2-TZVP def2-TZVP/C def2-TZVP/JK TIGHTSCF
|  2> % maxcore 2000
|  3> % mp2 density relaxed end
|  4> *xyz 0 1
|  5>  C       -0.3052418481     1.4283579204     0.0442023399
|  6>  C        0.1472765456    -0.0301736392    -0.0156658205
|  7>  C        0.7429823496    -0.3744920183    -1.3845988573
|  8>  N        1.0885945306    -1.7615950332    -1.6019018834
|  9>  C        1.3076336472    -2.6101780568    -0.7046795760
| 10>  O        1.3464942101    -2.5543041636     0.6740808811
| 11>  C        1.6025834873    -1.4529938019     1.4809723649
| 12>  O        2.1971688240    -1.6209404037     2.5108781463
| 13>  N        1.1269140574    -0.2589621785     1.0430359143
| 14>  H        0.5393293982     2.1057443196    -0.1241376368
| 15>  H       -1.0569776442     1.6255586589    -0.7237410518
| 16>  H       -0.7481573660     1.6633379094     1.0169658339
| 17>  H       -0.7246055121    -0.6783499631     0.1501705752
| 18>  H        0.0239394196    -0.0981531816    -2.1656086038
| 19>  H        1.6354960452     0.2425540795    -1.5528745462
| 20>  H        1.5069901846    -3.6443687563    -0.9796458560
| 21>  H        1.2885033410     0.4847844586     1.7046705964
| 22> *
| 23>
| 24>                          ****END OF INPUT****

CARTESIAN COORDINATES (ANGSTROEM)
---------------------------------
  C     -0.305242    1.428358    0.044202
  C      0.147277   -0.030174   -0.015666
  C      0.742982   -0.374492   -1.384599
  N      1.088595   -1.761595   -1.601902
  C      1.307634   -2.610178   -0.704680
  O      1.346494   -2.554304    0.674081
  C      1.602583   -1.452994    1.480972
  O      2.197169   -1.620940    2.510878
  N      1.126914   -0.258962    1.043036
  H      0.539329    2.105744   -0.124138
  H     -1.056978    1.625559   -0.723741
  H     -0.748157    1.663338    1.016966
  H     -0.724606   -0.678350    0.150171
  H      0.023939   -0.098153   -2.165609
  H      1.635496    0.242554   -1.552875
  H      1.506990   -3.644369   -0.979646
  H      1.288503    0.484784    1.704671

 Total Charge           Charge          ....    0
 Multiplicity           Mult            ....    1
 Number of Electrons    NEL             ....   68
 Basis Dimension        Dim             ....  327

ORBITAL ENERGIES
----------------

  NO   OCC          E(Eh)            E(eV)
   0   2.0000     -20.622761      -561.1739
   1   2.0000     -20.533741      -558.7515
   2   2.0000     -15.601907      -424.5495
   3   2.0000     -15.568422      -423.6383
   4   2.0000     -11.418302      -310.7078
   5   2.0000     -11.356310      -309.0209
   6   2.0000     -11.297525      -307.4213
   7   2.0000     -11.274944      -306.8068
   8   2.0000     -11.249274      -306.1083
   9   2.0000      -1.478267       -40.2257
  10   2.0000      -1.380170       -37.5563
  11   2.0000      -1.264230       -34.4015
  12   2.0000      -1.237593       -33.6766
  13   2.0000      -1.068147       -29.0658
  14   2.0000      -0.985336       -26.8124
  15   2.0000      -0.912671       -24.8350
  16   2.0000      -0.854241       -23.2451
  17   2.0000      -0.795514       -21.6470
  18   2.0000      -0.735444       -20.0124
  19   2.0000      -0.715654       -19.4739
  20   2.0000      -0.674539       -18.3551
  21   2.0000      -0.663733       -18.0611
  22   2.0000      -0.640829       -17.4378
  23   2.0000      -0.611281       -16.6338
  24   2.0000      -0.592280       -16.1168
  25   2.0000      -0.575541       -15.6613
  26   2.0000      -0.564776       -15.3683
  27   2.0000      -0.554908       -15.0998
  28   2.0000      -0.542467       -14.7613
  29   2.0000      -0.519458       -14.1352
  30   2.0000      -0.471236       -12.8230
  31   2.0000      -0.436247       -11.8709
  32   2.0000      -0.415824       -11.3151
  33   2.0000      -0.403848       -10.9893
  34   0.0000       0.117050         3.1851
  35   0.0000       0.141912         3.8616
  36   0.0000       0.155212         4.2235
  37   0.0000       0.166373         4.5272
  38   0.0000       0.171073         4.6551

MULLIKEN ATOMIC CHARGES
-----------------------
   0 C :   -0.433211
   1 C :    0.008422
   2 C :   -0.096061
   3 N :   -0.247050
   4 C :    0.087634
   5 O :   -0.230701
   6 C :    0.336968
   7 O :   -0.318347
   8 N :   -0.332136
   9 H :    0.143871
  10 H :    0.146616
  11 H :    0.153245
  12 H :    0.123436
  13 H :    0.127903
  14 H :    0.124263
  15 H :    0.149968
  16 H :    0.255179
Sum of atomic charges:    0.0000000

LOEWDIN ATOMIC CHARGES
----------------------
   0 C :   -0.287387
   1 C :   -0.307787
   2 C :   -0.279066
   3 N :    0.093874
   4 C :   -0.333817
   5 O :    0.271287
   6 C :   -0.564186
   7 O :    0.109012
   8 N :    0.124675
   9 H :    0.129292
  10 H :    0.133457
  11 H :    0.128687
  12 H :    0.153107
  13 H :    0.142945
  14 H :    0.144334
  15 H :    0.139358
  16 H :    0.202214

  Mayer bond orders larger than 0.1
B(  0-C ,  1-C ) :   0.9094 B(  0-C ,  9-H ) :   0.9280 B(  0-C , 10-H ) :   0.9360
B(  0-C , 11-H ) :   0.9384 B(  1-C ,  2-C ) :   0.9082 B(  1-C ,  8-N ) :   0.8469
B(  1-C , 12-H ) :   0.9368 B(  2-C ,  3-N ) :   0.9285 B(  2-C , 13-H ) :   0.9304
B(  2-C , 14-H ) :   0.9105 B(  3-N ,  4-C ) :   1.8810 B(  4-C ,  5-O ) :   0.9721
B(  4-C , 15-H ) :   0.9284 B(  5-O ,  6-C ) :   0.9835 B(  6-C ,  7-O ) :   2.0106
B(  6-C ,  8-N ) :   1.1797 B(  8-N , 16-H ) :   0.8616

MP2 TOTAL ENERGY:     -454.450715108 Eh
FINAL SINGLE POINT ENERGY      -454.450715107786

DIPOLE MOMENT
-------------
                                X             Y             Z
Electronic contribution:      4.48042      -7.89318       3.78564
Nuclear contribution   :     -5.40848       9.17290      -4.43593
                        -----------------------------------------
Total Dipole Moment    :     -0.92806       1.27972      -0.65029
                        -----------------------------------------
Magnitude (a.u.)       :      1.70934
Magnitude (Debye)      :      4.34481

                             ****ORCA TERMINATED NORMALLY****
TOTAL RUN TIME: 0 days 0 hours 17 minutes 8 seconds 236 msec
