                         Program Version 3.0.3 - RELEASE   -
|  1> ! RI-MP2 RIJK def2-TZVP def2-TZVP/C def2-TZVP/JK TIGHTSCF
|  2> % maxcore 2000
|  3> % mp2 density relaxed end
|  4> *xyz 0 1
|  5>  N       -0.4338538965    -1.0727992829    -0.3614212800
|  6>  C       -0.0823766228     0.0120788373    -0.1750953086
|  7>  C        0.3429215083     1.3955970578     0.0658545142
|  8>  C       -0.1577501269     2.0304579006     1.3870062611
|  9>  C        1.3240874270     1.9317996902     1.8270328053
| 10>  O        1.7157638654     1.4810718015     0.4976099151
| 11>  C        2.0328982656     3.1930848029     2.2385353970
| 12>  C        3.4352596161     3.4306731894     1.8254067756
| 13>  N        2.3365838510     4.2324115794     1.2474549805
| 14>  H        0.1688222667     1.9791489966    -0.8445513248
| 15>  H       -0.5172604096     3.0521642576     1.2611945253
| 16>  H       -0.8785584576     1.4458084989     1.9563145882
| 17>  H        1.5024041716     1.1403831073     2.5663249938
| 18>  H        1.6972149215     3.5772359125     3.2009937929
| 19>  H        4.1089907107     3.9735696243     2.4812400788
| 20>  H        3.9042093048     2.6835965236     1.1918586642
| 21>  H        2.1405170949     3.8587431030     0.3198142813
| 22> *
| 23>
| 24>                          ****END OF INPUT****

CARTESIAN COORDINATES (ANGSTROEM)
---------------------------------
  N     -0.433854   -1.072799   -0.361421
  C     -0.082377    0.012079   -0.175095
  C      0.342922    1.395597    0.065855
  C     -0.157750    2.030458    1.387006
  C      1.324087    1.931800    1.827033
  O      1.715764    1.481072    0.497610
  C      2.032898    3.193085    2.238535
  C      3.435260    3.430673    1.825407
  N      2.336584    4.232412    1.247455
  H      0.168822    1.979149   -0.844551
  H     -0.517260    3.052164    1.261195
  H     -0.878558    1.445808    1.956315
  H      1.502404    1.140383    2.566325
  H      1.697215    3.577236    3.200994
  H      4.108991    3.973570    2.481240
  H      3.904209    2.683597    1.191859
  H      2.140517    3.858743    0.319814

 Total Charge           Charge          ....    0
 Multiplicity           Mult            ....    1
 Number of Electrons    NEL             ....   66
 Basis Dimension        Dim             ....  327

ORBITAL ENERGIES
----------------

  NO   OCC          E(Eh)            E(eV)
   0   2.0000     -20.592927      -560.3620
   1   2.0000     -15.585237      -424.0959
   2   2.0000     -15.567943      -423.6253
   3   2.0000     -11.352934      -308.9290
   4   2.0000     -11.318888      -308.0026
   5   2.0000     -11.282215      -307.0047
   6   2.0000     -11.275519      -306.8225
   7   2.0000     -11.269430      -306.6568
   8   2.0000     -11.264196      -306.5144
   9   2.0000      -1.425108       -38.7792
  10   2.0000      -1.271967       -34.6120
  11   2.0000      -1.228878       -33.4395
  12   2.0000      -1.062030       -28.8993
  13   2.0000      -1.020801       -27.7774
  14   2.0000      -0.912831       -24.8394
  15   2.0000      -0.870047       -23.6752
  16   2.0000      -0.800915       -21.7940
  17   2.0000      -0.749234       -20.3877
  18   2.0000      -0.725968       -19.7546
  19   2.0000      -0.680450       -18.5160
  20   2.0000      -0.658911       -17.9299
  21   2.0000      -0.630880       -17.1671
  22   2.0000      -0.605163       -16.4673
  23   2.0000      -0.575303       -15.6548
  24   2.0000      -0.564839       -15.3701
  25   2.0000      -0.534071       -14.5328
  26   2.0000      -0.520526       -14.1642
  27   2.0000      -0.493482       -13.4283
  28   2.0000      -0.483122       -13.1464
  29   2.0000      -0.475407       -12.9365
  30   2.0000      -0.466378       -12.6908
  31   2.0000      -0.456694       -12.4273
  32   2.0000      -0.400746       -10.9048
  33   0.0000       0.119115         3.2413
  34   0.0000       0.129601         3.5266
  35   0.0000       0.136793         3.7223
  36   0.0000       0.154155         4.1948
  37   0.0000       0.173149         4.7116

MULLIKEN ATOMIC CHARGES
-----------------------
   0 N :   -0.048065
   1 C :   -0.221371
   2 C :    0.235701
   3 C :   -0.290367
   4 C :    0.056619
   5 O :   -0.337076
   6 C :   -0.050025
   7 C :   -0.183397
   8 N :   -0.375706
   9 H :    0.145773
  10 H :    0.157427
  11 H :    0.159413
  12 H :    0.118115
  13 H :    0.132310
  14 H :    0.128527
  15 H :    0.148387
  16 H :    0.223736
Sum of atomic charges:   -0.0000000

LOEWDIN ATOMIC CHARGES
----------------------
   0 N :    0.077773
   1 C :   -0.163094
   2 C :   -0.272739
   3 C :   -0.175021
   4 C :   -0.255416
   5 O :    0.173763
   6 C :   -0.278056
   7 C :   -0.254034
   8 N :   -0.014560
   9 H :    0.157827
  10 H :    0.144512
  11 H :    0.141132
  12 H :    0.147499
  13 H :    0.149443
  14 H :    0.125505
  15 H :    0.128677
  16 H :    0.166790

  Mayer bond orders larger than 0.1
B(  0-N ,  1-C ) :   2.8407 B(  1-C ,  2-C ) :   0.9449 B(  2-C ,  3-C ) :   0.8942
B(  2-C ,  5-O ) :   0.9000 B(  2-C ,  9-H ) :   0.8984 B(  3-C ,  4-C ) :   0.9192
B(  3-C , 10-H ) :   0.9263 B(  3-C , 11-H ) :   0.9266 B(  4-C ,  5-O ) :   0.8968
B(  4-C ,  6-C ) :   0.9708 B(  4-C , 12-H ) :   0.9069 B(  6-C ,  7-C ) :   0.9485
B(  6-C ,  8-N ) :   0.9371 B(  6-C , 13-H ) :   0.9083 B(  7-C ,  8-N ) :   0.9074
B(  7-C , 14-H ) :   0.9275 B(  7-C , 15-H ) :   0.9094 B(  8-N , 16-H ) :   0.8759

MP2 TOTAL ENERGY:     -417.259036863 Eh
FINAL SINGLE POINT ENERGY      -417.259036862767

DIPOLE MOMENT
-------------
                                X             Y             Z
Electronic contribution:     -2.42569      -5.38797      -3.58053
Nuclear contribution   :      2.36472       6.21846       4.19394
                        -----------------------------------------
Total Dipole Moment    :     -0.06096       0.83049       0.61341
                        -----------------------------------------
Magnitude (a.u.)       :      1.03427
Magnitude (Debye)      :      2.62889

                             ****ORCA TERMINATED NORMALLY****
TOTAL RUN TIME: 0 days 0 hours 16 minutes 3 seconds 199 msec
