                         Program Version 3.0.3 - RELEASE   -
|  1> ! RI-MP2 RIJK def2-TZVP def2-TZVP/C def2-TZVP/JK TIGHTSCF
|  2> % maxcore 2000
|  3> % mp2 density relaxed end
|  4> *xyz 0 1
|  5>  C       -0.0416428881     1.5357453710     0.0099888163
|  6>  C       -0.0030657017    -0.0086407137     0.0024519833
|  7>  C        0.8962825796    -0.5026298073    -1.1855265050
|  8>  C        2.2359805249    -0.7435043516    -0.5383103203
|  9>  C        2.1584672994    -0.7519134236     0.7905489482
| 10>  C        0.7524297500    -0.5182409017     1.2806124451
| 11>  C       -1.3627421598    -0.5342685209    -0.0801588717
| 12>  C       -2.4856418305    -0.9599305601    -0.1484407388
| 13>  H        0.9766765339     1.9327332985     0.0718631033
| 14>  H       -0.5096081240     1.9169094647    -0.9020389030
| 15>  H       -0.6126804999     1.9057106918     0.8662087229
| 16>  H        0.4990849549    -1.4256375646    -1.6258798248
| 17>  H        0.9284420668     0.2387029386    -1.9922116283
| 18>  H        3.1364135717    -0.9205436002    -1.1161541702
| 19>  H        2.9857529941    -0.9368756433     1.4668708161
| 20>  H        0.6900169914     0.2128289371     2.0948548054
| 21>  H        0.3073986375    -1.4464394097     1.6601081778
| 22>  H       -3.4751615601    -1.3400077550    -0.2084547264
| 23> *
| 24>
| 25>                          ****END OF INPUT****

CARTESIAN COORDINATES (ANGSTROEM)
---------------------------------
  C     -0.041643    1.535745    0.009989
  C     -0.003066   -0.008641    0.002452
  C      0.896283   -0.502630   -1.185527
  C      2.235981   -0.743504   -0.538310
  C      2.158467   -0.751913    0.790549
  C      0.752430   -0.518241    1.280612
  C     -1.362742   -0.534269   -0.080159
  C     -2.485642   -0.959931   -0.148441
  H      0.976677    1.932733    0.071863
  H     -0.509608    1.916909   -0.902039
  H     -0.612680    1.905711    0.866209
  H      0.499085   -1.425638   -1.625880
  H      0.928442    0.238703   -1.992212
  H      3.136414   -0.920544   -1.116154
  H      2.985753   -0.936876    1.466871
  H      0.690017    0.212829    2.094855
  H      0.307399   -1.446439    1.660108
  H     -3.475162   -1.340008   -0.208455

 Total Charge           Charge          ....    0
 Multiplicity           Mult            ....    1
 Number of Electrons    NEL             ....   58
 Basis Dimension        Dim             ....  308

ORBITAL ENERGIES
----------------

  NO   OCC          E(Eh)            E(eV)
   0   2.0000     -11.262650      -306.4723
   1   2.0000     -11.230645      -305.6014
   2   2.0000     -11.230637      -305.6012
   3   2.0000     -11.227466      -305.5149
   4   2.0000     -11.227222      -305.5082
   5   2.0000     -11.225729      -305.4676
   6   2.0000     -11.219701      -305.3036
   7   2.0000     -11.215412      -305.1869
   8   2.0000      -1.153452       -31.3870
   9   2.0000      -1.049313       -28.5533
  10   2.0000      -0.989249       -26.9188
  11   2.0000      -0.965444       -26.2711
  12   2.0000      -0.905377       -24.6366
  13   2.0000      -0.805373       -21.9153
  14   2.0000      -0.736288       -20.0354
  15   2.0000      -0.711559       -19.3625
  16   2.0000      -0.680529       -18.5181
  17   2.0000      -0.634376       -17.2622
  18   2.0000      -0.591990       -16.1089
  19   2.0000      -0.569630       -15.5004
  20   2.0000      -0.539461       -14.6795
  21   2.0000      -0.538502       -14.6534
  22   2.0000      -0.516652       -14.0588
  23   2.0000      -0.498232       -13.5576
  24   2.0000      -0.490991       -13.3605
  25   2.0000      -0.481853       -13.1119
  26   2.0000      -0.379995       -10.3402
  27   2.0000      -0.376256       -10.2384
  28   2.0000      -0.349303        -9.5050
  29   0.0000       0.135756         3.6941
  30   0.0000       0.157568         4.2876
  31   0.0000       0.164432         4.4744
  32   0.0000       0.173924         4.7327
  33   0.0000       0.179681         4.8894

MULLIKEN ATOMIC CHARGES
-----------------------
   0 C :   -0.457832
   1 C :    0.070450
   2 C :   -0.188187
   3 C :   -0.195150
   4 C :   -0.195150
   5 C :   -0.188187
   6 C :   -0.059561
   7 C :   -0.167827
   8 H :    0.149998
   9 H :    0.137616
  10 H :    0.137614
  11 H :    0.132593
  12 H :    0.124264
  13 H :    0.126950
  14 H :    0.126949
  15 H :    0.124262
  16 H :    0.132593
  17 H :    0.188606
Sum of atomic charges:    0.0000000

LOEWDIN ATOMIC CHARGES
----------------------
   0 C :   -0.250646
   1 C :   -0.251878
   2 C :   -0.182213
   3 C :   -0.162107
   4 C :   -0.162108
   5 C :   -0.182212
   6 C :   -0.073232
   7 C :   -0.104129
   8 H :    0.131644
   9 H :    0.127890
  10 H :    0.127889
  11 H :    0.148817
  12 H :    0.142207
  13 H :    0.136705
  14 H :    0.136704
  15 H :    0.142206
  16 H :    0.148817
  17 H :    0.125646

  Mayer bond orders larger than 0.1
B(  0-C ,  1-C ) :   0.9118 B(  0-C ,  8-H ) :   0.9307 B(  0-C ,  9-H ) :   0.9346
B(  0-C , 10-H ) :   0.9346 B(  1-C ,  2-C ) :   0.8774 B(  1-C ,  5-C ) :   0.8774
B(  1-C ,  6-C ) :   1.1862 B(  1-C ,  7-C ) :  -0.1131 B(  2-C ,  3-C ) :   0.9496
B(  2-C , 11-H ) :   0.9111 B(  2-C , 12-H ) :   0.9177 B(  3-C ,  4-C ) :   1.7885
B(  3-C , 13-H ) :   0.9273 B(  4-C ,  5-C ) :   0.9496 B(  4-C , 14-H ) :   0.9273
B(  5-C , 15-H ) :   0.9177 B(  5-C , 16-H ) :   0.9111 B(  6-C ,  7-C ) :   2.5773
B(  7-C , 17-H ) :   0.8846

MP2 TOTAL ENERGY:     -310.063428686 Eh
FINAL SINGLE POINT ENERGY      -310.063428686391

DIPOLE MOMENT
-------------
                                X             Y             Z
Electronic contribution:     -1.69024      -2.69866      -0.11573
Nuclear contribution   :      1.90093       2.75246       0.12839
                        -----------------------------------------
Total Dipole Moment    :      0.21069       0.05380       0.01267
                        -----------------------------------------
Magnitude (a.u.)       :      0.21782
Magnitude (Debye)      :      0.55365

                             ****ORCA TERMINATED NORMALLY****
TOTAL RUN TIME: 0 days 0 hours 14 minutes 7 seconds 197 msec
