                         Program Version 3.0.3 - RELEASE   -
|  1> ! RI-MP2 RIJK def2-TZVP def2-TZVP/C def2-TZVP/JK TIGHTSCF
|  2> % maxcore 2000
|  3> % mp2 density relaxed end
|  4> *xyz 0 1
|  5>  C        0.0272341966     1.4736611966    -0.0571347150
|  6>  C        0.0124488234    -0.0195851034     0.0207698556
|  7>  N       -0.0461870946    -0.7514772519    -1.0857934821
|  8>  N       -0.0419203089    -2.0370740318    -0.6403292367
|  9>  C        0.0172395295    -2.1113623883     0.7063937920
| 10>  O        0.0275233921    -3.3307397849     1.2916051707
| 11>  C        0.0549716768    -0.8215615040     1.1977989929
| 12>  C        0.1242014771    -0.3815323982     2.6268591090
| 13>  H        0.9370136758     1.8922176748     0.3893496360
| 14>  H       -0.0204209144     1.7891775643    -1.1014809327
| 15>  H       -0.8235801029     1.9139174674     0.4763120537
| 16>  H       -0.0811233594    -2.8017055178    -1.2912484838
| 17>  H        0.0775563030    -3.2112465393     2.2455948262
| 18>  H        1.0389745062     0.1830987816     2.8438715526
| 19>  H       -0.7221538698     0.2586244474     2.9028180382
| 20>  H        0.1097612495    -1.2342837124     3.3170777433
| 21> *
| 22>
| 23>                          ****END OF INPUT****

CARTESIAN COORDINATES (ANGSTROEM)
---------------------------------
  C      0.027234    1.473661   -0.057135
  C      0.012449   -0.019585    0.020770
  N     -0.046187   -0.751477   -1.085793
  N     -0.041920   -2.037074   -0.640329
  C      0.017240   -2.111362    0.706394
  O      0.027523   -3.330740    1.291605
  C      0.054972   -0.821562    1.197799
  C      0.124201   -0.381532    2.626859
  H      0.937014    1.892218    0.389350
  H     -0.020421    1.789178   -1.101481
  H     -0.823580    1.913917    0.476312
  H     -0.081123   -2.801706   -1.291248
  H      0.077556   -3.211247    2.245595
  H      1.038975    0.183099    2.843872
  H     -0.722154    0.258624    2.902818
  H      0.109761   -1.234284    3.317078

 Total Charge           Charge          ....    0
 Multiplicity           Mult            ....    1
 Number of Electrons    NEL             ....   60
 Basis Dimension        Dim             ....  296

ORBITAL ENERGIES
----------------

  NO   OCC          E(Eh)            E(eV)
   0   2.0000     -20.612553      -560.8961
   1   2.0000     -15.617912      -424.9850
   2   2.0000     -15.566838      -423.5952
   3   2.0000     -11.334393      -308.4245
   4   2.0000     -11.254108      -306.2398
   5   2.0000     -11.235993      -305.7469
   6   2.0000     -11.219958      -305.3106
   7   2.0000     -11.214349      -305.1580
   8   2.0000      -1.437315       -39.1113
   9   2.0000      -1.349719       -36.7277
  10   2.0000      -1.104936       -30.0668
  11   2.0000      -1.063472       -28.9386
  12   2.0000      -0.967948       -26.3392
  13   2.0000      -0.944446       -25.6997
  14   2.0000      -0.814903       -22.1746
  15   2.0000      -0.768589       -20.9144
  16   2.0000      -0.739538       -20.1238
  17   2.0000      -0.681529       -18.5453
  18   2.0000      -0.644974       -17.5506
  19   2.0000      -0.609746       -16.5920
  20   2.0000      -0.581240       -15.8163
  21   2.0000      -0.566056       -15.4032
  22   2.0000      -0.563677       -15.3384
  23   2.0000      -0.560150       -15.2425
  24   2.0000      -0.536846       -14.6083
  25   2.0000      -0.535485       -14.5713
  26   2.0000      -0.521510       -14.1910
  27   2.0000      -0.440722       -11.9927
  28   2.0000      -0.345713        -9.4073
  29   2.0000      -0.316956        -8.6248
  30   0.0000       0.115987         3.1562
  31   0.0000       0.147874         4.0239
  32   0.0000       0.158274         4.3069
  33   0.0000       0.184123         5.0102
  34   0.0000       0.189087         5.1453

MULLIKEN ATOMIC CHARGES
-----------------------
   0 C :   -0.433777
   1 C :    0.046324
   2 N :   -0.217339
   3 N :   -0.127621
   4 C :    0.187257
   5 O :   -0.424698
   6 C :   -0.069526
   7 C :   -0.372111
   8 H :    0.133202
   9 H :    0.153479
  10 H :    0.133031
  11 H :    0.256179
  12 H :    0.339901
  13 H :    0.150275
  14 H :    0.149817
  15 H :    0.095606
Sum of atomic charges:   -0.0000000

LOEWDIN ATOMIC CHARGES
----------------------
   0 C :   -0.275638
   1 C :   -0.290213
   2 N :    0.035965
   3 N :    0.136917
   4 C :   -0.361674
   5 O :    0.070868
   6 C :   -0.207005
   7 C :   -0.276865
   8 H :    0.129190
   9 H :    0.136220
  10 H :    0.129120
  11 H :    0.188510
  12 H :    0.198816
  13 H :    0.132243
  14 H :    0.132675
  15 H :    0.120871

  Mayer bond orders larger than 0.1
B(  0-C ,  1-C ) :   0.8819 B(  0-C ,  8-H ) :   0.9350 B(  0-C ,  9-H ) :   0.9465
B(  0-C , 10-H ) :   0.9355 B(  1-C ,  2-N ) :   1.6378 B(  1-C ,  6-C ) :   1.2279
B(  2-N ,  3-N ) :   0.9971 B(  2-N ,  4-C ) :   0.1100 B(  3-N ,  4-C ) :   1.2264
B(  3-N , 11-H ) :   0.8691 B(  4-C ,  5-O ) :   1.1169 B(  4-C ,  6-C ) :   1.3887
B(  5-O , 12-H ) :   0.8247 B(  6-C ,  7-C ) :   0.8761 B(  7-C , 13-H ) :   0.9400
B(  7-C , 14-H ) :   0.9408 B(  7-C , 15-H ) :   0.9337

MP2 TOTAL ENERGY:     -379.315925380 Eh
FINAL SINGLE POINT ENERGY      -379.315925380345

DIPOLE MOMENT
-------------
                                X             Y             Z
Electronic contribution:     -0.26782      -6.92872      -4.13444
Nuclear contribution   :      0.31196       6.58514       5.13493
                        -----------------------------------------
Total Dipole Moment    :      0.04415      -0.34357       1.00049
                        -----------------------------------------
Magnitude (a.u.)       :      1.05876
Magnitude (Debye)      :      2.69115

                             ****ORCA TERMINATED NORMALLY****
TOTAL RUN TIME: 0 days 0 hours 11 minutes 54 seconds 97 msec
