                         Program Version 3.0.3 - RELEASE   -
|  1> ! RI-MP2 RIJK def2-TZVP def2-TZVP/C def2-TZVP/JK TIGHTSCF
|  2> % maxcore 2000
|  3> % mp2 density relaxed end
|  4> *xyz 0 1
|  5>  C        0.0766378795     1.4962895006     0.1241896378
|  6>  C       -0.2335425353     0.0000642362    -0.0132967377
|  7>  C        0.3923593364    -0.5887281022    -1.2598222527
|  8>  C        1.7957828293    -1.0809716569    -1.2816402631
|  9>  C        0.6693727522    -2.0976796607    -1.4237672464
| 10>  C        0.4154297813    -3.0330221305    -0.3158613670
| 11>  O        0.7019940417    -2.8624350015     0.8539296876
| 12>  C       -0.2743565041    -4.3581134031    -0.6780456023
| 13>  O       -0.5876118918    -4.6770476557    -1.7945227521
| 14>  H        1.1550488499     1.6700462762     0.1984959957
| 15>  H       -0.2921277777     2.0620654128    -0.7386252975
| 16>  H       -0.3937487502     1.9114105058     1.0204957925
| 17>  H        0.1255098999    -0.5389475974     0.8673286575
| 18>  H       -1.3205076599    -0.1462692348    -0.0507429357
| 19>  H        0.0387278357    -0.1415700360    -2.1864522018
| 20>  H        2.4151186338    -0.9103757827    -2.1548737571
| 21>  H        2.3250123378    -1.1167955011    -0.3344829963
| 22>  H        0.4700502986    -2.5127307719    -2.4038301987
| 23>  H       -0.4464910471    -4.9978757472     0.2134049772
| 24> *
| 25>
| 26>                          ****END OF INPUT****

CARTESIAN COORDINATES (ANGSTROEM)
---------------------------------
  C      0.076638    1.496290    0.124190
  C     -0.233543    0.000064   -0.013297
  C      0.392359   -0.588728   -1.259822
  C      1.795783   -1.080972   -1.281640
  C      0.669373   -2.097680   -1.423767
  C      0.415430   -3.033022   -0.315861
  O      0.701994   -2.862435    0.853930
  C     -0.274357   -4.358113   -0.678046
  O     -0.587612   -4.677048   -1.794523
  H      1.155049    1.670046    0.198496
  H     -0.292128    2.062065   -0.738625
  H     -0.393749    1.911411    1.020496
  H      0.125510   -0.538948    0.867329
  H     -1.320508   -0.146269   -0.050743
  H      0.038728   -0.141570   -2.186452
  H      2.415119   -0.910376   -2.154874
  H      2.325012   -1.116796   -0.334483
  H      0.470050   -2.512731   -2.403830
  H     -0.446491   -4.997876    0.213405

 Total Charge           Charge          ....    0
 Multiplicity           Mult            ....    1
 Number of Electrons    NEL             ....   68
 Basis Dimension        Dim             ....  339

ORBITAL ENERGIES
----------------

  NO   OCC          E(Eh)            E(eV)
   0   2.0000     -20.591355      -560.3193
   1   2.0000     -20.572230      -559.7988
   2   2.0000     -11.351909      -308.9011
   3   2.0000     -11.350967      -308.8755
   4   2.0000     -11.257466      -306.3312
   5   2.0000     -11.249788      -306.1223
   6   2.0000     -11.246820      -306.0415
   7   2.0000     -11.228187      -305.5345
   8   2.0000     -11.218911      -305.2821
   9   2.0000      -1.429509       -38.8989
  10   2.0000      -1.406938       -38.2847
  11   2.0000      -1.169428       -31.8218
  12   2.0000      -1.035670       -28.1820
  13   2.0000      -0.968718       -26.3602
  14   2.0000      -0.881662       -23.9912
  15   2.0000      -0.868641       -23.6369
  16   2.0000      -0.796366       -21.6702
  17   2.0000      -0.736633       -20.0448
  18   2.0000      -0.712743       -19.3947
  19   2.0000      -0.687364       -18.7041
  20   2.0000      -0.660077       -17.9616
  21   2.0000      -0.645523       -17.5656
  22   2.0000      -0.603500       -16.4221
  23   2.0000      -0.595335       -16.1999
  24   2.0000      -0.574722       -15.6390
  25   2.0000      -0.551212       -14.9992
  26   2.0000      -0.539085       -14.6693
  27   2.0000      -0.517699       -14.0873
  28   2.0000      -0.514722       -14.0063
  29   2.0000      -0.500373       -13.6158
  30   2.0000      -0.484720       -13.1899
  31   2.0000      -0.443729       -12.0745
  32   2.0000      -0.416913       -11.3448
  33   2.0000      -0.409684       -11.1481
  34   0.0000       0.055458         1.5091
  35   0.0000       0.137018         3.7285
  36   0.0000       0.156711         4.2643
  37   0.0000       0.166377         4.5273
  38   0.0000       0.173234         4.7139

MULLIKEN ATOMIC CHARGES
-----------------------
   0 C :   -0.395230
   1 C :   -0.222917
   2 C :   -0.077107
   3 C :   -0.254560
   4 C :   -0.139059
   5 C :    0.204186
   6 O :   -0.300366
   7 C :    0.082117
   8 O :   -0.244440
   9 H :    0.129983
  10 H :    0.121632
  11 H :    0.137872
  12 H :    0.145519
  13 H :    0.114501
  14 H :    0.128856
  15 H :    0.147551
  16 H :    0.148454
  17 H :    0.160736
  18 H :    0.112272
Sum of atomic charges:    0.0000000

LOEWDIN ATOMIC CHARGES
----------------------
   0 C :   -0.311569
   1 C :   -0.272156
   2 C :   -0.186296
   3 C :   -0.179471
   4 C :   -0.173950
   5 C :   -0.322949
   6 O :    0.161351
   7 C :   -0.247931
   8 O :    0.158831
   9 H :    0.122484
  10 H :    0.120369
  11 H :    0.122438
  12 H :    0.147665
  13 H :    0.140161
  14 H :    0.155216
  15 H :    0.136719
  16 H :    0.146676
  17 H :    0.161496
  18 H :    0.120915

  Mayer bond orders larger than 0.1
B(  0-C ,  1-C ) :   0.9150 B(  0-C ,  9-H ) :   0.9399 B(  0-C , 10-H ) :   0.9379
B(  0-C , 11-H ) :   0.9409 B(  1-C ,  2-C ) :   0.9231 B(  1-C , 12-H ) :   0.9261
B(  1-C , 13-H ) :   0.9320 B(  2-C ,  3-C ) :   0.9168 B(  2-C ,  4-C ) :   0.7913
B(  2-C , 14-H ) :   0.9258 B(  3-C ,  4-C ) :   0.8268 B(  3-C , 15-H ) :   0.9287
B(  3-C , 16-H ) :   0.9177 B(  4-C ,  5-C ) :   0.9611 B(  4-C , 17-H ) :   0.9098
B(  5-C ,  6-O ) :   1.8830 B(  5-C ,  7-C ) :   0.8597 B(  7-C ,  8-O ) :   1.9634
B(  7-C , 18-H ) :   0.9294

MP2 TOTAL ENERGY:     -422.323079909 Eh
FINAL SINGLE POINT ENERGY      -422.323079909112

DIPOLE MOMENT
-------------
                                X             Y             Z
Electronic contribution:     -0.72454     -12.84779      -0.87465
Nuclear contribution   :      0.83693      13.47074       0.64677
                        -----------------------------------------
Total Dipole Moment    :      0.11238       0.62295      -0.22787
                        -----------------------------------------
Magnitude (a.u.)       :      0.67277
Magnitude (Debye)      :      1.71004

                             ****ORCA TERMINATED NORMALLY****
TOTAL RUN TIME: 0 days 0 hours 28 minutes 5 seconds 913 msec
