                         Program Version 3.0.3 - RELEASE   -
|  1> ! RI-MP2 RIJK def2-TZVP def2-TZVP/C def2-TZVP/JK TIGHTSCF
|  2> % maxcore 2000
|  3> % mp2 density relaxed end
|  4> *xyz 0 1
|  5>  N        0.0536673105     1.3275500266    -0.0130555647
|  6>  C       -0.0281802560    -0.0190761375     0.0177347613
|  7>  N       -1.1884789616    -0.6140116291     0.0383264813
|  8>  O       -1.1946313019    -2.0023482748     0.1152929774
|  9>  N       -0.0805933526    -2.7585386273     0.1591172415
| 10>  C        1.0752199847    -2.1738990296     0.1202626461
| 11>  C        1.2601232757    -0.7429818764     0.0368418746
| 12>  O        2.3311245285    -0.1572803384    -0.0212127993
| 13>  H        0.9698734268     1.7107511378    -0.1837609706
| 14>  H       -0.7674220086     1.8818439521    -0.1845161340
| 15>  H        1.9370938046    -2.8325188032     0.1536389963
| 16> *
| 17>
| 18>                          ****END OF INPUT****

CARTESIAN COORDINATES (ANGSTROEM)
---------------------------------
  N      0.053667    1.327550   -0.013056
  C     -0.028180   -0.019076    0.017735
  N     -1.188479   -0.614012    0.038326
  O     -1.194631   -2.002348    0.115293
  N     -0.080593   -2.758539    0.159117
  C      1.075220   -2.173899    0.120263
  C      1.260123   -0.742982    0.036842
  O      2.331125   -0.157280   -0.021213
  H      0.969873    1.710751   -0.183761
  H     -0.767422    1.881844   -0.184516
  H      1.937094   -2.832519    0.153639

 Total Charge           Charge          ....    0
 Multiplicity           Mult            ....    1
 Number of Electrons    NEL             ....   58
 Basis Dimension        Dim             ....  266

ORBITAL ENERGIES
----------------

  NO   OCC          E(Eh)            E(eV)
   0   2.0000     -20.685187      -562.8726
   1   2.0000     -20.588338      -560.2372
   2   2.0000     -15.694251      -427.0623
   3   2.0000     -15.650869      -425.8818
   4   2.0000     -15.601944      -424.5505
   5   2.0000     -11.378820      -309.6334
   6   2.0000     -11.357295      -309.0477
   7   2.0000     -11.309453      -307.7459
   8   2.0000      -1.531873       -41.6844
   9   2.0000      -1.427635       -38.8479
  10   2.0000      -1.298540       -35.3351
  11   2.0000      -1.230887       -33.4941
  12   2.0000      -1.149937       -31.2914
  13   2.0000      -0.963035       -26.2055
  14   2.0000      -0.926072       -25.1997
  15   2.0000      -0.811104       -22.0713
  16   2.0000      -0.771196       -20.9853
  17   2.0000      -0.703774       -19.1507
  18   2.0000      -0.696660       -18.9571
  19   2.0000      -0.693564       -18.8728
  20   2.0000      -0.662534       -18.0285
  21   2.0000      -0.617293       -16.7974
  22   2.0000      -0.597405       -16.2562
  23   2.0000      -0.544484       -14.8162
  24   2.0000      -0.535712       -14.5775
  25   2.0000      -0.532183       -14.4814
  26   2.0000      -0.448039       -12.1918
  27   2.0000      -0.439843       -11.9687
  28   2.0000      -0.372705       -10.1418
  29   0.0000       0.035847         0.9755
  30   0.0000       0.114003         3.1022
  31   0.0000       0.131181         3.5696
  32   0.0000       0.160573         4.3694
  33   0.0000       0.188714         5.1352

MULLIKEN ATOMIC CHARGES
-----------------------
   0 N :   -0.478358
   1 C :    0.138235
   2 N :   -0.100281
   3 O :   -0.033038
   4 N :   -0.040419
   5 C :   -0.099930
   6 C :    0.230490
   7 O :   -0.343887
   8 H :    0.288905
   9 H :    0.269008
  10 H :    0.169274
Sum of atomic charges:    0.0000000

LOEWDIN ATOMIC CHARGES
----------------------
   0 N :    0.005009
   1 C :   -0.358242
   2 N :    0.039325
   3 O :    0.178322
   4 N :    0.042787
   5 C :   -0.208127
   6 C :   -0.352541
   7 O :    0.128346
   8 H :    0.188286
   9 H :    0.179048
  10 H :    0.157785

  Mayer bond orders larger than 0.1
B(  0-N ,  1-C ) :   1.1932 B(  0-N ,  8-H ) :   0.8414 B(  0-N ,  9-H ) :   0.8606
B(  1-C ,  2-N ) :   1.6146 B(  1-C ,  6-C ) :   0.9583 B(  2-N ,  3-O ) :   0.8500
B(  3-O ,  4-N ) :   0.9387 B(  4-N ,  5-C ) :   1.6126 B(  5-C ,  6-C ) :   1.0767
B(  5-C , 10-H ) :   0.9164 B(  6-C ,  7-O ) :   1.7823

MP2 TOTAL ENERGY:     -429.971179586 Eh
FINAL SINGLE POINT ENERGY      -429.971179586267

DIPOLE MOMENT
-------------
                                X             Y             Z
Electronic contribution:     -1.06829      -2.35846       0.16146
Nuclear contribution   :      1.23247       3.14137      -0.35003
                        -----------------------------------------
Total Dipole Moment    :      0.16418       0.78292      -0.18857
                        -----------------------------------------
Magnitude (a.u.)       :      0.82187
Magnitude (Debye)      :      2.08902

                             ****ORCA TERMINATED NORMALLY****
TOTAL RUN TIME: 0 days 0 hours 9 minutes 0 seconds 922 msec
