                         Program Version 3.0.3 - RELEASE   -
|  1> ! RI-MP2 RIJK def2-TZVP def2-TZVP/C def2-TZVP/JK TIGHTSCF
|  2> % maxcore 2000
|  3> % mp2 density relaxed end
|  4> *xyz 0 1
|  5>  C       -0.6400905761     1.4385609026    -0.6770480026
|  6>  O       -0.8279518964     0.0425029970    -0.7175704669
|  7>  C       -0.5881936046    -0.5799558576     0.5267127035
|  8>  C       -0.7972392421    -2.0560872153     0.3752491984
|  9>  C       -0.4979730628    -2.8379737066    -0.9076171385
| 10>  C       -1.8815502618    -2.8453445309    -0.3322570096
| 11>  N       -1.9801381066    -3.7427287184     0.8259382716
| 12>  C       -0.9294666068    -3.0841423409     1.4951519312
| 13>  O       -0.3880389890    -3.2960970453     2.5430298144
| 14>  H       -0.8448680314     1.8236957263    -1.6785740621
| 15>  H       -1.3247756750     1.9207999711     0.0376714943
| 16>  H        0.3913970133     1.7023165506    -0.3965986723
| 17>  H        0.4408310706    -0.3789421592     0.8702304296
| 18>  H       -1.2677411051    -0.1790646873     1.2978105388
| 19>  H       -0.3405702092    -2.1986839466    -1.7704125628
| 20>  H        0.1079963358    -3.7390070859    -0.8739924277
| 21>  H       -2.7693982584    -2.4715456318    -0.8234039662
| 22>  H       -2.0329379844    -4.7531693216     0.7519123169
| 23> *
| 24>
| 25>                          ****END OF INPUT****

CARTESIAN COORDINATES (ANGSTROEM)
---------------------------------
  C     -0.640091    1.438561   -0.677048
  O     -0.827952    0.042503   -0.717570
  C     -0.588194   -0.579956    0.526713
  C     -0.797239   -2.056087    0.375249
  C     -0.497973   -2.837974   -0.907617
  C     -1.881550   -2.845345   -0.332257
  N     -1.980138   -3.742729    0.825938
  C     -0.929467   -3.084142    1.495152
  O     -0.388039   -3.296097    2.543030
  H     -0.844868    1.823696   -1.678574
  H     -1.324776    1.920800    0.037671
  H      0.391397    1.702317   -0.396599
  H      0.440831   -0.378942    0.870230
  H     -1.267741   -0.179065    1.297811
  H     -0.340570   -2.198684   -1.770413
  H      0.107996   -3.739007   -0.873992
  H     -2.769398   -2.471546   -0.823404
  H     -2.032938   -4.753169    0.751912

 Total Charge           Charge          ....    0
 Multiplicity           Mult            ....    1
 Number of Electrons    NEL             ....   68
 Basis Dimension        Dim             ....  333

ORBITAL ENERGIES
----------------

  NO   OCC          E(Eh)            E(eV)
   0   2.0000     -20.570715      -559.7576
   1   2.0000     -20.537936      -558.8657
   2   2.0000     -15.581662      -423.9986
   3   2.0000     -11.358185      -309.0719
   4   2.0000     -11.294856      -307.3486
   5   2.0000     -11.284387      -307.0638
   6   2.0000     -11.281670      -306.9898
   7   2.0000     -11.259129      -306.3765
   8   2.0000     -11.252673      -306.2008
   9   2.0000      -1.398644       -38.0590
  10   2.0000      -1.391040       -37.8521
  11   2.0000      -1.288592       -35.0644
  12   2.0000      -1.103954       -30.0401
  13   2.0000      -0.994167       -27.0527
  14   2.0000      -0.918630       -24.9972
  15   2.0000      -0.868122       -23.6228
  16   2.0000      -0.838685       -22.8218
  17   2.0000      -0.732873       -19.9425
  18   2.0000      -0.698235       -18.9999
  19   2.0000      -0.685322       -18.6486
  20   2.0000      -0.677307       -18.4305
  21   2.0000      -0.663230       -18.0474
  22   2.0000      -0.645247       -17.5581
  23   2.0000      -0.608159       -16.5488
  24   2.0000      -0.575081       -15.6488
  25   2.0000      -0.570719       -15.5300
  26   2.0000      -0.558134       -15.1876
  27   2.0000      -0.536104       -14.5881
  28   2.0000      -0.506442       -13.7810
  29   2.0000      -0.477751       -13.0003
  30   2.0000      -0.446466       -12.1490
  31   2.0000      -0.432654       -11.7731
  32   2.0000      -0.409494       -11.1429
  33   2.0000      -0.386080       -10.5058
  34   0.0000       0.136412         3.7120
  35   0.0000       0.146283         3.9806
  36   0.0000       0.158334         4.3085
  37   0.0000       0.172466         4.6930
  38   0.0000       0.178604         4.8601

MULLIKEN ATOMIC CHARGES
-----------------------
   0 C :   -0.221494
   1 O :   -0.307487
   2 C :   -0.078865
   3 C :   -0.006500
   4 C :   -0.236909
   5 C :   -0.022899
   6 N :   -0.320455
   7 C :    0.208663
   8 O :   -0.286403
   9 H :    0.141165
  10 H :    0.116484
  11 H :    0.116369
  12 H :    0.113430
  13 H :    0.108366
  14 H :    0.146355
  15 H :    0.146159
  16 H :    0.150834
  17 H :    0.233190
Sum of atomic charges:   -0.0000000

LOEWDIN ATOMIC CHARGES
----------------------
   0 C :   -0.355633
   1 O :    0.138974
   2 C :   -0.283679
   3 C :   -0.170661
   4 C :   -0.166649
   5 C :   -0.196355
   6 N :    0.108715
   7 C :   -0.383792
   8 O :    0.128018
   9 H :    0.114406
  10 H :    0.103738
  11 H :    0.103509
  12 H :    0.132509
  13 H :    0.131944
  14 H :    0.148163
  15 H :    0.134990
  16 H :    0.140544
  17 H :    0.171259

  Mayer bond orders larger than 0.1
B(  0-C ,  1-O ) :   0.9148 B(  0-C ,  9-H ) :   0.9386 B(  0-C , 10-H ) :   0.9362
B(  0-C , 11-H ) :   0.9377 B(  1-O ,  2-C ) :   0.9571 B(  2-C ,  3-C ) :   0.9515
B(  2-C , 12-H ) :   0.9192 B(  2-C , 13-H ) :   0.9158 B(  3-C ,  4-C ) :   0.8284
B(  3-C ,  5-C ) :   0.8424 B(  3-C ,  7-C ) :   0.8305 B(  4-C ,  5-C ) :   0.9105
B(  4-C , 14-H ) :   0.9112 B(  4-C , 15-H ) :   0.9183 B(  5-C ,  6-N ) :   0.9528
B(  5-C , 16-H ) :   0.9065 B(  6-N ,  7-C ) :   1.1275 B(  6-N , 17-H ) :   0.8541
B(  7-C ,  8-O ) :   2.0468

MP2 TOTAL ENERGY:     -438.337080057 Eh
FINAL SINGLE POINT ENERGY      -438.337080056753

DIPOLE MOMENT
-------------
                                X             Y             Z
Electronic contribution:     -0.92787      -7.18463       4.21218
Nuclear contribution   :      0.73666       7.67419      -5.32390
                        -----------------------------------------
Total Dipole Moment    :     -0.19121       0.48956      -1.11172
                        -----------------------------------------
Magnitude (a.u.)       :      1.22970
Magnitude (Debye)      :      3.12564

                             ****ORCA TERMINATED NORMALLY****
TOTAL RUN TIME: 0 days 0 hours 16 minutes 22 seconds 636 msec
