                         Program Version 3.0.3 - RELEASE   -
|  1> ! RI-MP2 RIJK def2-TZVP def2-TZVP/C def2-TZVP/JK TIGHTSCF
|  2> % maxcore 2000
|  3> % mp2 density relaxed end
|  4> *xyz 0 1
|  5>  C       -0.0387236189     1.4736654215    -0.1348216755
|  6>  C       -0.0356247562    -0.0239489808     0.0261423594
|  7>  C       -0.7906194226    -0.7189920054     1.1116700477
|  8>  C        0.7417192458    -0.7170053151     1.1221399225
|  9>  C        1.4651742695    -1.9920057337     0.8222527747
| 10>  O        1.9940259339    -2.6783394062     1.6508830119
| 11>  O        1.4740071743    -2.3697510594    -0.4885412172
| 12>  C        1.1804112792    -1.3475051517    -1.4462986065
| 13>  O       -0.0390758804    -0.7268040547    -1.2029882906
| 14>  H        0.8538068884     1.8129112297    -0.6708550362
| 15>  H       -0.9191066467     1.7901046947    -0.7027013310
| 16>  H       -0.0608198322     1.9690672829     0.8399974674
| 17>  H       -1.2786307554    -0.1269916019     1.8773129381
| 18>  H       -1.2908326004    -1.6423604785     0.8455582591
| 19>  H        1.2160364914    -0.1237765525     1.8946887307
| 20>  H        2.0088506231    -0.6238303084    -1.4492010616
| 21>  H        1.1115923971    -1.8518543405    -2.4104339529
| 22> *
| 23>
| 24>                          ****END OF INPUT****

CARTESIAN COORDINATES (ANGSTROEM)
---------------------------------
  C     -0.038724    1.473665   -0.134822
  C     -0.035625   -0.023949    0.026142
  C     -0.790619   -0.718992    1.111670
  C      0.741719   -0.717005    1.122140
  C      1.465174   -1.992006    0.822253
  O      1.994026   -2.678339    1.650883
  O      1.474007   -2.369751   -0.488541
  C      1.180411   -1.347505   -1.446299
  O     -0.039076   -0.726804   -1.202988
  H      0.853807    1.812911   -0.670855
  H     -0.919107    1.790105   -0.702701
  H     -0.060820    1.969067    0.839997
  H     -1.278631   -0.126992    1.877313
  H     -1.290833   -1.642360    0.845558
  H      1.216036   -0.123777    1.894689
  H      2.008851   -0.623830   -1.449201
  H      1.111592   -1.851854   -2.410434

 Total Charge           Charge          ....    0
 Multiplicity           Mult            ....    1
 Number of Electrons    NEL             ....   68
 Basis Dimension        Dim             ....  327

ORBITAL ENERGIES
----------------

  NO   OCC          E(Eh)            E(eV)
   0   2.0000     -20.604139      -560.6671
   1   2.0000     -20.592974      -560.3633
   2   2.0000     -20.541697      -558.9680
   3   2.0000     -11.386040      -309.8299
   4   2.0000     -11.358606      -309.0834
   5   2.0000     -11.321138      -308.0638
   6   2.0000     -11.265628      -306.5533
   7   2.0000     -11.257389      -306.3291
   8   2.0000     -11.243465      -305.9502
   9   2.0000      -1.476090       -40.1664
  10   2.0000      -1.415572       -38.5197
  11   2.0000      -1.357393       -36.9365
  12   2.0000      -1.175007       -31.9736
  13   2.0000      -1.005947       -27.3732
  14   2.0000      -0.960402       -26.1339
  15   2.0000      -0.916043       -24.9268
  16   2.0000      -0.819336       -22.2953
  17   2.0000      -0.761839       -20.7307
  18   2.0000      -0.744002       -20.2453
  19   2.0000      -0.718984       -19.5646
  20   2.0000      -0.687556       -18.7094
  21   2.0000      -0.643837       -17.5197
  22   2.0000      -0.634366       -17.2620
  23   2.0000      -0.629739       -17.1361
  24   2.0000      -0.588862       -16.0238
  25   2.0000      -0.571661       -15.5557
  26   2.0000      -0.568381       -15.4664
  27   2.0000      -0.564749       -15.3676
  28   2.0000      -0.542383       -14.7590
  29   2.0000      -0.498998       -13.5784
  30   2.0000      -0.476539       -12.9673
  31   2.0000      -0.457256       -12.4426
  32   2.0000      -0.432445       -11.7674
  33   2.0000      -0.418734       -11.3943
  34   0.0000       0.126231         3.4349
  35   0.0000       0.135102         3.6763
  36   0.0000       0.168754         4.5920
  37   0.0000       0.175749         4.7824
  38   0.0000       0.183807         5.0016

MULLIKEN ATOMIC CHARGES
-----------------------
   0 C :   -0.396858
   1 C :    0.227325
   2 C :   -0.284538
   3 C :   -0.190886
   4 C :    0.255911
   5 O :   -0.276721
   6 O :   -0.229403
   7 C :    0.070298
   8 O :   -0.295020
   9 H :    0.133217
  10 H :    0.148437
  11 H :    0.132631
  12 H :    0.145478
  13 H :    0.152091
  14 H :    0.154862
  15 H :    0.108449
  16 H :    0.144730
Sum of atomic charges:    0.0000000

LOEWDIN ATOMIC CHARGES
----------------------
   0 C :   -0.260365
   1 C :   -0.334007
   2 C :   -0.154399
   3 C :   -0.155336
   4 C :   -0.458376
   5 O :    0.149339
   6 O :    0.243747
   7 C :   -0.353631
   8 O :    0.225941
   9 H :    0.130098
  10 H :    0.134690
  11 H :    0.133861
  12 H :    0.141309
  13 H :    0.148079
  14 H :    0.164827
  15 H :    0.115746
  16 H :    0.128478

  Mayer bond orders larger than 0.1
B(  0-C ,  1-C ) :   0.9210 B(  0-C ,  9-H ) :   0.9263 B(  0-C , 10-H ) :   0.9355
B(  0-C , 11-H ) :   0.9317 B(  1-C ,  2-C ) :   0.8968 B(  1-C ,  3-C ) :   0.8086
B(  1-C ,  8-O ) :   0.9065 B(  2-C ,  3-C ) :   0.8634 B(  2-C , 12-H ) :   0.9260
B(  2-C , 13-H ) :   0.9082 B(  3-C ,  4-C ) :   0.9423 B(  3-C , 14-H ) :   0.9171
B(  4-C ,  5-O ) :   2.0233 B(  4-C ,  6-O ) :   1.1045 B(  6-O ,  7-C ) :   0.8919
B(  7-C ,  8-O ) :   0.9911 B(  7-C , 15-H ) :   0.9261 B(  7-C , 16-H ) :   0.9285

MP2 TOTAL ENERGY:     -458.250192626 Eh
FINAL SINGLE POINT ENERGY      -458.250192625803

DIPOLE MOMENT
-------------
                                X             Y             Z
Electronic contribution:      3.03258      -7.29788       0.38487
Nuclear contribution   :     -3.52503       8.76995      -0.82749
                        -----------------------------------------
Total Dipole Moment    :     -0.49245       1.47207      -0.44262
                        -----------------------------------------
Magnitude (a.u.)       :      1.61413
Magnitude (Debye)      :      4.10278

                             ****ORCA TERMINATED NORMALLY****
TOTAL RUN TIME: 0 days 0 hours 17 minutes 17 seconds 558 msec
