                         Program Version 3.0.3 - RELEASE   -
|  1> ! RI-MP2 RIJK def2-TZVP def2-TZVP/C def2-TZVP/JK TIGHTSCF
|  2> % maxcore 2000
|  3> % mp2 density relaxed end
|  4> *xyz 0 1
|  5>  C       -0.0351208562     1.6496569718     0.0001650263
|  6>  C       -0.0104491843     0.1224111519    -0.0159145933
|  7>  N       -1.3531726046    -0.4704864080    -0.0811168970
|  8>  C       -2.0496326425    -0.2019369373    -1.3400223127
|  9>  C       -1.3710581956    -1.8789652564     0.2724124599
| 10>  C       -2.7996874690    -2.3035961637     0.6621666677
| 11>  O       -3.2992115954    -3.3614863706     0.4089676213
| 12>  C       -0.7786758069    -2.7837184540    -0.7371322280
| 13>  N       -0.2826711740    -3.4185822021    -1.5652860471
| 14>  H        0.9740527521     2.0303720863     0.1825377234
| 15>  H       -0.3733201884     2.0701218485    -0.9507576200
| 16>  H       -0.6930427324     2.0168363745     0.7932633976
| 17>  H        0.6257974656    -0.2342089836    -0.8449593227
| 18>  H        0.4524764416    -0.2328579312     0.9116646223
| 19>  H       -1.5125364717    -0.5920820162    -2.2199503659
| 20>  H       -3.0430215977    -0.6605353809    -1.3200225504
| 21>  H       -2.1869845820     0.8735281392    -1.4625109344
| 22>  H       -0.7886020696    -1.9957860364     1.1989783501
| 23>  H       -3.3144654890    -1.5053409019     1.2379941629
| 24> *
| 25>
| 26>                          ****END OF INPUT****

CARTESIAN COORDINATES (ANGSTROEM)
---------------------------------
  C     -0.035121    1.649657    0.000165
  C     -0.010449    0.122411   -0.015915
  N     -1.353173   -0.470486   -0.081117
  C     -2.049633   -0.201937   -1.340022
  C     -1.371058   -1.878965    0.272412
  C     -2.799687   -2.303596    0.662167
  O     -3.299212   -3.361486    0.408968
  C     -0.778676   -2.783718   -0.737132
  N     -0.282671   -3.418582   -1.565286
  H      0.974053    2.030372    0.182538
  H     -0.373320    2.070122   -0.950758
  H     -0.693043    2.016836    0.793263
  H      0.625797   -0.234209   -0.844959
  H      0.452476   -0.232858    0.911665
  H     -1.512536   -0.592082   -2.219950
  H     -3.043022   -0.660535   -1.320023
  H     -2.186985    0.873528   -1.462511
  H     -0.788602   -1.995786    1.198978
  H     -3.314465   -1.505341    1.237994

 Total Charge           Charge          ....    0
 Multiplicity           Mult            ....    1
 Number of Electrons    NEL             ....   68
 Basis Dimension        Dim             ....  339

ORBITAL ENERGIES
----------------

  NO   OCC          E(Eh)            E(eV)
   0   2.0000     -20.586128      -560.1770
   1   2.0000     -15.591347      -424.2621
   2   2.0000     -15.579532      -423.9406
   3   2.0000     -11.360487      -309.1346
   4   2.0000     -11.332923      -308.3845
   5   2.0000     -11.278581      -306.9058
   6   2.0000     -11.276639      -306.8529
   7   2.0000     -11.268898      -306.6423
   8   2.0000     -11.234146      -305.6967
   9   2.0000      -1.427825       -38.8531
  10   2.0000      -1.277358       -34.7587
  11   2.0000      -1.220310       -33.2063
  12   2.0000      -1.065925       -29.0053
  13   2.0000      -1.017612       -27.6906
  14   2.0000      -0.933841       -25.4111
  15   2.0000      -0.855628       -23.2828
  16   2.0000      -0.829633       -22.5755
  17   2.0000      -0.726256       -19.7624
  18   2.0000      -0.701898       -19.0996
  19   2.0000      -0.695360       -18.9217
  20   2.0000      -0.662375       -18.0241
  21   2.0000      -0.646056       -17.5801
  22   2.0000      -0.609209       -16.5774
  23   2.0000      -0.588017       -16.0008
  24   2.0000      -0.567842       -15.4518
  25   2.0000      -0.560963       -15.2646
  26   2.0000      -0.541291       -14.7293
  27   2.0000      -0.537067       -14.6143
  28   2.0000      -0.533147       -14.5077
  29   2.0000      -0.509138       -13.8544
  30   2.0000      -0.481478       -13.1017
  31   2.0000      -0.472022       -12.8444
  32   2.0000      -0.441692       -12.0191
  33   2.0000      -0.401725       -10.9315
  34   0.0000       0.107909         2.9363
  35   0.0000       0.119602         3.2545
  36   0.0000       0.142011         3.8643
  37   0.0000       0.154909         4.2153
  38   0.0000       0.157236         4.2786

MULLIKEN ATOMIC CHARGES
-----------------------
   0 C :   -0.397129
   1 C :   -0.150486
   2 N :   -0.171188
   3 C :   -0.356427
   4 C :    0.155465
   5 C :    0.042646
   6 O :   -0.218746
   7 C :   -0.219093
   8 N :   -0.042664
   9 H :    0.140076
  10 H :    0.134599
  11 H :    0.133406
  12 H :    0.121602
  13 H :    0.115539
  14 H :    0.145773
  15 H :    0.147100
  16 H :    0.150363
  17 H :    0.153273
  18 H :    0.115893
Sum of atomic charges:   -0.0000000

LOEWDIN ATOMIC CHARGES
----------------------
   0 C :   -0.314792
   1 C :   -0.303148
   2 N :    0.092193
   3 C :   -0.304580
   4 C :   -0.292982
   5 C :   -0.265195
   6 O :    0.172024
   7 C :   -0.170090
   8 N :    0.075332
   9 H :    0.128066
  10 H :    0.120735
  11 H :    0.124994
  12 H :    0.128116
  13 H :    0.135355
  14 H :    0.117035
  15 H :    0.125815
  16 H :    0.122146
  17 H :    0.185298
  18 H :    0.123679

  Mayer bond orders larger than 0.1
B(  0-C ,  1-C ) :   0.9248 B(  0-C ,  9-H ) :   0.9354 B(  0-C , 10-H ) :   0.9396
B(  0-C , 11-H ) :   0.9328 B(  1-C ,  2-N ) :   0.9159 B(  1-C , 12-H ) :   0.9260
B(  1-C , 13-H ) :   0.9216 B(  2-N ,  3-C ) :   0.8918 B(  2-N ,  4-C ) :   0.9273
B(  3-C , 14-H ) :   0.9237 B(  3-C , 15-H ) :   0.9274 B(  3-C , 16-H ) :   0.9351
B(  4-C ,  5-C ) :   0.8089 B(  4-C ,  7-C ) :   0.8454 B(  4-C , 17-H ) :   0.9007
B(  5-C ,  6-O ) :   2.0503 B(  5-C , 18-H ) :   0.9460 B(  7-C ,  8-N ) :   2.8483

MP2 TOTAL ENERGY:     -418.499616269 Eh
FINAL SINGLE POINT ENERGY      -418.499616268525

DIPOLE MOMENT
-------------
                                X             Y             Z
Electronic contribution:     -3.29220     -12.61965       0.68789
Nuclear contribution   :      3.38742      14.36195       0.13129
                        -----------------------------------------
Total Dipole Moment    :      0.09522       1.74230       0.81918
                        -----------------------------------------
Magnitude (a.u.)       :      1.92763
Magnitude (Debye)      :      4.89964

                             ****ORCA TERMINATED NORMALLY****
TOTAL RUN TIME: 0 days 0 hours 17 minutes 10 seconds 291 msec
