                         Program Version 3.0.3 - RELEASE   -
|  1> ! RI-MP2 RIJK def2-TZVP def2-TZVP/C def2-TZVP/JK TIGHTSCF
|  2> % maxcore 2000
|  3> % mp2 density relaxed end
|  4> *xyz 0 1
|  5>  C        1.8469806272     0.8920877398    -0.6202381141
|  6>  C        1.3434915767    -0.5539808707    -0.6004363504
|  7>  C       -0.0433293734    -0.7342920494     0.0523397308
|  8>  C       -1.1724327052    -0.0429033959    -0.7255052808
|  9>  C       -0.3367569194    -2.2135374425     0.1729199861
| 10>  O        0.3885084967    -2.9606450694     1.1345526579
| 11>  C       -1.0168133772    -2.8523796303     1.3383042739
| 12>  C       -1.4995076489    -2.0513023702     2.5050459101
| 13>  O       -0.8417347579    -1.2506513706     3.1197926236
| 14>  H        2.8606314830     0.9423287186    -1.0295671920
| 15>  H        1.2148564265     1.5409187172    -1.2342232490
| 16>  H        1.8756104205     1.3128919628     0.3907762509
| 17>  H        1.3155513335    -0.9493868728    -1.6256617454
| 18>  H        2.0578311485    -1.1751615797    -0.0483566036
| 19>  H        0.0036939303    -0.3229909236     1.0658353622
| 20>  H       -1.2502035685    -0.4360084202    -1.7464743572
| 21>  H       -2.1408852295    -0.1907732021    -0.2362431539
| 22>  H       -1.0018685188     1.0340111540    -0.7969922818
| 23>  H       -0.4712318067    -2.7346594590    -0.7798232798
| 24>  H       -1.5852812684    -3.7659715854     1.1548443526
| 25>  H       -2.5638631291    -2.2515095205     2.7651995698
| 26> *
| 27>
| 28>                          ****END OF INPUT****

CARTESIAN COORDINATES (ANGSTROEM)
---------------------------------
  C      1.846981    0.892088   -0.620238
  C      1.343492   -0.553981   -0.600436
  C     -0.043329   -0.734292    0.052340
  C     -1.172433   -0.042903   -0.725505
  C     -0.336757   -2.213537    0.172920
  O      0.388508   -2.960645    1.134553
  C     -1.016813   -2.852380    1.338304
  C     -1.499508   -2.051302    2.505046
  O     -0.841735   -1.250651    3.119793
  H      2.860631    0.942329   -1.029567
  H      1.214856    1.540919   -1.234223
  H      1.875610    1.312892    0.390776
  H      1.315551   -0.949387   -1.625662
  H      2.057831   -1.175162   -0.048357
  H      0.003694   -0.322991    1.065835
  H     -1.250204   -0.436008   -1.746474
  H     -2.140885   -0.190773   -0.236243
  H     -1.001869    1.034011   -0.796992
  H     -0.471232   -2.734659   -0.779823
  H     -1.585281   -3.765972    1.154844
  H     -2.563863   -2.251510    2.765200

 Total Charge           Charge          ....    0
 Multiplicity           Mult            ....    1
 Number of Electrons    NEL             ....   70
 Basis Dimension        Dim             ....  351

ORBITAL ENERGIES
----------------

  NO   OCC          E(Eh)            E(eV)
   0   2.0000     -20.586080      -560.1757
   1   2.0000     -20.566647      -559.6469
   2   2.0000     -11.343221      -308.6647
   3   2.0000     -11.306130      -307.6554
   4   2.0000     -11.304115      -307.6006
   5   2.0000     -11.234903      -305.7172
   6   2.0000     -11.224052      -305.4220
   7   2.0000     -11.222747      -305.3865
   8   2.0000     -11.213917      -305.1462
   9   2.0000      -1.437692       -39.1216
  10   2.0000      -1.399706       -38.0879
  11   2.0000      -1.095521       -29.8106
  12   2.0000      -0.999567       -27.1996
  13   2.0000      -0.981695       -26.7133
  14   2.0000      -0.917758       -24.9735
  15   2.0000      -0.859893       -23.3989
  16   2.0000      -0.797897       -21.7119
  17   2.0000      -0.776454       -21.1284
  18   2.0000      -0.716457       -19.4958
  19   2.0000      -0.678520       -18.4635
  20   2.0000      -0.655570       -17.8390
  21   2.0000      -0.626808       -17.0563
  22   2.0000      -0.613737       -16.7006
  23   2.0000      -0.586327       -15.9548
  24   2.0000      -0.570067       -15.5123
  25   2.0000      -0.551946       -15.0192
  26   2.0000      -0.542189       -14.7537
  27   2.0000      -0.532398       -14.4873
  28   2.0000      -0.514059       -13.9883
  29   2.0000      -0.509927       -13.8758
  30   2.0000      -0.474440       -12.9102
  31   2.0000      -0.470485       -12.8026
  32   2.0000      -0.452892       -12.3238
  33   2.0000      -0.437994       -11.9184
  34   2.0000      -0.423861       -11.5338
  35   0.0000       0.102622         2.7925
  36   0.0000       0.135724         3.6932
  37   0.0000       0.150307         4.0901
  38   0.0000       0.164725         4.4824
  39   0.0000       0.174272         4.7422

MULLIKEN ATOMIC CHARGES
-----------------------
   0 C :   -0.412535
   1 C :   -0.210921
   2 C :   -0.042583
   3 C :   -0.441182
   4 C :    0.047426
   5 O :   -0.313581
   6 C :    0.046334
   7 C :    0.086640
   8 O :   -0.257680
   9 H :    0.137393
  10 H :    0.125176
  11 H :    0.133262
  12 H :    0.102160
  13 H :    0.136068
  14 H :    0.127075
  15 H :    0.125434
  16 H :    0.133600
  17 H :    0.145012
  18 H :    0.123673
  19 H :    0.131798
  20 H :    0.077434
Sum of atomic charges:    0.0000000

LOEWDIN ATOMIC CHARGES
----------------------
   0 C :   -0.316968
   1 C :   -0.265043
   2 C :   -0.271914
   3 C :   -0.284924
   4 C :   -0.235557
   5 O :    0.201237
   6 C :   -0.273499
   7 C :   -0.289544
   8 O :    0.146489
   9 H :    0.122811
  10 H :    0.118206
  11 H :    0.124210
  12 H :    0.136208
  13 H :    0.145198
  14 H :    0.165918
  15 H :    0.124748
  16 H :    0.124525
  17 H :    0.126449
  18 H :    0.143936
  19 H :    0.142753
  20 H :    0.114758

  Mayer bond orders larger than 0.1
B(  0-C ,  1-C ) :   0.9166 B(  0-C ,  9-H ) :   0.9422 B(  0-C , 10-H ) :   0.9419
B(  0-C , 11-H ) :   0.9379 B(  1-C ,  2-C ) :   0.9261 B(  1-C , 12-H ) :   0.9240
B(  1-C , 13-H ) :   0.9342 B(  2-C ,  3-C ) :   0.8998 B(  2-C ,  4-C ) :   0.9048
B(  2-C , 14-H ) :   0.9182 B(  3-C , 15-H ) :   0.9302 B(  3-C , 16-H ) :   0.9373
B(  3-C , 17-H ) :   0.9394 B(  4-C ,  5-O ) :   0.8722 B(  4-C ,  6-C ) :   0.9533
B(  4-C , 18-H ) :   0.9131 B(  5-O ,  6-C ) :   0.9141 B(  6-C ,  7-C ) :   0.8682
B(  6-C , 19-H ) :   0.9013 B(  7-C ,  8-O ) :   1.9800 B(  7-C , 20-H ) :   0.9356

MP2 TOTAL ENERGY:     -423.507157542 Eh
FINAL SINGLE POINT ENERGY      -423.507157542202

DIPOLE MOMENT
-------------
                                X             Y             Z
Electronic contribution:     -2.60918      -8.11038       9.09912
Nuclear contribution   :      1.82844       7.92160      -9.97780
                        -----------------------------------------
Total Dipole Moment    :     -0.78075      -0.18878      -0.87867
                        -----------------------------------------
Magnitude (a.u.)       :      1.19049
Magnitude (Debye)      :      3.02599

                             ****ORCA TERMINATED NORMALLY****
TOTAL RUN TIME: 0 days 0 hours 17 minutes 39 seconds 448 msec
