                         Program Version 3.0.3 - RELEASE   -
|  1> ! RI-MP2 RIJK def2-TZVP def2-TZVP/C def2-TZVP/JK TIGHTSCF
|  2> % maxcore 2000
|  3> % mp2 density relaxed end
|  4> *xyz 0 1
|  5>  O        0.1268132650     1.3292254071    -0.2047299972
|  6>  C       -0.0369358046    -0.0227216932     0.2084583385
|  7>  C       -1.4588344665    -0.4833173058     0.1407309463
|  8>  C       -2.6309557110    -0.0562900363     1.0258506606
|  9>  C       -3.3899856467    -1.2730915130     0.4321774042
| 10>  C       -3.5896006699    -0.8975202830    -1.0629332328
| 11>  C       -2.0712868704    -1.0084393173    -1.1806161838
| 12>  C       -1.9859724679    -1.8961897227     0.0383349631
| 13>  H       -0.2814465342     1.4098485722    -1.0732122228
| 14>  H        0.5996601689    -0.7037205097    -0.3819662716
| 15>  H        0.3285218824    -0.0558943104     1.2411738045
| 16>  H       -2.3894032254    -0.2017711683     2.0832261785
| 17>  H       -3.0737772897     0.9361307074     0.8834591867
| 18>  H       -4.1787817119    -1.7698395242     0.9929511504
| 19>  H       -4.0880115753    -1.6963898975    -1.6193606764
| 20>  H       -4.0743802615     0.0613830844    -1.2820352241
| 21>  H       -1.4692918550    -1.0715564878    -2.0796972398
| 22>  H       -1.5162025662    -2.8553395720     0.2028840256
| 23> *
| 24>
| 25>                          ****END OF INPUT****

CARTESIAN COORDINATES (ANGSTROEM)
---------------------------------
  O      0.126813    1.329225   -0.204730
  C     -0.036936   -0.022722    0.208458
  C     -1.458834   -0.483317    0.140731
  C     -2.630956   -0.056290    1.025851
  C     -3.389986   -1.273092    0.432177
  C     -3.589601   -0.897520   -1.062933
  C     -2.071287   -1.008439   -1.180616
  C     -1.985972   -1.896190    0.038335
  H     -0.281447    1.409849   -1.073212
  H      0.599660   -0.703721   -0.381966
  H      0.328522   -0.055894    1.241174
  H     -2.389403   -0.201771    2.083226
  H     -3.073777    0.936131    0.883459
  H     -4.178782   -1.769840    0.992951
  H     -4.088012   -1.696390   -1.619361
  H     -4.074380    0.061383   -1.282035
  H     -1.469292   -1.071556   -2.079697
  H     -1.516203   -2.855340    0.202884

 Total Charge           Charge          ....    0
 Multiplicity           Mult            ....    1
 Number of Electrons    NEL             ....   60
 Basis Dimension        Dim             ....  308

ORBITAL ENERGIES
----------------

  NO   OCC          E(Eh)            E(eV)
   0   2.0000     -20.550719      -559.2135
   1   2.0000     -11.275707      -306.8276
   2   2.0000     -11.240056      -305.8575
   3   2.0000     -11.238039      -305.8026
   4   2.0000     -11.236556      -305.7622
   5   2.0000     -11.234407      -305.7038
   6   2.0000     -11.226726      -305.4947
   7   2.0000     -11.223182      -305.3983
   8   2.0000      -1.354593       -36.8604
   9   2.0000      -1.232653       -33.5422
  10   2.0000      -0.999101       -27.1869
  11   2.0000      -0.970244       -26.4017
  12   2.0000      -0.913133       -24.8476
  13   2.0000      -0.845780       -23.0148
  14   2.0000      -0.735751       -20.0208
  15   2.0000      -0.728734       -19.8299
  16   2.0000      -0.709414       -19.3041
  17   2.0000      -0.651778       -17.7358
  18   2.0000      -0.618381       -16.8270
  19   2.0000      -0.612783       -16.6747
  20   2.0000      -0.588097       -16.0029
  21   2.0000      -0.582460       -15.8495
  22   2.0000      -0.529837       -14.4176
  23   2.0000      -0.505369       -13.7518
  24   2.0000      -0.490373       -13.3437
  25   2.0000      -0.464329       -12.6350
  26   2.0000      -0.443241       -12.0612
  27   2.0000      -0.428824       -11.6689
  28   2.0000      -0.385752       -10.4968
  29   2.0000      -0.371992       -10.1224
  30   0.0000       0.137023         3.7286
  31   0.0000       0.155703         4.2369
  32   0.0000       0.160004         4.3539
  33   0.0000       0.171445         4.6653
  34   0.0000       0.189143         5.1469

MULLIKEN ATOMIC CHARGES
-----------------------
   0 O :   -0.466827
   1 C :    0.003271
   2 C :   -0.094634
   3 C :   -0.159466
   4 C :   -0.093504
   5 C :   -0.186246
   6 C :   -0.194490
   7 C :   -0.188901
   8 H :    0.313420
   9 H :    0.100068
  10 H :    0.110260
  11 H :    0.110631
  12 H :    0.106002
  13 H :    0.132229
  14 H :    0.115727
  15 H :    0.106386
  16 H :    0.136497
  17 H :    0.149575
Sum of atomic charges:    0.0000000

LOEWDIN ATOMIC CHARGES
----------------------
   0 O :   -0.050009
   1 C :   -0.310924
   2 C :   -0.207746
   3 C :   -0.173212
   4 C :   -0.155906
   5 C :   -0.200998
   6 C :   -0.159032
   7 C :   -0.105033
   8 H :    0.172972
   9 H :    0.124651
  10 H :    0.134449
  11 H :    0.140863
  12 H :    0.126749
  13 H :    0.129413
  14 H :    0.138596
  15 H :    0.123650
  16 H :    0.137299
  17 H :    0.134218

  Mayer bond orders larger than 0.1
B(  0-O ,  1-C ) :   0.9029 B(  0-O ,  8-H ) :   0.8455 B(  1-C ,  2-C ) :   0.9603
B(  1-C ,  9-H ) :   0.9270 B(  1-C , 10-H ) :   0.9204 B(  2-C ,  3-C ) :   0.9285
B(  2-C ,  6-C ) :   0.8232 B(  2-C ,  7-C ) :   0.8013 B(  3-C ,  4-C ) :   0.9190
B(  3-C , 11-H ) :   0.9260 B(  3-C , 12-H ) :   0.9177 B(  4-C ,  5-C ) :   0.9205
B(  4-C ,  7-C ) :   0.9081 B(  4-C , 13-H ) :   0.9186 B(  5-C ,  6-C ) :   0.9414
B(  5-C , 14-H ) :   0.9284 B(  5-C , 15-H ) :   0.9197 B(  6-C ,  7-C ) :   0.8739
B(  6-C , 16-H ) :   0.9267 B(  7-C , 17-H ) :   0.9015

MP2 TOTAL ENERGY:     -347.145244380 Eh
FINAL SINGLE POINT ENERGY      -347.145244380335

DIPOLE MOMENT
-------------
                                X             Y             Z
Electronic contribution:      1.42093       0.51628      -0.09328
Nuclear contribution   :     -1.80092      -1.08646      -0.19580
                        -----------------------------------------
Total Dipole Moment    :     -0.37999      -0.57018      -0.28908
                        -----------------------------------------
Magnitude (a.u.)       :      0.74368
Magnitude (Debye)      :      1.89029

                             ****ORCA TERMINATED NORMALLY****
TOTAL RUN TIME: 0 days 0 hours 12 minutes 23 seconds 793 msec
