                         Program Version 3.0.3 - RELEASE   -
|  1> ! RI-MP2 RIJK def2-TZVP def2-TZVP/C def2-TZVP/JK TIGHTSCF
|  2> % maxcore 2000
|  3> % mp2 density relaxed end
|  4> *xyz 0 1
|  5>  C        0.1402326376     1.6192496470     0.0283181954
|  6>  C        0.1217105983     0.1167201934     0.0875404678
|  7>  O       -1.2199417292    -0.4299779856     0.2365597467
|  8>  C       -0.8284718420    -1.2375300221     1.3709002896
|  9>  C        0.6432698651    -0.8289019667     1.2336734249
| 10>  C        1.4412973721    -1.6609861052     0.1859561296
| 11>  C        0.9422349417    -0.7104911892    -0.8891668307
| 12>  N        1.1433060026    -0.5290596334    -2.1251563291
| 13>  O        1.9889727122    -1.5181994158    -2.6537138812
| 14>  H        1.1669724273     1.9957865988    -0.0015225964
| 15>  H       -0.3720096567     1.9592451648    -0.8773987345
| 16>  H       -0.3725733055     2.0441998934     0.8959006498
| 17>  H       -1.3193587725    -0.8921699171     2.2896095779
| 18>  H       -1.0547072421    -2.3011402986     1.2246985324
| 19>  H        1.1757806859    -0.4779046069     2.1156778387
| 20>  H        2.5281077770    -1.6223692828     0.3086365276
| 21>  H        1.1486528271    -2.7098898865     0.0775370047
| 22>  H        2.0562893912    -1.2564340272    -3.5784478233
| 23> *
| 24>
| 25>                          ****END OF INPUT****

CARTESIAN COORDINATES (ANGSTROEM)
---------------------------------
  C      0.140233    1.619250    0.028318
  C      0.121711    0.116720    0.087540
  O     -1.219942   -0.429978    0.236560
  C     -0.828472   -1.237530    1.370900
  C      0.643270   -0.828902    1.233673
  C      1.441297   -1.660986    0.185956
  C      0.942235   -0.710491   -0.889167
  N      1.143306   -0.529060   -2.125156
  O      1.988973   -1.518199   -2.653714
  H      1.166972    1.995787   -0.001523
  H     -0.372010    1.959245   -0.877399
  H     -0.372573    2.044200    0.895901
  H     -1.319359   -0.892170    2.289610
  H     -1.054707   -2.301140    1.224699
  H      1.175781   -0.477905    2.115678
  H      2.528108   -1.622369    0.308637
  H      1.148653   -2.709890    0.077537
  H      2.056289   -1.256434   -3.578448

 Total Charge           Charge          ....    0
 Multiplicity           Mult            ....    1
 Number of Electrons    NEL             ....   68
 Basis Dimension        Dim             ....  333

ORBITAL ENERGIES
----------------

  NO   OCC          E(Eh)            E(eV)
   0   2.0000     -20.593857      -560.3873
   1   2.0000     -20.555055      -559.3315
   2   2.0000     -15.618991      -425.0144
   3   2.0000     -11.301431      -307.5276
   4   2.0000     -11.285486      -307.0937
   5   2.0000     -11.274606      -306.7976
   6   2.0000     -11.246405      -306.0302
   7   2.0000     -11.245598      -306.0083
   8   2.0000     -11.223199      -305.3988
   9   2.0000      -1.420032       -38.6410
  10   2.0000      -1.386358       -37.7247
  11   2.0000      -1.174179       -31.9510
  12   2.0000      -1.086172       -29.5562
  13   2.0000      -1.012961       -27.5641
  14   2.0000      -0.940779       -25.5999
  15   2.0000      -0.868926       -23.6447
  16   2.0000      -0.800428       -21.7808
  17   2.0000      -0.706161       -19.2156
  18   2.0000      -0.691758       -18.8237
  19   2.0000      -0.682329       -18.5671
  20   2.0000      -0.664833       -18.0910
  21   2.0000      -0.648639       -17.6504
  22   2.0000      -0.606575       -16.5057
  23   2.0000      -0.588219       -16.0063
  24   2.0000      -0.574648       -15.6370
  25   2.0000      -0.565040       -15.3755
  26   2.0000      -0.544236       -14.8094
  27   2.0000      -0.526301       -14.3214
  28   2.0000      -0.514800       -14.0084
  29   2.0000      -0.466213       -12.6863
  30   2.0000      -0.442227       -12.0336
  31   2.0000      -0.429171       -11.6783
  32   2.0000      -0.412496       -11.2246
  33   2.0000      -0.386909       -10.5283
  34   0.0000       0.136775         3.7218
  35   0.0000       0.138311         3.7636
  36   0.0000       0.150788         4.1032
  37   0.0000       0.158482         4.3125
  38   0.0000       0.174808         4.7568

MULLIKEN ATOMIC CHARGES
-----------------------
   0 C :   -0.393454
   1 C :    0.293907
   2 O :   -0.332310
   3 C :   -0.036170
   4 C :   -0.143559
   5 C :   -0.194567
   6 C :   -0.101338
   7 N :   -0.086916
   8 O :   -0.357635
   9 H :    0.131397
  10 H :    0.150271
  11 H :    0.134899
  12 H :    0.101373
  13 H :    0.098130
  14 H :    0.128887
  15 H :    0.136509
  16 H :    0.131849
  17 H :    0.338725
Sum of atomic charges:    0.0000000

LOEWDIN ATOMIC CHARGES
----------------------
   0 C :   -0.264777
   1 C :   -0.266259
   2 O :    0.160677
   3 C :   -0.251452
   4 C :   -0.161754
   5 C :   -0.185280
   6 C :   -0.239443
   7 N :    0.035767
   8 O :   -0.069887
   9 H :    0.133304
  10 H :    0.139938
  11 H :    0.130843
  12 H :    0.119485
  13 H :    0.119390
  14 H :    0.136768
  15 H :    0.148121
  16 H :    0.143869
  17 H :    0.170690

  Mayer bond orders larger than 0.1
B(  0-C ,  1-C ) :   0.9018 B(  0-C ,  9-H ) :   0.9295 B(  0-C , 10-H ) :   0.9333
B(  0-C , 11-H ) :   0.9334 B(  1-C ,  2-O ) :   0.8992 B(  1-C ,  4-C ) :   0.9124
B(  1-C ,  6-C ) :   0.8878 B(  2-O ,  3-C ) :   0.9463 B(  3-C ,  4-C ) :   0.9814
B(  3-C , 12-H ) :   0.9209 B(  3-C , 13-H ) :   0.9028 B(  4-C ,  5-C ) :   0.9438
B(  4-C , 14-H ) :   0.9068 B(  5-C ,  6-C ) :   0.9689 B(  5-C , 15-H ) :   0.8931
B(  5-C , 16-H ) :   0.8939 B(  6-C ,  7-N ) :   1.8615 B(  7-N ,  8-O ) :   0.8114
B(  8-O , 17-H ) :   0.8424

MP2 TOTAL ENERGY:     -438.281844668 Eh
FINAL SINGLE POINT ENERGY      -438.281844668217

DIPOLE MOMENT
-------------
                                X             Y             Z
Electronic contribution:      0.12462      -1.89986      -4.48872
Nuclear contribution   :      0.47612       1.86524       5.03869
                        -----------------------------------------
Total Dipole Moment    :      0.60074      -0.03462       0.54997
                        -----------------------------------------
Magnitude (a.u.)       :      0.81520
Magnitude (Debye)      :      2.07208

                             ****ORCA TERMINATED NORMALLY****
TOTAL RUN TIME: 0 days 0 hours 17 minutes 46 seconds 544 msec
