                         Program Version 3.0.3 - RELEASE   -
|  1> ! RI-MP2 RIJK def2-TZVP def2-TZVP/C def2-TZVP/JK TIGHTSCF
|  2> % maxcore 2000
|  3> % mp2 density relaxed end
|  4> *xyz 0 1
|  5>  C        0.0947957109     1.6165105795    -0.0182621485
|  6>  C       -0.0096281131     0.0884088756    -0.0073995376
|  7>  C        0.6077511116    -0.5276937552     1.2525572964
|  8>  C        0.7081006012    -2.0758004675     1.2359558933
|  9>  C       -0.6619331661    -2.7554749606     1.1061737873
| 10>  O        1.4600962628    -2.5175045666     0.0972739306
| 11>  C        1.3745123731    -2.5167259723     2.4728373719
| 12>  C        1.9504262409    -2.8515763136     3.4739968286
| 13>  H        1.1401185211     1.9432367836     0.0164660884
| 14>  H       -0.3556304572     2.0378108120    -0.9223656311
| 15>  H       -0.4164236424     2.0578354197     0.8447449842
| 16>  H       -1.0641630446    -0.2000162282    -0.0871961181
| 17>  H        0.4932907674    -0.3293344600    -0.8859602797
| 18>  H        1.6242074369    -0.1344680188     1.3892391249
| 19>  H        0.0449639374    -0.2239776523     2.1437981393
| 20>  H       -1.1114916146    -2.5036537724     0.1431505658
| 21>  H       -0.5427209420    -3.8395174552     1.1587027726
| 22>  H       -1.3294712151    -2.4338958584     1.9093701213
| 23>  H        2.3791812448    -2.2662985230     0.2409639803
| 24>  H        2.4517635469    -3.1601408063     4.3581200800
| 25> *
| 26>
| 27>                          ****END OF INPUT****

CARTESIAN COORDINATES (ANGSTROEM)
---------------------------------
  C      0.094796    1.616511   -0.018262
  C     -0.009628    0.088409   -0.007400
  C      0.607751   -0.527694    1.252557
  C      0.708101   -2.075800    1.235956
  C     -0.661933   -2.755475    1.106174
  O      1.460096   -2.517505    0.097274
  C      1.374512   -2.516726    2.472837
  C      1.950426   -2.851576    3.473997
  H      1.140119    1.943237    0.016466
  H     -0.355630    2.037811   -0.922366
  H     -0.416424    2.057835    0.844745
  H     -1.064163   -0.200016   -0.087196
  H      0.493291   -0.329334   -0.885960
  H      1.624207   -0.134468    1.389239
  H      0.044964   -0.223978    2.143798
  H     -1.111492   -2.503654    0.143151
  H     -0.542721   -3.839517    1.158703
  H     -1.329471   -2.433896    1.909370
  H      2.379181   -2.266299    0.240964
  H      2.451764   -3.160141    4.358120

 Total Charge           Charge          ....    0
 Multiplicity           Mult            ....    1
 Number of Electrons    NEL             ....   62
 Basis Dimension        Dim             ....  320

ORBITAL ENERGIES
----------------

  NO   OCC          E(Eh)            E(eV)
   0   2.0000     -20.560600      -559.4824
   1   2.0000     -11.314835      -307.8923
   2   2.0000     -11.234588      -305.7087
   3   2.0000     -11.228752      -305.5499
   4   2.0000     -11.228033      -305.5303
   5   2.0000     -11.219776      -305.3056
   6   2.0000     -11.219569      -305.3000
   7   2.0000     -11.214723      -305.1681
   8   2.0000      -1.369540       -37.2671
   9   2.0000      -1.092727       -29.7346
  10   2.0000      -1.043233       -28.3878
  11   2.0000      -0.998098       -27.1596
  12   2.0000      -0.934740       -25.4356
  13   2.0000      -0.856490       -23.3063
  14   2.0000      -0.791571       -21.5397
  15   2.0000      -0.739455       -20.1216
  16   2.0000      -0.693864       -18.8810
  17   2.0000      -0.647668       -17.6239
  18   2.0000      -0.642598       -17.4860
  19   2.0000      -0.596241       -16.2246
  20   2.0000      -0.575176       -15.6513
  21   2.0000      -0.545851       -14.8534
  22   2.0000      -0.538848       -14.6628
  23   2.0000      -0.533495       -14.5171
  24   2.0000      -0.512457       -13.9447
  25   2.0000      -0.505380       -13.7521
  26   2.0000      -0.472225       -12.8499
  27   2.0000      -0.470535       -12.8039
  28   2.0000      -0.454285       -12.3617
  29   2.0000      -0.398281       -10.8378
  30   2.0000      -0.389476       -10.5982
  31   0.0000       0.125550         3.4164
  32   0.0000       0.150305         4.0900
  33   0.0000       0.160318         4.3625
  34   0.0000       0.164736         4.4827
  35   0.0000       0.177616         4.8332

MULLIKEN ATOMIC CHARGES
-----------------------
   0 C :   -0.386346
   1 C :   -0.223567
   2 C :   -0.231419
   3 C :    0.138489
   4 C :   -0.405814
   5 O :   -0.466622
   6 C :   -0.078071
   7 C :   -0.128595
   8 H :    0.122749
   9 H :    0.135382
  10 H :    0.121370
  11 H :    0.112392
  12 H :    0.129028
  13 H :    0.110222
  14 H :    0.120082
  15 H :    0.145756
  16 H :    0.145109
  17 H :    0.128682
  18 H :    0.318070
  19 H :    0.193102
Sum of atomic charges:   -0.0000000

LOEWDIN ATOMIC CHARGES
----------------------
   0 C :   -0.320243
   1 C :   -0.293039
   2 C :   -0.225099
   3 C :   -0.390577
   4 C :   -0.249239
   5 O :    0.016746
   6 C :   -0.074849
   7 C :   -0.090219
   8 H :    0.119867
   9 H :    0.121094
  10 H :    0.120055
  11 H :    0.134854
  12 H :    0.139502
  13 H :    0.143827
  14 H :    0.146569
  15 H :    0.129838
  16 H :    0.133152
  17 H :    0.131208
  18 H :    0.178880
  19 H :    0.127672

  Mayer bond orders larger than 0.1
B(  0-C ,  1-C ) :   0.9133 B(  0-C ,  8-H ) :   0.9422 B(  0-C ,  9-H ) :   0.9445
B(  0-C , 10-H ) :   0.9373 B(  1-C ,  2-C ) :   0.9135 B(  1-C , 11-H ) :   0.9322
B(  1-C , 12-H ) :   0.9368 B(  2-C ,  3-C ) :   0.9672 B(  2-C , 13-H ) :   0.9202
B(  2-C , 14-H ) :   0.9157 B(  3-C ,  4-C ) :   0.8578 B(  3-C ,  5-O ) :   0.8800
B(  3-C ,  6-C ) :   1.1856 B(  4-C , 15-H ) :   0.9402 B(  4-C , 16-H ) :   0.9368
B(  4-C , 17-H ) :   0.9283 B(  5-O , 18-H ) :   0.8405 B(  6-C ,  7-C ) :   2.5618
B(  7-C , 19-H ) :   0.8848

MP2 TOTAL ENERGY:     -348.369176394 Eh
FINAL SINGLE POINT ENERGY      -348.369176394022

DIPOLE MOMENT
-------------
                                X             Y             Z
Electronic contribution:      4.57375      -6.96953       3.33404
Nuclear contribution   :     -4.45846       7.32534      -3.01384
                        -----------------------------------------
Total Dipole Moment    :      0.11529       0.35581       0.32020
                        -----------------------------------------
Magnitude (a.u.)       :      0.49236
Magnitude (Debye)      :      1.25148

                             ****ORCA TERMINATED NORMALLY****
TOTAL RUN TIME: 0 days 0 hours 14 minutes 19 seconds 827 msec
