                         Program Version 3.0.3 - RELEASE   -
|  1> ! RI-MP2 RIJK def2-TZVP def2-TZVP/C def2-TZVP/JK TIGHTSCF
|  2> % maxcore 2000
|  3> % mp2 density relaxed end
|  4> *xyz 0 1
|  5>  C       -0.0382214552     1.5597463369     0.0107497663
|  6>  C        1.4660056081     1.9194700539    -0.0125962553
|  7>  C        2.0713149426     1.5299470775    -1.3799070509
|  8>  C        1.9874766031    -0.0067613252    -1.3100052598
|  9>  C        0.5214965005    -0.4753827297    -1.3784524585
| 10>  C       -0.0070915946     0.0133989873    -0.0112107821
| 11>  C        1.1807973003    -0.3203063782     0.9109451917
| 12>  C        2.0890881384     0.8549279524     0.9100795833
| 13>  N        2.4179079642    -0.3384102104     0.0924681900
| 14>  H       -0.4965567003     1.9146373397     0.9403782315
| 15>  H       -0.5971678110     1.9911131147    -0.8276029641
| 16>  H        1.6766397386     2.9479095651     0.2857462168
| 17>  H        1.5307007983     1.9521743367    -2.2333103409
| 18>  H        3.1161501760     1.8510136619    -1.4446476625
| 19>  H        2.6419251617    -0.5130702630    -2.0220211250
| 20>  H       -0.0239864556    -0.0594546188    -2.2318512843
| 21>  H        0.4741799514    -1.5674709909    -1.4421746414
| 22>  H       -0.9489930736    -0.4494506499     0.2882139751
| 23>  H        1.1060254823    -1.0450419477     1.7157446423
| 24>  H        2.7721416949     1.1107423574     1.7141519778
| 25> *
| 26>
| 27>                          ****END OF INPUT****

CARTESIAN COORDINATES (ANGSTROEM)
---------------------------------
  C     -0.038221    1.559746    0.010750
  C      1.466006    1.919470   -0.012596
  C      2.071315    1.529947   -1.379907
  C      1.987477   -0.006761   -1.310005
  C      0.521497   -0.475383   -1.378452
  C     -0.007092    0.013399   -0.011211
  C      1.180797   -0.320306    0.910945
  C      2.089088    0.854928    0.910080
  N      2.417908   -0.338410    0.092468
  H     -0.496557    1.914637    0.940378
  H     -0.597168    1.991113   -0.827603
  H      1.676640    2.947910    0.285746
  H      1.530701    1.952174   -2.233310
  H      3.116150    1.851014   -1.444648
  H      2.641925   -0.513070   -2.022021
  H     -0.023986   -0.059455   -2.231851
  H      0.474180   -1.567471   -1.442175
  H     -0.948993   -0.449451    0.288214
  H      1.106025   -1.045042    1.715745
  H      2.772142    1.110742    1.714152

 Total Charge           Charge          ....    0
 Multiplicity           Mult            ....    1
 Number of Electrons    NEL             ....   66
 Basis Dimension        Dim             ....  345

ORBITAL ENERGIES
----------------

  NO   OCC          E(Eh)            E(eV)
   0   2.0000     -15.546304      -423.0364
   1   2.0000     -11.247528      -306.0608
   2   2.0000     -11.247297      -306.0545
   3   2.0000     -11.246781      -306.0405
   4   2.0000     -11.229441      -305.5686
   5   2.0000     -11.229432      -305.5684
   6   2.0000     -11.220992      -305.3387
   7   2.0000     -11.218210      -305.2630
   8   2.0000     -11.218194      -305.2626
   9   2.0000      -1.290278       -35.1102
  10   2.0000      -1.085615       -29.5411
  11   2.0000      -1.033145       -28.1133
  12   2.0000      -1.026560       -27.9341
  13   2.0000      -0.876860       -23.8606
  14   2.0000      -0.854656       -23.2564
  15   2.0000      -0.767429       -20.8828
  16   2.0000      -0.759595       -20.6696
  17   2.0000      -0.758651       -20.6439
  18   2.0000      -0.707480       -19.2515
  19   2.0000      -0.621293       -16.9062
  20   2.0000      -0.601862       -16.3775
  21   2.0000      -0.588063       -16.0020
  22   2.0000      -0.551724       -15.0132
  23   2.0000      -0.551053       -14.9949
  24   2.0000      -0.550396       -14.9770
  25   2.0000      -0.496983       -13.5236
  26   2.0000      -0.496724       -13.5165
  27   2.0000      -0.468007       -12.7351
  28   2.0000      -0.446897       -12.1607
  29   2.0000      -0.441735       -12.0202
  30   2.0000      -0.423398       -11.5212
  31   2.0000      -0.420925       -11.4539
  32   2.0000      -0.361096        -9.8259
  33   0.0000       0.134681         3.6649
  34   0.0000       0.165113         4.4929
  35   0.0000       0.166793         4.5387
  36   0.0000       0.175362         4.7718
  37   0.0000       0.191273         5.2048

MULLIKEN ATOMIC CHARGES
-----------------------
   0 C :   -0.316350
   1 C :    0.045845
   2 C :   -0.329128
   3 C :    0.098368
   4 C :   -0.329130
   5 C :    0.045849
   6 C :   -0.156483
   7 C :   -0.156475
   8 N :   -0.227249
   9 H :    0.116426
  10 H :    0.115726
  11 H :    0.120659
  12 H :    0.116831
  13 H :    0.121077
  14 H :    0.117998
  15 H :    0.116831
  16 H :    0.121077
  17 H :    0.120659
  18 H :    0.128733
  19 H :    0.128734
Sum of atomic charges:    0.0000000

LOEWDIN ATOMIC CHARGES
----------------------
   0 C :   -0.203087
   1 C :   -0.211853
   2 C :   -0.211230
   3 C :   -0.246049
   4 C :   -0.211230
   5 C :   -0.211854
   6 C :   -0.190326
   7 C :   -0.190329
   8 N :    0.147101
   9 H :    0.139468
  10 H :    0.133569
  11 H :    0.145620
  12 H :    0.136460
  13 H :    0.140796
  14 H :    0.141485
  15 H :    0.136460
  16 H :    0.140795
  17 H :    0.145620
  18 H :    0.134293
  19 H :    0.134293

  Mayer bond orders larger than 0.1
B(  0-C ,  1-C ) :   0.9201 B(  0-C ,  5-C ) :   0.9201 B(  0-C ,  9-H ) :   0.9214
B(  0-C , 10-H ) :   0.9278 B(  1-C ,  2-C ) :   0.9070 B(  1-C ,  7-C ) :   0.8732
B(  1-C , 11-H ) :   0.9220 B(  2-C ,  3-C ) :   0.9339 B(  2-C , 12-H ) :   0.9234
B(  2-C , 13-H ) :   0.9165 B(  3-C ,  4-C ) :   0.9339 B(  3-C ,  8-N ) :   0.8985
B(  3-C , 14-H ) :   0.9236 B(  4-C ,  5-C ) :   0.9070 B(  4-C , 15-H ) :   0.9234
B(  4-C , 16-H ) :   0.9165 B(  5-C ,  6-C ) :   0.8732 B(  5-C , 17-H ) :   0.9220
B(  6-C ,  7-C ) :   0.9535 B(  6-C ,  8-N ) :   0.9246 B(  6-C , 18-H ) :   0.9132
B(  7-C ,  8-N ) :   0.9246 B(  7-C , 19-H ) :   0.9132

MP2 TOTAL ENERGY:     -365.376871514 Eh
FINAL SINGLE POINT ENERGY      -365.376871514088

DIPOLE MOMENT
-------------
                                X             Y             Z
Electronic contribution:      2.22754      -1.72000       2.15052
Nuclear contribution   :     -2.77106       2.13997      -2.27736
                        -----------------------------------------
Total Dipole Moment    :     -0.54352       0.41997      -0.12684
                        -----------------------------------------
Magnitude (a.u.)       :      0.69848
Magnitude (Debye)      :      1.77539

                             ****ORCA TERMINATED NORMALLY****
TOTAL RUN TIME: 0 days 0 hours 23 minutes 10 seconds 47 msec
