                         Program Version 3.0.3 - RELEASE   -
|  1> ! RI-MP2 RIJK def2-TZVP def2-TZVP/C def2-TZVP/JK TIGHTSCF
|  2> % maxcore 2000
|  3> % mp2 density relaxed end
|  4> *xyz 0 1
|  5>  C        3.1493978224    -1.3595417279     1.1294600820
|  6>  N        1.8470048542    -1.2941063612     0.4817568988
|  7>  C        0.7277896121    -1.8995308939     1.1902295333
|  8>  C        0.8200436932    -0.4147217050     1.0602437731
|  9>  C        1.1136308172     0.5094194427     2.2235286776
| 10>  C       -0.0315090120     1.4064153615     2.7975362547
| 11>  C       -0.6053519501     0.1414303755     3.5003138186
| 12>  C        0.9360096822     0.0886349204     3.7228301785
| 13>  C        0.8615459474     1.6064182826     4.0545163449
| 14>  H        3.1164562799    -1.3139583141     2.2293919866
| 15>  H        3.6342129843    -2.2985484292     0.8439531817
| 16>  H        3.7766539736    -0.5361219490     0.7720063985
| 17>  H        0.0284139845    -2.4717493144     0.5853182714
| 18>  H        0.9200256922    -2.3194215236     2.1770919789
| 19>  H        0.2097203399     0.0523835315     0.2867263690
| 20>  H        2.0370253131     1.0700956098     2.0320430640
| 21>  H       -0.5893119955     2.1721075777     2.2551709020
| 22>  H       -1.2150712246     0.3173765425     4.3908218866
| 23>  H       -1.0459284766    -0.6264035149     2.8634629146
| 24>  H        1.4992301838    -0.6724057199     4.2660345065
| 25>  H        1.7789669935     2.1869810567     3.9218423397
| 26>  H        0.3448618052     1.8764069923     4.9791155693
| 27> *
| 28>
| 29>                          ****END OF INPUT****

CARTESIAN COORDINATES (ANGSTROEM)
---------------------------------
  C      3.149398   -1.359542    1.129460
  N      1.847005   -1.294106    0.481757
  C      0.727790   -1.899531    1.190230
  C      0.820044   -0.414722    1.060244
  C      1.113631    0.509419    2.223529
  C     -0.031509    1.406415    2.797536
  C     -0.605352    0.141430    3.500314
  C      0.936010    0.088635    3.722830
  C      0.861546    1.606418    4.054516
  H      3.116456   -1.313958    2.229392
  H      3.634213   -2.298548    0.843953
  H      3.776654   -0.536122    0.772006
  H      0.028414   -2.471749    0.585318
  H      0.920026   -2.319422    2.177092
  H      0.209720    0.052384    0.286726
  H      2.037025    1.070096    2.032043
  H     -0.589312    2.172108    2.255171
  H     -1.215071    0.317377    4.390822
  H     -1.045928   -0.626404    2.863463
  H      1.499230   -0.672406    4.266035
  H      1.778967    2.186981    3.921842
  H      0.344862    1.876407    4.979116

 Total Charge           Charge          ....    0
 Multiplicity           Mult            ....    1
 Number of Electrons    NEL             ....   68
 Basis Dimension        Dim             ....  357

ORBITAL ENERGIES
----------------

  NO   OCC          E(Eh)            E(eV)
   0   2.0000     -15.551139      -423.1680
   1   2.0000     -11.252278      -306.1901
   2   2.0000     -11.246903      -306.0438
   3   2.0000     -11.245507      -306.0058
   4   2.0000     -11.244218      -305.9707
   5   2.0000     -11.241461      -305.8957
   6   2.0000     -11.237759      -305.7950
   7   2.0000     -11.228813      -305.5515
   8   2.0000     -11.227089      -305.5046
   9   2.0000      -1.266519       -34.4637
  10   2.0000      -1.207978       -32.8707
  11   2.0000      -0.993024       -27.0216
  12   2.0000      -0.934968       -25.4418
  13   2.0000      -0.905730       -24.6462
  14   2.0000      -0.856862       -23.3164
  15   2.0000      -0.825368       -22.4594
  16   2.0000      -0.793705       -21.5978
  17   2.0000      -0.715734       -19.4761
  18   2.0000      -0.676850       -18.4180
  19   2.0000      -0.660559       -17.9747
  20   2.0000      -0.637261       -17.3408
  21   2.0000      -0.622739       -16.9456
  22   2.0000      -0.586937       -15.9714
  23   2.0000      -0.563626       -15.3370
  24   2.0000      -0.547992       -14.9116
  25   2.0000      -0.502212       -13.6659
  26   2.0000      -0.478172       -13.0117
  27   2.0000      -0.467482       -12.7208
  28   2.0000      -0.457413       -12.4468
  29   2.0000      -0.454266       -12.3612
  30   2.0000      -0.438597       -11.9348
  31   2.0000      -0.431639       -11.7455
  32   2.0000      -0.421183       -11.4610
  33   2.0000      -0.360215        -9.8020
  34   0.0000       0.143620         3.9081
  35   0.0000       0.157267         4.2795
  36   0.0000       0.161220         4.3870
  37   0.0000       0.166139         4.5209
  38   0.0000       0.188206         5.1214

MULLIKEN ATOMIC CHARGES
-----------------------
   0 C :   -0.302596
   1 N :   -0.202549
   2 C :   -0.171269
   3 C :   -0.136405
   4 C :   -0.085150
   5 C :   -0.121263
   6 C :   -0.220016
   7 C :   -0.140320
   8 C :   -0.202546
   9 H :    0.112046
  10 H :    0.142001
  11 H :    0.133903
  12 H :    0.125637
  13 H :    0.117728
  14 H :    0.119366
  15 H :    0.105837
  16 H :    0.130728
  17 H :    0.110698
  18 H :    0.126511
  19 H :    0.133019
  20 H :    0.110328
  21 H :    0.114311
Sum of atomic charges:   -0.0000000

LOEWDIN ATOMIC CHARGES
----------------------
   0 C :   -0.333661
   1 N :    0.085804
   2 C :   -0.251849
   3 C :   -0.239637
   4 C :   -0.178189
   5 C :   -0.164052
   6 C :   -0.193356
   7 C :   -0.174772
   8 C :   -0.198564
   9 H :    0.107687
  10 H :    0.118942
  11 H :    0.117515
  12 H :    0.122670
  13 H :    0.125681
  14 H :    0.146815
  15 H :    0.151672
  16 H :    0.124124
  17 H :    0.126932
  18 H :    0.130266
  19 H :    0.121016
  20 H :    0.127021
  21 H :    0.127932

  Mayer bond orders larger than 0.1
B(  0-C ,  1-N ) :   0.8857 B(  0-C ,  9-H ) :   0.9285 B(  0-C , 10-H ) :   0.9376
B(  0-C , 11-H ) :   0.9389 B(  1-N ,  2-C ) :   0.9013 B(  1-N ,  3-C ) :   0.9257
B(  2-C ,  3-C ) :   0.9477 B(  2-C , 12-H ) :   0.9201 B(  2-C , 13-H ) :   0.9138
B(  3-C ,  4-C ) :   0.9093 B(  3-C , 14-H ) :   0.9236 B(  4-C ,  5-C ) :   0.8710
B(  4-C ,  7-C ) :   0.8743 B(  4-C , 15-H ) :   0.9287 B(  5-C ,  6-C ) :   0.9135
B(  5-C ,  8-C ) :   0.9052 B(  5-C , 16-H ) :   0.8921 B(  6-C ,  7-C ) :   0.9131
B(  6-C , 17-H ) :   0.9322 B(  6-C , 18-H ) :   0.9226 B(  7-C ,  8-C ) :   0.9099
B(  7-C , 19-H ) :   0.8913 B(  8-C , 20-H ) :   0.9301 B(  8-C , 21-H ) :   0.9283

MP2 TOTAL ENERGY:     -366.459852639 Eh
FINAL SINGLE POINT ENERGY      -366.459852639386

DIPOLE MOMENT
-------------
                                X             Y             Z
Electronic contribution:     -1.35709       0.54238      -1.89249
Nuclear contribution   :      1.30660      -0.45415       2.41899
                        -----------------------------------------
Total Dipole Moment    :     -0.05049       0.08823       0.52650
                        -----------------------------------------
Magnitude (a.u.)       :      0.53622
Magnitude (Debye)      :      1.36297

                             ****ORCA TERMINATED NORMALLY****
TOTAL RUN TIME: 0 days 0 hours 19 minutes 37 seconds 921 msec
