                         Program Version 3.0.3 - RELEASE   -
|  1> ! RI-MP2 RIJK def2-TZVP def2-TZVP/C def2-TZVP/JK TIGHTSCF
|  2> % maxcore 2000
|  3> % mp2 density relaxed end
|  4> *xyz 0 1
|  5>  C       -0.1075707221     1.5274792541    -0.0946622058
|  6>  C        0.0158607104     0.0442540550    -0.0113401864
|  7>  C        0.6116425754    -1.0205985978    -0.9023142443
|  8>  C        1.3627343446    -1.6565523347     0.2605570940
|  9>  C        0.2954431737    -0.9777930370     1.1702086807
| 10>  N       -1.0039379612    -1.6464840819     0.8705287568
| 11>  C       -0.8963341928    -1.0703821222    -0.4688411383
| 12>  C       -1.9568768022    -1.0349648174    -1.4196753379
| 13>  N       -2.8070221377    -1.0017934467    -2.2047740543
| 14>  H        0.8463042148     2.0179256496     0.1278904479
| 15>  H       -0.4125162071     1.8290710124    -1.1018705556
| 16>  H       -0.8561668062     1.9023788726     0.6106471566
| 17>  H        0.8854769489    -0.9466803817    -1.9469466172
| 18>  H        1.4479783570    -2.7477857181     0.3164879350
| 19>  H        2.3477435362    -1.1991182430     0.3847347879
| 20>  H        0.4918268144    -0.7410345914     2.2137847379
| 21>  H       -0.9436381360    -2.6668529918     0.8874732532
| 22> *
| 23>
| 24>                          ****END OF INPUT****

CARTESIAN COORDINATES (ANGSTROEM)
---------------------------------
  C     -0.107571    1.527479   -0.094662
  C      0.015861    0.044254   -0.011340
  C      0.611643   -1.020599   -0.902314
  C      1.362734   -1.656552    0.260557
  C      0.295443   -0.977793    1.170209
  N     -1.003938   -1.646484    0.870529
  C     -0.896334   -1.070382   -0.468841
  C     -1.956877   -1.034965   -1.419675
  N     -2.807022   -1.001793   -2.204774
  H      0.846304    2.017926    0.127890
  H     -0.412516    1.829071   -1.101871
  H     -0.856167    1.902379    0.610647
  H      0.885477   -0.946680   -1.946947
  H      1.447978   -2.747786    0.316488
  H      2.347744   -1.199118    0.384735
  H      0.491827   -0.741035    2.213785
  H     -0.943638   -2.666853    0.887473

 Total Charge           Charge          ....    0
 Multiplicity           Mult            ....    1
 Number of Electrons    NEL             ....   64
 Basis Dimension        Dim             ....  327

ORBITAL ENERGIES
----------------

  NO   OCC          E(Eh)            E(eV)
   0   2.0000     -15.576097      -423.8472
   1   2.0000     -15.570318      -423.6899
   2   2.0000     -11.309748      -307.7539
   3   2.0000     -11.289967      -307.2156
   4   2.0000     -11.273994      -306.7810
   5   2.0000     -11.273409      -306.7651
   6   2.0000     -11.266181      -306.5684
   7   2.0000     -11.251424      -306.1668
   8   2.0000     -11.242267      -305.9176
   9   2.0000      -1.319683       -35.9104
  10   2.0000      -1.213935       -33.0329
  11   2.0000      -1.115170       -30.3453
  12   2.0000      -1.025585       -27.9076
  13   2.0000      -0.994197       -27.0535
  14   2.0000      -0.891365       -24.2553
  15   2.0000      -0.849666       -23.1206
  16   2.0000      -0.758237       -20.6327
  17   2.0000      -0.702479       -19.1154
  18   2.0000      -0.672909       -18.3108
  19   2.0000      -0.656799       -17.8724
  20   2.0000      -0.601802       -16.3759
  21   2.0000      -0.584156       -15.8957
  22   2.0000      -0.582610       -15.8536
  23   2.0000      -0.565322       -15.3832
  24   2.0000      -0.546529       -14.8718
  25   2.0000      -0.522459       -14.2168
  26   2.0000      -0.506470       -13.7818
  27   2.0000      -0.474910       -12.9230
  28   2.0000      -0.471133       -12.8202
  29   2.0000      -0.443096       -12.0572
  30   2.0000      -0.397913       -10.8278
  31   2.0000      -0.373839       -10.1727
  32   0.0000       0.126773         3.4497
  33   0.0000       0.131919         3.5897
  34   0.0000       0.155415         4.2291
  35   0.0000       0.165444         4.5020
  36   0.0000       0.174478         4.7478

MULLIKEN ATOMIC CHARGES
-----------------------
   0 C :   -0.410217
   1 C :    0.041013
   2 C :   -0.145141
   3 C :   -0.190961
   4 C :   -0.083209
   5 N :   -0.287566
   6 C :    0.236184
   7 C :   -0.312329
   8 N :   -0.040944
   9 H :    0.143611
  10 H :    0.150916
  11 H :    0.154761
  12 H :    0.152269
  13 H :    0.117479
  14 H :    0.125876
  15 H :    0.141715
  16 H :    0.206545
Sum of atomic charges:    0.0000000

LOEWDIN ATOMIC CHARGES
----------------------
   0 C :   -0.265959
   1 C :   -0.132807
   2 C :   -0.116397
   3 C :   -0.204535
   4 C :   -0.167020
   5 N :    0.072951
   6 C :   -0.232999
   7 C :   -0.151612
   8 N :    0.073540
   9 H :    0.133392
  10 H :    0.140245
  11 H :    0.137843
  12 H :    0.145392
  13 H :    0.125239
  14 H :    0.145491
  15 H :    0.132266
  16 H :    0.164969

  Mayer bond orders larger than 0.1
B(  0-C ,  1-C ) :   0.8100 B(  0-C ,  9-H ) :   0.9408 B(  0-C , 10-H ) :   0.9371
B(  0-C , 11-H ) :   0.9450 B(  1-C ,  2-C ) :   0.8344 B(  1-C ,  4-C ) :   0.8513
B(  1-C ,  6-C ) :   0.7951 B(  2-C ,  3-C ) :   0.9330 B(  2-C ,  6-C ) :   0.7542
B(  2-C , 12-H ) :   0.9164 B(  3-C ,  4-C ) :   0.9490 B(  3-C , 13-H ) :   0.9213
B(  3-C , 14-H ) :   0.9211 B(  4-C ,  5-N ) :   0.9993 B(  4-C , 15-H ) :   0.9128
B(  5-N ,  6-C ) :   0.9771 B(  5-N , 16-H ) :   0.8731 B(  6-C ,  7-C ) :   0.9313
B(  7-C ,  8-N ) :   2.8808

MP2 TOTAL ENERGY:     -380.146322531 Eh
FINAL SINGLE POINT ENERGY      -380.146322530806

DIPOLE MOMENT
-------------
                                X             Y             Z
Electronic contribution:     -5.42329      -3.12742      -2.74079
Nuclear contribution   :      7.15710       3.21963       3.56915
                        -----------------------------------------
Total Dipole Moment    :      1.73381       0.09221       0.82836
                        -----------------------------------------
Magnitude (a.u.)       :      1.92374
Magnitude (Debye)      :      4.88975

                             ****ORCA TERMINATED NORMALLY****
TOTAL RUN TIME: 0 days 0 hours 18 minutes 44 seconds 441 msec
