                         Program Version 3.0.3 - RELEASE   -
|  1> ! RI-MP2 RIJK def2-TZVP def2-TZVP/C def2-TZVP/JK TIGHTSCF
|  2> % maxcore 2000
|  3> % mp2 density relaxed end
|  4> *xyz 0 1
|  5>  C       -0.7356035615     1.3118271890    -0.1177947856
|  6>  C       -0.1707238952    -0.1033418436    -0.0237531375
|  7>  C        1.0278700372    -0.5462310584    -0.9300769696
|  8>  C        1.8756111180     0.5591841654    -1.5379683651
|  9>  O        2.9808907994    -0.0627212036    -2.1805427072
| 10>  C        1.6661054021    -1.2491113648     0.3020142625
| 11>  C        0.6351594029    -0.5587734016     1.2401036445
| 12>  C        1.2138780056     0.5380481225     2.1188569591
| 13>  O        2.0251025258    -0.0932560885     3.1010395900
| 14>  H        0.0276451559     2.0829823469     0.0247832543
| 15>  H       -1.1967956137     1.4828510637    -1.0967900504
| 16>  H       -1.5109726315     1.4728153685     0.6393474054
| 17>  H       -0.9959703127    -0.8064740229    -0.1771523951
| 18>  H        0.7455497586    -1.2210023713    -1.7439741809
| 19>  H        1.2763002323     1.1424870541    -2.2561229054
| 20>  H        2.2206993238     1.2583250439    -0.7593246499
| 21>  H        3.5474335314     0.6270522194    -2.5380441947
| 22>  H        1.5679208039    -2.3364789493     0.2779614817
| 23>  H        2.7144943202    -1.0083583247     0.4931212739
| 24>  H        0.0868939612    -1.2420381611     1.8958513668
| 25>  H        1.8085597648     1.2451388635     1.5184055799
| 26>  H        0.3997245303     1.1145112447     2.5879076344
| 27>  H        2.4293615611     0.5913328282     3.6418512792
| 28> *
| 29>
| 30>                          ****END OF INPUT****

CARTESIAN COORDINATES (ANGSTROEM)
---------------------------------
  C     -0.735604    1.311827   -0.117795
  C     -0.170724   -0.103342   -0.023753
  C      1.027870   -0.546231   -0.930077
  C      1.875611    0.559184   -1.537968
  O      2.980891   -0.062721   -2.180543
  C      1.666105   -1.249111    0.302014
  C      0.635159   -0.558773    1.240104
  C      1.213878    0.538048    2.118857
  O      2.025103   -0.093256    3.101040
  H      0.027645    2.082982    0.024783
  H     -1.196796    1.482851   -1.096790
  H     -1.510973    1.472815    0.639347
  H     -0.995970   -0.806474   -0.177152
  H      0.745550   -1.221002   -1.743974
  H      1.276300    1.142487   -2.256123
  H      2.220699    1.258325   -0.759325
  H      3.547434    0.627052   -2.538044
  H      1.567921   -2.336479    0.277961
  H      2.714494   -1.008358    0.493121
  H      0.086894   -1.242038    1.895851
  H      1.808560    1.245139    1.518406
  H      0.399725    1.114511    2.587908
  H      2.429362    0.591333    3.641851

 Total Charge           Charge          ....    0
 Multiplicity           Mult            ....    1
 Number of Electrons    NEL             ....   72
 Basis Dimension        Dim             ....  363

ORBITAL ENERGIES
----------------

  NO   OCC          E(Eh)            E(eV)
   0   2.0000     -20.552141      -559.2522
   1   2.0000     -20.552140      -559.2522
   2   2.0000     -11.271628      -306.7166
   3   2.0000     -11.271626      -306.7165
   4   2.0000     -11.225722      -305.4674
   5   2.0000     -11.216894      -305.2272
   6   2.0000     -11.216736      -305.2229
   7   2.0000     -11.216727      -305.2226
   8   2.0000     -11.205429      -304.9152
   9   2.0000      -1.356123       -36.9020
  10   2.0000      -1.355631       -36.8886
  11   2.0000      -1.132972       -30.8297
  12   2.0000      -0.986520       -26.8446
  13   2.0000      -0.984125       -26.7794
  14   2.0000      -0.916429       -24.9373
  15   2.0000      -0.842105       -22.9148
  16   2.0000      -0.801792       -21.8179
  17   2.0000      -0.721010       -19.6197
  18   2.0000      -0.693288       -18.8653
  19   2.0000      -0.687269       -18.7015
  20   2.0000      -0.664298       -18.0765
  21   2.0000      -0.628323       -17.0975
  22   2.0000      -0.604797       -16.4574
  23   2.0000      -0.596478       -16.2310
  24   2.0000      -0.573259       -15.5992
  25   2.0000      -0.559608       -15.2277
  26   2.0000      -0.556892       -15.1538
  27   2.0000      -0.529872       -14.4186
  28   2.0000      -0.507430       -13.8079
  29   2.0000      -0.487651       -13.2697
  30   2.0000      -0.463989       -12.6258
  31   2.0000      -0.454881       -12.3779
  32   2.0000      -0.443074       -12.0567
  33   2.0000      -0.434328       -11.8187
  34   2.0000      -0.412762       -11.2318
  35   2.0000      -0.408775       -11.1233
  36   0.0000       0.128267         3.4903
  37   0.0000       0.139401         3.7933
  38   0.0000       0.144002         3.9185
  39   0.0000       0.158702         4.3185
  40   0.0000       0.186978         5.0879

MULLIKEN ATOMIC CHARGES
-----------------------
   0 C :   -0.420157
   1 C :   -0.046496
   2 C :   -0.038143
   3 C :   -0.137473
   4 O :   -0.463566
   5 C :   -0.192375
   6 C :   -0.038147
   7 C :   -0.137477
   8 O :   -0.463568
   9 H :    0.119730
  10 H :    0.138665
  11 H :    0.138667
  12 H :    0.098714
  13 H :    0.099580
  14 H :    0.100838
  15 H :    0.090962
  16 H :    0.313566
  17 H :    0.119855
  18 H :    0.111868
  19 H :    0.099583
  20 H :    0.090969
  21 H :    0.100837
  22 H :    0.313567
Sum of atomic charges:    0.0000000

LOEWDIN ATOMIC CHARGES
----------------------
   0 C :   -0.302706
   1 C :   -0.207304
   2 C :   -0.212805
   3 C :   -0.335774
   4 O :   -0.043868
   5 C :   -0.188803
   6 C :   -0.212805
   7 C :   -0.335773
   8 O :   -0.043868
   9 H :    0.120473
  10 H :    0.125270
  11 H :    0.125270
  12 H :    0.152290
  13 H :    0.144698
  14 H :    0.116930
  15 H :    0.112782
  16 H :    0.170682
  17 H :    0.133421
  18 H :    0.136795
  19 H :    0.144699
  20 H :    0.112783
  21 H :    0.116930
  22 H :    0.170682

  Mayer bond orders larger than 0.1
B(  0-C ,  1-C ) :   0.8893 B(  0-C ,  9-H ) :   0.9341 B(  0-C , 10-H ) :   0.9408
B(  0-C , 11-H ) :   0.9408 B(  1-C ,  2-C ) :   0.8980 B(  1-C ,  6-C ) :   0.8980
B(  1-C , 12-H ) :   0.9266 B(  2-C ,  3-C ) :   0.9201 B(  2-C ,  5-C ) :   0.9234
B(  2-C , 13-H ) :   0.9136 B(  3-C ,  4-O ) :   1.0300 B(  3-C , 14-H ) :   0.9323
B(  3-C , 15-H ) :   0.9232 B(  4-O , 16-H ) :   0.8492 B(  5-C ,  6-C ) :   0.9234
B(  5-C , 17-H ) :   0.9219 B(  5-C , 18-H ) :   0.9096 B(  6-C ,  7-C ) :   0.9201
B(  6-C , 19-H ) :   0.9136 B(  7-C ,  8-O ) :   1.0300 B(  7-C , 20-H ) :   0.9231
B(  7-C , 21-H ) :   0.9323 B(  8-O , 22-H ) :   0.8492

MP2 TOTAL ENERGY:     -424.706393049 Eh
FINAL SINGLE POINT ENERGY      -424.706393049234

DIPOLE MOMENT
-------------
                                X             Y             Z
Electronic contribution:      3.57617      -2.84741       0.63078
Nuclear contribution   :     -3.74689       3.99094      -0.65528
                        -----------------------------------------
Total Dipole Moment    :     -0.17072       1.14353      -0.02449
                        -----------------------------------------
Magnitude (a.u.)       :      1.15646
Magnitude (Debye)      :      2.93950

                             ****ORCA TERMINATED NORMALLY****
TOTAL RUN TIME: 0 days 0 hours 31 minutes 23 seconds 1 msec
