                         Program Version 3.0.3 - RELEASE   -
|  1> ! RI-MP2 RIJK def2-TZVP def2-TZVP/C def2-TZVP/JK TIGHTSCF
|  2> % maxcore 2000
|  3> % mp2 density relaxed end
|  4> *xyz 0 1
|  5>  C        0.2181012955     1.5877222879    -0.2244731457
|  6>  C       -0.0532380226     0.1112481314     0.0659457985
|  7>  O        0.4603999303    -0.6969774409    -1.0019942149
|  8>  C        1.3242608569    -1.7026403532    -0.4911444524
|  9>  C        1.4192884876    -1.4491297792     0.9956242366
| 10>  C        2.2908265693    -2.2567246476     1.9069399144
| 11>  C        1.8354067372    -3.7117637966     2.0543449508
| 12>  O        2.7505981082    -4.3523206048     2.9279333323
| 13>  C        0.6261655270    -0.4240286484     1.2967013224
| 14>  H        1.2946034059     1.7787478177    -0.2614702674
| 15>  H       -0.2195568610     1.8673880403    -1.1870070735
| 16>  H       -0.2247327081     2.2212344704     0.5515944220
| 17>  H       -1.1458613965    -0.0373506895     0.1235513992
| 18>  H        0.9160238257    -2.7013853240    -0.7199729877
| 19>  H        2.3073336508    -1.6412806763    -0.9856138183
| 20>  H        3.3229587240    -2.2691849703     1.5322168941
| 21>  H        2.3188730279    -1.8036756951     2.9028648298
| 22>  H        0.8095805842    -3.7346410116     2.4542084073
| 23>  H        1.8146742357    -4.2033454502     1.0689988215
| 24>  H        2.4734963805    -5.2664739282     3.0379035890
| 25>  H        0.4755514714     0.0015611983     2.2817614722
| 26> *
| 27>
| 28>                          ****END OF INPUT****

CARTESIAN COORDINATES (ANGSTROEM)
---------------------------------
  C      0.218101    1.587722   -0.224473
  C     -0.053238    0.111248    0.065946
  O      0.460400   -0.696977   -1.001994
  C      1.324261   -1.702640   -0.491144
  C      1.419288   -1.449130    0.995624
  C      2.290827   -2.256725    1.906940
  C      1.835407   -3.711764    2.054345
  O      2.750598   -4.352321    2.927933
  C      0.626166   -0.424029    1.296701
  H      1.294603    1.778748   -0.261470
  H     -0.219557    1.867388   -1.187007
  H     -0.224733    2.221234    0.551594
  H     -1.145861   -0.037351    0.123551
  H      0.916024   -2.701385   -0.719973
  H      2.307334   -1.641281   -0.985614
  H      3.322959   -2.269185    1.532217
  H      2.318873   -1.803676    2.902865
  H      0.809581   -3.734641    2.454208
  H      1.814674   -4.203345    1.068999
  H      2.473496   -5.266474    3.037904
  H      0.475551    0.001561    2.281761

 Total Charge           Charge          ....    0
 Multiplicity           Mult            ....    1
 Number of Electrons    NEL             ....   70
 Basis Dimension        Dim             ....  351

ORBITAL ENERGIES
----------------

  NO   OCC          E(Eh)            E(eV)
   0   2.0000     -20.561071      -559.4952
   1   2.0000     -20.545904      -559.0825
   2   2.0000     -11.283312      -307.0345
   3   2.0000     -11.280151      -306.9485
   4   2.0000     -11.276554      -306.8506
   5   2.0000     -11.236893      -305.7714
   6   2.0000     -11.232705      -305.6575
   7   2.0000     -11.223427      -305.4050
   8   2.0000     -11.211925      -305.0920
   9   2.0000      -1.372414       -37.3453
  10   2.0000      -1.365658       -37.1614
  11   2.0000      -1.099120       -29.9086
  12   2.0000      -1.038991       -28.2724
  13   2.0000      -0.993039       -27.0220
  14   2.0000      -0.914650       -24.8889
  15   2.0000      -0.856900       -23.3174
  16   2.0000      -0.788973       -21.4690
  17   2.0000      -0.746466       -20.3124
  18   2.0000      -0.708269       -19.2730
  19   2.0000      -0.666725       -18.1425
  20   2.0000      -0.653892       -17.7933
  21   2.0000      -0.646921       -17.6036
  22   2.0000      -0.599653       -16.3174
  23   2.0000      -0.585630       -15.9358
  24   2.0000      -0.569788       -15.5047
  25   2.0000      -0.558803       -15.2058
  26   2.0000      -0.532933       -14.5018
  27   2.0000      -0.528636       -14.3849
  28   2.0000      -0.521458       -14.1896
  29   2.0000      -0.502426       -13.6717
  30   2.0000      -0.479991       -13.0612
  31   2.0000      -0.468889       -12.7591
  32   2.0000      -0.449793       -12.2395
  33   2.0000      -0.425358       -11.5746
  34   2.0000      -0.343569        -9.3490
  35   0.0000       0.131357         3.5744
  36   0.0000       0.138329         3.7641
  37   0.0000       0.158762         4.3201
  38   0.0000       0.162494         4.4217
  39   0.0000       0.170028         4.6267

MULLIKEN ATOMIC CHARGES
-----------------------
   0 C :   -0.388116
   1 C :    0.163974
   2 O :   -0.337095
   3 C :   -0.028492
   4 C :   -0.031386
   5 C :   -0.162145
   6 C :   -0.084531
   7 O :   -0.462247
   8 C :   -0.240102
   9 H :    0.124439
  10 H :    0.138623
  11 H :    0.116571
  12 H :    0.087266
  13 H :    0.101738
  14 H :    0.102803
  15 H :    0.123955
  16 H :    0.125194
  17 H :    0.103196
  18 H :    0.096642
  19 H :    0.317344
  20 H :    0.132367
Sum of atomic charges:    0.0000000

LOEWDIN ATOMIC CHARGES
----------------------
   0 C :   -0.291459
   1 C :   -0.315763
   2 O :    0.169306
   3 C :   -0.263574
   4 C :   -0.170752
   5 C :   -0.228069
   6 C :   -0.343645
   7 O :   -0.049111
   8 C :   -0.122132
   9 H :    0.124445
  10 H :    0.126280
  11 H :    0.123678
  12 H :    0.140193
  13 H :    0.124322
  14 H :    0.127866
  15 H :    0.150169
  16 H :    0.150013
  17 H :    0.116863
  18 H :    0.114338
  19 H :    0.173271
  20 H :    0.143762

  Mayer bond orders larger than 0.1
B(  0-C ,  1-C ) :   0.9080 B(  0-C ,  9-H ) :   0.9351 B(  0-C , 10-H ) :   0.9357
B(  0-C , 11-H ) :   0.9308 B(  1-C ,  2-O ) :   0.9220 B(  1-C ,  8-C ) :   0.9512
B(  1-C , 12-H ) :   0.9099 B(  2-O ,  3-C ) :   0.9551 B(  3-C ,  4-C ) :   0.9720
B(  3-C , 13-H ) :   0.9205 B(  3-C , 14-H ) :   0.8980 B(  4-C ,  5-C ) :   0.8706
B(  4-C ,  8-C ) :   1.7644 B(  5-C ,  6-C ) :   0.9098 B(  5-C , 15-H ) :   0.9218
B(  5-C , 16-H ) :   0.9300 B(  6-C ,  7-O ) :   1.0146 B(  6-C , 17-H ) :   0.9287
B(  6-C , 18-H ) :   0.9341 B(  7-O , 19-H ) :   0.8476 B(  8-C , 20-H ) :   0.9132

MP2 TOTAL ENERGY:     -423.520618749 Eh
FINAL SINGLE POINT ENERGY      -423.520618749010

DIPOLE MOMENT
-------------
                                X             Y             Z
Electronic contribution:      0.28851      -2.34402      -0.15931
Nuclear contribution   :     -0.56714       1.92761       0.55987
                        -----------------------------------------
Total Dipole Moment    :     -0.27863      -0.41641       0.40057
                        -----------------------------------------
Magnitude (a.u.)       :      0.64147
Magnitude (Debye)      :      1.63050

                             ****ORCA TERMINATED NORMALLY****
TOTAL RUN TIME: 0 days 0 hours 16 minutes 56 seconds 576 msec
