                         Program Version 3.0.3 - RELEASE   -
|  1> ! RI-MP2 RIJK def2-TZVP def2-TZVP/C def2-TZVP/JK TIGHTSCF
|  2> % maxcore 2000
|  3> % mp2 density relaxed end
|  4> *xyz 0 1
|  5>  C        0.2693350384     1.4716381753     0.1417680538
|  6>  C       -0.1996906271     0.0392194035    -0.1413108201
|  7>  C        0.5850456034    -0.6073625222    -1.2677357066
|  8>  C        1.9407827570    -1.2544186463    -1.1160165926
|  9>  C        2.0425688267    -2.0891402615     0.1425461441
| 10>  N        2.1694823006    -3.5203948898    -0.1536406104
| 11>  C        0.8397356557    -2.9081570388    -0.2642421310
| 12>  C       -0.2832277334    -3.4995050077     0.5378795738
| 13>  C        0.7108264775    -2.0882859078    -1.5385514827
| 14>  H        1.3240327202     1.4880106529     0.4357974095
| 15>  H        0.1642676799     2.1063963731    -0.7452306074
| 16>  H       -0.3129481069     1.9278743982     0.9482365890
| 17>  H       -0.1146709749    -0.5594951113     0.7700224294
| 18>  H       -1.2646422490     0.0482207458    -0.4080063142
| 19>  H        0.5175378560    -0.0388251911    -2.1971860821
| 20>  H        2.7836898318    -0.9726193174    -1.7385898930
| 21>  H        2.3383492903    -1.7549796233     1.1306629544
| 22>  H        2.5982742911    -3.6733224581    -1.0647347510
| 23>  H        0.0867901728    -3.8677493538     1.4980231787
| 24>  H       -1.0756698813    -2.7671377715     0.7201233878
| 25>  H       -0.7310480328    -4.3479989504     0.0068129602
| 26>  H        0.5041579141    -2.5016413177    -2.5211095095
| 27> *
| 28>
| 29>                          ****END OF INPUT****

CARTESIAN COORDINATES (ANGSTROEM)
---------------------------------
  C      0.269335    1.471638    0.141768
  C     -0.199691    0.039219   -0.141311
  C      0.585046   -0.607363   -1.267736
  C      1.940783   -1.254419   -1.116017
  C      2.042569   -2.089140    0.142546
  N      2.169482   -3.520395   -0.153641
  C      0.839736   -2.908157   -0.264242
  C     -0.283228   -3.499505    0.537880
  C      0.710826   -2.088286   -1.538551
  H      1.324033    1.488011    0.435797
  H      0.164268    2.106396   -0.745231
  H     -0.312948    1.927874    0.948237
  H     -0.114671   -0.559495    0.770022
  H     -1.264642    0.048221   -0.408006
  H      0.517538   -0.038825   -2.197186
  H      2.783690   -0.972619   -1.738590
  H      2.338349   -1.754980    1.130663
  H      2.598274   -3.673322   -1.064735
  H      0.086790   -3.867749    1.498023
  H     -1.075670   -2.767138    0.720123
  H     -0.731048   -4.347999    0.006813
  H      0.504158   -2.501641   -2.521110

 Total Charge           Charge          ....    0
 Multiplicity           Mult            ....    1
 Number of Electrons    NEL             ....   68
 Basis Dimension        Dim             ....  357

ORBITAL ENERGIES
----------------

  NO   OCC          E(Eh)            E(eV)
   0   2.0000     -15.549981      -423.1365
   1   2.0000     -11.263740      -306.5020
   2   2.0000     -11.255333      -306.2732
   3   2.0000     -11.240767      -305.8768
   4   2.0000     -11.236300      -305.7553
   5   2.0000     -11.235760      -305.7406
   6   2.0000     -11.222931      -305.3915
   7   2.0000     -11.215482      -305.1888
   8   2.0000     -11.214465      -305.1611
   9   2.0000      -1.286744       -35.0141
  10   2.0000      -1.141291       -31.0561
  11   2.0000      -1.028108       -27.9762
  12   2.0000      -0.988576       -26.9005
  13   2.0000      -0.897897       -24.4330
  14   2.0000      -0.866793       -23.5866
  15   2.0000      -0.842053       -22.9134
  16   2.0000      -0.766482       -20.8570
  17   2.0000      -0.716431       -19.4951
  18   2.0000      -0.680065       -18.5055
  19   2.0000      -0.646134       -17.5822
  20   2.0000      -0.633388       -17.2354
  21   2.0000      -0.598920       -16.2974
  22   2.0000      -0.572443       -15.5770
  23   2.0000      -0.559012       -15.2115
  24   2.0000      -0.545966       -14.8565
  25   2.0000      -0.530948       -14.4478
  26   2.0000      -0.502346       -13.6695
  27   2.0000      -0.489987       -13.3332
  28   2.0000      -0.479434       -13.0461
  29   2.0000      -0.475719       -12.9450
  30   2.0000      -0.416540       -11.3346
  31   2.0000      -0.405536       -11.0352
  32   2.0000      -0.394134       -10.7249
  33   2.0000      -0.379752       -10.3336
  34   0.0000       0.136143         3.7046
  35   0.0000       0.149649         4.0721
  36   0.0000       0.153884         4.1874
  37   0.0000       0.169791         4.6202
  38   0.0000       0.183212         4.9854

MULLIKEN ATOMIC CHARGES
-----------------------
   0 C :   -0.400193
   1 C :   -0.193803
   2 C :   -0.122584
   3 C :   -0.120510
   4 C :   -0.113525
   5 N :   -0.349754
   6 C :    0.045224
   7 C :   -0.424466
   8 C :   -0.071480
   9 H :    0.129856
  10 H :    0.121969
  11 H :    0.134409
  12 H :    0.122327
  13 H :    0.113204
  14 H :    0.107350
  15 H :    0.134388
  16 H :    0.131623
  17 H :    0.214452
  18 H :    0.145267
  19 H :    0.131629
  20 H :    0.132978
  21 H :    0.131639
Sum of atomic charges:   -0.0000000

LOEWDIN ATOMIC CHARGES
----------------------
   0 C :   -0.313626
   1 C :   -0.270506
   2 C :   -0.181355
   3 C :   -0.157258
   4 C :   -0.207789
   5 N :    0.042566
   6 C :   -0.273219
   7 C :   -0.272927
   8 C :   -0.132801
   9 H :    0.122311
  10 H :    0.120418
  11 H :    0.120656
  12 H :    0.142570
  13 H :    0.138636
  14 H :    0.157884
  15 H :    0.136258
  16 H :    0.134747
  17 H :    0.165241
  18 H :    0.134577
  19 H :    0.126081
  20 H :    0.130203
  21 H :    0.137333

  Mayer bond orders larger than 0.1
B(  0-C ,  1-C ) :   0.9191 B(  0-C ,  9-H ) :   0.9393 B(  0-C , 10-H ) :   0.9399
B(  0-C , 11-H ) :   0.9407 B(  1-C ,  2-C ) :   0.9002 B(  1-C , 12-H ) :   0.9350
B(  1-C , 13-H ) :   0.9321 B(  2-C ,  3-C ) :   0.8770 B(  2-C ,  8-C ) :   0.8612
B(  2-C , 14-H ) :   0.9140 B(  3-C ,  4-C ) :   0.8768 B(  3-C ,  8-C ) :   0.8379
B(  3-C , 15-H ) :   0.9216 B(  4-C ,  5-N ) :   0.9576 B(  4-C ,  6-C ) :   0.8728
B(  4-C , 16-H ) :   0.9256 B(  5-N ,  6-C ) :   0.9636 B(  5-N , 17-H ) :   0.8714
B(  6-C ,  7-C ) :   0.9002 B(  6-C ,  8-C ) :   0.9027 B(  7-C , 18-H ) :   0.9383
B(  7-C , 19-H ) :   0.9401 B(  7-C , 20-H ) :   0.9356 B(  8-C , 21-H ) :   0.9208

MP2 TOTAL ENERGY:     -366.500520133 Eh
FINAL SINGLE POINT ENERGY      -366.500520132892

DIPOLE MOMENT
-------------
                                X             Y             Z
Electronic contribution:      4.03712      -4.89562      -2.14755
Nuclear contribution   :     -4.30675       5.37126       1.72908
                        -----------------------------------------
Total Dipole Moment    :     -0.26963       0.47564      -0.41848
                        -----------------------------------------
Magnitude (a.u.)       :      0.68851
Magnitude (Debye)      :      1.75006

                             ****ORCA TERMINATED NORMALLY****
TOTAL RUN TIME: 0 days 0 hours 19 minutes 45 seconds 972 msec
