                         Program Version 3.0.3 - RELEASE   -
|  1> ! RI-MP2 RIJK def2-TZVP def2-TZVP/C def2-TZVP/JK TIGHTSCF
|  2> % maxcore 2000
|  3> % mp2 density relaxed end
|  4> *xyz 0 1
|  5>  O        0.2717237781     0.9592653134     0.8928295460
|  6>  C       -0.0321770276     0.1463387285    -0.2363878972
|  7>  C       -1.3870187172    -0.3726843344    -0.1252773160
|  8>  C       -2.5077372190    -0.8143457352    -0.0576898595
|  9>  C       -3.8123284407    -1.3460990030     0.0336061612
| 10>  C       -5.0078536893    -0.7429791998    -0.3353525269
| 11>  N       -5.9843831099    -1.6330839528    -0.0612470072
| 12>  N       -5.5264333758    -2.7887036195     0.4644984622
| 13>  C       -4.2139219840    -2.6206376716     0.5246042006
| 14>  H        1.1752587026     1.2734865331     0.7831130718
| 15>  H        0.0570204469     0.7206574629    -1.1734218083
| 16>  H        0.6689316209    -0.7007021121    -0.3163104129
| 17>  H       -5.2102555296     0.2281608338    -0.7569055329
| 18>  H       -6.9742561762    -1.5223436038    -0.2022330048
| 19>  H       -3.5804859792    -3.4033570793     0.9136890938
| 20> *
| 21>
| 22>                          ****END OF INPUT****

CARTESIAN COORDINATES (ANGSTROEM)
---------------------------------
  O      0.271724    0.959265    0.892830
  C     -0.032177    0.146339   -0.236388
  C     -1.387019   -0.372684   -0.125277
  C     -2.507737   -0.814346   -0.057690
  C     -3.812328   -1.346099    0.033606
  C     -5.007854   -0.742979   -0.335353
  N     -5.984383   -1.633084   -0.061247
  N     -5.526433   -2.788704    0.464498
  C     -4.213922   -2.620638    0.524604
  H      1.175259    1.273487    0.783113
  H      0.057020    0.720657   -1.173422
  H      0.668932   -0.700702   -0.316310
  H     -5.210256    0.228161   -0.756906
  H     -6.974256   -1.522344   -0.202233
  H     -3.580486   -3.403357    0.913689

 Total Charge           Charge          ....    0
 Multiplicity           Mult            ....    1
 Number of Electrons    NEL             ....   64
 Basis Dimension        Dim             ....  315

ORBITAL ENERGIES
----------------

  NO   OCC          E(Eh)            E(eV)
   0   2.0000     -20.565435      -559.6139
   1   2.0000     -15.648171      -425.8084
   2   2.0000     -15.594343      -424.3436
   3   2.0000     -11.307295      -307.6872
   4   2.0000     -11.291107      -307.2466
   5   2.0000     -11.262568      -306.4700
   6   2.0000     -11.247586      -306.0624
   7   2.0000     -11.231884      -305.6351
   8   2.0000     -11.224043      -305.4217
   9   2.0000      -1.384065       -37.6623
  10   2.0000      -1.368855       -37.2484
  11   2.0000      -1.109786       -30.1988
  12   2.0000      -1.092798       -29.7366
  13   2.0000      -1.033569       -28.1248
  14   2.0000      -0.943649       -25.6780
  15   2.0000      -0.845806       -23.0156
  16   2.0000      -0.818198       -22.2643
  17   2.0000      -0.761611       -20.7245
  18   2.0000      -0.712064       -19.3763
  19   2.0000      -0.668961       -18.2034
  20   2.0000      -0.645820       -17.5737
  21   2.0000      -0.631749       -17.1908
  22   2.0000      -0.619155       -16.8481
  23   2.0000      -0.618919       -16.8416
  24   2.0000      -0.578573       -15.7438
  25   2.0000      -0.534969       -14.5573
  26   2.0000      -0.478001       -13.0071
  27   2.0000      -0.468372       -12.7451
  28   2.0000      -0.446126       -12.1397
  29   2.0000      -0.375467       -10.2170
  30   2.0000      -0.371387       -10.1060
  31   2.0000      -0.320418        -8.7190
  32   0.0000       0.116235         3.1629
  33   0.0000       0.129937         3.5358
  34   0.0000       0.140358         3.8193
  35   0.0000       0.163578         4.4512
  36   0.0000       0.173088         4.7100

MULLIKEN ATOMIC CHARGES
-----------------------
   0 O :   -0.442517
   1 C :   -0.180851
   2 C :    0.008316
   3 C :    0.106386
   4 C :   -0.090302
   5 C :   -0.110830
   6 N :   -0.096630
   7 N :   -0.205008
   8 C :   -0.119447
   9 H :    0.315460
  10 H :    0.125876
  11 H :    0.127819
  12 H :    0.162641
  13 H :    0.258141
  14 H :    0.140946
Sum of atomic charges:    0.0000000

LOEWDIN ATOMIC CHARGES
----------------------
   0 O :   -0.043342
   1 C :   -0.338784
   2 C :   -0.054375
   3 C :   -0.033277
   4 C :   -0.196181
   5 C :   -0.190996
   6 N :    0.136655
   7 N :    0.028679
   8 C :   -0.224145
   9 H :    0.173658
  10 H :    0.133779
  11 H :    0.134391
  12 H :    0.142889
  13 H :    0.190880
  14 H :    0.140169

  Mayer bond orders larger than 0.1
B(  0-O ,  1-C ) :   1.1173 B(  0-O ,  9-H ) :   0.8467 B(  1-C ,  2-C ) :   0.9227
B(  1-C , 10-H ) :   0.9467 B(  1-C , 11-H ) :   0.9463 B(  2-C ,  3-C ) :   2.6424
B(  2-C ,  4-C ) :  -0.1648 B(  3-C ,  4-C ) :   1.0875 B(  4-C ,  5-C ) :   1.3703
B(  4-C ,  8-C ) :   1.2617 B(  5-C ,  6-N ) :   1.2252 B(  5-C ,  7-N ) :   0.1146
B(  5-C , 12-H ) :   0.8994 B(  6-N ,  7-N ) :   1.0677 B(  6-N , 13-H ) :   0.8754
B(  7-N ,  8-C ) :   1.5453 B(  8-C , 14-H ) :   0.9319

MP2 TOTAL ENERGY:     -416.075917718 Eh
FINAL SINGLE POINT ENERGY      -416.075917718222

DIPOLE MOMENT
-------------
                                X             Y             Z
Electronic contribution:     -4.18478      -1.68860       0.64315
Nuclear contribution   :      4.27810       2.31035      -1.46871
                        -----------------------------------------
Total Dipole Moment    :      0.09333       0.62175      -0.82556
                        -----------------------------------------
Magnitude (a.u.)       :      1.03770
Magnitude (Debye)      :      2.63764

                             ****ORCA TERMINATED NORMALLY****
TOTAL RUN TIME: 0 days 0 hours 13 minutes 29 seconds 23 msec
