                         Program Version 3.0.3 - RELEASE   -
|  1> ! RI-MP2 RIJK def2-TZVP def2-TZVP/C def2-TZVP/JK TIGHTSCF
|  2> % maxcore 2000
|  3> % mp2 density relaxed end
|  4> *xyz 0 1
|  5>  O       -0.0462667855    -0.1232028760    -0.0000283922
|  6>  C       -0.0142544358     1.0815176130     0.0045725385
|  7>  C        1.2771950253     1.8932255173    -0.0027763815
|  8>  O        2.3769723469     1.0272075345    -0.0156177872
|  9>  C        3.6025265388     1.7190030647    -0.0227270322
| 10>  C        4.7028183761     0.7513264268    -0.0361553467
| 11>  N        5.5987920867     0.0239034380    -0.0468240352
| 12>  C       -1.2116993773     1.9055861025     0.0179475975
| 13>  C       -2.1940084692     2.6007804537     0.0292749965
| 14>  H        1.2614819671     2.5577569952    -0.8847144708
| 15>  H        1.2762145766     2.5502312293     0.8849320361
| 16>  H        3.6959450741     2.3692228000    -0.9078429942
| 17>  H        3.7106721651     2.3613559129     0.8664470017
| 18>  H       -3.0726851789     3.1997984881     0.0402790496
| 19> *
| 20>
| 21>                          ****END OF INPUT****

CARTESIAN COORDINATES (ANGSTROEM)
---------------------------------
  O     -0.046267   -0.123203   -0.000028
  C     -0.014254    1.081518    0.004573
  C      1.277195    1.893226   -0.002776
  O      2.376972    1.027208   -0.015618
  C      3.602527    1.719003   -0.022727
  C      4.702818    0.751326   -0.036155
  N      5.598792    0.023903   -0.046824
  C     -1.211699    1.905586    0.017948
  C     -2.194008    2.600780    0.029275
  H      1.261482    2.557757   -0.884714
  H      1.276215    2.550231    0.884932
  H      3.695945    2.369223   -0.907843
  H      3.710672    2.361356    0.866447
  H     -3.072685    3.199798    0.040279

 Total Charge           Charge          ....    0
 Multiplicity           Mult            ....    1
 Number of Electrons    NEL             ....   64
 Basis Dimension        Dim             ....  309

ORBITAL ENERGIES
----------------

  NO   OCC          E(Eh)            E(eV)
   0   2.0000     -20.609395      -560.8101
   1   2.0000     -20.581101      -560.0402
   2   2.0000     -15.584044      -424.0634
   3   2.0000     -11.379570      -309.6538
   4   2.0000     -11.355493      -308.9987
   5   2.0000     -11.331215      -308.3380
   6   2.0000     -11.283516      -307.0401
   7   2.0000     -11.281033      -306.9725
   8   2.0000     -11.269915      -306.6700
   9   2.0000      -1.444047       -39.2945
  10   2.0000      -1.415864       -38.5276
  11   2.0000      -1.228929       -33.4408
  12   2.0000      -1.094259       -29.7763
  13   2.0000      -1.056833       -28.7579
  14   2.0000      -0.985516       -26.8173
  15   2.0000      -0.872168       -23.7329
  16   2.0000      -0.771805       -21.0019
  17   2.0000      -0.743945       -20.2438
  18   2.0000      -0.729447       -19.8493
  19   2.0000      -0.720535       -19.6067
  20   2.0000      -0.679523       -18.4908
  21   2.0000      -0.658637       -17.9224
  22   2.0000      -0.639547       -17.4029
  23   2.0000      -0.571956       -15.5637
  24   2.0000      -0.555300       -15.1105
  25   2.0000      -0.548434       -14.9236
  26   2.0000      -0.490925       -13.3587
  27   2.0000      -0.481790       -13.1102
  28   2.0000      -0.465004       -12.6534
  29   2.0000      -0.462873       -12.5954
  30   2.0000      -0.440975       -11.9995
  31   2.0000      -0.435032       -11.8378
  32   0.0000       0.068394         1.8611
  33   0.0000       0.105255         2.8641
  34   0.0000       0.138295         3.7632
  35   0.0000       0.142649         3.8817
  36   0.0000       0.149446         4.0666

MULLIKEN ATOMIC CHARGES
-----------------------
   0 O :   -0.223958
   1 C :    0.091165
   2 C :   -0.086116
   3 O :   -0.232583
   4 C :    0.018762
   5 C :   -0.141813
   6 N :   -0.050868
   7 C :   -0.022519
   8 C :   -0.101860
   9 H :    0.130291
  10 H :    0.130277
  11 H :    0.140596
  12 H :    0.140599
  13 H :    0.208026
Sum of atomic charges:   -0.0000000

LOEWDIN ATOMIC CHARGES
----------------------
   0 O :    0.207314
   1 C :   -0.326406
   2 C :   -0.292426
   3 O :    0.200074
   4 C :   -0.306903
   5 C :   -0.175250
   6 N :    0.079259
   7 C :   -0.063605
   8 C :   -0.032386
   9 H :    0.141250
  10 H :    0.141255
  11 H :    0.146547
  12 H :    0.146547
  13 H :    0.134729

  Mayer bond orders larger than 0.1
B(  0-O ,  1-C ) :   2.0534 B(  1-C ,  2-C ) :   0.9987 B(  1-C ,  7-C ) :   0.9485
B(  2-C ,  3-O ) :   0.9488 B(  2-C ,  7-C ) :  -0.1198 B(  2-C ,  9-H ) :   0.9012
B(  2-C , 10-H ) :   0.9012 B(  3-O ,  4-C ) :   0.9602 B(  4-C ,  5-C ) :   0.9471
B(  4-C , 11-H ) :   0.9027 B(  4-C , 12-H ) :   0.9027 B(  5-C ,  6-N ) :   2.8399
B(  7-C ,  8-C ) :   2.6087 B(  8-C , 13-H ) :   0.8957

MP2 TOTAL ENERGY:     -435.909614403 Eh
FINAL SINGLE POINT ENERGY      -435.909614402641

DIPOLE MOMENT
-------------
                                X             Y             Z
Electronic contribution:     -0.11873      -4.15678      -0.01758
Nuclear contribution   :     -1.03712       6.58483       0.03804
                        -----------------------------------------
Total Dipole Moment    :     -1.15585       2.42806       0.02046
                        -----------------------------------------
Magnitude (a.u.)       :      2.68921
Magnitude (Debye)      :      6.83543

                             ****ORCA TERMINATED NORMALLY****
TOTAL RUN TIME: 0 days 0 hours 11 minutes 7 seconds 40 msec
