                         Program Version 3.0.3 - RELEASE   -
|  1> ! RI-MP2 RIJK def2-TZVP def2-TZVP/C def2-TZVP/JK TIGHTSCF
|  2> % maxcore 2000
|  3> % mp2 density relaxed end
|  4> *xyz 0 1
|  5>  C       -0.3025151913     1.4266390114    -0.1283449475
|  6>  C       -0.0011550881    -0.0475352472     0.0103828150
|  7>  C        1.3734551135    -0.5917098721    -0.2273406490
|  8>  C        0.8122458061    -0.6129209388     1.1792529620
|  9>  C        1.3917736777     0.2625079870     2.2113520279
| 10>  N        2.1321087988     1.2845126583     2.0390694061
| 11>  C        2.4218435261     1.8297429327     3.3710414843
| 12>  C        1.7289098527     0.8501691662     4.3540354709
| 13>  O        1.0687066784    -0.0974298476     3.4888660051
| 14>  H        0.5325684185     2.0323788005     0.2299349403
| 15>  H       -0.4870940116     1.6782274567    -1.1785341329
| 16>  H       -1.1959382121     1.7032335823     0.4424923625
| 17>  H       -0.8185975602    -0.7014448908    -0.2833884809
| 18>  H        1.4911488157    -1.5423935813    -0.7354874721
| 19>  H        2.1684925987     0.1260356625    -0.3970465289
| 20>  H        0.4731116931    -1.5624131060     1.5760624781
| 21>  H        3.5040518512     1.8856226155     3.5298836123
| 22>  H        2.0309461356     2.8502252671     3.4543007002
| 23>  H        2.4304692316     0.3031111383     4.9911225800
| 24>  H        0.9727371556     1.3224932353     4.9871679966
| 25> *
| 26>
| 27>                          ****END OF INPUT****

CARTESIAN COORDINATES (ANGSTROEM)
---------------------------------
  C     -0.302515    1.426639   -0.128345
  C     -0.001155   -0.047535    0.010383
  C      1.373455   -0.591710   -0.227341
  C      0.812246   -0.612921    1.179253
  C      1.391774    0.262508    2.211352
  N      2.132109    1.284513    2.039069
  C      2.421844    1.829743    3.371041
  C      1.728910    0.850169    4.354035
  O      1.068707   -0.097430    3.488866
  H      0.532568    2.032379    0.229935
  H     -0.487094    1.678227   -1.178534
  H     -1.195938    1.703234    0.442492
  H     -0.818598   -0.701445   -0.283388
  H      1.491149   -1.542394   -0.735487
  H      2.168493    0.126036   -0.397047
  H      0.473112   -1.562413    1.576062
  H      3.504052    1.885623    3.529884
  H      2.030946    2.850225    3.454301
  H      2.430469    0.303111    4.991123
  H      0.972737    1.322493    4.987168

 Total Charge           Charge          ....    0
 Multiplicity           Mult            ....    1
 Number of Electrons    NEL             ....   68
 Basis Dimension        Dim             ....  345

ORBITAL ENERGIES
----------------

  NO   OCC          E(Eh)            E(eV)
   0   2.0000     -20.586344      -560.1829
   1   2.0000     -15.531167      -422.6245
   2   2.0000     -11.328363      -308.2604
   3   2.0000     -11.286136      -307.1114
   4   2.0000     -11.254960      -306.2630
   5   2.0000     -11.241638      -305.9005
   6   2.0000     -11.238628      -305.8186
   7   2.0000     -11.227348      -305.5117
   8   2.0000     -11.210187      -305.0447
   9   2.0000      -1.428381       -38.8682
  10   2.0000      -1.205073       -32.7917
  11   2.0000      -1.151050       -31.3217
  12   2.0000      -1.023465       -27.8499
  13   2.0000      -0.962186       -26.1824
  14   2.0000      -0.869789       -23.6682
  15   2.0000      -0.853599       -23.2276
  16   2.0000      -0.790376       -21.5072
  17   2.0000      -0.731593       -19.9076
  18   2.0000      -0.688530       -18.7358
  19   2.0000      -0.678427       -18.4609
  20   2.0000      -0.662665       -18.0320
  21   2.0000      -0.603271       -16.4158
  22   2.0000      -0.588721       -16.0199
  23   2.0000      -0.566683       -15.4202
  24   2.0000      -0.561527       -15.2799
  25   2.0000      -0.545940       -14.8558
  26   2.0000      -0.527166       -14.3449
  27   2.0000      -0.517623       -14.0852
  28   2.0000      -0.508272       -13.8308
  29   2.0000      -0.495916       -13.4946
  30   2.0000      -0.428530       -11.6609
  31   2.0000      -0.422360       -11.4930
  32   2.0000      -0.412759       -11.2317
  33   2.0000      -0.359349        -9.7784
  34   0.0000       0.142091         3.8665
  35   0.0000       0.152858         4.1595
  36   0.0000       0.167096         4.5469
  37   0.0000       0.172129         4.6839
  38   0.0000       0.188893         5.1400

MULLIKEN ATOMIC CHARGES
-----------------------
   0 C :   -0.410930
   1 C :   -0.074708
   2 C :   -0.254921
   3 C :   -0.097588
   4 C :    0.184832
   5 N :   -0.295237
   6 C :   -0.134637
   7 C :   -0.058642
   8 O :   -0.273733
   9 H :    0.157528
  10 H :    0.131431
  11 H :    0.125380
  12 H :    0.119312
  13 H :    0.136907
  14 H :    0.147038
  15 H :    0.135056
  16 H :    0.120596
  17 H :    0.116362
  18 H :    0.111670
  19 H :    0.114285
Sum of atomic charges:   -0.0000000

LOEWDIN ATOMIC CHARGES
----------------------
   0 C :   -0.294608
   1 C :   -0.216530
   2 C :   -0.189174
   3 C :   -0.168147
   4 C :   -0.358765
   5 N :    0.075101
   6 C :   -0.283679
   7 C :   -0.265846
   8 O :    0.229062
   9 H :    0.133628
  10 H :    0.126174
  11 H :    0.124804
  12 H :    0.148723
  13 H :    0.132399
  14 H :    0.145073
  15 H :    0.158365
  16 H :    0.129283
  17 H :    0.128399
  18 H :    0.122641
  19 H :    0.123096

  Mayer bond orders larger than 0.1
B(  0-C ,  1-C ) :   0.9206 B(  0-C ,  9-H ) :   0.9260 B(  0-C , 10-H ) :   0.9357
B(  0-C , 11-H ) :   0.9378 B(  1-C ,  2-C ) :   0.9095 B(  1-C ,  3-C ) :   0.8280
B(  1-C , 12-H ) :   0.9293 B(  2-C ,  3-C ) :   0.8476 B(  2-C , 13-H ) :   0.9291
B(  2-C , 14-H ) :   0.9177 B(  3-C ,  4-C ) :   0.9534 B(  3-C , 15-H ) :   0.9340
B(  4-C ,  5-N ) :   1.8116 B(  4-C ,  8-O ) :   1.0858 B(  5-N ,  6-C ) :   0.9402
B(  6-C ,  7-C ) :   0.9440 B(  6-C , 16-H ) :   0.9266 B(  6-C , 17-H ) :   0.9238
B(  7-C ,  8-O ) :   0.8769 B(  7-C , 18-H ) :   0.9274 B(  7-C , 19-H ) :   0.9242

MP2 TOTAL ENERGY:     -402.462439614 Eh
FINAL SINGLE POINT ENERGY      -402.462439614116

DIPOLE MOMENT
-------------
                                X             Y             Z
Electronic contribution:      1.62063      -2.48545       3.76421
Nuclear contribution   :     -1.72766       2.47599      -3.38865
                        -----------------------------------------
Total Dipole Moment    :     -0.10703      -0.00945       0.37556
                        -----------------------------------------
Magnitude (a.u.)       :      0.39063
Magnitude (Debye)      :      0.99290

                             ****ORCA TERMINATED NORMALLY****
TOTAL RUN TIME: 0 days 0 hours 19 minutes 4 seconds 331 msec
