                         Program Version 3.0.3 - RELEASE   -
|  1> ! RI-MP2 RIJK def2-TZVP def2-TZVP/C def2-TZVP/JK TIGHTSCF
|  2> % maxcore 2000
|  3> % mp2 density relaxed end
|  4> *xyz 0 1
|  5>  O        0.1721786956     1.2600303746     0.3890148675
|  6>  C        0.0048130115    -0.1225519026     0.1401914591
|  7>  C       -1.4593410629    -0.4714096812    -0.1378684756
|  8>  N       -2.0149735679     0.5108900671    -1.0937092072
|  9>  C       -1.6250061005    -0.8352505489    -1.5657761360
| 10>  C       -0.2754931089    -0.8565626422    -2.2657462231
| 11>  C        0.7682856741    -0.6056243295    -1.1489517533
| 12>  C        1.8754324340     0.3642333022    -1.5107464709
| 13>  O        2.0021336214     0.8913846453    -2.5865910432
| 14>  H       -0.4601525001     1.6953805174    -0.2044652495
| 15>  H        0.3758641794    -0.6412900558     1.0281128409
| 16>  H       -2.0922779228    -0.8574245989     0.6536151561
| 17>  H       -3.0234454069     0.5706136388    -0.9845305707
| 18>  H       -2.4134018486    -1.5070757747    -1.8896989765
| 19>  H       -0.1080505225    -1.8210213598    -2.7528647659
| 20>  H       -0.2080701048    -0.0829929797    -3.0349389666
| 21>  H        1.2682382379    -1.5508233626    -0.8950324834
| 22>  H        2.5993216020     0.5560466004    -0.6906156617
| 23> *
| 24>
| 25>                          ****END OF INPUT****

CARTESIAN COORDINATES (ANGSTROEM)
---------------------------------
  O      0.172179    1.260030    0.389015
  C      0.004813   -0.122552    0.140191
  C     -1.459341   -0.471410   -0.137868
  N     -2.014974    0.510890   -1.093709
  C     -1.625006   -0.835251   -1.565776
  C     -0.275493   -0.856563   -2.265746
  C      0.768286   -0.605624   -1.148952
  C      1.875432    0.364233   -1.510746
  O      2.002134    0.891385   -2.586591
  H     -0.460153    1.695381   -0.204465
  H      0.375864   -0.641290    1.028113
  H     -2.092278   -0.857425    0.653615
  H     -3.023445    0.570614   -0.984531
  H     -2.413402   -1.507076   -1.889699
  H     -0.108051   -1.821021   -2.752865
  H     -0.208070   -0.082993   -3.034939
  H      1.268238   -1.550823   -0.895032
  H      2.599322    0.556047   -0.690616

 Total Charge           Charge          ....    0
 Multiplicity           Mult            ....    1
 Number of Electrons    NEL             ....   68
 Basis Dimension        Dim             ....  333

ORBITAL ENERGIES
----------------

  NO   OCC          E(Eh)            E(eV)
   0   2.0000     -20.553927      -559.3008
   1   2.0000     -20.548617      -559.1563
   2   2.0000     -15.577104      -423.8745
   3   2.0000     -11.324750      -308.1621
   4   2.0000     -11.297699      -307.4260
   5   2.0000     -11.276667      -306.8537
   6   2.0000     -11.272987      -306.7536
   7   2.0000     -11.246307      -306.0276
   8   2.0000     -11.232202      -305.6438
   9   2.0000      -1.389198       -37.8020
  10   2.0000      -1.369245       -37.2591
  11   2.0000      -1.282215       -34.8908
  12   2.0000      -1.086335       -29.5607
  13   2.0000      -0.971519       -26.4364
  14   2.0000      -0.941329       -25.6149
  15   2.0000      -0.837374       -22.7861
  16   2.0000      -0.801394       -21.8070
  17   2.0000      -0.758763       -20.6470
  18   2.0000      -0.741305       -20.1719
  19   2.0000      -0.686362       -18.6769
  20   2.0000      -0.662331       -18.0229
  21   2.0000      -0.637827       -17.3562
  22   2.0000      -0.619767       -16.8647
  23   2.0000      -0.607336       -16.5264
  24   2.0000      -0.569550       -15.4983
  25   2.0000      -0.545071       -14.8321
  26   2.0000      -0.533867       -14.5273
  27   2.0000      -0.512981       -13.9589
  28   2.0000      -0.496253       -13.5037
  29   2.0000      -0.478825       -13.0295
  30   2.0000      -0.472243       -12.8504
  31   2.0000      -0.441421       -12.0117
  32   2.0000      -0.408523       -11.1165
  33   2.0000      -0.401994       -10.9388
  34   0.0000       0.121168         3.2971
  35   0.0000       0.139302         3.7906
  36   0.0000       0.150194         4.0870
  37   0.0000       0.165670         4.5081
  38   0.0000       0.170347         4.6354

MULLIKEN ATOMIC CHARGES
-----------------------
   0 O :   -0.473517
   1 C :    0.046158
   2 C :   -0.053964
   3 N :   -0.439469
   4 C :   -0.052625
   5 C :   -0.220726
   6 C :   -0.058609
   7 C :    0.105670
   8 O :   -0.274369
   9 H :    0.342695
  10 H :    0.106852
  11 H :    0.144585
  12 H :    0.221989
  13 H :    0.138247
  14 H :    0.118254
  15 H :    0.144172
  16 H :    0.118611
  17 H :    0.086047
Sum of atomic charges:    0.0000000

LOEWDIN ATOMIC CHARGES
----------------------
   0 O :   -0.009428
   1 C :   -0.292032
   2 C :   -0.232160
   3 N :   -0.001984
   4 C :   -0.239381
   5 C :   -0.207225
   6 C :   -0.219061
   7 C :   -0.273299
   8 O :    0.131380
   9 H :    0.181568
  10 H :    0.143340
  11 H :    0.135990
  12 H :    0.170507
  13 H :    0.136479
  14 H :    0.141105
  15 H :    0.151684
  16 H :    0.165392
  17 H :    0.117124

  Mayer bond orders larger than 0.1
B(  0-O ,  1-C ) :   0.9835 B(  0-O ,  9-H ) :   0.8053 B(  1-C ,  2-C ) :   0.9079
B(  1-C ,  6-C ) :   0.9007 B(  1-C , 10-H ) :   0.9431 B(  2-C ,  3-N ) :   0.8780
B(  2-C ,  4-C ) :   0.9183 B(  2-C , 11-H ) :   0.9158 B(  3-N ,  4-C ) :   0.8822
B(  3-N , 12-H ) :   0.8663 B(  4-C ,  5-C ) :   0.9432 B(  4-C , 13-H ) :   0.9225
B(  5-C ,  6-C ) :   0.9359 B(  5-C , 14-H ) :   0.9297 B(  5-C , 15-H ) :   0.9016
B(  6-C ,  7-C ) :   0.8770 B(  6-C , 16-H ) :   0.9034 B(  7-C ,  8-O ) :   1.9809
B(  7-C , 17-H ) :   0.9380

MP2 TOTAL ENERGY:     -438.359788625 Eh
FINAL SINGLE POINT ENERGY      -438.359788625147

DIPOLE MOMENT
-------------
                                X             Y             Z
Electronic contribution:      2.25379       2.56564      -0.38142
Nuclear contribution   :     -3.38468      -3.88282       0.88644
                        -----------------------------------------
Total Dipole Moment    :     -1.13088      -1.31719       0.50502
                        -----------------------------------------
Magnitude (a.u.)       :      1.80802
Magnitude (Debye)      :      4.59561

                             ****ORCA TERMINATED NORMALLY****
TOTAL RUN TIME: 0 days 0 hours 17 minutes 23 seconds 920 msec
