                         Program Version 3.0.3 - RELEASE   -
|  1> ! RI-MP2 RIJK def2-TZVP def2-TZVP/C def2-TZVP/JK TIGHTSCF
|  2> % maxcore 2000
|  3> % mp2 density relaxed end
|  4> *xyz 0 1
|  5>  C        0.0123730112     1.4103745892     0.1695055749
|  6>  N       -0.1596517143    -0.0036775475    -0.0971249764
|  7>  C        0.5340878730    -0.5824556897    -1.1286520691
|  8>  C        1.1546754249    -0.0403426316    -2.2237357193
|  9>  N        1.6225419198    -1.1403192445    -2.9160437771
| 10>  C        2.3379442319    -1.1362665022    -4.1277364405
| 11>  O        2.7335772650    -2.1121384656    -4.6925625081
| 12>  N        1.3068781126    -2.2872290207    -2.2597535824
| 13>  N        0.6590142944    -1.9566323108    -1.1956824357
| 14>  H        1.0599330212     1.6943831843     0.3562814436
| 15>  H       -0.3526683192     1.9979006052    -0.6805656012
| 16>  H       -0.5850465176     1.6854485688     1.0406714227
| 17>  H       -0.2332824143    -0.6050499627     0.7098588425
| 18>  H        1.3046959939     0.9661873653    -2.5699135480
| 19>  H        2.4830034673    -0.1002039874    -4.4844842859
| 20> *
| 21>
| 22>                          ****END OF INPUT****

CARTESIAN COORDINATES (ANGSTROEM)
---------------------------------
  C      0.012373    1.410375    0.169506
  N     -0.159652   -0.003678   -0.097125
  C      0.534088   -0.582456   -1.128652
  C      1.154675   -0.040343   -2.223736
  N      1.622542   -1.140319   -2.916044
  C      2.337944   -1.136267   -4.127736
  O      2.733577   -2.112138   -4.692563
  N      1.306878   -2.287229   -2.259754
  N      0.659014   -1.956632   -1.195682
  H      1.059933    1.694383    0.356281
  H     -0.352668    1.997901   -0.680566
  H     -0.585047    1.685449    1.040671
  H     -0.233282   -0.605050    0.709859
  H      1.304696    0.966187   -2.569914
  H      2.483003   -0.100204   -4.484484

 Total Charge           Charge          ....    0
 Multiplicity           Mult            ....    1
 Number of Electrons    NEL             ....   66
 Basis Dimension        Dim             ....  315

ORBITAL ENERGIES
----------------

  NO   OCC          E(Eh)            E(eV)
   0   2.0000     -20.574598      -559.8633
   1   2.0000     -15.674246      -426.5179
   2   2.0000     -15.667292      -426.3287
   3   2.0000     -15.617456      -424.9726
   4   2.0000     -15.584287      -424.0700
   5   2.0000     -11.391839      -309.9877
   6   2.0000     -11.315156      -307.9011
   7   2.0000     -11.288114      -307.1652
   8   2.0000     -11.276606      -306.8520
   9   2.0000      -1.466917       -39.9168
  10   2.0000      -1.418914       -38.6106
  11   2.0000      -1.267402       -34.4878
  12   2.0000      -1.225758       -33.3546
  13   2.0000      -1.081065       -29.4173
  14   2.0000      -0.969593       -26.3840
  15   2.0000      -0.938320       -25.5330
  16   2.0000      -0.839696       -22.8493
  17   2.0000      -0.814137       -22.1538
  18   2.0000      -0.752134       -20.4666
  19   2.0000      -0.698573       -19.0091
  20   2.0000      -0.679913       -18.5014
  21   2.0000      -0.677411       -18.4333
  22   2.0000      -0.653544       -17.7838
  23   2.0000      -0.630922       -17.1683
  24   2.0000      -0.610660       -16.6169
  25   2.0000      -0.564713       -15.3666
  26   2.0000      -0.561568       -15.2810
  27   2.0000      -0.539438       -14.6789
  28   2.0000      -0.483938       -13.1686
  29   2.0000      -0.474677       -12.9166
  30   2.0000      -0.448892       -12.2150
  31   2.0000      -0.427214       -11.6251
  32   2.0000      -0.326091        -8.8734
  33   0.0000       0.076869         2.0917
  34   0.0000       0.121589         3.3086
  35   0.0000       0.138755         3.7757
  36   0.0000       0.160809         4.3758
  37   0.0000       0.163041         4.4366

MULLIKEN ATOMIC CHARGES
-----------------------
   0 C :   -0.294880
   1 N :   -0.346606
   2 C :    0.140157
   3 C :   -0.230363
   4 N :    0.131268
   5 C :    0.147450
   6 O :   -0.226119
   7 N :   -0.160756
   8 N :   -0.110352
   9 H :    0.132398
  10 H :    0.137110
  11 H :    0.149929
  12 H :    0.248148
  13 H :    0.177292
  14 H :    0.105323
Sum of atomic charges:   -0.0000000

LOEWDIN ATOMIC CHARGES
----------------------
   0 C :   -0.323911
   1 N :    0.049446
   2 C :   -0.355979
   3 C :   -0.217568
   4 N :    0.172035
   5 C :   -0.339507
   6 O :    0.164088
   7 N :    0.003030
   8 N :    0.041254
   9 H :    0.108964
  10 H :    0.119103
  11 H :    0.123157
  12 H :    0.191058
  13 H :    0.143845
  14 H :    0.120983

  Mayer bond orders larger than 0.1
B(  0-C ,  1-N ) :   0.9092 B(  0-C ,  9-H ) :   0.9310 B(  0-C , 10-H ) :   0.9328
B(  0-C , 11-H ) :   0.9351 B(  1-N ,  2-C ) :   1.1262 B(  1-N , 12-H ) :   0.8640
B(  2-C ,  3-C ) :   1.4730 B(  2-C ,  8-N ) :   1.2837 B(  3-C ,  4-N ) :   1.1105
B(  3-C ,  7-N ) :   0.1074 B(  3-C , 13-H ) :   0.8874 B(  4-N ,  5-C ) :   0.9115
B(  4-N ,  7-N ) :   0.9721 B(  5-C ,  6-O ) :   2.0314 B(  5-C , 14-H ) :   0.9246
B(  7-N ,  8-N ) :   1.2723

MP2 TOTAL ENERGY:     -449.384559107 Eh
FINAL SINGLE POINT ENERGY      -449.384559106967

DIPOLE MOMENT
-------------
                                X             Y             Z
Electronic contribution:      2.78304      -7.75423      -5.61573
Nuclear contribution   :     -2.95968      10.07044       6.25764
                        -----------------------------------------
Total Dipole Moment    :     -0.17664       2.31621       0.64191
                        -----------------------------------------
Magnitude (a.u.)       :      2.40999
Magnitude (Debye)      :      6.12572

                             ****ORCA TERMINATED NORMALLY****
TOTAL RUN TIME: 0 days 0 hours 15 minutes 47 seconds 890 msec
