                         Program Version 3.0.3 - RELEASE   -
|  1> ! RI-MP2 RIJK def2-TZVP def2-TZVP/C def2-TZVP/JK TIGHTSCF
|  2> % maxcore 2000
|  3> % mp2 density relaxed end
|  4> *xyz 0 1
|  5>  C        0.0756993351     1.5017855256     0.0302424362
|  6>  C       -0.0304334936     0.0077194434    -0.0211676454
|  7>  C       -0.0510653993    -0.8879041925     1.2436536096
|  8>  C        1.0108258197    -1.0505175169     0.1946825836
|  9>  N        0.1030514710    -2.0610455735    -0.5182160806
| 10>  C       -0.7120176611    -2.1781516567     0.7700624102
| 11>  C       -2.1887735625    -2.1023116632     0.3884511379
| 12>  C       -2.1788867446    -1.1981320578    -0.8812211150
| 13>  C       -0.6955968641    -0.8830303712    -1.0710593227
| 14>  H        0.7422634636     1.8253259787     0.8369991697
| 15>  H        0.4736823258     1.9040343588    -0.9085779657
| 16>  H       -0.9011567296     1.9684190789     0.2049202788
| 17>  H        0.0267542721    -0.4614500514     2.2369067265
| 18>  H        2.0916309556    -1.0626469151     0.2068690802
| 19>  H       -0.4212956555    -3.0643042936     1.3385305644
| 20>  H       -2.5865797414    -3.0961676436     0.1630071746
| 21>  H       -2.7892206038    -1.6858767999     1.2025453141
| 22>  H       -2.5826522313    -1.7285007083    -1.7485607166
| 23>  H       -2.7674933539    -0.2843439036    -0.7561525617
| 24>  H       -0.3948883721    -0.6517764280    -2.0962597982
| 25> *
| 26>
| 27>                          ****END OF INPUT****

CARTESIAN COORDINATES (ANGSTROEM)
---------------------------------
  C      0.075699    1.501786    0.030242
  C     -0.030433    0.007719   -0.021168
  C     -0.051065   -0.887904    1.243654
  C      1.010826   -1.050518    0.194683
  N      0.103051   -2.061046   -0.518216
  C     -0.712018   -2.178152    0.770062
  C     -2.188774   -2.102312    0.388451
  C     -2.178887   -1.198132   -0.881221
  C     -0.695597   -0.883030   -1.071059
  H      0.742263    1.825326    0.836999
  H      0.473682    1.904034   -0.908578
  H     -0.901157    1.968419    0.204920
  H      0.026754   -0.461450    2.236907
  H      2.091631   -1.062647    0.206869
  H     -0.421296   -3.064304    1.338531
  H     -2.586580   -3.096168    0.163007
  H     -2.789221   -1.685877    1.202545
  H     -2.582652   -1.728501   -1.748561
  H     -2.767493   -0.284344   -0.756153
  H     -0.394888   -0.651776   -2.096260

 Total Charge           Charge          ....    0
 Multiplicity           Mult            ....    1
 Number of Electrons    NEL             ....   66
 Basis Dimension        Dim             ....  345

ORBITAL ENERGIES
----------------

  NO   OCC          E(Eh)            E(eV)
   0   2.0000     -15.545810      -423.0230
   1   2.0000     -11.252017      -306.1830
   2   2.0000     -11.251727      -306.1750
   3   2.0000     -11.250125      -306.1315
   4   2.0000     -11.238283      -305.8092
   5   2.0000     -11.230521      -305.5980
   6   2.0000     -11.225114      -305.4509
   7   2.0000     -11.218025      -305.2580
   8   2.0000     -11.217382      -305.2405
   9   2.0000      -1.302108       -35.4322
  10   2.0000      -1.072476       -29.1836
  11   2.0000      -1.027783       -27.9674
  12   2.0000      -0.997807       -27.1517
  13   2.0000      -0.938095       -25.5269
  14   2.0000      -0.840697       -22.8765
  15   2.0000      -0.823202       -22.4005
  16   2.0000      -0.731618       -19.9083
  17   2.0000      -0.711393       -19.3580
  18   2.0000      -0.656801       -17.8725
  19   2.0000      -0.645930       -17.5766
  20   2.0000      -0.627384       -17.0720
  21   2.0000      -0.578396       -15.7390
  22   2.0000      -0.572128       -15.5684
  23   2.0000      -0.550359       -14.9760
  24   2.0000      -0.538913       -14.6646
  25   2.0000      -0.523068       -14.2334
  26   2.0000      -0.489179       -13.3112
  27   2.0000      -0.483123       -13.1464
  28   2.0000      -0.459742       -12.5102
  29   2.0000      -0.441018       -12.0007
  30   2.0000      -0.421579       -11.4717
  31   2.0000      -0.362579        -9.8663
  32   2.0000      -0.349401        -9.5077
  33   0.0000       0.135579         3.6893
  34   0.0000       0.154177         4.1954
  35   0.0000       0.168684         4.5901
  36   0.0000       0.173976         4.7341
  37   0.0000       0.190570         5.1857

MULLIKEN ATOMIC CHARGES
-----------------------
   0 C :   -0.431378
   1 C :   -0.016512
   2 C :   -0.183934
   3 C :   -0.099279
   4 N :   -0.196557
   5 C :   -0.002109
   6 C :   -0.239400
   7 C :   -0.261518
   8 C :    0.056370
   9 H :    0.135708
  10 H :    0.138299
  11 H :    0.135642
  12 H :    0.129543
  13 H :    0.145348
  14 H :    0.115603
  15 H :    0.119696
  16 H :    0.110600
  17 H :    0.121939
  18 H :    0.111898
  19 H :    0.110039
Sum of atomic charges:    0.0000000

LOEWDIN ATOMIC CHARGES
----------------------
   0 C :   -0.274610
   1 C :   -0.201079
   2 C :   -0.140533
   3 C :   -0.146262
   4 N :    0.144347
   5 C :   -0.219932
   6 C :   -0.230255
   7 C :   -0.228631
   8 C :   -0.198484
   9 H :    0.132264
  10 H :    0.129170
  11 H :    0.128910
  12 H :    0.137508
  13 H :    0.130384
  14 H :    0.143069
  15 H :    0.137129
  16 H :    0.137632
  17 H :    0.137093
  18 H :    0.137747
  19 H :    0.144533

  Mayer bond orders larger than 0.1
B(  0-C ,  1-C ) :   0.8783 B(  0-C ,  9-H ) :   0.9312 B(  0-C , 10-H ) :   0.9468
B(  0-C , 11-H ) :   0.9378 B(  1-C ,  2-C ) :   0.7989 B(  1-C ,  3-C ) :   0.8929
B(  1-C ,  8-C ) :   0.9473 B(  2-C ,  3-C ) :   0.8886 B(  2-C ,  5-C ) :   0.9478
B(  2-C , 12-H ) :   0.9259 B(  3-C ,  4-N ) :   0.9597 B(  3-C , 13-H ) :   0.8968
B(  4-N ,  5-C ) :   0.9669 B(  4-N ,  8-C ) :   0.9653 B(  5-C ,  6-C ) :   0.9825
B(  5-C , 14-H ) :   0.9025 B(  6-C ,  7-C ) :   0.9818 B(  6-C , 15-H ) :   0.9227
B(  6-C , 16-H ) :   0.9161 B(  7-C ,  8-C ) :   0.9632 B(  7-C , 17-H ) :   0.9242
B(  7-C , 18-H ) :   0.9152 B(  8-C , 19-H ) :   0.9004

MP2 TOTAL ENERGY:     -365.301606093 Eh
FINAL SINGLE POINT ENERGY      -365.301606093353

DIPOLE MOMENT
-------------
                                X             Y             Z
Electronic contribution:      2.75922      -3.36255      -0.15330
Nuclear contribution   :     -3.00400       3.99670       0.52643
                        -----------------------------------------
Total Dipole Moment    :     -0.24479       0.63415       0.37314
                        -----------------------------------------
Magnitude (a.u.)       :      0.77544
Magnitude (Debye)      :      1.97101

                             ****ORCA TERMINATED NORMALLY****
TOTAL RUN TIME: 0 days 0 hours 20 minutes 0 seconds 118 msec
