                         Program Version 3.0.3 - RELEASE   -
|  1> ! RI-MP2 RIJK def2-TZVP def2-TZVP/C def2-TZVP/JK TIGHTSCF
|  2> % maxcore 2000
|  3> % mp2 density relaxed end
|  4> *xyz 0 1
|  5>  N       -0.0025287720     1.3444491877     0.0896063672
|  6>  C       -0.0775919848     0.0075508480    -0.0634133994
|  7>  N       -1.1543337400    -0.6455052693     0.1980185214
|  8>  C       -1.1034116608    -2.0207410311     0.1272612122
|  9>  N       -0.0368405909    -2.7714737195     0.3029177450
| 10>  O       -0.4647800988    -4.0667738058     0.1608569615
| 11>  N       -1.8082906265    -4.1246466980    -0.0927393103
| 12>  C       -2.2140125927    -2.8892115563    -0.1095748519
| 13>  H        0.7904200539     1.8592270124    -0.2470387604
| 14>  H       -0.8249979382     1.8516957480     0.3743839482
| 15>  H        0.8443865796    -0.4656583470    -0.4146319036
| 16>  H       -3.2462590687    -2.6332289091    -0.2885755899
| 17> *
| 18>
| 19>                          ****END OF INPUT****

CARTESIAN COORDINATES (ANGSTROEM)
---------------------------------
  N     -0.002529    1.344449    0.089606
  C     -0.077592    0.007551   -0.063413
  N     -1.154334   -0.645505    0.198019
  C     -1.103412   -2.020741    0.127261
  N     -0.036841   -2.771474    0.302918
  O     -0.464780   -4.066774    0.160857
  N     -1.808291   -4.124647   -0.092739
  C     -2.214013   -2.889212   -0.109575
  H      0.790420    1.859227   -0.247039
  H     -0.824998    1.851696    0.374384
  H      0.844387   -0.465658   -0.414632
  H     -3.246259   -2.633229   -0.288576

 Total Charge           Charge          ....    0
 Multiplicity           Mult            ....    1
 Number of Electrons    NEL             ....   58
 Basis Dimension        Dim             ....  272

ORBITAL ENERGIES
----------------

  NO   OCC          E(Eh)            E(eV)
   0   2.0000     -20.660133      -562.1908
   1   2.0000     -15.646633      -425.7665
   2   2.0000     -15.624353      -425.1603
   3   2.0000     -15.611166      -424.8014
   4   2.0000     -15.560707      -423.4284
   5   2.0000     -11.354226      -308.9642
   6   2.0000     -11.315205      -307.9024
   7   2.0000     -11.278987      -306.9168
   8   2.0000      -1.523976       -41.4695
   9   2.0000      -1.308737       -35.6126
  10   2.0000      -1.229149       -33.4469
  11   2.0000      -1.187877       -32.3238
  12   2.0000      -1.125046       -30.6141
  13   2.0000      -0.908649       -24.7256
  14   2.0000      -0.849841       -23.1253
  15   2.0000      -0.819125       -22.2895
  16   2.0000      -0.770592       -20.9689
  17   2.0000      -0.707056       -19.2400
  18   2.0000      -0.687702       -18.7133
  19   2.0000      -0.670727       -18.2514
  20   2.0000      -0.651546       -17.7295
  21   2.0000      -0.576154       -15.6779
  22   2.0000      -0.573991       -15.6191
  23   2.0000      -0.520038       -14.1510
  24   2.0000      -0.482392       -13.1266
  25   2.0000      -0.474737       -12.9183
  26   2.0000      -0.436907       -11.8888
  27   2.0000      -0.421329       -11.4649
  28   2.0000      -0.354855        -9.6561
  29   0.0000       0.092637         2.5208
  30   0.0000       0.116025         3.1572
  31   0.0000       0.146807         3.9948
  32   0.0000       0.155862         4.2412
  33   0.0000       0.173352         4.7171

MULLIKEN ATOMIC CHARGES
-----------------------
   0 N :   -0.450100
   1 C :    0.158377
   2 N :   -0.324654
   3 C :    0.153531
   4 N :   -0.132413
   5 O :   -0.019890
   6 N :   -0.096112
   7 C :   -0.108004
   8 H :    0.270816
   9 H :    0.268405
  10 H :    0.124384
  11 H :    0.155660
Sum of atomic charges:   -0.0000000

LOEWDIN ATOMIC CHARGES
----------------------
   0 N :   -0.014888
   1 C :   -0.304876
   2 N :    0.087231
   3 C :   -0.388298
   4 N :    0.028946
   5 O :    0.192634
   6 N :    0.016784
   7 C :   -0.248270
   8 H :    0.174345
   9 H :    0.177866
  10 H :    0.131682
  11 H :    0.146845

  Mayer bond orders larger than 0.1
B(  0-N ,  1-C ) :   1.1925 B(  0-N ,  8-H ) :   0.8710 B(  0-N ,  9-H ) :   0.8565
B(  1-C ,  2-N ) :   1.6456 B(  1-C , 10-H ) :   0.9113 B(  2-N ,  3-C ) :   1.1485
B(  3-C ,  4-N ) :   1.5063 B(  3-C ,  7-C ) :   1.2060 B(  4-N ,  5-O ) :   0.9270
B(  4-N ,  6-N ) :   0.1207 B(  5-O ,  6-N ) :   0.9475 B(  6-N ,  7-C ) :   1.5908
B(  7-C , 11-H ) :   0.9183

MP2 TOTAL ENERGY:     -410.132606931 Eh
FINAL SINGLE POINT ENERGY      -410.132606930507

DIPOLE MOMENT
-------------
                                X             Y             Z
Electronic contribution:     -0.56512      -5.38195       0.42417
Nuclear contribution   :      0.82533       7.58398      -0.81968
                        -----------------------------------------
Total Dipole Moment    :      0.26021       2.20203      -0.39551
                        -----------------------------------------
Magnitude (a.u.)       :      2.25235
Magnitude (Debye)      :      5.72501

                             ****ORCA TERMINATED NORMALLY****
TOTAL RUN TIME: 0 days 0 hours 8 minutes 45 seconds 44 msec
