                         Program Version 3.0.3 - RELEASE   -
|  1> ! RI-MP2 RIJK def2-TZVP def2-TZVP/C def2-TZVP/JK TIGHTSCF
|  2> % maxcore 2000
|  3> % mp2 density relaxed end
|  4> *xyz 0 1
|  5>  O       -0.1871799564     1.2947062663    -0.0732038229
|  6>  C       -0.0010532660    -0.0685336975    -0.0736803958
|  7>  C        0.9575529302    -0.9028587906    -0.9172085867
|  8>  C        0.1261280705    -2.1135295820    -0.4157416248
|  9>  N        0.4811734889    -2.1608937126     1.0457608708
| 10>  C       -0.3369199658    -0.9402828132     1.1823073266
| 11>  C       -1.0922065276    -1.0993704461    -0.1200542510
| 12>  O       -2.3823831349    -0.9650297945    -0.5504877651
| 13>  H        0.4997382912     1.6960769266     0.4709104370
| 14>  H        0.8073882127    -0.7135905171    -1.9830928767
| 15>  H        2.0219621778    -0.9210029787    -0.6652307373
| 16>  H        0.1035239770    -3.0534885473    -0.9624932357
| 17>  H       -0.0375896222    -2.9310155686     1.4680009750
| 18>  H       -0.6004411341    -0.4730789695     2.1233762025
| 19>  H       -2.9331984313    -1.6076674853    -0.0888252958
| 20> *
| 21>
| 22>                          ****END OF INPUT****

CARTESIAN COORDINATES (ANGSTROEM)
---------------------------------
  O     -0.187180    1.294706   -0.073204
  C     -0.001053   -0.068534   -0.073680
  C      0.957553   -0.902859   -0.917209
  C      0.126128   -2.113530   -0.415742
  N      0.481173   -2.160894    1.045761
  C     -0.336920   -0.940283    1.182307
  C     -1.092207   -1.099370   -0.120054
  O     -2.382383   -0.965030   -0.550488
  H      0.499738    1.696077    0.470910
  H      0.807388   -0.713591   -1.983093
  H      2.021962   -0.921003   -0.665231
  H      0.103524   -3.053489   -0.962493
  H     -0.037590   -2.931016    1.468001
  H     -0.600441   -0.473079    2.123376
  H     -2.933198   -1.607667   -0.088825

 Total Charge           Charge          ....    0
 Multiplicity           Mult            ....    1
 Number of Electrons    NEL             ....   60
 Basis Dimension        Dim             ....  290

ORBITAL ENERGIES
----------------

  NO   OCC          E(Eh)            E(eV)
   0   2.0000     -20.582983      -560.0914
   1   2.0000     -20.572624      -559.8095
   2   2.0000     -15.552206      -423.1970
   3   2.0000     -11.292659      -307.2889
   4   2.0000     -11.290217      -307.2224
   5   2.0000     -11.271922      -306.7246
   6   2.0000     -11.262706      -306.4738
   7   2.0000     -11.226637      -305.4923
   8   2.0000      -1.398763       -38.0623
   9   2.0000      -1.379444       -37.5366
  10   2.0000      -1.276861       -34.7452
  11   2.0000      -1.078769       -29.3548
  12   2.0000      -0.978554       -26.6278
  13   2.0000      -0.861387       -23.4395
  14   2.0000      -0.797166       -21.6920
  15   2.0000      -0.761904       -20.7325
  16   2.0000      -0.726823       -19.7779
  17   2.0000      -0.676359       -18.4047
  18   2.0000      -0.644620       -17.5410
  19   2.0000      -0.638347       -17.3703
  20   2.0000      -0.632308       -17.2060
  21   2.0000      -0.572184       -15.5699
  22   2.0000      -0.565210       -15.3801
  23   2.0000      -0.546222       -14.8635
  24   2.0000      -0.511911       -13.9298
  25   2.0000      -0.496913       -13.5217
  26   2.0000      -0.468370       -12.7450
  27   2.0000      -0.410254       -11.1636
  28   2.0000      -0.374655       -10.1949
  29   2.0000      -0.349612        -9.5134
  30   0.0000       0.126725         3.4484
  31   0.0000       0.141487         3.8501
  32   0.0000       0.156621         4.2619
  33   0.0000       0.174576         4.7505
  34   0.0000       0.193794         5.2734

MULLIKEN ATOMIC CHARGES
-----------------------
   0 O :   -0.456251
   1 C :    0.174213
   2 C :   -0.201821
   3 C :   -0.059887
   4 N :   -0.313948
   5 C :   -0.204545
   6 C :    0.102632
   7 O :   -0.426028
   8 H :    0.329813
   9 H :    0.122221
  10 H :    0.115052
  11 H :    0.143924
  12 H :    0.202927
  13 H :    0.139428
  14 H :    0.332272
Sum of atomic charges:    0.0000000

LOEWDIN ATOMIC CHARGES
----------------------
   0 O :    0.043721
   1 C :   -0.311092
   2 C :   -0.188125
   3 C :   -0.178979
   4 N :   -0.003025
   5 C :   -0.207871
   6 C :   -0.282401
   7 O :    0.049341
   8 H :    0.189229
   9 H :    0.144141
  10 H :    0.128848
  11 H :    0.127066
  12 H :    0.165437
  13 H :    0.134051
  14 H :    0.189658

  Mayer bond orders larger than 0.1
B(  0-O ,  1-C ) :   1.0432 B(  0-O ,  8-H ) :   0.8333 B(  1-C ,  2-C ) :   0.9529
B(  1-C ,  5-C ) :   0.7979 B(  1-C ,  6-C ) :   0.8421 B(  2-C ,  3-C ) :   0.8861
B(  2-C ,  9-H ) :   0.9255 B(  2-C , 10-H ) :   0.9112 B(  3-C ,  4-N ) :   0.9358
B(  3-C ,  6-C ) :   0.9132 B(  3-C , 11-H ) :   0.9056 B(  4-N ,  5-C ) :   0.9512
B(  4-N , 12-H ) :   0.8734 B(  5-C ,  6-C ) :   0.8883 B(  5-C , 13-H ) :   0.9255
B(  6-C ,  7-O ) :   1.0966 B(  7-O , 14-H ) :   0.8317

MP2 TOTAL ENERGY:     -399.061929762 Eh
FINAL SINGLE POINT ENERGY      -399.061929762336

DIPOLE MOMENT
-------------
                                X             Y             Z
Electronic contribution:     -2.21824       1.41536       0.20356
Nuclear contribution   :      2.09181      -1.99367       0.28430
                        -----------------------------------------
Total Dipole Moment    :     -0.12644      -0.57831       0.48787
                        -----------------------------------------
Magnitude (a.u.)       :      0.76710
Magnitude (Debye)      :      1.94981

                             ****ORCA TERMINATED NORMALLY****
TOTAL RUN TIME: 0 days 0 hours 10 minutes 18 seconds 540 msec
