                         Program Version 3.0.3 - RELEASE   -
|  1> ! RI-MP2 RIJK def2-TZVP def2-TZVP/C def2-TZVP/JK TIGHTSCF
|  2> % maxcore 2000
|  3> % mp2 density relaxed end
|  4> *xyz 0 1
|  5>  C        1.2681435151     0.8772116701    -0.5250841718
|  6>  C        0.0956045671     0.2226377747     0.1655320676
|  7>  N        0.1202758822    -1.2320037241     0.3505946908
|  8>  C        0.1045097810    -0.3593146880     1.5416840064
|  9>  C        1.2929737023    -0.4027523862     2.4789652807
| 10>  C        2.5725895786    -1.1689763972     2.0856388629
| 11>  C        3.2390087796     0.1824179460     2.2155783954
| 12>  N        4.4129081447     0.6086005515     2.1034726402
| 13>  O        2.0704601691     0.8526287979     2.5231108554
| 14>  H        2.2153047247     0.3926652715    -0.2853768582
| 15>  H        1.1330451694     0.8277213067    -1.6110370366
| 16>  H        1.3427462288     1.9301425692    -0.2381433381
| 17>  H       -0.8648740498     0.6559383873    -0.1148540228
| 18>  H       -0.7948323647    -1.6453800605     0.1970782727
| 19>  H       -0.8444561794    -0.2795140762     2.0687256520
| 20>  H        0.9482270549    -0.6242747797     3.4931671042
| 21>  H        2.9157827158    -1.9242124952     2.7939393493
| 22>  H        2.5552989772    -1.5878036687     1.0798351472
| 23>  H        4.4587991635     1.6139161510     2.2797018926
| 24> *
| 25>
| 26>                          ****END OF INPUT****

CARTESIAN COORDINATES (ANGSTROEM)
---------------------------------
  C      1.268144    0.877212   -0.525084
  C      0.095605    0.222638    0.165532
  N      0.120276   -1.232004    0.350595
  C      0.104510   -0.359315    1.541684
  C      1.292974   -0.402752    2.478965
  C      2.572590   -1.168976    2.085639
  C      3.239009    0.182418    2.215578
  N      4.412908    0.608601    2.103473
  O      2.070460    0.852629    2.523111
  H      2.215305    0.392665   -0.285377
  H      1.133045    0.827721   -1.611037
  H      1.342746    1.930143   -0.238143
  H     -0.864874    0.655938   -0.114854
  H     -0.794832   -1.645380    0.197078
  H     -0.844456   -0.279514    2.068726
  H      0.948227   -0.624275    3.493167
  H      2.915783   -1.924212    2.793939
  H      2.555299   -1.587804    1.079835
  H      4.458799    1.613916    2.279702

 Total Charge           Charge          ....    0
 Multiplicity           Mult            ....    1
 Number of Electrons    NEL             ....   68
 Basis Dimension        Dim             ....  339

ORBITAL ENERGIES
----------------

  NO   OCC          E(Eh)            E(eV)
   0   2.0000     -20.585699      -560.1654
   1   2.0000     -15.569924      -423.6792
   2   2.0000     -15.531713      -422.6394
   3   2.0000     -11.335170      -308.4457
   4   2.0000     -11.307308      -307.6875
   5   2.0000     -11.274328      -306.7901
   6   2.0000     -11.273004      -306.7540
   7   2.0000     -11.243235      -305.9440
   8   2.0000     -11.220865      -305.3353
   9   2.0000      -1.427154       -38.8348
  10   2.0000      -1.275105       -34.6974
  11   2.0000      -1.191240       -32.4153
  12   2.0000      -1.041287       -28.3349
  13   2.0000      -0.996278       -27.1101
  14   2.0000      -0.953295       -25.9405
  15   2.0000      -0.845399       -23.0045
  16   2.0000      -0.781617       -21.2689
  17   2.0000      -0.743118       -20.2213
  18   2.0000      -0.728141       -19.8137
  19   2.0000      -0.693891       -18.8817
  20   2.0000      -0.676735       -18.4149
  21   2.0000      -0.652792       -17.7634
  22   2.0000      -0.581169       -15.8144
  23   2.0000      -0.571981       -15.5644
  24   2.0000      -0.569435       -15.4951
  25   2.0000      -0.549217       -14.9450
  26   2.0000      -0.522137       -14.2081
  27   2.0000      -0.506857       -13.7923
  28   2.0000      -0.496831       -13.5194
  29   2.0000      -0.471278       -12.8241
  30   2.0000      -0.460747       -12.5376
  31   2.0000      -0.431596       -11.7443
  32   2.0000      -0.405530       -11.0350
  33   2.0000      -0.397109       -10.8059
  34   0.0000       0.123529         3.3614
  35   0.0000       0.154727         4.2103
  36   0.0000       0.155862         4.2412
  37   0.0000       0.166384         4.5275
  38   0.0000       0.182008         4.9527

MULLIKEN ATOMIC CHARGES
-----------------------
   0 C :   -0.375924
   1 C :    0.001875
   2 N :   -0.404459
   3 C :   -0.083314
   4 C :    0.129121
   5 C :   -0.244302
   6 C :    0.104510
   7 N :   -0.362522
   8 O :   -0.281654
   9 H :    0.144335
  10 H :    0.133310
  11 H :    0.128265
  12 H :    0.118946
  13 H :    0.221790
  14 H :    0.126907
  15 H :    0.107891
  16 H :    0.138617
  17 H :    0.170279
  18 H :    0.226330
Sum of atomic charges:    0.0000000

LOEWDIN ATOMIC CHARGES
----------------------
   0 C :   -0.289149
   1 C :   -0.274195
   2 N :    0.008451
   3 C :   -0.243184
   4 C :   -0.221551
   5 C :   -0.179500
   6 C :   -0.412614
   7 N :   -0.060374
   8 O :    0.223766
   9 H :    0.131913
  10 H :    0.127108
  11 H :    0.130785
  12 H :    0.138948
  13 H :    0.165963
  14 H :    0.141438
  15 H :    0.143072
  16 H :    0.144865
  17 H :    0.152041
  18 H :    0.172217

  Mayer bond orders larger than 0.1
B(  0-C ,  1-C ) :   0.9400 B(  0-C ,  9-H ) :   0.9328 B(  0-C , 10-H ) :   0.9324
B(  0-C , 11-H ) :   0.9346 B(  1-C ,  2-N ) :   0.8581 B(  1-C ,  3-C ) :   0.8851
B(  1-C , 12-H ) :   0.9209 B(  2-N ,  3-C ) :   0.9541 B(  2-N , 13-H ) :   0.8706
B(  3-C ,  4-C ) :   0.9151 B(  3-C , 14-H ) :   0.9259 B(  4-C ,  5-C ) :   0.9150
B(  4-C ,  8-O ) :   0.8911 B(  4-C , 15-H ) :   0.9273 B(  5-C ,  6-C ) :   0.9512
B(  5-C , 16-H ) :   0.9113 B(  5-C , 17-H ) :   0.9034 B(  6-C ,  7-N ) :   2.0908
B(  6-C ,  8-O ) :   1.0412 B(  7-N , 18-H ) :   0.8463

MP2 TOTAL ENERGY:     -418.469836079 Eh
FINAL SINGLE POINT ENERGY      -418.469836078758

DIPOLE MOMENT
-------------
                                X             Y             Z
Electronic contribution:      2.05845       0.19222       4.34026
Nuclear contribution   :     -3.55239      -0.32884      -4.31471
                        -----------------------------------------
Total Dipole Moment    :     -1.49394      -0.13662       0.02555
                        -----------------------------------------
Magnitude (a.u.)       :      1.50039
Magnitude (Debye)      :      3.81368

                             ****ORCA TERMINATED NORMALLY****
TOTAL RUN TIME: 0 days 0 hours 17 minutes 31 seconds 984 msec
