                         Program Version 3.0.3 - RELEASE   -
|  1> ! RI-MP2 RIJK def2-TZVP def2-TZVP/C def2-TZVP/JK TIGHTSCF
|  2> % maxcore 2000
|  3> % mp2 density relaxed end
|  4> *xyz 0 1
|  5>  C       -0.0105844003     1.4741919631    -0.1090995426
|  6>  C       -0.0024422323    -0.0232103219     0.0463989772
|  7>  C       -1.2492516773    -0.8203834684    -0.3093699828
|  8>  O       -1.0584367429    -2.1210672147     0.2517047631
|  9>  C       -0.2711275437    -1.9730852539     1.4294556447
| 10>  C        0.4436949488    -3.2332566756     1.6769769216
| 11>  N        1.0233523994    -4.2066123743     1.9002929116
| 12>  C        0.6379818742    -0.7760181653     1.1600195901
| 13>  N        1.2696863556    -0.7283783077    -0.1583791254
| 14>  H        0.9404706782     1.8943877484     0.2246377666
| 15>  H       -0.1500569346     1.7546998937    -1.1589926879
| 16>  H       -0.8204285468     1.9277901569     0.4721195014
| 17>  H       -2.1418165596    -0.3340234627     0.1136952340
| 18>  H       -1.4026075312    -0.9542727799    -1.3850992044
| 19>  H       -0.9010138919    -1.7610918682     2.3089744188
| 20>  H        1.1700828539    -0.3233595685     1.9897588501
| 21>  H        1.1325181104    -1.6088988310    -0.6534442761
| 22> *
| 23>
| 24>                          ****END OF INPUT****

CARTESIAN COORDINATES (ANGSTROEM)
---------------------------------
  C     -0.010584    1.474192   -0.109100
  C     -0.002442   -0.023210    0.046399
  C     -1.249252   -0.820383   -0.309370
  O     -1.058437   -2.121067    0.251705
  C     -0.271128   -1.973085    1.429456
  C      0.443695   -3.233257    1.676977
  N      1.023352   -4.206612    1.900293
  C      0.637982   -0.776018    1.160020
  N      1.269686   -0.728378   -0.158379
  H      0.940471    1.894388    0.224638
  H     -0.150057    1.754700   -1.158993
  H     -0.820429    1.927790    0.472120
  H     -2.141817   -0.334023    0.113695
  H     -1.402608   -0.954273   -1.385099
  H     -0.901014   -1.761092    2.308974
  H      1.170083   -0.323360    1.989759
  H      1.132518   -1.608899   -0.653444

 Total Charge           Charge          ....    0
 Multiplicity           Mult            ....    1
 Number of Electrons    NEL             ....   66
 Basis Dimension        Dim             ....  327

ORBITAL ENERGIES
----------------

  NO   OCC          E(Eh)            E(eV)
   0   2.0000     -20.597078      -560.4750
   1   2.0000     -15.580889      -423.9775
   2   2.0000     -15.578245      -423.9056
   3   2.0000     -11.351165      -308.8809
   4   2.0000     -11.307234      -307.6855
   5   2.0000     -11.292037      -307.2719
   6   2.0000     -11.289525      -307.2036
   7   2.0000     -11.279085      -306.9195
   8   2.0000     -11.241309      -305.8916
   9   2.0000      -1.428614       -38.8746
  10   2.0000      -1.287226       -35.0272
  11   2.0000      -1.225688       -33.3527
  12   2.0000      -1.063835       -28.9484
  13   2.0000      -1.018401       -27.7121
  14   2.0000      -0.952534       -25.9198
  15   2.0000      -0.874192       -23.7880
  16   2.0000      -0.798044       -21.7159
  17   2.0000      -0.750464       -20.4212
  18   2.0000      -0.729180       -19.8420
  19   2.0000      -0.668926       -18.2024
  20   2.0000      -0.653230       -17.7753
  21   2.0000      -0.623940       -16.9783
  22   2.0000      -0.593323       -16.1451
  23   2.0000      -0.583201       -15.8697
  24   2.0000      -0.570746       -15.5308
  25   2.0000      -0.557696       -15.1757
  26   2.0000      -0.538642       -14.6572
  27   2.0000      -0.492266       -13.3952
  28   2.0000      -0.486069       -13.2266
  29   2.0000      -0.479710       -13.0536
  30   2.0000      -0.469245       -12.7688
  31   2.0000      -0.446041       -12.1374
  32   2.0000      -0.413139       -11.2421
  33   0.0000       0.118024         3.2116
  34   0.0000       0.143458         3.9037
  35   0.0000       0.152083         4.1384
  36   0.0000       0.159806         4.3486
  37   0.0000       0.172599         4.6967

MULLIKEN ATOMIC CHARGES
-----------------------
   0 C :   -0.413897
   1 C :    0.086297
   2 C :   -0.022062
   3 O :   -0.297723
   4 C :    0.123596
   5 C :   -0.144688
   6 N :   -0.047774
   7 C :   -0.101057
   8 N :   -0.352980
   9 H :    0.152668
  10 H :    0.139364
  11 H :    0.132029
  12 H :    0.103094
  13 H :    0.134519
  14 H :    0.123395
  15 H :    0.150038
  16 H :    0.235180
Sum of atomic charges:    0.0000000

LOEWDIN ATOMIC CHARGES
----------------------
   0 C :   -0.262581
   1 C :   -0.312218
   2 C :   -0.254616
   3 O :    0.187635
   4 C :   -0.291110
   5 C :   -0.155563
   6 N :    0.079890
   7 C :   -0.205788
   8 N :    0.056619
   9 H :    0.137762
  10 H :    0.132699
  11 H :    0.129964
  12 H :    0.131588
  13 H :    0.136398
  14 H :    0.165372
  15 H :    0.148490
  16 H :    0.175458

  Mayer bond orders larger than 0.1
B(  0-C ,  1-C ) :   0.8885 B(  0-C ,  9-H ) :   0.9365 B(  0-C , 10-H ) :   0.9347
B(  0-C , 11-H ) :   0.9356 B(  1-C ,  2-C ) :   0.9620 B(  1-C ,  7-C ) :   0.8903
B(  1-C ,  8-N ) :   0.9066 B(  2-C ,  3-O ) :   0.9014 B(  2-C , 12-H ) :   0.9143
B(  2-C , 13-H ) :   0.9175 B(  3-O ,  4-C ) :   1.0039 B(  4-C ,  5-C ) :   0.9212
B(  4-C ,  7-C ) :   0.9164 B(  4-C , 14-H ) :   0.9018 B(  5-C ,  6-N ) :   2.8456
B(  7-C ,  8-N ) :   0.9680 B(  7-C , 15-H ) :   0.9038 B(  8-N , 16-H ) :   0.8569

MP2 TOTAL ENERGY:     -417.295454424 Eh
FINAL SINGLE POINT ENERGY      -417.295454424293

DIPOLE MOMENT
-------------
                                X             Y             Z
Electronic contribution:      1.51619      -8.95089       2.76232
Nuclear contribution   :     -2.50071      10.61524      -2.87226
                        -----------------------------------------
Total Dipole Moment    :     -0.98452       1.66435      -0.10994
                        -----------------------------------------
Magnitude (a.u.)       :      1.93686
Magnitude (Debye)      :      4.92310

                             ****ORCA TERMINATED NORMALLY****
TOTAL RUN TIME: 0 days 0 hours 17 minutes 16 seconds 286 msec
