                         Program Version 3.0.3 - RELEASE   -
|  1> ! RI-MP2 RIJK def2-TZVP def2-TZVP/C def2-TZVP/JK TIGHTSCF
|  2> % maxcore 2000
|  3> % mp2 density relaxed end
|  4> *xyz 0 1
|  5>  C       -0.1123353232     1.5337140389    -0.0414132004
|  6>  C        0.0253900467     0.0022817141    -0.0260524395
|  7>  C        0.7298191665    -0.4515412794    -1.3159761535
|  8>  C        0.7382975803    -0.5036233833     1.2546658712
|  9>  C        0.0886297213     0.0263239673     2.5415485985
| 10>  C        0.7905367047    -2.0553771214     1.2942718067
| 11>  C        1.5571192609    -2.5898831620     2.4138256709
| 12>  C        2.2036701344    -3.0183767059     3.3327898478
| 13>  H        0.8697242630     2.0163901780     0.0360832088
| 14>  H       -0.5688976200     1.8666584042    -0.9790983719
| 15>  H       -0.7338760678     1.9049714282     0.7764642453
| 16>  H       -0.9896952710    -0.4240139633    -0.0257207525
| 17>  H        1.7707724276    -0.1066117600    -1.3345533680
| 18>  H        0.7353538667    -1.5374096576    -1.4404288384
| 19>  H        0.2287720216    -0.0303884954    -2.1934892036
| 20>  H        1.7771326439    -0.1456427755     1.2221747178
| 21>  H        0.5540188450    -0.4282802601     3.4198567976
| 22>  H        0.1907794479     1.1097063724     2.6345680303
| 23>  H       -0.9816132853    -0.2143613125     2.5672262747
| 24>  H       -0.2365546996    -2.4448116073     1.3370587316
| 25>  H        1.2245321756    -2.4423902843     0.3670326575
| 26>  H        2.7699556011    -3.4063250753     4.1426459491
| 27> *
| 28>
| 29>                          ****END OF INPUT****

CARTESIAN COORDINATES (ANGSTROEM)
---------------------------------
  C     -0.112335    1.533714   -0.041413
  C      0.025390    0.002282   -0.026052
  C      0.729819   -0.451541   -1.315976
  C      0.738298   -0.503623    1.254666
  C      0.088630    0.026324    2.541549
  C      0.790537   -2.055377    1.294272
  C      1.557119   -2.589883    2.413826
  C      2.203670   -3.018377    3.332790
  H      0.869724    2.016390    0.036083
  H     -0.568898    1.866658   -0.979098
  H     -0.733876    1.904971    0.776464
  H     -0.989695   -0.424014   -0.025721
  H      1.770772   -0.106612   -1.334553
  H      0.735354   -1.537410   -1.440429
  H      0.228772   -0.030388   -2.193489
  H      1.777133   -0.145643    1.222175
  H      0.554019   -0.428280    3.419857
  H      0.190779    1.109706    2.634568
  H     -0.981613   -0.214361    2.567226
  H     -0.236555   -2.444812    1.337059
  H      1.224532   -2.442390    0.367033
  H      2.769956   -3.406325    4.142646

 Total Charge           Charge          ....    0
 Multiplicity           Mult            ....    1
 Number of Electrons    NEL             ....   62
 Basis Dimension        Dim             ....  332

ORBITAL ENERGIES
----------------

  NO   OCC          E(Eh)            E(eV)
   0   2.0000     -11.246208      -306.0249
   1   2.0000     -11.234474      -305.7056
   2   2.0000     -11.230909      -305.6086
   3   2.0000     -11.229580      -305.5724
   4   2.0000     -11.214837      -305.1712
   5   2.0000     -11.214337      -305.1576
   6   2.0000     -11.212804      -305.1159
   7   2.0000     -11.209032      -305.0133
   8   2.0000      -1.115727       -30.3605
   9   2.0000      -1.051476       -28.6121
  10   2.0000      -0.997142       -27.1336
  11   2.0000      -0.947244       -25.7758
  12   2.0000      -0.920050       -25.0358
  13   2.0000      -0.844397       -22.9772
  14   2.0000      -0.760015       -20.6811
  15   2.0000      -0.715016       -19.4566
  16   2.0000      -0.643312       -17.5054
  17   2.0000      -0.637679       -17.3521
  18   2.0000      -0.606523       -16.5043
  19   2.0000      -0.601557       -16.3692
  20   2.0000      -0.567494       -15.4423
  21   2.0000      -0.553058       -15.0495
  22   2.0000      -0.537305       -14.6208
  23   2.0000      -0.523290       -14.2394
  24   2.0000      -0.510609       -13.8944
  25   2.0000      -0.492201       -13.3935
  26   2.0000      -0.465478       -12.6663
  27   2.0000      -0.458033       -12.4637
  28   2.0000      -0.450421       -12.2566
  29   2.0000      -0.380289       -10.3482
  30   2.0000      -0.378789       -10.3074
  31   0.0000       0.135301         3.6817
  32   0.0000       0.153840         4.1862
  33   0.0000       0.161642         4.3985
  34   0.0000       0.165546         4.5047
  35   0.0000       0.175649         4.7797

MULLIKEN ATOMIC CHARGES
-----------------------
   0 C :   -0.409504
   1 C :   -0.010471
   2 C :   -0.419242
   3 C :   -0.047577
   4 C :   -0.429484
   5 C :   -0.359066
   6 C :   -0.026141
   7 C :   -0.140705
   8 H :    0.124948
   9 H :    0.131758
  10 H :    0.139429
  11 H :    0.079082
  12 H :    0.126534
  13 H :    0.132870
  14 H :    0.133182
  15 H :    0.091707
  16 H :    0.157417
  17 H :    0.137849
  18 H :    0.121135
  19 H :    0.137153
  20 H :    0.141802
  21 H :    0.187323
Sum of atomic charges:   -0.0000000

LOEWDIN ATOMIC CHARGES
----------------------
   0 C :   -0.293707
   1 C :   -0.285102
   2 C :   -0.296065
   3 C :   -0.246954
   4 C :   -0.287932
   5 C :   -0.227482
   6 C :   -0.113198
   7 C :   -0.113630
   8 H :    0.124684
   9 H :    0.123248
  10 H :    0.121836
  11 H :    0.150765
  12 H :    0.124953
  13 H :    0.118399
  14 H :    0.123975
  15 H :    0.156176
  16 H :    0.131491
  17 H :    0.122399
  18 H :    0.124628
  19 H :    0.158789
  20 H :    0.157522
  21 H :    0.125206

  Mayer bond orders larger than 0.1
B(  0-C ,  1-C ) :   0.9062 B(  0-C ,  8-H ) :   0.9321 B(  0-C ,  9-H ) :   0.9405
B(  0-C , 10-H ) :   0.9418 B(  1-C ,  2-C ) :   0.9083 B(  1-C ,  3-C ) :   0.9211
B(  1-C , 11-H ) :   0.9154 B(  2-C , 12-H ) :   0.9306 B(  2-C , 13-H ) :   0.9429
B(  2-C , 14-H ) :   0.9396 B(  3-C ,  4-C ) :   0.9039 B(  3-C ,  5-C ) :   0.9080
B(  3-C , 15-H ) :   0.9205 B(  4-C , 16-H ) :   0.9365 B(  4-C , 17-H ) :   0.9413
B(  4-C , 18-H ) :   0.9300 B(  5-C ,  6-C ) :   1.1323 B(  5-C ,  7-C ) :  -0.1133
B(  5-C , 19-H ) :   0.9135 B(  5-C , 20-H ) :   0.9209 B(  6-C ,  7-C ) :   2.6144
B(  7-C , 21-H ) :   0.8963

MP2 TOTAL ENERGY:     -312.465035698 Eh
FINAL SINGLE POINT ENERGY      -312.465035697832

DIPOLE MOMENT
-------------
                                X             Y             Z
Electronic contribution:      3.06680      -6.41942       4.71018
Nuclear contribution   :     -3.21207       6.59855      -4.91973
                        -----------------------------------------
Total Dipole Moment    :     -0.14528       0.17912      -0.20956
                        -----------------------------------------
Magnitude (a.u.)       :      0.31162
Magnitude (Debye)      :      0.79206

                             ****ORCA TERMINATED NORMALLY****
TOTAL RUN TIME: 0 days 0 hours 15 minutes 21 seconds 101 msec
