                         Program Version 3.0.3 - RELEASE   -
|  1> ! RI-MP2 RIJK def2-TZVP def2-TZVP/C def2-TZVP/JK TIGHTSCF
|  2> % maxcore 2000
|  3> % mp2 density relaxed end
|  4> *xyz 0 1
|  5>  O       -0.0347162563     0.0080400242     0.3797352596
|  6>  C       -0.0039189071     1.1916037657     0.1255661308
|  7>  N        1.0778874145     1.8623517152    -0.3655920146
|  8>  C        1.5141028907     3.2630465706    -0.0717510252
|  9>  C        2.5650549823     2.6525539208     0.9026159471
| 10>  C        2.5090436201     1.4933274181    -0.1465416590
| 11>  C        3.1158822636     2.2089468928    -1.3697220476
| 12>  O        3.9641689839     1.8375912902    -2.1267702224
| 13>  C        2.3495327273     3.5583860904    -1.3340878002
| 14>  H       -0.8857423022     1.8595893633     0.2089618402
| 15>  H        0.7551356189     3.9776613726     0.2428769940
| 16>  H        3.5104972111     3.1835807619     1.0450343287
| 17>  H        2.1316410786     2.3468404987     1.8557077919
| 18>  H        2.7572391045     0.4564320561     0.0542870524
| 19>  H        1.7421171716     3.6930660946    -2.2317773884
| 20>  H        3.0313061786     4.4066388348    -1.2318213473
| 21> *
| 22>
| 23>                          ****END OF INPUT****

CARTESIAN COORDINATES (ANGSTROEM)
---------------------------------
  O     -0.034716    0.008040    0.379735
  C     -0.003919    1.191604    0.125566
  N      1.077887    1.862352   -0.365592
  C      1.514103    3.263047   -0.071751
  C      2.565055    2.652554    0.902616
  C      2.509044    1.493327   -0.146542
  C      3.115882    2.208947   -1.369722
  O      3.964169    1.837591   -2.126770
  C      2.349533    3.558386   -1.334088
  H     -0.885742    1.859589    0.208962
  H      0.755136    3.977661    0.242877
  H      3.510497    3.183581    1.045034
  H      2.131641    2.346840    1.855708
  H      2.757239    0.456432    0.054287
  H      1.742117    3.693066   -2.231777
  H      3.031306    4.406639   -1.231821

 Total Charge           Charge          ....    0
 Multiplicity           Mult            ....    1
 Number of Electrons    NEL             ....   66
 Basis Dimension        Dim             ....  321

ORBITAL ENERGIES
----------------

  NO   OCC          E(Eh)            E(eV)
   0   2.0000     -20.566364      -559.6392
   1   2.0000     -20.536015      -558.8134
   2   2.0000     -15.603008      -424.5794
   3   2.0000     -11.360664      -309.1394
   4   2.0000     -11.350723      -308.8689
   5   2.0000     -11.314427      -307.8812
   6   2.0000     -11.302880      -307.5670
   7   2.0000     -11.270595      -306.6885
   8   2.0000     -11.261803      -306.4492
   9   2.0000      -1.413121       -38.4530
  10   2.0000      -1.396021       -37.9877
  11   2.0000      -1.312318       -35.7100
  12   2.0000      -1.099600       -29.9216
  13   2.0000      -1.006115       -27.3778
  14   2.0000      -0.960242       -26.1295
  15   2.0000      -0.871714       -23.7205
  16   2.0000      -0.788264       -21.4497
  17   2.0000      -0.759592       -20.6695
  18   2.0000      -0.719324       -19.5738
  19   2.0000      -0.688317       -18.7301
  20   2.0000      -0.668661       -18.1952
  21   2.0000      -0.646680       -17.5970
  22   2.0000      -0.618559       -16.8318
  23   2.0000      -0.597838       -16.2680
  24   2.0000      -0.581947       -15.8356
  25   2.0000      -0.564450       -15.3595
  26   2.0000      -0.556039       -15.1306
  27   2.0000      -0.545139       -14.8340
  28   2.0000      -0.516045       -14.0423
  29   2.0000      -0.491644       -13.3783
  30   2.0000      -0.442166       -12.0320
  31   2.0000      -0.427663       -11.6373
  32   2.0000      -0.384719       -10.4687
  33   0.0000       0.121705         3.3118
  34   0.0000       0.133899         3.6436
  35   0.0000       0.145071         3.9476
  36   0.0000       0.147263         4.0072
  37   0.0000       0.166063         4.5188

MULLIKEN ATOMIC CHARGES
-----------------------
   0 O :   -0.337502
   1 C :    0.110291
   2 N :   -0.131964
   3 C :   -0.033300
   4 C :   -0.282175
   5 C :    0.045471
   6 C :    0.081325
   7 O :   -0.233481
   8 C :   -0.213042
   9 H :    0.081416
  10 H :    0.157508
  11 H :    0.139530
  12 H :    0.148703
  13 H :    0.178240
  14 H :    0.145277
  15 H :    0.143701
Sum of atomic charges:   -0.0000000

LOEWDIN ATOMIC CHARGES
----------------------
   0 O :    0.074149
   1 C :   -0.424545
   2 N :    0.211870
   3 C :   -0.196887
   4 C :   -0.178419
   5 C :   -0.158478
   6 C :   -0.288938
   7 O :    0.175695
   8 C :   -0.197105
   9 H :    0.113097
  10 H :    0.139127
  11 H :    0.134827
  12 H :    0.145398
  13 H :    0.149850
  14 H :    0.151561
  15 H :    0.148798

  Mayer bond orders larger than 0.1
B(  0-O ,  1-C ) :   1.9190 B(  1-C ,  2-N ) :   1.1146 B(  1-C ,  9-H ) :   0.9313
B(  2-N ,  3-C ) :   0.8181 B(  2-N ,  5-C ) :   0.7829 B(  3-C ,  4-C ) :   0.9028
B(  3-C ,  8-C ) :   0.9072 B(  3-C , 10-H ) :   0.9029 B(  4-C ,  5-C ) :   0.8864
B(  4-C , 11-H ) :   0.9205 B(  4-C , 12-H ) :   0.9072 B(  5-C ,  6-C ) :   0.8276
B(  5-C ,  8-C ) :  -0.1378 B(  5-C , 13-H ) :   0.8881 B(  6-C ,  7-O ) :   2.0813
B(  6-C ,  8-C ) :   0.9489 B(  8-C , 14-H ) :   0.8951 B(  8-C , 15-H ) :   0.9070

MP2 TOTAL ENERGY:     -437.169790821 Eh
FINAL SINGLE POINT ENERGY      -437.169790821388

DIPOLE MOMENT
-------------
                                X             Y             Z
Electronic contribution:      0.13349      -3.86268      -2.19808
Nuclear contribution   :     -0.14420       5.62965       2.86726
                        -----------------------------------------
Total Dipole Moment    :     -0.01070       1.76697       0.66918
                        -----------------------------------------
Magnitude (a.u.)       :      1.88947
Magnitude (Debye)      :      4.80266

                             ****ORCA TERMINATED NORMALLY****
TOTAL RUN TIME: 0 days 0 hours 16 minutes 32 seconds 321 msec
