                         Program Version 3.0.3 - RELEASE   -
|  1> ! RI-MP2 RIJK def2-TZVP def2-TZVP/C def2-TZVP/JK TIGHTSCF
|  2> % maxcore 2000
|  3> % mp2 density relaxed end
|  4> *xyz 0 1
|  5>  C       -0.0352338487     1.4720068071     0.0413139597
|  6>  C       -0.0085441046    -0.0267802618     0.0257410028
|  7>  N       -0.0395911937    -0.5665099880    -1.1418055326
|  8>  O       -0.0158792092    -1.9822773839    -1.2001252585
|  9>  C        0.0367934775    -2.7093194494    -0.0727815080
| 10>  O        0.0514983555    -4.0198125570    -0.3332909480
| 11>  C        0.0708448497    -2.1895906197     1.1699877321
| 12>  C        0.0499707603    -0.7572507166     1.3173666315
| 13>  N        0.0747968033    -0.0509398101     2.3939191220
| 14>  H        0.8519716682     1.8494105903     0.5571704313
| 15>  H       -0.0779594363     1.8624804291    -0.9758232368
| 16>  H       -0.8972863053     1.8176210712     0.6184530759
| 17>  H        0.0200796526    -4.1378576433    -1.2925708852
| 18>  H        0.1127874215    -2.8515785439     2.0246346849
| 19>  H        0.1145867292    -0.6582931438     3.2154786490
| 20> *
| 21>
| 22>                          ****END OF INPUT****

CARTESIAN COORDINATES (ANGSTROEM)
---------------------------------
  C     -0.035234    1.472007    0.041314
  C     -0.008544   -0.026780    0.025741
  N     -0.039591   -0.566510   -1.141806
  O     -0.015879   -1.982277   -1.200125
  C      0.036793   -2.709319   -0.072782
  O      0.051498   -4.019813   -0.333291
  C      0.070845   -2.189591    1.169988
  C      0.049971   -0.757251    1.317367
  N      0.074797   -0.050940    2.393919
  H      0.851972    1.849411    0.557170
  H     -0.077959    1.862480   -0.975823
  H     -0.897286    1.817621    0.618453
  H      0.020080   -4.137858   -1.292571
  H      0.112787   -2.851579    2.024635
  H      0.114587   -0.658293    3.215479

 Total Charge           Charge          ....    0
 Multiplicity           Mult            ....    1
 Number of Electrons    NEL             ....   66
 Basis Dimension        Dim             ....  315

ORBITAL ENERGIES
----------------

  NO   OCC          E(Eh)            E(eV)
   0   2.0000     -20.655762      -562.0718
   1   2.0000     -20.631819      -561.4203
   2   2.0000     -15.654405      -425.9780
   3   2.0000     -15.547618      -423.0722
   4   2.0000     -11.401495      -310.2504
   5   2.0000     -11.310476      -307.7737
   6   2.0000     -11.308252      -307.7132
   7   2.0000     -11.235042      -305.7210
   8   2.0000     -11.233140      -305.6693
   9   2.0000      -1.517629       -41.2968
  10   2.0000      -1.432895       -38.9911
  11   2.0000      -1.237823       -33.6829
  12   2.0000      -1.194355       -32.5000
  13   2.0000      -1.075780       -29.2735
  14   2.0000      -0.998661       -27.1749
  15   2.0000      -0.893425       -24.3113
  16   2.0000      -0.869806       -23.6686
  17   2.0000      -0.796636       -21.6776
  18   2.0000      -0.731532       -19.9060
  19   2.0000      -0.694956       -18.9107
  20   2.0000      -0.677013       -18.4225
  21   2.0000      -0.656877       -17.8745
  22   2.0000      -0.635901       -17.3037
  23   2.0000      -0.604752       -16.4561
  24   2.0000      -0.604583       -16.4515
  25   2.0000      -0.574368       -15.6294
  26   2.0000      -0.557651       -15.1745
  27   2.0000      -0.548506       -14.9256
  28   2.0000      -0.497068       -13.5259
  29   2.0000      -0.488824       -13.3016
  30   2.0000      -0.432353       -11.7649
  31   2.0000      -0.428172       -11.6512
  32   2.0000      -0.336860        -9.1664
  33   0.0000       0.089336         2.4310
  34   0.0000       0.134783         3.6676
  35   0.0000       0.144835         3.9411
  36   0.0000       0.148969         4.0536
  37   0.0000       0.161612         4.3977

MULLIKEN ATOMIC CHARGES
-----------------------
   0 C :   -0.364559
   1 C :    0.122370
   2 N :   -0.093355
   3 O :   -0.165519
   4 C :    0.360552
   5 O :   -0.396054
   6 C :   -0.323152
   7 C :    0.074394
   8 N :   -0.373512
   9 H :    0.152436
  10 H :    0.151705
  11 H :    0.152438
  12 H :    0.352541
  13 H :    0.145465
  14 H :    0.204249
Sum of atomic charges:   -0.0000000

LOEWDIN ATOMIC CHARGES
----------------------
   0 C :   -0.254414
   1 C :   -0.227536
   2 N :    0.098588
   3 O :    0.229885
   4 C :   -0.411334
   5 O :    0.113793
   6 C :   -0.159035
   7 C :   -0.290387
   8 N :   -0.045631
   9 H :    0.143335
  10 H :    0.133534
  11 H :    0.143334
  12 H :    0.208699
  13 H :    0.158698
  14 H :    0.158471

  Mayer bond orders larger than 0.1
B(  0-C ,  1-C ) :   0.9093 B(  0-C ,  9-H ) :   0.9128 B(  0-C , 10-H ) :   0.9395
B(  0-C , 11-H ) :   0.9128 B(  1-C ,  2-N ) :   1.7763 B(  1-C ,  7-C ) :   0.9505
B(  2-N ,  3-O ) :   0.7760 B(  3-O ,  4-C ) :   1.1135 B(  4-C ,  5-O ) :   1.1266
B(  4-C ,  6-C ) :   1.5518 B(  5-O , 12-H ) :   0.8074 B(  6-C ,  7-C ) :   1.0896
B(  6-C , 13-H ) :   0.9110 B(  7-C ,  8-N ) :   1.9190 B(  8-N , 14-H ) :   0.8679

MP2 TOTAL ENERGY:     -453.186333408 Eh
FINAL SINGLE POINT ENERGY      -453.186333407773

DIPOLE MOMENT
-------------
                                X             Y             Z
Electronic contribution:      0.00381      -5.74690      -2.87617
Nuclear contribution   :      0.00234       4.99617       2.66167
                        -----------------------------------------
Total Dipole Moment    :      0.00615      -0.75073      -0.21450
                        -----------------------------------------
Magnitude (a.u.)       :      0.78080
Magnitude (Debye)      :      1.98463

                             ****ORCA TERMINATED NORMALLY****
TOTAL RUN TIME: 0 days 0 hours 14 minutes 24 seconds 504 msec
