                         Program Version 3.0.3 - RELEASE   -
|  1> ! RI-MP2 RIJK def2-TZVP def2-TZVP/C def2-TZVP/JK TIGHTSCF
|  2> % maxcore 2000
|  3> % mp2 density relaxed end
|  4> *xyz 0 1
|  5>  O        0.0784388147     1.3711353289    -0.0787155007
|  6>  C        0.0519213594    -0.0319644354     0.0030120990
|  7>  C        0.7834965400    -0.6793492243    -1.1965571560
|  8>  C        1.0567144731    -2.1370437938    -0.7003120378
|  9>  C        0.4459886537    -2.1458241753     0.7317142270
| 10>  C        0.7739711950    -0.7124857977     1.1931251350
| 11>  C       -1.0701923932    -2.0760301462     0.5215940979
| 12>  N       -1.7913729882    -1.1088297388     1.3832348102
| 13>  C       -1.3287261586    -0.7000992131     0.0348598137
| 14>  H       -0.4056044534     1.7147551492     0.6799824521
| 15>  H        0.1795709470    -0.6459302681    -2.1079537810
| 16>  H        1.7081418122    -0.1302319854    -1.3935190541
| 17>  H        0.6000537143    -2.8917967839    -1.3480551396
| 18>  H        2.1289113871    -2.3497839286    -0.6615886892
| 19>  H        0.7964186182    -2.9601989891     1.3684883250
| 20>  H        1.8457613970    -0.4989901963     1.1861069256
| 21>  H        0.3467573114    -0.4548337542     2.1615281218
| 22>  H       -1.6040170859    -2.9369984179     0.1320836242
| 23>  H       -2.7855832956    -1.3175842532     1.3276687827
| 24>  H       -2.0506869381    -0.4687740767    -0.7418740356
| 25> *
| 26>
| 27>                          ****END OF INPUT****

CARTESIAN COORDINATES (ANGSTROEM)
---------------------------------
  O      0.078439    1.371135   -0.078716
  C      0.051921   -0.031964    0.003012
  C      0.783497   -0.679349   -1.196557
  C      1.056714   -2.137044   -0.700312
  C      0.445989   -2.145824    0.731714
  C      0.773971   -0.712486    1.193125
  C     -1.070192   -2.076030    0.521594
  N     -1.791373   -1.108830    1.383235
  C     -1.328726   -0.700099    0.034860
  H     -0.405604    1.714755    0.679982
  H      0.179571   -0.645930   -2.107954
  H      1.708142   -0.130232   -1.393519
  H      0.600054   -2.891797   -1.348055
  H      2.128911   -2.349784   -0.661589
  H      0.796419   -2.960199    1.368488
  H      1.845761   -0.498990    1.186107
  H      0.346757   -0.454834    2.161528
  H     -1.604017   -2.936998    0.132084
  H     -2.785583   -1.317584    1.327669
  H     -2.050687   -0.468774   -0.741874

 Total Charge           Charge          ....    0
 Multiplicity           Mult            ....    1
 Number of Electrons    NEL             ....   68
 Basis Dimension        Dim             ....  345

ORBITAL ENERGIES
----------------

  NO   OCC          E(Eh)            E(eV)
   0   2.0000     -20.553530      -559.2900
   1   2.0000     -15.560416      -423.4205
   2   2.0000     -11.282211      -307.0046
   3   2.0000     -11.258677      -306.3642
   4   2.0000     -11.253778      -306.2309
   5   2.0000     -11.231301      -305.6192
   6   2.0000     -11.222619      -305.3830
   7   2.0000     -11.216987      -305.2297
   8   2.0000     -11.210203      -305.0451
   9   2.0000      -1.364408       -37.1274
  10   2.0000      -1.272744       -34.6331
  11   2.0000      -1.124200       -30.5910
  12   2.0000      -0.972861       -26.4729
  13   2.0000      -0.959090       -26.0982
  14   2.0000      -0.904629       -24.6162
  15   2.0000      -0.824334       -22.4313
  16   2.0000      -0.762763       -20.7558
  17   2.0000      -0.737930       -20.0801
  18   2.0000      -0.719871       -19.5887
  19   2.0000      -0.677471       -18.4349
  20   2.0000      -0.659620       -17.9492
  21   2.0000      -0.613171       -16.6852
  22   2.0000      -0.573021       -15.5927
  23   2.0000      -0.560987       -15.2652
  24   2.0000      -0.534647       -14.5485
  25   2.0000      -0.519838       -14.1455
  26   2.0000      -0.503276       -13.6948
  27   2.0000      -0.497948       -13.5499
  28   2.0000      -0.484721       -13.1899
  29   2.0000      -0.476484       -12.9658
  30   2.0000      -0.461236       -12.5509
  31   2.0000      -0.424593       -11.5538
  32   2.0000      -0.418661       -11.3923
  33   2.0000      -0.366736        -9.9794
  34   0.0000       0.133037         3.6201
  35   0.0000       0.148181         4.0322
  36   0.0000       0.155152         4.2219
  37   0.0000       0.169111         4.6017
  38   0.0000       0.183944         5.0054

MULLIKEN ATOMIC CHARGES
-----------------------
   0 O :   -0.460494
   1 C :    0.256802
   2 C :   -0.264154
   3 C :   -0.288026
   4 C :    0.041306
   5 C :   -0.281657
   6 C :   -0.121466
   7 N :   -0.383165
   8 C :   -0.148861
   9 H :    0.323448
  10 H :    0.111875
  11 H :    0.127161
  12 H :    0.114841
  13 H :    0.122807
  14 H :    0.123635
  15 H :    0.120315
  16 H :    0.135395
  17 H :    0.126762
  18 H :    0.219098
  19 H :    0.124378
Sum of atomic charges:    0.0000000

LOEWDIN ATOMIC CHARGES
----------------------
   0 O :    0.015890
   1 C :   -0.357993
   2 C :   -0.196909
   3 C :   -0.215468
   4 C :   -0.209361
   5 C :   -0.190726
   6 C :   -0.221085
   7 N :   -0.001456
   8 C :   -0.216618
   9 H :    0.182500
  10 H :    0.135741
  11 H :    0.140011
  12 H :    0.132558
  13 H :    0.134481
  14 H :    0.141491
  15 H :    0.141613
  16 H :    0.142176
  17 H :    0.135543
  18 H :    0.169731
  19 H :    0.137882

  Mayer bond orders larger than 0.1
B(  0-O ,  1-C ) :   1.0108 B(  0-O ,  9-H ) :   0.8390 B(  1-C ,  2-C ) :   0.8988
B(  1-C ,  5-C ) :   0.9460 B(  1-C ,  8-C ) :   0.8551 B(  2-C ,  3-C ) :   0.9724
B(  2-C , 10-H ) :   0.9277 B(  2-C , 11-H ) :   0.9234 B(  3-C ,  4-C ) :   0.8895
B(  3-C , 12-H ) :   0.9272 B(  3-C , 13-H ) :   0.9264 B(  4-C ,  5-C ) :   0.9339
B(  4-C ,  6-C ) :   0.8460 B(  4-C , 14-H ) :   0.9033 B(  5-C , 15-H ) :   0.9286
B(  5-C , 16-H ) :   0.8866 B(  6-C ,  7-N ) :   0.9902 B(  6-C ,  8-C ) :   0.9131
B(  6-C , 17-H ) :   0.9228 B(  7-N ,  8-C ) :   1.0053 B(  7-N , 18-H ) :   0.8729
B(  8-C , 19-H ) :   0.9332

MP2 TOTAL ENERGY:     -402.463134077 Eh
FINAL SINGLE POINT ENERGY      -402.463134076629

DIPOLE MOMENT
-------------
                                X             Y             Z
Electronic contribution:     -2.34947       2.58509       1.46120
Nuclear contribution   :      1.90230      -3.16102      -1.55752
                        -----------------------------------------
Total Dipole Moment    :     -0.44717      -0.57593      -0.09632
                        -----------------------------------------
Magnitude (a.u.)       :      0.73548
Magnitude (Debye)      :      1.86945

                             ****ORCA TERMINATED NORMALLY****
TOTAL RUN TIME: 0 days 0 hours 21 minutes 17 seconds 355 msec
