                         Program Version 3.0.3 - RELEASE   -
|  1> ! RI-MP2 RIJK def2-TZVP def2-TZVP/C def2-TZVP/JK TIGHTSCF
|  2> % maxcore 2000
|  3> % mp2 density relaxed end
|  4> *xyz 0 1
|  5>  C        0.0562831094     1.5435554749     0.0069503648
|  6>  C       -0.0602183383     0.0520309030     0.0540005994
|  7>  C       -1.3590334047    -0.7685085210    -0.0288521615
|  8>  C       -0.7596519526    -1.7975669965     0.9695103384
|  9>  O       -0.6256486474    -3.0785997305     0.4053303119
| 10>  C        0.5342475039    -0.9446597076     1.0392496411
| 11>  N        1.0858412106    -0.7669156942    -0.3044482198
| 12>  C        1.3590464444    -0.7628105024     2.1911029339
| 13>  N        1.9807993720    -0.6342301580     3.1589570472
| 14>  H        1.0640156206     1.8561151655     0.2899726308
| 15>  H       -0.1406362800     1.9079211414    -1.0078224705
| 16>  H       -0.6653278755     2.0151374230     0.6809716842
| 17>  H       -2.2320899070    -0.2541734949     0.3780237944
| 18>  H       -1.6014814049    -1.1696203641    -1.0167712245
| 19>  H       -1.2898809126    -1.8198576395     1.9284391732
| 20>  H       -0.2050195707    -3.6592842743     1.0494420335
| 21>  H        0.8498900927    -1.5723288950    -0.8848595564
| 22> *
| 23>
| 24>                          ****END OF INPUT****

CARTESIAN COORDINATES (ANGSTROEM)
---------------------------------
  C      0.056283    1.543555    0.006950
  C     -0.060218    0.052031    0.054001
  C     -1.359033   -0.768509   -0.028852
  C     -0.759652   -1.797567    0.969510
  O     -0.625649   -3.078600    0.405330
  C      0.534248   -0.944660    1.039250
  N      1.085841   -0.766916   -0.304448
  C      1.359046   -0.762811    2.191103
  N      1.980799   -0.634230    3.158957
  H      1.064016    1.856115    0.289973
  H     -0.140636    1.907921   -1.007822
  H     -0.665328    2.015137    0.680972
  H     -2.232090   -0.254173    0.378024
  H     -1.601481   -1.169620   -1.016771
  H     -1.289881   -1.819858    1.928439
  H     -0.205020   -3.659284    1.049442
  H      0.849890   -1.572329   -0.884860

 Total Charge           Charge          ....    0
 Multiplicity           Mult            ....    1
 Number of Electrons    NEL             ....   66
 Basis Dimension        Dim             ....  327

ORBITAL ENERGIES
----------------

  NO   OCC          E(Eh)            E(eV)
   0   2.0000     -20.587048      -560.2021
   1   2.0000     -15.589321      -424.2070
   2   2.0000     -15.574627      -423.8071
   3   2.0000     -11.321620      -308.0770
   4   2.0000     -11.307698      -307.6981
   5   2.0000     -11.305416      -307.6360
   6   2.0000     -11.277669      -306.8810
   7   2.0000     -11.254968      -306.2633
   8   2.0000     -11.239358      -305.8385
   9   2.0000      -1.399362       -38.0786
  10   2.0000      -1.318452       -35.8769
  11   2.0000      -1.217683       -33.1348
  12   2.0000      -1.068994       -29.0888
  13   2.0000      -1.016130       -27.6503
  14   2.0000      -0.958236       -26.0749
  15   2.0000      -0.860735       -23.4218
  16   2.0000      -0.810031       -22.0421
  17   2.0000      -0.735593       -20.0165
  18   2.0000      -0.723887       -19.6980
  19   2.0000      -0.678190       -18.4545
  20   2.0000      -0.629953       -17.1419
  21   2.0000      -0.611842       -16.6491
  22   2.0000      -0.587359       -15.9829
  23   2.0000      -0.578175       -15.7329
  24   2.0000      -0.565834       -15.3971
  25   2.0000      -0.537657       -14.6304
  26   2.0000      -0.524544       -14.2736
  27   2.0000      -0.514025       -13.9873
  28   2.0000      -0.496607       -13.5134
  29   2.0000      -0.485302       -13.2057
  30   2.0000      -0.448589       -12.2067
  31   2.0000      -0.437691       -11.9102
  32   2.0000      -0.400109       -10.8875
  33   0.0000       0.114809         3.1241
  34   0.0000       0.130201         3.5430
  35   0.0000       0.146930         3.9982
  36   0.0000       0.166322         4.5258
  37   0.0000       0.168849         4.5946

MULLIKEN ATOMIC CHARGES
-----------------------
   0 C :   -0.410302
   1 C :    0.039835
   2 C :   -0.184353
   3 C :    0.064981
   4 O :   -0.457090
   5 C :    0.161091
   6 N :   -0.349910
   7 C :   -0.199786
   8 N :   -0.045080
   9 H :    0.160114
  10 H :    0.141747
  11 H :    0.135011
  12 H :    0.129759
  13 H :    0.133158
  14 H :    0.118299
  15 H :    0.326993
  16 H :    0.235532
Sum of atomic charges:   -0.0000000

LOEWDIN ATOMIC CHARGES
----------------------
   0 C :   -0.262388
   1 C :   -0.250387
   2 C :   -0.171748
   3 C :   -0.278609
   4 O :   -0.006739
   5 C :   -0.238383
   6 N :    0.099017
   7 C :   -0.157818
   8 N :    0.073063
   9 H :    0.141194
  10 H :    0.135560
  11 H :    0.132663
  12 H :    0.142959
  13 H :    0.140095
  14 H :    0.140030
  15 H :    0.184411
  16 H :    0.177079

  Mayer bond orders larger than 0.1
B(  0-C ,  1-C ) :   0.8875 B(  0-C ,  9-H ) :   0.9359 B(  0-C , 10-H ) :   0.9300
B(  0-C , 11-H ) :   0.9380 B(  1-C ,  2-C ) :   0.9694 B(  1-C ,  5-C ) :   0.7466
B(  1-C ,  6-N ) :   0.9473 B(  2-C ,  3-C ) :   0.9457 B(  2-C , 12-H ) :   0.9051
B(  2-C , 13-H ) :   0.9041 B(  3-C ,  4-O ) :   1.0895 B(  3-C ,  5-C ) :   0.8733
B(  3-C , 14-H ) :   0.9412 B(  4-O , 15-H ) :   0.8380 B(  5-C ,  6-N ) :   0.8944
B(  5-C ,  7-C ) :   0.9272 B(  6-N , 16-H ) :   0.8501 B(  7-C ,  8-N ) :   2.8734

MP2 TOTAL ENERGY:     -417.283395519 Eh
FINAL SINGLE POINT ENERGY      -417.283395519180

DIPOLE MOMENT
-------------
                                X             Y             Z
Electronic contribution:      4.19703      -3.84338       3.91761
Nuclear contribution   :     -5.52539       3.71219      -4.63784
                        -----------------------------------------
Total Dipole Moment    :     -1.32836      -0.13119      -0.72023
                        -----------------------------------------
Magnitude (a.u.)       :      1.51674
Magnitude (Debye)      :      3.85524

                             ****ORCA TERMINATED NORMALLY****
TOTAL RUN TIME: 0 days 0 hours 17 minutes 11 seconds 477 msec
