                         Program Version 3.0.3 - RELEASE   -
|  1> ! RI-MP2 RIJK def2-TZVP def2-TZVP/C def2-TZVP/JK TIGHTSCF
|  2> % maxcore 2000
|  3> % mp2 density relaxed end
|  4> *xyz 0 1
|  5>  C        0.1151661333     1.4809076259     0.0071733190
|  6>  C       -0.0889911543    -0.0316710314     0.0029917751
|  7>  C       -1.5450438396    -0.4277486367     0.0148631200
|  8>  O       -2.4872390980     0.3156107950     0.0284833427
|  9>  O       -1.6523518296    -1.8005317308     0.0078557125
| 10>  C       -2.9090352925    -2.3519610314     0.0173226766
| 11>  N       -3.0010442533    -3.6063554171     0.0106559602
| 12>  H        1.1817925515     1.7196100271    -0.0013153848
| 13>  H       -0.3490835952     1.9419533558    -0.8681688089
| 14>  H       -0.3335468747     1.9349436027     0.8941904692
| 15>  H        0.3715003097    -0.5029112071    -0.8737169537
| 16>  H        0.3872386827    -0.5096244055     0.8676201200
| 17>  H       -3.7014025676    -1.6033867410     0.0298293332
| 18>  H       -3.9831439025    -3.8785103856     0.0189514490
| 19> *
| 20>
| 21>                          ****END OF INPUT****

CARTESIAN COORDINATES (ANGSTROEM)
---------------------------------
  C      0.115166    1.480908    0.007173
  C     -0.088991   -0.031671    0.002992
  C     -1.545044   -0.427749    0.014863
  O     -2.487239    0.315611    0.028483
  O     -1.652352   -1.800532    0.007856
  C     -2.909035   -2.351961    0.017323
  N     -3.001044   -3.606355    0.010656
  H      1.181793    1.719610   -0.001315
  H     -0.349084    1.941953   -0.868169
  H     -0.333547    1.934944    0.894190
  H      0.371500   -0.502911   -0.873717
  H      0.387239   -0.509624    0.867620
  H     -3.701403   -1.603387    0.029829
  H     -3.983144   -3.878510    0.018951

 Total Charge           Charge          ....    0
 Multiplicity           Mult            ....    1
 Number of Electrons    NEL             ....   54
 Basis Dimension        Dim             ....  259

ORBITAL ENERGIES
----------------

  NO   OCC          E(Eh)            E(eV)
   0   2.0000     -20.628572      -561.3320
   1   2.0000     -20.566808      -559.6513
   2   2.0000     -15.558960      -423.3808
   3   2.0000     -11.401611      -310.2536
   4   2.0000     -11.349241      -308.8286
   5   2.0000     -11.257834      -306.3412
   6   2.0000     -11.230914      -305.6087
   7   2.0000      -1.489803       -40.5396
   8   2.0000      -1.394357       -37.9424
   9   2.0000      -1.217530       -33.1307
  10   2.0000      -1.074794       -29.2466
  11   2.0000      -0.942797       -25.6548
  12   2.0000      -0.849158       -23.1068
  13   2.0000      -0.795402       -21.6440
  14   2.0000      -0.730075       -19.8663
  15   2.0000      -0.683568       -18.6008
  16   2.0000      -0.681943       -18.5566
  17   2.0000      -0.663611       -18.0578
  18   2.0000      -0.617351       -16.7990
  19   2.0000      -0.589073       -16.0295
  20   2.0000      -0.544363       -14.8129
  21   2.0000      -0.535729       -14.5779
  22   2.0000      -0.532289       -14.4843
  23   2.0000      -0.508217       -13.8293
  24   2.0000      -0.480479       -13.0745
  25   2.0000      -0.444669       -12.1001
  26   2.0000      -0.429589       -11.6897
  27   0.0000       0.128090         3.4855
  28   0.0000       0.132876         3.6157
  29   0.0000       0.151826         4.1314
  30   0.0000       0.172404         4.6913
  31   0.0000       0.174314         4.7433

MULLIKEN ATOMIC CHARGES
-----------------------
   0 C :   -0.371452
   1 C :   -0.232202
   2 C :    0.316476
   3 O :   -0.313163
   4 O :   -0.200076
   5 C :    0.037984
   6 N :   -0.313947
   7 H :    0.138654
   8 H :    0.135226
   9 H :    0.135296
  10 H :    0.147830
  11 H :    0.147769
  12 H :    0.137966
  13 H :    0.233640
Sum of atomic charges:    0.0000000

LOEWDIN ATOMIC CHARGES
----------------------
   0 C :   -0.305100
   1 C :   -0.260395
   2 C :   -0.440458
   3 O :    0.141374
   4 O :    0.286695
   5 C :   -0.354395
   6 N :   -0.056985
   7 H :    0.124321
   8 H :    0.127769
   9 H :    0.127786
  10 H :    0.157435
  11 H :    0.157475
  12 H :    0.121234
  13 H :    0.173245

  Mayer bond orders larger than 0.1
B(  0-C ,  1-C ) :   0.9360 B(  0-C ,  7-H ) :   0.9369 B(  0-C ,  8-H ) :   0.9332
B(  0-C ,  9-H ) :   0.9331 B(  1-C ,  2-C ) :   0.9534 B(  1-C , 10-H ) :   0.9096
B(  1-C , 11-H ) :   0.9094 B(  2-C ,  3-O ) :   1.9263 B(  2-C ,  4-O ) :   1.0220
B(  4-O ,  5-C ) :   0.9538 B(  5-C ,  6-N ) :   1.9782 B(  5-C , 12-H ) :   0.9286
B(  6-N , 13-H ) :   0.8511

MP2 TOTAL ENERGY:     -361.168069192 Eh
FINAL SINGLE POINT ENERGY      -361.168069191952

DIPOLE MOMENT
-------------
                                X             Y             Z
Electronic contribution:     -4.77142      -4.64879       0.02361
Nuclear contribution   :      4.85880       5.06846      -0.02155
                        -----------------------------------------
Total Dipole Moment    :      0.08738       0.41967       0.00206
                        -----------------------------------------
Magnitude (a.u.)       :      0.42868
Magnitude (Debye)      :      1.08961

                             ****ORCA TERMINATED NORMALLY****
TOTAL RUN TIME: 0 days 0 hours 6 minutes 9 seconds 538 msec
