                         Program Version 3.0.3 - RELEASE   -
|  1> ! RI-MP2 RIJK def2-TZVP def2-TZVP/C def2-TZVP/JK TIGHTSCF
|  2> % maxcore 2000
|  3> % mp2 density relaxed end
|  4> *xyz 0 1
|  5>  C        0.1869025784     1.5874055468    -0.1641605879
|  6>  C        0.0272737955     0.1439301455    -0.0745338350
|  7>  C       -0.1129203018    -1.0502855108    -0.0020837267
|  8>  C       -0.2711480394    -2.4901433937     0.0872433945
|  9>  C        0.2894103339    -3.2081903782     1.3472960202
| 10>  C       -1.1589055524    -3.6933692181     1.5412475137
| 11>  O       -1.6226530538    -2.9152360885     0.4178163666
| 12>  H        0.8739516077     1.9617591461     0.6027569133
| 13>  H        0.5815785086     1.8865934567    -1.1412917538
| 14>  H       -0.7734542737     2.0957829568    -0.0243488221
| 15>  H        0.0509379950    -2.9589900175    -0.8529349688
| 16>  H        1.0398598645    -3.9754240150     1.1539663061
| 17>  H        0.6512395113    -2.5247735563     2.1152349481
| 18>  H       -1.3166767861    -4.7681388761     1.3851771902
| 19>  H       -1.6500241877    -3.3951854277     2.4745975114
| 20> *
| 21>
| 22>                          ****END OF INPUT****

CARTESIAN COORDINATES (ANGSTROEM)
---------------------------------
  C      0.186903    1.587406   -0.164161
  C      0.027274    0.143930   -0.074534
  C     -0.112920   -1.050286   -0.002084
  C     -0.271148   -2.490143    0.087243
  C      0.289410   -3.208190    1.347296
  C     -1.158906   -3.693369    1.541248
  O     -1.622653   -2.915236    0.417816
  H      0.873952    1.961759    0.602757
  H      0.581579    1.886593   -1.141292
  H     -0.773454    2.095783   -0.024349
  H      0.050938   -2.958990   -0.852935
  H      1.039860   -3.975424    1.153966
  H      0.651240   -2.524774    2.115235
  H     -1.316677   -4.768139    1.385177
  H     -1.650024   -3.395185    2.474598

 Total Charge           Charge          ....    0
 Multiplicity           Mult            ....    1
 Number of Electrons    NEL             ....   52
 Basis Dimension        Dim             ....  265

ORBITAL ENERGIES
----------------

  NO   OCC          E(Eh)            E(eV)
   0   2.0000     -20.549448      -559.1789
   1   2.0000     -11.305753      -307.6452
   2   2.0000     -11.279568      -306.9327
   3   2.0000     -11.247977      -306.0730
   4   2.0000     -11.236068      -305.7489
   5   2.0000     -11.229161      -305.5610
   6   2.0000     -11.216227      -305.2091
   7   2.0000      -1.378090       -37.4997
   8   2.0000      -1.066040       -29.0084
   9   2.0000      -1.019754       -27.7489
  10   2.0000      -0.982489       -26.7349
  11   2.0000      -0.917346       -24.9623
  12   2.0000      -0.792709       -21.5707
  13   2.0000      -0.708234       -19.2720
  14   2.0000      -0.677346       -18.4315
  15   2.0000      -0.633664       -17.2429
  16   2.0000      -0.607059       -16.5189
  17   2.0000      -0.590596       -16.0709
  18   2.0000      -0.586101       -15.9486
  19   2.0000      -0.583261       -15.8713
  20   2.0000      -0.543444       -14.7879
  21   2.0000      -0.494492       -13.4558
  22   2.0000      -0.466890       -12.7047
  23   2.0000      -0.425201       -11.5703
  24   2.0000      -0.376130       -10.2350
  25   2.0000      -0.366267        -9.9666
  26   0.0000       0.137544         3.7428
  27   0.0000       0.148236         4.0337
  28   0.0000       0.157861         4.2956
  29   0.0000       0.172632         4.6976
  30   0.0000       0.188944         5.1414

MULLIKEN ATOMIC CHARGES
-----------------------
   0 C :   -0.478076
   1 C :    0.084056
   2 C :   -0.072288
   3 C :    0.028039
   4 C :   -0.281232
   5 C :   -0.009593
   6 O :   -0.322340
   7 H :    0.161168
   8 H :    0.162891
   9 H :    0.166604
  10 H :    0.105937
  11 H :    0.128064
  12 H :    0.131664
  13 H :    0.093798
  14 H :    0.101309
Sum of atomic charges:   -0.0000000

LOEWDIN ATOMIC CHARGES
----------------------
   0 C :   -0.292757
   1 C :   -0.088077
   2 C :   -0.066556
   3 C :   -0.270734
   4 C :   -0.213243
   5 C :   -0.275629
   6 O :    0.134516
   7 H :    0.140972
   8 H :    0.141310
   9 H :    0.143751
  10 H :    0.149561
  11 H :    0.129420
  12 H :    0.135913
  13 H :    0.115186
  14 H :    0.116368

  Mayer bond orders larger than 0.1
B(  0-C ,  1-C ) :   0.8633 B(  0-C ,  7-H ) :   0.9452 B(  0-C ,  8-H ) :   0.9485
B(  0-C ,  9-H ) :   0.9416 B(  1-C ,  2-C ) :   2.6507 B(  1-C ,  3-C ) :  -0.1075
B(  2-C ,  3-C ) :   1.1091 B(  3-C ,  4-C ) :   0.9223 B(  3-C ,  6-O ) :   0.9823
B(  3-C , 10-H ) :   0.9084 B(  4-C ,  5-C ) :   0.9742 B(  4-C , 11-H ) :   0.9281
B(  4-C , 12-H ) :   0.9290 B(  5-C ,  6-O ) :   0.9447 B(  5-C , 13-H ) :   0.9187
B(  5-C , 14-H ) :   0.9153

MP2 TOTAL ENERGY:     -307.921788668 Eh
FINAL SINGLE POINT ENERGY      -307.921788667764

DIPOLE MOMENT
-------------
                                X             Y             Z
Electronic contribution:     -1.81734      -1.63323      -1.50365
Nuclear contribution   :      2.51730       1.75489       1.82279
                        -----------------------------------------
Total Dipole Moment    :      0.69996       0.12166       0.31914
                        -----------------------------------------
Magnitude (a.u.)       :      0.77885
Magnitude (Debye)      :      1.97967

                             ****ORCA TERMINATED NORMALLY****
TOTAL RUN TIME: 0 days 0 hours 7 minutes 19 seconds 481 msec
