                         Program Version 3.0.3 - RELEASE   -
|  1> ! RI-MP2 RIJK def2-TZVP def2-TZVP/C def2-TZVP/JK TIGHTSCF
|  2> % maxcore 2000
|  3> % mp2 density relaxed end
|  4> *xyz 0 1
|  5>  C        0.9165871711    -0.1340977921    -0.4725373632
|  6>  C        2.3931680308    -0.3256684230    -0.3522803505
|  7>  C        3.1203577942    -1.3583261732     0.6153773716
|  8>  C        4.3116187671    -1.8416277543    -0.2341607588
|  9>  C        5.3825845024    -0.7754305083     0.0527017222
| 10>  C        4.4313303199     0.4100978213    -0.1032778407
| 11>  N        3.2450000422     0.0737133466     0.7829171472
| 12>  C        3.5536081504     0.1509361814    -1.3754517737
| 13>  C        3.5842978890    -1.2615735320    -1.4420420869
| 14>  H        0.4091821249    -0.4332550822     0.4505428645
| 15>  H        0.5167177911    -0.7397013419    -1.2915009891
| 16>  H        0.6896186772     0.9143090708    -0.6836460572
| 17>  H        2.5750381873    -1.9335941953     1.3514763515
| 18>  H        4.5590890532    -2.8986544281    -0.1944080774
| 19>  H        6.1804230254    -0.7673144073    -0.6964739249
| 20>  H        5.8167893799    -0.8603402021     1.0533480649
| 21>  H        4.8163761100     1.4111552965     0.0747758822
| 22>  H        2.9143989438    -1.8682640567    -2.0441428215
| 23> *
| 24>
| 25>                          ****END OF INPUT****

CARTESIAN COORDINATES (ANGSTROEM)
---------------------------------
  C      0.916587   -0.134098   -0.472537
  C      2.393168   -0.325668   -0.352280
  C      3.120358   -1.358326    0.615377
  C      4.311619   -1.841628   -0.234161
  C      5.382585   -0.775431    0.052702
  C      4.431330    0.410098   -0.103278
  N      3.245000    0.073713    0.782917
  C      3.553608    0.150936   -1.375452
  C      3.584298   -1.261574   -1.442042
  H      0.409182   -0.433255    0.450543
  H      0.516718   -0.739701   -1.291501
  H      0.689619    0.914309   -0.683646
  H      2.575038   -1.933594    1.351476
  H      4.559089   -2.898654   -0.194408
  H      6.180423   -0.767314   -0.696474
  H      5.816789   -0.860340    1.053348
  H      4.816376    1.411155    0.074776
  H      2.914399   -1.868264   -2.044143

 Total Charge           Charge          ....    0
 Multiplicity           Mult            ....    1
 Number of Electrons    NEL             ....   64
 Basis Dimension        Dim             ....  333

ORBITAL ENERGIES
----------------

  NO   OCC          E(Eh)            E(eV)
   0   2.0000     -15.580766      -423.9742
   1   2.0000     -11.304884      -307.6215
   2   2.0000     -11.293997      -307.3253
   3   2.0000     -11.285711      -307.0998
   4   2.0000     -11.259738      -306.3930
   5   2.0000     -11.253521      -306.2239
   6   2.0000     -11.232513      -305.6522
   7   2.0000     -11.229253      -305.5635
   8   2.0000     -11.194310      -304.6126
   9   2.0000      -1.345819       -36.6216
  10   2.0000      -1.111985       -30.2587
  11   2.0000      -1.044534       -28.4232
  12   2.0000      -1.006878       -27.3985
  13   2.0000      -0.975494       -26.5445
  14   2.0000      -0.815208       -22.1829
  15   2.0000      -0.786313       -21.3967
  16   2.0000      -0.763948       -20.7881
  17   2.0000      -0.720577       -19.6079
  18   2.0000      -0.689665       -18.7667
  19   2.0000      -0.664341       -18.0776
  20   2.0000      -0.597317       -16.2538
  21   2.0000      -0.577961       -15.7271
  22   2.0000      -0.571989       -15.5646
  23   2.0000      -0.555570       -15.1178
  24   2.0000      -0.547449       -14.8969
  25   2.0000      -0.509203       -13.8561
  26   2.0000      -0.501424       -13.6444
  27   2.0000      -0.473350       -12.8805
  28   2.0000      -0.444590       -12.0979
  29   2.0000      -0.405823       -11.0430
  30   2.0000      -0.370076       -10.0703
  31   2.0000      -0.304390        -8.2829
  32   0.0000       0.124435         3.3860
  33   0.0000       0.134163         3.6508
  34   0.0000       0.152481         4.1492
  35   0.0000       0.166125         4.5205
  36   0.0000       0.175316         4.7706

MULLIKEN ATOMIC CHARGES
-----------------------
   0 C :   -0.403946
   1 C :    0.171092
   2 C :   -0.182282
   3 C :   -0.057699
   4 C :   -0.277036
   5 C :    0.013375
   6 N :   -0.200944
   7 C :   -0.190850
   8 C :   -0.138256
   9 H :    0.136572
  10 H :    0.138575
  11 H :    0.154314
  12 H :    0.157659
  13 H :    0.144307
  14 H :    0.129563
  15 H :    0.126319
  16 H :    0.135768
  17 H :    0.143469
Sum of atomic charges:   -0.0000000

LOEWDIN ATOMIC CHARGES
----------------------
   0 C :   -0.259903
   1 C :   -0.190964
   2 C :   -0.162972
   3 C :   -0.206024
   4 C :   -0.206568
   5 C :   -0.208394
   6 N :    0.217267
   7 C :   -0.203193
   8 C :   -0.060976
   9 H :    0.133310
  10 H :    0.135903
  11 H :    0.138441
  12 H :    0.145784
  13 H :    0.148144
  14 H :    0.147957
  15 H :    0.142478
  16 H :    0.138987
  17 H :    0.150720

  Mayer bond orders larger than 0.1
B(  0-C ,  1-C ) :   0.8331 B(  0-C ,  9-H ) :   0.9294 B(  0-C , 10-H ) :   0.9307
B(  0-C , 11-H ) :   0.9501 B(  1-C ,  2-C ) :   0.7324 B(  1-C ,  6-N ) :   0.8031
B(  1-C ,  7-C ) :   0.7369 B(  1-C ,  8-C ) :   0.4284 B(  2-C ,  3-C ) :   0.8696
B(  2-C ,  6-N ) :   0.9866 B(  2-C ,  8-C ) :   0.1033 B(  2-C , 12-H ) :   0.8959
B(  3-C ,  4-C ) :   0.9206 B(  3-C ,  8-C ) :   0.9046 B(  3-C , 13-H ) :   0.9111
B(  4-C ,  5-C ) :   0.9526 B(  4-C , 14-H ) :   0.9143 B(  4-C , 15-H ) :   0.9092
B(  5-C ,  6-N ) :   0.8825 B(  5-C ,  7-C ) :   0.9648 B(  5-C , 16-H ) :   0.9087
B(  7-C ,  8-C ) :   1.2730 B(  8-C , 17-H ) :   0.9235

MP2 TOTAL ENERGY:     -364.019559455 Eh
FINAL SINGLE POINT ENERGY      -364.019559454939

DIPOLE MOMENT
-------------
                                X             Y             Z
Electronic contribution:      2.01824       0.71849       0.11092
Nuclear contribution   :     -2.10670      -1.91847       0.33088
                        -----------------------------------------
Total Dipole Moment    :     -0.08846      -1.19998       0.44180
                        -----------------------------------------
Magnitude (a.u.)       :      1.28178
Magnitude (Debye)      :      3.25804

                             ****ORCA TERMINATED NORMALLY****
TOTAL RUN TIME: 0 days 0 hours 25 minutes 21 seconds 983 msec
