                         Program Version 3.0.3 - RELEASE   -
|  1> ! RI-MP2 RIJK def2-TZVP def2-TZVP/C def2-TZVP/JK TIGHTSCF
|  2> % maxcore 2000
|  3> % mp2 density relaxed end
|  4> *xyz 0 1
|  5>  O        0.0105806604     1.4442606716     0.0054042550
|  6>  C        1.3642836717     1.7897134744     0.0294546320
|  7>  C        2.0821350298     0.6222717544     0.6019825002
|  8>  O        1.1073538762    -0.3394210380     0.8801471388
|  9>  C        0.0378696062     0.0059145697    -0.0182345044
| 10>  C        0.4033194390    -0.4471988632    -1.4003853841
| 11>  C        1.5666763218     0.0542590169    -1.8365130466
| 12>  C        2.2683433978     0.9433387688    -0.9033616082
| 13>  H        1.5476362030     2.8377747949     0.2170174544
| 14>  H        2.9062418213     0.6282771830     1.3005829023
| 15>  H       -0.9004300717    -0.3747192920     0.3820794331
| 16>  H       -0.2351298456    -1.1156876448    -1.9629906287
| 17>  H        1.9885052282    -0.1645101855    -2.8115058766
| 18>  H        3.2154117218     1.3864810197    -1.1872133072
| 19> *
| 20>
| 21>                          ****END OF INPUT****

CARTESIAN COORDINATES (ANGSTROEM)
---------------------------------
  O      0.010581    1.444261    0.005404
  C      1.364284    1.789713    0.029455
  C      2.082135    0.622272    0.601983
  O      1.107354   -0.339421    0.880147
  C      0.037870    0.005915   -0.018235
  C      0.403319   -0.447199   -1.400385
  C      1.566676    0.054259   -1.836513
  C      2.268343    0.943339   -0.903362
  H      1.547636    2.837775    0.217017
  H      2.906242    0.628277    1.300583
  H     -0.900430   -0.374719    0.382079
  H     -0.235130   -1.115688   -1.962991
  H      1.988505   -0.164510   -2.811506
  H      3.215412    1.386481   -1.187213

 Total Charge           Charge          ....    0
 Multiplicity           Mult            ....    1
 Number of Electrons    NEL             ....   58
 Basis Dimension        Dim             ....  284

ORBITAL ENERGIES
----------------

  NO   OCC          E(Eh)            E(eV)
   0   2.0000     -20.574691      -559.8658
   1   2.0000     -20.574670      -559.8652
   2   2.0000     -11.342858      -308.6549
   3   2.0000     -11.293928      -307.3234
   4   2.0000     -11.293160      -307.3025
   5   2.0000     -11.246043      -306.0204
   6   2.0000     -11.243517      -305.9517
   7   2.0000     -11.226416      -305.4863
   8   2.0000      -1.457525       -39.6613
   9   2.0000      -1.342672       -36.5360
  10   2.0000      -1.136565       -30.9275
  11   2.0000      -1.076898       -29.3039
  12   2.0000      -0.901973       -24.5439
  13   2.0000      -0.860142       -23.4057
  14   2.0000      -0.829320       -22.5669
  15   2.0000      -0.755519       -20.5587
  16   2.0000      -0.729909       -19.8618
  17   2.0000      -0.661630       -18.0039
  18   2.0000      -0.628949       -17.1146
  19   2.0000      -0.625512       -17.0210
  20   2.0000      -0.606968       -16.5164
  21   2.0000      -0.590702       -16.0738
  22   2.0000      -0.588036       -16.0013
  23   2.0000      -0.518193       -14.1008
  24   2.0000      -0.507669       -13.8144
  25   2.0000      -0.496589       -13.5129
  26   2.0000      -0.428400       -11.6574
  27   2.0000      -0.379471       -10.3259
  28   2.0000      -0.348759        -9.4902
  29   0.0000       0.132128         3.5954
  30   0.0000       0.147365         4.0100
  31   0.0000       0.170231         4.6322
  32   0.0000       0.180018         4.8985
  33   0.0000       0.195661         5.3242

MULLIKEN ATOMIC CHARGES
-----------------------
   0 O :   -0.300362
   1 C :    0.000416
   2 C :    0.000416
   3 O :   -0.300362
   4 C :    0.294702
   5 C :   -0.233608
   6 C :   -0.167716
   7 C :   -0.129201
   8 H :    0.147582
   9 H :    0.147582
  10 H :    0.139798
  11 H :    0.130616
  12 H :    0.134089
  13 H :    0.136050
Sum of atomic charges:    0.0000000

LOEWDIN ATOMIC CHARGES
----------------------
   0 O :    0.221188
   1 C :   -0.259075
   2 C :   -0.259075
   3 O :    0.221188
   4 C :   -0.327892
   5 C :   -0.152015
   6 C :   -0.135774
   7 C :   -0.174002
   8 H :    0.143078
   9 H :    0.143078
  10 H :    0.141355
  11 H :    0.140088
  12 H :    0.144623
  13 H :    0.153233

  Mayer bond orders larger than 0.1
B(  0-O ,  1-C ) :   0.9999 B(  0-O ,  4-C ) :   0.9282 B(  1-C ,  2-C ) :   0.9273
B(  1-C ,  7-C ) :   0.8155 B(  1-C ,  8-H ) :   0.9205 B(  2-C ,  3-O ) :   0.9999
B(  2-C ,  7-C ) :   0.8155 B(  2-C ,  9-H ) :   0.9205 B(  3-O ,  4-C ) :   0.9282
B(  4-C ,  5-C ) :   0.9815 B(  4-C , 10-H ) :   0.9226 B(  5-C ,  6-C ) :   1.7286
B(  5-C , 11-H ) :   0.9251 B(  6-C ,  7-C ) :   0.9923 B(  6-C , 12-H ) :   0.9268
B(  7-C , 13-H ) :   0.9084

MP2 TOTAL ENERGY:     -381.885733466 Eh
FINAL SINGLE POINT ENERGY      -381.885733465688

DIPOLE MOMENT
-------------
                                X             Y             Z
Electronic contribution:     -1.37254       0.05353       1.83009
Nuclear contribution   :      1.88454       0.11008      -2.13842
                        -----------------------------------------
Total Dipole Moment    :      0.51200       0.16362      -0.30833
                        -----------------------------------------
Magnitude (a.u.)       :      0.61966
Magnitude (Debye)      :      1.57505

                             ****ORCA TERMINATED NORMALLY****
TOTAL RUN TIME: 0 days 0 hours 11 minutes 31 seconds 146 msec
