                         Program Version 3.0.3 - RELEASE   -
|  1> ! RI-MP2 RIJK def2-TZVP def2-TZVP/C def2-TZVP/JK TIGHTSCF
|  2> % maxcore 2000
|  3> % mp2 density relaxed end
|  4> *xyz 0 1
|  5>  C       -0.1169898461     1.4997512691    -0.0387993304
|  6>  C        0.0239506828     0.0103835047    -0.0364679870
|  7>  C        0.8232067170    -0.8958689673    -1.0165210855
|  8>  C        2.2531818792    -0.8886700573    -0.4172648181
|  9>  C        2.1229109279    -0.9181336561     0.9211969364
| 10>  C        0.6090489400    -0.9393099528     1.0583852652
| 11>  C       -0.7765726100    -0.9756806352     1.7241523328
| 12>  N       -1.1775268616    -0.9422652848     0.2352793212
| 13>  C        0.0457455852    -1.8348763080    -0.0714847570
| 14>  H        0.8718728246     1.9697866664    -0.0720309480
| 15>  H       -0.6859199195     1.8301392478    -0.9140062145
| 16>  H       -0.6397273727     1.8546263021     0.8552524942
| 17>  H        0.7051746343    -0.8786722802    -2.1013711969
| 18>  H        3.1669649108    -0.8626488893    -0.9950847141
| 19>  H        2.8910641032    -0.9151537607     1.6806142778
| 20>  H       -1.0773991256    -1.8989243071     2.2288556976
| 21>  H       -1.1095467101    -0.1008627333     2.2904128000
| 22>  H       -0.0366867794    -2.9244282181    -0.0773301338
| 23> *
| 24>
| 25>                          ****END OF INPUT****

CARTESIAN COORDINATES (ANGSTROEM)
---------------------------------
  C     -0.116990    1.499751   -0.038799
  C      0.023951    0.010384   -0.036468
  C      0.823207   -0.895869   -1.016521
  C      2.253182   -0.888670   -0.417265
  C      2.122911   -0.918134    0.921197
  C      0.609049   -0.939310    1.058385
  C     -0.776573   -0.975681    1.724152
  N     -1.177527   -0.942265    0.235279
  C      0.045746   -1.834876   -0.071485
  H      0.871873    1.969787   -0.072031
  H     -0.685920    1.830139   -0.914006
  H     -0.639727    1.854626    0.855252
  H      0.705175   -0.878672   -2.101371
  H      3.166965   -0.862649   -0.995085
  H      2.891064   -0.915154    1.680614
  H     -1.077399   -1.898924    2.228856
  H     -1.109547   -0.100863    2.290413
  H     -0.036687   -2.924428   -0.077330

 Total Charge           Charge          ....    0
 Multiplicity           Mult            ....    1
 Number of Electrons    NEL             ....   64
 Basis Dimension        Dim             ....  333

ORBITAL ENERGIES
----------------

  NO   OCC          E(Eh)            E(eV)
   0   2.0000     -15.560035      -423.4101
   1   2.0000     -11.272353      -306.7363
   2   2.0000     -11.265143      -306.5401
   3   2.0000     -11.264407      -306.5201
   4   2.0000     -11.250693      -306.1469
   5   2.0000     -11.243281      -305.9452
   6   2.0000     -11.239115      -305.8319
   7   2.0000     -11.235238      -305.7264
   8   2.0000     -11.221443      -305.3510
   9   2.0000      -1.320596       -35.9352
  10   2.0000      -1.115030       -30.3415
  11   2.0000      -1.007644       -27.4194
  12   2.0000      -0.980014       -26.6675
  13   2.0000      -0.901544       -24.5323
  14   2.0000      -0.863534       -23.4980
  15   2.0000      -0.832418       -22.6513
  16   2.0000      -0.740521       -20.1506
  17   2.0000      -0.671865       -18.2824
  18   2.0000      -0.669144       -18.2083
  19   2.0000      -0.639184       -17.3931
  20   2.0000      -0.623145       -16.9566
  21   2.0000      -0.581960       -15.8359
  22   2.0000      -0.562728       -15.3126
  23   2.0000      -0.553841       -15.0708
  24   2.0000      -0.540107       -14.6971
  25   2.0000      -0.503319       -13.6960
  26   2.0000      -0.469932       -12.7875
  27   2.0000      -0.447635       -12.1808
  28   2.0000      -0.428038       -11.6475
  29   2.0000      -0.420759       -11.4494
  30   2.0000      -0.358209        -9.7474
  31   2.0000      -0.334017        -9.0891
  32   0.0000       0.126016         3.4291
  33   0.0000       0.149367         4.0645
  34   0.0000       0.162826         4.4307
  35   0.0000       0.171819         4.6754
  36   0.0000       0.179047         4.8721

MULLIKEN ATOMIC CHARGES
-----------------------
   0 C :   -0.442195
   1 C :    0.122534
   2 C :   -0.056638
   3 C :   -0.219516
   4 C :   -0.270785
   5 C :    0.109610
   6 C :   -0.111567
   7 N :   -0.230542
   8 C :   -0.093978
   9 H :    0.146669
  10 H :    0.148363
  11 H :    0.135812
  12 H :    0.129767
  13 H :    0.135683
  14 H :    0.140011
  15 H :    0.118390
  16 H :    0.117963
  17 H :    0.120419
Sum of atomic charges:    0.0000000

LOEWDIN ATOMIC CHARGES
----------------------
   0 C :   -0.267935
   1 C :   -0.184488
   2 C :   -0.132195
   3 C :   -0.122465
   4 C :   -0.120405
   5 C :   -0.157666
   6 C :   -0.203371
   7 N :    0.126478
   8 C :   -0.122374
   9 H :    0.136845
  10 H :    0.135776
  11 H :    0.132622
  12 H :    0.134293
  13 H :    0.134151
  14 H :    0.135146
  15 H :    0.124933
  16 H :    0.122193
  17 H :    0.128462

  Mayer bond orders larger than 0.1
B(  0-C ,  1-C ) :   0.8112 B(  0-C ,  9-H ) :   0.9351 B(  0-C , 10-H ) :   0.9443
B(  0-C , 11-H ) :   0.9310 B(  1-C ,  2-C ) :   0.8505 B(  1-C ,  5-C ) :   0.8693
B(  1-C ,  7-N ) :   0.8905 B(  2-C ,  3-C ) :   0.9333 B(  2-C ,  8-C ) :   0.9145
B(  2-C , 12-H ) :   0.8974 B(  3-C ,  4-C ) :   1.7512 B(  3-C , 13-H ) :   0.9237
B(  4-C ,  5-C ) :   0.8952 B(  4-C , 14-H ) :   0.9230 B(  5-C ,  6-C ) :   0.9040
B(  5-C ,  8-C ) :   0.9241 B(  6-C ,  7-N ) :   0.9469 B(  6-C , 15-H ) :   0.9164
B(  6-C , 16-H ) :   0.9184 B(  7-N ,  8-C ) :   0.9150 B(  8-C , 17-H ) :   0.8913

MP2 TOTAL ENERGY:     -364.021977129 Eh
FINAL SINGLE POINT ENERGY      -364.021977128710

DIPOLE MOMENT
-------------
                                X             Y             Z
Electronic contribution:      0.15712      -3.30626      -0.24230
Nuclear contribution   :      0.45936       3.47012       0.46892
                        -----------------------------------------
Total Dipole Moment    :      0.61648       0.16386       0.22662
                        -----------------------------------------
Magnitude (a.u.)       :      0.67695
Magnitude (Debye)      :      1.72066

                             ****ORCA TERMINATED NORMALLY****
TOTAL RUN TIME: 0 days 0 hours 20 minutes 36 seconds 809 msec
