                         Program Version 3.0.3 - RELEASE   -
|  1> ! RI-MP2 RIJK def2-TZVP def2-TZVP/C def2-TZVP/JK TIGHTSCF
|  2> % maxcore 2000
|  3> % mp2 density relaxed end
|  4> *xyz 0 1
|  5>  O       -0.0432324042     0.0019431094     0.1012867951
|  6>  C       -0.0380748149     1.1866170940    -0.0390802576
|  7>  C       -1.1670377537     2.2644957858    -0.1393475585
|  8>  C       -0.0528406836     3.2876348212     0.1503778800
|  9>  C        0.3012097534     4.2585433233     1.2458792877
| 10>  O        1.6824522522     4.0092589510     1.5282190416
| 11>  C        2.0397456764     2.6589962923     1.1920122023
| 12>  C        1.0308458757     2.2633080990     0.1504630633
| 13>  O        0.8689010361     3.2128291626    -0.9188523877
| 14>  H       -1.6848490411     2.3928341241    -1.0904615602
| 15>  H       -1.8911634196     2.1192056368     0.6673524038
| 16>  H        0.2176207477     5.3134563267     0.9697446534
| 17>  H       -0.3414780031     4.0698825081     2.1202561384
| 18>  H        3.0771683189     2.6777889042     0.8488999088
| 19>  H        1.9610923599     1.9839787414     2.0570215894
| 20> *
| 21>
| 22>                          ****END OF INPUT****

CARTESIAN COORDINATES (ANGSTROEM)
---------------------------------
  O     -0.043232    0.001943    0.101287
  C     -0.038075    1.186617   -0.039080
  C     -1.167038    2.264496   -0.139348
  C     -0.052841    3.287635    0.150378
  C      0.301210    4.258543    1.245879
  O      1.682452    4.009259    1.528219
  C      2.039746    2.658996    1.192012
  C      1.030846    2.263308    0.150463
  O      0.868901    3.212829   -0.918852
  H     -1.684849    2.392834   -1.090462
  H     -1.891163    2.119206    0.667352
  H      0.217621    5.313456    0.969745
  H     -0.341478    4.069883    2.120256
  H      3.077168    2.677789    0.848900
  H      1.961092    1.983979    2.057022

 Total Charge           Charge          ....    0
 Multiplicity           Mult            ....    1
 Number of Electrons    NEL             ....   66
 Basis Dimension        Dim             ....  315

ORBITAL ENERGIES
----------------

  NO   OCC          E(Eh)            E(eV)
   0   2.0000     -20.609307      -560.8077
   1   2.0000     -20.577793      -559.9502
   2   2.0000     -20.575147      -559.8782
   3   2.0000     -11.365868      -309.2810
   4   2.0000     -11.319121      -308.0089
   5   2.0000     -11.310697      -307.7797
   6   2.0000     -11.310093      -307.7633
   7   2.0000     -11.308097      -307.7090
   8   2.0000     -11.275677      -306.8268
   9   2.0000      -1.472820       -40.0775
  10   2.0000      -1.417677       -38.5770
  11   2.0000      -1.384401       -37.6715
  12   2.0000      -1.107024       -30.1237
  13   2.0000      -1.031470       -28.0677
  14   2.0000      -0.974055       -26.5054
  15   2.0000      -0.886255       -24.1162
  16   2.0000      -0.814757       -22.1707
  17   2.0000      -0.749389       -20.3919
  18   2.0000      -0.715471       -19.4690
  19   2.0000      -0.688043       -18.7226
  20   2.0000      -0.664121       -18.0717
  21   2.0000      -0.656736       -17.8707
  22   2.0000      -0.643339       -17.5061
  23   2.0000      -0.618777       -16.8378
  24   2.0000      -0.587583       -15.9890
  25   2.0000      -0.566821       -15.4240
  26   2.0000      -0.554582       -15.0909
  27   2.0000      -0.545693       -14.8491
  28   2.0000      -0.524559       -14.2740
  29   2.0000      -0.499472       -13.5913
  30   2.0000      -0.458061       -12.4645
  31   2.0000      -0.415074       -11.2947
  32   2.0000      -0.409518       -11.1435
  33   0.0000       0.121721         3.3122
  34   0.0000       0.127546         3.4707
  35   0.0000       0.153072         4.1653
  36   0.0000       0.170358         4.6357
  37   0.0000       0.183079         4.9818

MULLIKEN ATOMIC CHARGES
-----------------------
   0 O :   -0.228319
   1 C :    0.118739
   2 C :   -0.201229
   3 C :    0.091409
   4 C :   -0.032083
   5 O :   -0.297834
   6 C :   -0.045091
   7 C :    0.115879
   8 O :   -0.292402
   9 H :    0.153456
  10 H :    0.137605
  11 H :    0.131076
  12 H :    0.100658
  13 H :    0.133006
  14 H :    0.115128
Sum of atomic charges:   -0.0000000

LOEWDIN ATOMIC CHARGES
----------------------
   0 O :    0.181025
   1 C :   -0.273280
   2 C :   -0.163542
   3 C :   -0.258931
   4 C :   -0.262910
   5 O :    0.153236
   6 C :   -0.254777
   7 C :   -0.220104
   8 O :    0.255662
   9 H :    0.145452
  10 H :    0.151577
  11 H :    0.138417
  12 H :    0.133305
  13 H :    0.138769
  14 H :    0.136101

  Mayer bond orders larger than 0.1
B(  0-O ,  1-C ) :   2.0462 B(  1-C ,  2-C ) :   0.9447 B(  1-C ,  7-C ) :   0.8477
B(  2-C ,  3-C ) :   0.9184 B(  2-C ,  7-C ) :  -0.1070 B(  2-C ,  9-H ) :   0.8855
B(  2-C , 10-H ) :   0.8956 B(  3-C ,  4-C ) :   0.9823 B(  3-C ,  7-C ) :   0.8099
B(  3-C ,  8-O ) :   0.8988 B(  4-C ,  5-O ) :   0.9544 B(  4-C , 11-H ) :   0.9094
B(  4-C , 12-H ) :   0.9123 B(  5-O ,  6-C ) :   0.9455 B(  6-C ,  7-C ) :   0.9705
B(  6-C , 13-H ) :   0.9053 B(  6-C , 14-H ) :   0.9203 B(  7-C ,  8-O ) :   0.8678

MP2 TOTAL ENERGY:     -456.980578948 Eh
FINAL SINGLE POINT ENERGY      -456.980578948443

DIPOLE MOMENT
-------------
                                X             Y             Z
Electronic contribution:      1.09992      -2.38017      -2.63045
Nuclear contribution   :     -1.71540       2.87357       3.09113
                        -----------------------------------------
Total Dipole Moment    :     -0.61548       0.49340       0.46068
                        -----------------------------------------
Magnitude (a.u.)       :      0.91350
Magnitude (Debye)      :      2.32194

                             ****ORCA TERMINATED NORMALLY****
TOTAL RUN TIME: 0 days 0 hours 16 minutes 36 seconds 562 msec
