                         Program Version 3.0.3 - RELEASE   -
|  1> ! RI-MP2 RIJK def2-TZVP def2-TZVP/C def2-TZVP/JK TIGHTSCF
|  2> % maxcore 2000
|  3> % mp2 density relaxed end
|  4> *xyz 0 1
|  5>  O       -0.2550057068     1.2916879599     0.0388200863
|  6>  C        0.0451153492    -0.1003794338     0.0380503823
|  7>  C        0.7048635262    -0.5184586810    -1.1972214118
|  8>  C        1.2854895197    -0.8070754176    -2.2091667987
|  9>  C        0.8825305081    -0.4506690247     1.2872087244
| 10>  C        0.1619486626    -0.1085832533     2.6167366651
| 11>  N       -0.1342244206    -1.4147994212     3.2329960094
| 12>  C        0.3964630637    -2.2781480918     2.4762375183
| 13>  O        1.0582799219    -1.8859186235     1.3554387087
| 14>  H        0.5003867617     1.7538111754    -0.3413526867
| 15>  H       -0.9208172673    -0.6122187885     0.1321001912
| 16>  H        1.7833648942    -1.0806745939    -3.1068621115
| 17>  H        1.8736821003     0.0028554542     1.1958883987
| 18>  H        0.7874597400     0.4827521337     3.2927437630
| 19>  H       -0.7577333184     0.4579179103     2.4461722063
| 20>  H        0.3861282755    -3.3509418841     2.6329779950
| 21> *
| 22>
| 23>                          ****END OF INPUT****

CARTESIAN COORDINATES (ANGSTROEM)
---------------------------------
  O     -0.255006    1.291688    0.038820
  C      0.045115   -0.100379    0.038050
  C      0.704864   -0.518459   -1.197221
  C      1.285490   -0.807075   -2.209167
  C      0.882531   -0.450669    1.287209
  C      0.161949   -0.108583    2.616737
  N     -0.134224   -1.414799    3.232996
  C      0.396463   -2.278148    2.476238
  O      1.058280   -1.885919    1.355439
  H      0.500387    1.753811   -0.341353
  H     -0.920817   -0.612219    0.132100
  H      1.783365   -1.080675   -3.106862
  H      1.873682    0.002855    1.195888
  H      0.787460    0.482752    3.292744
  H     -0.757733    0.457918    2.446172
  H      0.386128   -3.350942    2.632978

 Total Charge           Charge          ....    0
 Multiplicity           Mult            ....    1
 Number of Electrons    NEL             ....   66
 Basis Dimension        Dim             ....  321

ORBITAL ENERGIES
----------------

  NO   OCC          E(Eh)            E(eV)
   0   2.0000     -20.602118      -560.6121
   1   2.0000     -20.582154      -560.0689
   2   2.0000     -15.553850      -423.2418
   3   2.0000     -11.334755      -308.4344
   4   2.0000     -11.325539      -308.1836
   5   2.0000     -11.308369      -307.7164
   6   2.0000     -11.264341      -306.5183
   7   2.0000     -11.247315      -306.0550
   8   2.0000     -11.242383      -305.9208
   9   2.0000      -1.445336       -39.3296
  10   2.0000      -1.389147       -37.8006
  11   2.0000      -1.217748       -33.1366
  12   2.0000      -1.083721       -29.4895
  13   2.0000      -1.033684       -28.1280
  14   2.0000      -0.948185       -25.8014
  15   2.0000      -0.850742       -23.1499
  16   2.0000      -0.810702       -22.0603
  17   2.0000      -0.765827       -20.8392
  18   2.0000      -0.719503       -19.5787
  19   2.0000      -0.703837       -19.1524
  20   2.0000      -0.696518       -18.9532
  21   2.0000      -0.654561       -17.8115
  22   2.0000      -0.603875       -16.4323
  23   2.0000      -0.579097       -15.7580
  24   2.0000      -0.573016       -15.5926
  25   2.0000      -0.568395       -15.4668
  26   2.0000      -0.549744       -14.9593
  27   2.0000      -0.518897       -14.1199
  28   2.0000      -0.484201       -13.1758
  29   2.0000      -0.445274       -12.1165
  30   2.0000      -0.410627       -11.1737
  31   2.0000      -0.406917       -11.0728
  32   2.0000      -0.383971       -10.4484
  33   0.0000       0.125265         3.4086
  34   0.0000       0.148260         4.0344
  35   0.0000       0.154886         4.2147
  36   0.0000       0.158313         4.3079
  37   0.0000       0.170719         4.6455

MULLIKEN ATOMIC CHARGES
-----------------------
   0 O :   -0.457427
   1 C :   -0.073231
   2 C :   -0.073311
   3 C :   -0.109181
   4 C :    0.109718
   5 C :   -0.142382
   6 N :   -0.261108
   7 C :    0.089551
   8 O :   -0.271170
   9 H :    0.326439
  10 H :    0.132372
  11 H :    0.198629
  12 H :    0.108965
  13 H :    0.121181
  14 H :    0.152584
  15 H :    0.148372
Sum of atomic charges:   -0.0000000

LOEWDIN ATOMIC CHARGES
----------------------
   0 O :    0.004179
   1 C :   -0.321695
   2 C :   -0.094674
   3 C :   -0.074826
   4 C :   -0.246399
   5 C :   -0.253452
   6 N :    0.063394
   7 C :   -0.349764
   8 O :    0.237339
   9 H :    0.182740
  10 H :    0.167970
  11 H :    0.130004
  12 H :    0.144459
  13 H :    0.134051
  14 H :    0.141765
  15 H :    0.134909

  Mayer bond orders larger than 0.1
B(  0-O ,  1-C ) :   0.9173 B(  0-O ,  9-H ) :   0.8341 B(  1-C ,  2-C ) :   1.1631
B(  1-C ,  4-C ) :   0.9192 B(  1-C , 10-H ) :   0.9116 B(  2-C ,  3-C ) :   2.5723
B(  3-C , 11-H ) :   0.8918 B(  4-C ,  5-C ) :   0.9110 B(  4-C ,  8-O ) :   0.8474
B(  4-C , 12-H ) :   0.9063 B(  5-C ,  6-N ) :   0.9219 B(  5-C , 13-H ) :   0.9230
B(  5-C , 14-H ) :   0.9232 B(  6-N ,  7-C ) :   1.8336 B(  7-C ,  8-O ) :   1.0582
B(  7-C , 15-H ) :   0.9215

MP2 TOTAL ENERGY:     -437.127138584 Eh
FINAL SINGLE POINT ENERGY      -437.127138584071

DIPOLE MOMENT
-------------
                                X             Y             Z
Electronic contribution:      0.26379      -1.94565      -0.74112
Nuclear contribution   :      0.46142       2.15600       0.09584
                        -----------------------------------------
Total Dipole Moment    :      0.72521       0.21035      -0.64527
                        -----------------------------------------
Magnitude (a.u.)       :      0.99326
Magnitude (Debye)      :      2.52465

                             ****ORCA TERMINATED NORMALLY****
TOTAL RUN TIME: 0 days 0 hours 16 minutes 13 seconds 440 msec
