                         Program Version 3.0.3 - RELEASE   -
|  1> ! RI-MP2 RIJK def2-TZVP def2-TZVP/C def2-TZVP/JK TIGHTSCF
|  2> % maxcore 2000
|  3> % mp2 density relaxed end
|  4> *xyz 0 1
|  5>  N       -0.1025416641     1.2927884485    -0.3287489651
|  6>  C        0.0074725278     0.0657121442     0.0193703853
|  7>  N       -1.1260659215    -0.6650536515     0.3595460324
|  8>  C       -1.0787087659    -1.9724003454     0.7382005383
|  9>  C       -2.3609881491    -2.6172782876     1.0696463267
| 10>  O       -3.4188212760    -2.0312434246     1.0147696925
| 11>  C        0.1170256894    -2.6220198656     0.7964672717
| 12>  N        1.2971117836    -1.9875006049     0.4793883953
| 13>  C        1.2339780314    -0.7459307314     0.1218078326
| 14>  H        0.8124832534     1.6844304342    -0.5451326202
| 15>  H       -2.0313446568    -0.2104361592     0.3263698100
| 16>  H       -2.2840539447    -3.6791822296     1.3729776698
| 17>  H        0.1764904953    -3.6613057172     1.0950607379
| 18>  H        2.1663395474    -0.2411001097    -0.1297467371
| 19> *
| 20>
| 21>                          ****END OF INPUT****

CARTESIAN COORDINATES (ANGSTROEM)
---------------------------------
  N     -0.102542    1.292788   -0.328749
  C      0.007473    0.065712    0.019370
  N     -1.126066   -0.665054    0.359546
  C     -1.078709   -1.972400    0.738201
  C     -2.360988   -2.617278    1.069646
  O     -3.418821   -2.031243    1.014770
  C      0.117026   -2.622020    0.796467
  N      1.297112   -1.987501    0.479388
  C      1.233978   -0.745931    0.121808
  H      0.812483    1.684430   -0.545133
  H     -2.031345   -0.210436    0.326370
  H     -2.284054   -3.679182    1.372978
  H      0.176490   -3.661306    1.095061
  H      2.166340   -0.241100   -0.129747

 Total Charge           Charge          ....    0
 Multiplicity           Mult            ....    1
 Number of Electrons    NEL             ....   64
 Basis Dimension        Dim             ....  309

ORBITAL ENERGIES
----------------

  NO   OCC          E(Eh)            E(eV)
   0   2.0000     -20.585558      -560.1615
   1   2.0000     -15.626279      -425.2127
   2   2.0000     -15.611732      -424.8168
   3   2.0000     -15.541925      -422.9173
   4   2.0000     -11.364387      -309.2407
   5   2.0000     -11.345939      -308.7387
   6   2.0000     -11.317573      -307.9668
   7   2.0000     -11.316912      -307.9488
   8   2.0000     -11.294182      -307.3303
   9   2.0000      -1.424666       -38.7671
  10   2.0000      -1.341874       -36.5142
  11   2.0000      -1.260766       -34.3072
  12   2.0000      -1.200864       -32.6772
  13   2.0000      -1.066385       -29.0178
  14   2.0000      -0.955184       -25.9919
  15   2.0000      -0.909494       -24.7486
  16   2.0000      -0.848360       -23.0850
  17   2.0000      -0.773108       -21.0373
  18   2.0000      -0.741645       -20.1812
  19   2.0000      -0.717844       -19.5335
  20   2.0000      -0.664043       -18.0695
  21   2.0000      -0.655806       -17.8454
  22   2.0000      -0.647474       -17.6187
  23   2.0000      -0.631993       -17.1974
  24   2.0000      -0.592737       -16.1292
  25   2.0000      -0.559952       -15.2371
  26   2.0000      -0.498684       -13.5699
  27   2.0000      -0.494077       -13.4445
  28   2.0000      -0.466572       -12.6961
  29   2.0000      -0.454582       -12.3698
  30   2.0000      -0.427256       -11.6262
  31   2.0000      -0.317736        -8.6460
  32   0.0000       0.029263         0.7963
  33   0.0000       0.108957         2.9649
  34   0.0000       0.138654         3.7730
  35   0.0000       0.149587         4.0705
  36   0.0000       0.168161         4.5759

MULLIKEN ATOMIC CHARGES
-----------------------
   0 N :   -0.392495
   1 C :    0.152419
   2 N :   -0.247736
   3 C :    0.191524
   4 C :    0.085333
   5 O :   -0.283102
   6 C :   -0.115559
   7 N :   -0.212448
   8 C :   -0.067809
   9 H :    0.215406
  10 H :    0.268609
  11 H :    0.111722
  12 H :    0.152027
  13 H :    0.142109
Sum of atomic charges:   -0.0000000

LOEWDIN ATOMIC CHARGES
----------------------
   0 N :   -0.087680
   1 C :   -0.375255
   2 N :    0.237173
   3 C :   -0.232344
   4 C :   -0.259357
   5 O :    0.136265
   6 C :   -0.197236
   7 N :    0.144489
   8 C :   -0.164614
   9 H :    0.164329
  10 H :    0.213624
  11 H :    0.127487
  12 H :    0.148373
  13 H :    0.144746

  Mayer bond orders larger than 0.1
B(  0-N ,  1-C ) :   1.8834 B(  0-N ,  9-H ) :   0.8635 B(  1-C ,  2-N ) :   1.0428
B(  1-C ,  8-C ) :   1.0134 B(  2-N ,  3-C ) :   1.1298 B(  2-N , 10-H ) :   0.8390
B(  3-C ,  4-C ) :   0.8657 B(  3-C ,  6-C ) :   1.4253 B(  4-C ,  5-O ) :   1.9112
B(  4-C , 11-H ) :   0.9670 B(  6-C ,  7-N ) :   1.1481 B(  6-C , 12-H ) :   0.9502
B(  7-N ,  8-C ) :   1.6531 B(  8-C , 13-H ) :   0.9352

MP2 TOTAL ENERGY:     -432.172745198 Eh
FINAL SINGLE POINT ENERGY      -432.172745197810

DIPOLE MOMENT
-------------
                                X             Y             Z
Electronic contribution:     -1.40054      -0.75496       0.37683
Nuclear contribution   :      1.92629       0.08138      -0.23729
                        -----------------------------------------
Total Dipole Moment    :      0.52575      -0.67358       0.13955
                        -----------------------------------------
Magnitude (a.u.)       :      0.86579
Magnitude (Debye)      :      2.20066

                             ****ORCA TERMINATED NORMALLY****
TOTAL RUN TIME: 0 days 0 hours 14 minutes 26 seconds 439 msec
