                         Program Version 3.0.3 - RELEASE   -
|  1> ! RI-MP2 RIJK def2-TZVP def2-TZVP/C def2-TZVP/JK TIGHTSCF
|  2> % maxcore 2000
|  3> % mp2 density relaxed end
|  4> *xyz 0 1
|  5>  C       -0.2491203631     1.3482965613    -0.3541133900
|  6>  C       -0.1240704189    -0.1542118754    -0.2043718922
|  7>  O        0.5778909288    -0.8273040001    -0.9241876514
|  8>  C       -0.9165088494    -0.8032899972     0.9401798273
|  9>  N       -0.9279249997    -2.2525668572     0.9294737465
| 10>  C       -1.8144831313    -2.8400678690    -0.0690348840
| 11>  C       -1.9911074030    -4.3287643970     0.1844058881
| 12>  O       -2.2883444017    -5.1304944521    -0.6612114456
| 13>  H        0.4973898122     1.7187769933    -1.0575491479
| 14>  H       -1.2497165641     1.5961223805    -0.7283217998
| 15>  H       -0.1383729341     1.8508882664     0.6127128567
| 16>  H       -0.4670269367    -0.4421187633     1.8781751251
| 17>  H       -1.9450611471    -0.4209783509     0.9413653465
| 18>  H        0.0211270221    -2.5633291836     0.7385380686
| 19>  H       -2.8129635015    -2.3924716091     0.0514282612
| 20>  H       -1.5157339929    -2.6882323940    -1.1160475703
| 21>  H       -1.8347213397    -4.6178423325     1.2486217010
| 22> *
| 23>
| 24>                          ****END OF INPUT****

CARTESIAN COORDINATES (ANGSTROEM)
---------------------------------
  C     -0.249120    1.348297   -0.354113
  C     -0.124070   -0.154212   -0.204372
  O      0.577891   -0.827304   -0.924188
  C     -0.916509   -0.803290    0.940180
  N     -0.927925   -2.252567    0.929474
  C     -1.814483   -2.840068   -0.069035
  C     -1.991107   -4.328764    0.184406
  O     -2.288344   -5.130494   -0.661211
  H      0.497390    1.718777   -1.057549
  H     -1.249717    1.596122   -0.728322
  H     -0.138373    1.850888    0.612713
  H     -0.467027   -0.442119    1.878175
  H     -1.945061   -0.420978    0.941365
  H      0.021127   -2.563329    0.738538
  H     -2.812964   -2.392472    0.051428
  H     -1.515734   -2.688232   -1.116048
  H     -1.834721   -4.617842    1.248622

 Total Charge           Charge          ....    0
 Multiplicity           Mult            ....    1
 Number of Electrons    NEL             ....   62
 Basis Dimension        Dim             ....  302

ORBITAL ENERGIES
----------------

  NO   OCC          E(Eh)            E(eV)
   0   2.0000     -20.559964      -559.4651
   1   2.0000     -20.556338      -559.3664
   2   2.0000     -15.567181      -423.6045
   3   2.0000     -11.343885      -308.6828
   4   2.0000     -11.329422      -308.2892
   5   2.0000     -11.282276      -307.0063
   6   2.0000     -11.269925      -306.6702
   7   2.0000     -11.249171      -306.1055
   8   2.0000      -1.404897       -38.2292
   9   2.0000      -1.395749       -37.9803
  10   2.0000      -1.232273       -33.5319
  11   2.0000      -1.047732       -28.5102
  12   2.0000      -0.998314       -27.1655
  13   2.0000      -0.913714       -24.8634
  14   2.0000      -0.801602       -21.8127
  15   2.0000      -0.762538       -20.7497
  16   2.0000      -0.706796       -19.2329
  17   2.0000      -0.673505       -18.3270
  18   2.0000      -0.662863       -18.0374
  19   2.0000      -0.643261       -17.5040
  20   2.0000      -0.620763       -16.8918
  21   2.0000      -0.609031       -16.5726
  22   2.0000      -0.600362       -16.3367
  23   2.0000      -0.573746       -15.6124
  24   2.0000      -0.562113       -15.2959
  25   2.0000      -0.550525       -14.9805
  26   2.0000      -0.506233       -13.7753
  27   2.0000      -0.504623       -13.7315
  28   2.0000      -0.448220       -12.1967
  29   2.0000      -0.421210       -11.4617
  30   2.0000      -0.391205       -10.6452
  31   0.0000       0.114635         3.1194
  32   0.0000       0.127305         3.4641
  33   0.0000       0.128756         3.5036
  34   0.0000       0.162707         4.4275
  35   0.0000       0.168786         4.5929

MULLIKEN ATOMIC CHARGES
-----------------------
   0 C :   -0.401574
   1 C :    0.210553
   2 O :   -0.300777
   3 C :   -0.194943
   4 N :   -0.335502
   5 C :   -0.107176
   6 C :    0.084143
   7 O :   -0.262985
   8 H :    0.156612
   9 H :    0.149880
  10 H :    0.143420
  11 H :    0.154299
  12 H :    0.138106
  13 H :    0.216672
  14 H :    0.124581
  15 H :    0.139976
  16 H :    0.084714
Sum of atomic charges:    0.0000000

LOEWDIN ATOMIC CHARGES
----------------------
   0 C :   -0.280079
   1 C :   -0.357775
   2 O :    0.144314
   3 C :   -0.298616
   4 N :   -0.014282
   5 C :   -0.309840
   6 C :   -0.296402
   7 O :    0.133119
   8 H :    0.135557
   9 H :    0.140459
  10 H :    0.136231
  11 H :    0.149661
  12 H :    0.145248
  13 H :    0.179509
  14 H :    0.147628
  15 H :    0.134354
  16 H :    0.110915

  Mayer bond orders larger than 0.1
B(  0-C ,  1-C ) :   0.9126 B(  0-C ,  8-H ) :   0.9329 B(  0-C ,  9-H ) :   0.9136
B(  0-C , 10-H ) :   0.9153 B(  1-C ,  2-O ) :   1.9774 B(  1-C ,  3-C ) :   0.8880
B(  3-C ,  4-N ) :   0.9973 B(  3-C , 11-H ) :   0.9028 B(  3-C , 12-H ) :   0.9297
B(  4-N ,  5-C ) :   0.9280 B(  4-N , 13-H ) :   0.8727 B(  5-C ,  6-C ) :   0.8830
B(  5-C , 14-H ) :   0.9015 B(  5-C , 15-H ) :   0.8902 B(  6-C ,  7-O ) :   2.0061
B(  6-C , 16-H ) :   0.9336

MP2 TOTAL ENERGY:     -400.354381376 Eh
FINAL SINGLE POINT ENERGY      -400.354381376214

DIPOLE MOMENT
-------------
                                X             Y             Z
Electronic contribution:      0.56289      -6.74024      -1.86971
Nuclear contribution   :     -0.71105       8.36168       2.67058
                        -----------------------------------------
Total Dipole Moment    :     -0.14817       1.62144       0.80087
                        -----------------------------------------
Magnitude (a.u.)       :      1.81450
Magnitude (Debye)      :      4.61210

                             ****ORCA TERMINATED NORMALLY****
TOTAL RUN TIME: 0 days 0 hours 9 minutes 52 seconds 469 msec
