                         Program Version 3.0.3 - RELEASE   -
|  1> ! RI-MP2 RIJK def2-TZVP def2-TZVP/C def2-TZVP/JK TIGHTSCF
|  2> % maxcore 2000
|  3> % mp2 density relaxed end
|  4> *xyz 0 1
|  5>  C        0.0424259598    -1.2093124449    -0.1582187406
|  6>  C        0.0321486066    -0.0102365737    -0.0687453938
|  7>  C        0.0247994433     1.4388229474     0.0204585281
|  8>  C       -0.8223903011     2.1489302094    -1.0453659015
|  9>  C       -0.2394209315     3.5721744674    -1.0962655583
| 10>  C        1.2783726684     3.3556910066    -0.9191213441
| 11>  C        1.3984152485     2.1996904221     0.0822602117
| 12>  C        0.9890477771     2.5145981830     1.5321592328
| 13>  O       -0.3110115410     1.9115693421     1.3579860898
| 14>  H        0.0478081094    -2.2689579358    -0.2289484972
| 15>  H       -0.6884848330     1.6372410423    -2.0051061309
| 16>  H       -1.8836281048     2.1125635298    -0.7863571235
| 17>  H       -0.4862793633     4.0984403585    -2.0217861438
| 18>  H       -0.6393981569     4.1638985105    -0.2664906114
| 19>  H        1.7274221066     3.0583009656    -1.8739508674
| 20>  H        1.8025993638     4.2555004919    -0.5812642575
| 21>  H        2.3017306799     1.6020121937    -0.0336105340
| 22>  H        1.5750745090     1.9958782642     2.3007964947
| 23>  H        0.9145128191     3.5773468801     1.7945433466
| 24> *
| 25>
| 26>                          ****END OF INPUT****

CARTESIAN COORDINATES (ANGSTROEM)
---------------------------------
  C      0.042426   -1.209312   -0.158219
  C      0.032149   -0.010237   -0.068745
  C      0.024799    1.438823    0.020459
  C     -0.822390    2.148930   -1.045366
  C     -0.239421    3.572174   -1.096266
  C      1.278373    3.355691   -0.919121
  C      1.398415    2.199690    0.082260
  C      0.989048    2.514598    1.532159
  O     -0.311012    1.911569    1.357986
  H      0.047808   -2.268958   -0.228948
  H     -0.688485    1.637241   -2.005106
  H     -1.883628    2.112564   -0.786357
  H     -0.486279    4.098440   -2.021786
  H     -0.639398    4.163899   -0.266491
  H      1.727422    3.058301   -1.873951
  H      1.802599    4.255500   -0.581264
  H      2.301731    1.602012   -0.033611
  H      1.575075    1.995878    2.300796
  H      0.914513    3.577347    1.794543

 Total Charge           Charge          ....    0
 Multiplicity           Mult            ....    1
 Number of Electrons    NEL             ....   66
 Basis Dimension        Dim             ....  339

ORBITAL ENERGIES
----------------

  NO   OCC          E(Eh)            E(eV)
   0   2.0000     -20.551523      -559.2354
   1   2.0000     -11.309158      -307.7378
   2   2.0000     -11.278990      -306.9169
   3   2.0000     -11.240011      -305.8562
   4   2.0000     -11.232958      -305.6643
   5   2.0000     -11.230100      -305.5866
   6   2.0000     -11.227425      -305.5138
   7   2.0000     -11.226877      -305.4989
   8   2.0000     -11.225561      -305.4630
   9   2.0000      -1.383058       -37.6349
  10   2.0000      -1.118669       -30.4405
  11   2.0000      -1.045161       -28.4403
  12   2.0000      -1.004958       -27.3463
  13   2.0000      -0.953053       -25.9339
  14   2.0000      -0.899332       -24.4721
  15   2.0000      -0.801066       -21.7981
  16   2.0000      -0.779762       -21.2184
  17   2.0000      -0.713853       -19.4249
  18   2.0000      -0.696713       -18.9585
  19   2.0000      -0.662681       -18.0325
  20   2.0000      -0.641665       -17.4606
  21   2.0000      -0.606305       -16.4984
  22   2.0000      -0.587366       -15.9831
  23   2.0000      -0.564836       -15.3700
  24   2.0000      -0.542914       -14.7734
  25   2.0000      -0.495141       -13.4735
  26   2.0000      -0.482601       -13.1322
  27   2.0000      -0.482097       -13.1185
  28   2.0000      -0.472674       -12.8621
  29   2.0000      -0.453677       -12.3452
  30   2.0000      -0.425723       -11.5845
  31   2.0000      -0.393674       -10.7124
  32   2.0000      -0.377820       -10.2810
  33   0.0000       0.135037         3.6745
  34   0.0000       0.154820         4.2129
  35   0.0000       0.159508         4.3404
  36   0.0000       0.164111         4.4657
  37   0.0000       0.168208         4.5772

MULLIKEN ATOMIC CHARGES
-----------------------
   0 C :   -0.086262
   1 C :   -0.063115
   2 C :    0.062746
   3 C :   -0.227817
   4 C :   -0.237603
   5 C :   -0.260726
   6 C :   -0.078862
   7 C :   -0.052749
   8 O :   -0.328902
   9 H :    0.194022
  10 H :    0.123088
  11 H :    0.131605
  12 H :    0.130220
  13 H :    0.124197
  14 H :    0.116573
  15 H :    0.125726
  16 H :    0.128776
  17 H :    0.103398
  18 H :    0.095685
Sum of atomic charges:   -0.0000000

LOEWDIN ATOMIC CHARGES
----------------------
   0 C :   -0.080771
   1 C :   -0.060849
   2 C :   -0.278185
   3 C :   -0.199373
   4 C :   -0.249066
   5 C :   -0.237035
   6 C :   -0.172273
   7 C :   -0.248403
   8 O :    0.166543
   9 H :    0.127731
  10 H :    0.148118
  11 H :    0.145775
  12 H :    0.134102
  13 H :    0.140850
  14 H :    0.140892
  15 H :    0.137225
  16 H :    0.146136
  17 H :    0.119907
  18 H :    0.118676

  Mayer bond orders larger than 0.1
B(  0-C ,  1-C ) :   2.5842 B(  0-C ,  2-C ) :  -0.1492 B(  0-C ,  9-H ) :   0.8720
B(  1-C ,  2-C ) :   1.2470 B(  2-C ,  3-C ) :   0.9321 B(  2-C ,  6-C ) :   0.8604
B(  2-C ,  8-O ) :   0.8778 B(  3-C ,  4-C ) :   0.9303 B(  3-C , 10-H ) :   0.9263
B(  3-C , 11-H ) :   0.9142 B(  4-C ,  5-C ) :   0.9434 B(  4-C , 12-H ) :   0.9287
B(  4-C , 13-H ) :   0.9294 B(  5-C ,  6-C ) :   0.9421 B(  5-C , 14-H ) :   0.9256
B(  5-C , 15-H ) :   0.9253 B(  6-C ,  7-C ) :   0.9685 B(  6-C , 16-H ) :   0.9205
B(  7-C ,  8-O ) :   0.9471 B(  7-C , 17-H ) :   0.9156 B(  7-C , 18-H ) :   0.9064

MP2 TOTAL ENERGY:     -385.173860830 Eh
FINAL SINGLE POINT ENERGY      -385.173860830356

DIPOLE MOMENT
-------------
                                X             Y             Z
Electronic contribution:     -1.32867      -5.32878       2.81121
Nuclear contribution   :      1.90101       5.58806      -3.31033
                        -----------------------------------------
Total Dipole Moment    :      0.57235       0.25927      -0.49912
                        -----------------------------------------
Magnitude (a.u.)       :      0.80245
Magnitude (Debye)      :      2.03967

                             ****ORCA TERMINATED NORMALLY****
TOTAL RUN TIME: 0 days 0 hours 20 minutes 15 seconds 221 msec
