                         Program Version 3.0.3 - RELEASE   -
|  1> ! RI-MP2 RIJK def2-TZVP def2-TZVP/C def2-TZVP/JK TIGHTSCF
|  2> % maxcore 2000
|  3> % mp2 density relaxed end
|  4> *xyz 0 1
|  5>  C        0.0987360706     1.4215553534    -0.1111169875
|  6>  C       -0.0421388960    -0.0847910355    -0.0033302081
|  7>  C       -0.0838748594    -0.9329544105    -1.3560526575
|  8>  C       -0.9050042535    -1.8776278152    -0.4711550248
|  9>  C       -0.1567054092    -2.7700891762     0.2211999524
| 10>  C        0.1310636183    -2.1857721093     1.5421158609
| 11>  C       -0.7979441277    -1.0423335742     1.8513467677
| 12>  C        0.5760119659    -0.6894465367     1.3131211997
| 13>  C       -1.3769659087    -0.7444973429     0.4639372939
| 14>  H        1.1308633187     1.7080870345    -0.3454252972
| 15>  H       -0.5462458463     1.8150823320    -0.9041306334
| 16>  H       -0.1783982808     1.9115463236     0.8282461169
| 17>  H       -0.6260174348    -0.3527536259    -2.1132602082
| 18>  H        0.8406380510    -1.3302693367    -1.7804252390
| 19>  H        0.5660849386    -3.4227926598    -0.2607555919
| 20>  H        0.6319045424    -2.7039600809     2.3530702340
| 21>  H       -1.2389885690    -0.8637384661     2.8223494722
| 22>  H        1.4381471256    -0.2998357284     1.8394164571
| 23>  H       -2.3414330658    -0.2674509851     0.2982878428
| 24> *
| 25>
| 26>                          ****END OF INPUT****

CARTESIAN COORDINATES (ANGSTROEM)
---------------------------------
  C      0.098736    1.421555   -0.111117
  C     -0.042139   -0.084791   -0.003330
  C     -0.083875   -0.932954   -1.356053
  C     -0.905004   -1.877628   -0.471155
  C     -0.156705   -2.770089    0.221200
  C      0.131064   -2.185772    1.542116
  C     -0.797944   -1.042334    1.851347
  C      0.576012   -0.689447    1.313121
  C     -1.376966   -0.744497    0.463937
  H      1.130863    1.708087   -0.345425
  H     -0.546246    1.815082   -0.904131
  H     -0.178398    1.911546    0.828246
  H     -0.626017   -0.352754   -2.113260
  H      0.840638   -1.330269   -1.780425
  H      0.566085   -3.422793   -0.260756
  H      0.631905   -2.703960    2.353070
  H     -1.238989   -0.863738    2.822349
  H      1.438147   -0.299836    1.839416
  H     -2.341433   -0.267451    0.298288

 Total Charge           Charge          ....    0
 Multiplicity           Mult            ....    1
 Number of Electrons    NEL             ....   64
 Basis Dimension        Dim             ....  339

ORBITAL ENERGIES
----------------

  NO   OCC          E(Eh)            E(eV)
   0   2.0000     -11.250451      -306.1403
   1   2.0000     -11.244859      -305.9882
   2   2.0000     -11.240619      -305.8728
   3   2.0000     -11.239240      -305.8353
   4   2.0000     -11.235623      -305.7368
   5   2.0000     -11.226394      -305.4857
   6   2.0000     -11.224280      -305.4282
   7   2.0000     -11.222588      -305.3821
   8   2.0000     -11.219999      -305.3117
   9   2.0000      -1.239029       -33.7157
  10   2.0000      -1.074568       -29.2405
  11   2.0000      -1.030383       -28.0382
  12   2.0000      -0.951282       -25.8857
  13   2.0000      -0.901556       -24.5326
  14   2.0000      -0.832880       -22.6638
  15   2.0000      -0.777408       -21.1543
  16   2.0000      -0.730914       -19.8892
  17   2.0000      -0.706664       -19.2293
  18   2.0000      -0.666847       -18.1458
  19   2.0000      -0.616439       -16.7741
  20   2.0000      -0.598035       -16.2734
  21   2.0000      -0.579617       -15.7722
  22   2.0000      -0.570493       -15.5239
  23   2.0000      -0.554602       -15.0915
  24   2.0000      -0.532321       -14.4852
  25   2.0000      -0.487339       -13.2612
  26   2.0000      -0.460117       -12.5204
  27   2.0000      -0.449212       -12.2237
  28   2.0000      -0.443072       -12.0566
  29   2.0000      -0.414059       -11.2671
  30   2.0000      -0.374861       -10.2005
  31   2.0000      -0.288641        -7.8543
  32   0.0000       0.107707         2.9309
  33   0.0000       0.143269         3.8986
  34   0.0000       0.164083         4.4649
  35   0.0000       0.171594         4.6693
  36   0.0000       0.179916         4.8958

MULLIKEN ATOMIC CHARGES
-----------------------
   0 C :   -0.433875
   1 C :    0.140861
   2 C :   -0.262259
   3 C :    0.018050
   4 C :   -0.155756
   5 C :   -0.152580
   6 C :   -0.189935
   7 C :   -0.199852
   8 C :   -0.061309
   9 H :    0.136012
  10 H :    0.131657
  11 H :    0.140962
  12 H :    0.107127
  13 H :    0.120088
  14 H :    0.117746
  15 H :    0.130011
  16 H :    0.145172
  17 H :    0.137034
  18 H :    0.130846
Sum of atomic charges:    0.0000000

LOEWDIN ATOMIC CHARGES
----------------------
   0 C :   -0.270178
   1 C :   -0.182276
   2 C :   -0.152147
   3 C :   -0.135905
   4 C :   -0.117886
   5 C :   -0.159838
   6 C :   -0.131891
   7 C :   -0.104279
   8 C :   -0.103508
   9 H :    0.128640
  10 H :    0.127410
  11 H :    0.131656
  12 H :    0.135013
  13 H :    0.129335
  14 H :    0.140071
  15 H :    0.148430
  16 H :    0.138078
  17 H :    0.137901
  18 H :    0.141373

  Mayer bond orders larger than 0.1
B(  0-C ,  1-C ) :   0.8727 B(  0-C ,  9-H ) :   0.9383 B(  0-C , 10-H ) :   0.9353
B(  0-C , 11-H ) :   0.9354 B(  1-C ,  2-C ) :   0.8927 B(  1-C ,  7-C ) :   0.9032
B(  1-C ,  8-C ) :   0.9311 B(  2-C ,  3-C ) :   0.9217 B(  2-C , 12-H ) :   0.8925
B(  2-C , 13-H ) :   0.9167 B(  3-C ,  4-C ) :   1.5982 B(  3-C ,  8-C ) :   0.9196
B(  4-C ,  5-C ) :   1.0459 B(  4-C , 14-H ) :   0.9311 B(  5-C ,  6-C ) :   0.8706
B(  5-C ,  7-C ) :   0.7895 B(  5-C , 15-H ) :   0.9264 B(  6-C ,  7-C ) :   0.8632
B(  6-C ,  8-C ) :   0.9189 B(  6-C , 16-H ) :   0.9132 B(  7-C , 17-H ) :   0.9230
B(  8-C , 18-H ) :   0.9006

MP2 TOTAL ENERGY:     -348.008671811 Eh
FINAL SINGLE POINT ENERGY      -348.008671810514

DIPOLE MOMENT
-------------
                                X             Y             Z
Electronic contribution:     -1.76634      -4.69022       1.17891
Nuclear contribution   :      2.16038       5.22567      -0.94057
                        -----------------------------------------
Total Dipole Moment    :      0.39404       0.53545       0.23834
                        -----------------------------------------
Magnitude (a.u.)       :      0.70624
Magnitude (Debye)      :      1.79513

                             ****ORCA TERMINATED NORMALLY****
TOTAL RUN TIME: 0 days 0 hours 23 minutes 25 seconds 944 msec
