                         Program Version 3.0.3 - RELEASE   -
|  1> ! RI-MP2 RIJK def2-TZVP def2-TZVP/C def2-TZVP/JK TIGHTSCF
|  2> % maxcore 2000
|  3> % mp2 density relaxed end
|  4> *xyz 0 1
|  5>  O        0.0583174270     1.3048058814    -0.4982885604
|  6>  C       -0.0250904759     0.0085729714     0.0837924674
|  7>  C       -1.4473567924    -0.4487787580     0.0197104845
|  8>  N       -1.7343201517    -1.7116618250    -0.2702179874
|  9>  N       -3.0911739474    -1.7687014034    -0.1947985341
| 10>  C       -3.6410801280    -0.5747330241     0.1173921003
| 11>  O       -4.9858657773    -0.4868743496     0.2094373880
| 12>  C       -2.6082247630     0.3242717692     0.2737098471
| 13>  H        0.9492535132     1.6350965051    -0.3498304422
| 14>  H        0.6015656331    -0.7260349214    -0.4413163784
| 15>  H        0.3094595638     0.0367322931     1.1340918493
| 16>  H       -3.5752290742    -2.6273664373    -0.3925301971
| 17>  H       -5.2195811387     0.4224355083     0.4196240866
| 18>  H       -2.6691299185     1.3729125204     0.5111612263
| 19> *
| 20>
| 21>                          ****END OF INPUT****

CARTESIAN COORDINATES (ANGSTROEM)
---------------------------------
  O      0.058317    1.304806   -0.498289
  C     -0.025090    0.008573    0.083792
  C     -1.447357   -0.448779    0.019710
  N     -1.734320   -1.711662   -0.270218
  N     -3.091174   -1.768701   -0.194799
  C     -3.641080   -0.574733    0.117392
  O     -4.985866   -0.486874    0.209437
  C     -2.608225    0.324272    0.273710
  H      0.949254    1.635097   -0.349830
  H      0.601566   -0.726035   -0.441316
  H      0.309460    0.036732    1.134092
  H     -3.575229   -2.627366   -0.392530
  H     -5.219581    0.422436    0.419624
  H     -2.669130    1.372913    0.511161

 Total Charge           Charge          ....    0
 Multiplicity           Mult            ....    1
 Number of Electrons    NEL             ....   60
 Basis Dimension        Dim             ....  284

ORBITAL ENERGIES
----------------

  NO   OCC          E(Eh)            E(eV)
   0   2.0000     -20.615816      -560.9849
   1   2.0000     -20.559430      -559.4505
   2   2.0000     -15.624315      -425.1592
   3   2.0000     -15.573652      -423.7806
   4   2.0000     -11.342113      -308.6346
   5   2.0000     -11.282342      -307.0081
   6   2.0000     -11.257843      -306.3415
   7   2.0000     -11.210413      -305.0508
   8   2.0000      -1.441480       -39.2247
   9   2.0000      -1.365161       -37.1479
  10   2.0000      -1.353568       -36.8325
  11   2.0000      -1.104517       -30.0554
  12   2.0000      -1.042361       -28.3641
  13   2.0000      -0.946218       -25.7479
  14   2.0000      -0.837417       -22.7873
  15   2.0000      -0.770203       -20.9583
  16   2.0000      -0.758905       -20.6509
  17   2.0000      -0.701748       -19.0955
  18   2.0000      -0.678220       -18.4553
  19   2.0000      -0.645124       -17.5547
  20   2.0000      -0.630127       -17.1466
  21   2.0000      -0.601905       -16.3787
  22   2.0000      -0.589529       -16.0419
  23   2.0000      -0.564091       -15.3497
  24   2.0000      -0.553499       -15.0615
  25   2.0000      -0.511741       -13.9252
  26   2.0000      -0.456948       -12.4342
  27   2.0000      -0.450280       -12.2527
  28   2.0000      -0.358219        -9.7476
  29   2.0000      -0.327176        -8.9029
  30   0.0000       0.125068         3.4033
  31   0.0000       0.134184         3.6513
  32   0.0000       0.156083         4.2472
  33   0.0000       0.178155         4.8479
  34   0.0000       0.191447         5.2095

MULLIKEN ATOMIC CHARGES
-----------------------
   0 O :   -0.466120
   1 C :   -0.118196
   2 C :    0.065152
   3 N :   -0.222700
   4 N :   -0.125298
   5 C :    0.237908
   6 O :   -0.431641
   7 C :   -0.240396
   8 H :    0.315918
   9 H :    0.118855
  10 H :    0.106783
  11 H :    0.259961
  12 H :    0.349335
  13 H :    0.150439
Sum of atomic charges:    0.0000000

LOEWDIN ATOMIC CHARGES
----------------------
   0 O :   -0.047353
   1 C :   -0.310741
   2 C :   -0.292924
   3 N :    0.041363
   4 N :    0.140390
   5 C :   -0.381018
   6 O :    0.071748
   7 C :   -0.182458
   8 H :    0.171908
   9 H :    0.127640
  10 H :    0.122954
  11 H :    0.190062
  12 H :    0.204010
  13 H :    0.144417

  Mayer bond orders larger than 0.1
B(  0-O ,  1-C ) :   1.0534 B(  0-O ,  2-C ) :  -0.1195 B(  0-O ,  8-H ) :   0.8487
B(  1-C ,  2-C ) :   0.8965 B(  1-C ,  9-H ) :   0.9445 B(  1-C , 10-H ) :   0.9270
B(  2-C ,  3-N ) :   1.6233 B(  2-C ,  7-C ) :   1.2624 B(  3-N ,  4-N ) :   1.0151
B(  4-N ,  5-C ) :   1.2153 B(  4-N , 11-H ) :   0.8687 B(  5-C ,  6-O ) :   1.1087
B(  5-C ,  7-C ) :   1.4068 B(  6-O , 12-H ) :   0.8256 B(  7-C , 13-H ) :   0.9050

MP2 TOTAL ENERGY:     -415.208355541 Eh
FINAL SINGLE POINT ENERGY      -415.208355540934

DIPOLE MOMENT
-------------
                                X             Y             Z
Electronic contribution:     -3.58631      -1.85485      -0.55031
Nuclear contribution   :      3.25574       2.27823       1.03384
                        -----------------------------------------
Total Dipole Moment    :     -0.33057       0.42337       0.48353
                        -----------------------------------------
Magnitude (a.u.)       :      0.72272
Magnitude (Debye)      :      1.83701

                             ****ORCA TERMINATED NORMALLY****
TOTAL RUN TIME: 0 days 0 hours 9 minutes 33 seconds 13 msec
