                         Program Version 3.0.3 - RELEASE   -
|  1> ! RI-MP2 RIJK def2-TZVP def2-TZVP/C def2-TZVP/JK TIGHTSCF
|  2> % maxcore 2000
|  3> % mp2 density relaxed end
|  4> *xyz 0 1
|  5>  C       -0.0568228009     1.4389509650     0.2044361672
|  6>  C       -0.0140070190    -0.0144560070     0.2842521156
|  7>  C        0.0321471784    -1.2156011195     0.3550248432
|  8>  C        0.0487976380    -2.6743574874     0.4276614152
|  9>  C       -1.3232036298    -3.2795507839     0.1155065249
| 10>  C       -1.9084014557    -3.3670900245    -1.3214803339
| 11>  C       -0.9301636811    -4.5109042866    -1.6813473325
| 12>  C       -1.5291615384    -4.7714474779    -0.2776982230
| 13>  O       -2.8557310314    -4.3920198310    -0.8169147038
| 14>  H        0.4673912815     1.8059621745    -0.6849722087
| 15>  H       -1.0884394193     1.8046936520     0.1539249226
| 16>  H        0.4141612148     1.9003920709     1.0795182062
| 17>  H        0.8185962258    -3.0675335050    -0.2456875570
| 18>  H        0.3453276605    -2.9897455978     1.4373714360
| 19>  H       -2.0756994201    -2.9415547420     0.8313707500
| 20>  H       -2.3132592208    -2.5748083564    -1.9509207709
| 21>  H       -1.2898437967    -5.1863379796    -2.4580376268
| 22>  H        0.1351851574    -4.2929137753    -1.7783269166
| 23>  H       -1.4786155132    -5.6662308984     0.3441417223
| 24> *
| 25>
| 26>                          ****END OF INPUT****

CARTESIAN COORDINATES (ANGSTROEM)
---------------------------------
  C     -0.056823    1.438951    0.204436
  C     -0.014007   -0.014456    0.284252
  C      0.032147   -1.215601    0.355025
  C      0.048798   -2.674357    0.427661
  C     -1.323204   -3.279551    0.115507
  C     -1.908401   -3.367090   -1.321480
  C     -0.930164   -4.510904   -1.681347
  C     -1.529162   -4.771447   -0.277698
  O     -2.855731   -4.392020   -0.816915
  H      0.467391    1.805962   -0.684972
  H     -1.088439    1.804694    0.153925
  H      0.414161    1.900392    1.079518
  H      0.818596   -3.067534   -0.245688
  H      0.345328   -2.989746    1.437371
  H     -2.075699   -2.941555    0.831371
  H     -2.313259   -2.574808   -1.950921
  H     -1.289844   -5.186338   -2.458038
  H      0.135185   -4.292914   -1.778327
  H     -1.478616   -5.666231    0.344142

 Total Charge           Charge          ....    0
 Multiplicity           Mult            ....    1
 Number of Electrons    NEL             ....   66
 Basis Dimension        Dim             ....  339

ORBITAL ENERGIES
----------------

  NO   OCC          E(Eh)            E(eV)
   0   2.0000     -20.546689      -559.1038
   1   2.0000     -11.300632      -307.5058
   2   2.0000     -11.298648      -307.4518
   3   2.0000     -11.255430      -306.2758
   4   2.0000     -11.247017      -306.0469
   5   2.0000     -11.246968      -306.0456
   6   2.0000     -11.237082      -305.7766
   7   2.0000     -11.224061      -305.4222
   8   2.0000     -11.219234      -305.2909
   9   2.0000      -1.394255       -37.9396
  10   2.0000      -1.102098       -29.9896
  11   2.0000      -1.057345       -28.7718
  12   2.0000      -1.010533       -27.4980
  13   2.0000      -0.940168       -25.5833
  14   2.0000      -0.889918       -24.2159
  15   2.0000      -0.883111       -24.0307
  16   2.0000      -0.733208       -19.9516
  17   2.0000      -0.703351       -19.1391
  18   2.0000      -0.669349       -18.2139
  19   2.0000      -0.646021       -17.5791
  20   2.0000      -0.612986       -16.6802
  21   2.0000      -0.611885       -16.6502
  22   2.0000      -0.587593       -15.9892
  23   2.0000      -0.584642       -15.9089
  24   2.0000      -0.565221       -15.3804
  25   2.0000      -0.541631       -14.7385
  26   2.0000      -0.497029       -13.5248
  27   2.0000      -0.480722       -13.0811
  28   2.0000      -0.470120       -12.7926
  29   2.0000      -0.449078       -12.2200
  30   2.0000      -0.413366       -11.2482
  31   2.0000      -0.368758       -10.0344
  32   2.0000      -0.367121        -9.9899
  33   0.0000       0.132210         3.5976
  34   0.0000       0.149609         4.0711
  35   0.0000       0.166181         4.5220
  36   0.0000       0.175398         4.7728
  37   0.0000       0.179077         4.8729

MULLIKEN ATOMIC CHARGES
-----------------------
   0 C :   -0.481134
   1 C :    0.038691
   2 C :   -0.037305
   3 C :   -0.325915
   4 C :   -0.012345
   5 C :   -0.050793
   6 C :   -0.173517
   7 C :   -0.042050
   8 O :   -0.308589
   9 H :    0.160691
  10 H :    0.162038
  11 H :    0.161910
  12 H :    0.142159
  13 H :    0.143951
  14 H :    0.118000
  15 H :    0.136883
  16 H :    0.120607
  17 H :    0.111727
  18 H :    0.134992
Sum of atomic charges:   -0.0000000

LOEWDIN ATOMIC CHARGES
----------------------
   0 C :   -0.296034
   1 C :   -0.108011
   2 C :   -0.086561
   3 C :   -0.233730
   4 C :   -0.179580
   5 C :   -0.206456
   6 C :   -0.202788
   7 C :   -0.213153
   8 O :    0.128749
   9 H :    0.140152
  10 H :    0.140596
  11 H :    0.140611
  12 H :    0.154426
  13 H :    0.159570
  14 H :    0.155601
  15 H :    0.125359
  16 H :    0.133642
  17 H :    0.124344
  18 H :    0.123264

  Mayer bond orders larger than 0.1
B(  0-C ,  1-C ) :   0.8565 B(  0-C ,  9-H ) :   0.9475 B(  0-C , 10-H ) :   0.9458
B(  0-C , 11-H ) :   0.9496 B(  1-C ,  2-C ) :   2.6948 B(  2-C ,  3-C ) :   1.0074
B(  3-C ,  4-C ) :   0.9001 B(  3-C , 12-H ) :   0.9336 B(  3-C , 13-H ) :   0.9192
B(  4-C ,  5-C ) :   0.9282 B(  4-C ,  7-C ) :   0.9051 B(  4-C , 14-H ) :   0.9167
B(  5-C ,  6-C ) :   0.9018 B(  5-C ,  8-O ) :   0.9158 B(  5-C , 15-H ) :   0.8874
B(  6-C ,  7-C ) :   0.9159 B(  6-C , 16-H ) :   0.9193 B(  6-C , 17-H ) :   0.9184
B(  7-C ,  8-O ) :   0.9087 B(  7-C , 18-H ) :   0.8925

MP2 TOTAL ENERGY:     -385.103894308 Eh
FINAL SINGLE POINT ENERGY      -385.103894307956

DIPOLE MOMENT
-------------
                                X             Y             Z
Electronic contribution:     -2.73741      -3.74556       0.09429
Nuclear contribution   :      3.50010       4.08053      -0.07310
                        -----------------------------------------
Total Dipole Moment    :      0.76269       0.33497       0.02119
                        -----------------------------------------
Magnitude (a.u.)       :      0.83328
Magnitude (Debye)      :      2.11802

                             ****ORCA TERMINATED NORMALLY****
TOTAL RUN TIME: 0 days 0 hours 16 minutes 59 seconds 669 msec
