                         Program Version 3.0.3 - RELEASE   -
|  1> ! RI-MP2 RIJK def2-TZVP def2-TZVP/C def2-TZVP/JK TIGHTSCF
|  2> % maxcore 2000
|  3> % mp2 density relaxed end
|  4> *xyz 0 1
|  5>  C       -0.0711168034     1.6099045145     0.1157731725
|  6>  C        0.0218140098     0.0916554279     0.1161352799
|  7>  C        1.0500772514    -0.6022369426    -0.8707696506
|  8>  C        1.7170307891    -1.2853873123     0.3261123780
|  9>  O        2.1174089586    -2.6081549055     0.3335836400
| 10>  C        2.2248567916    -0.2695966630     1.3030743760
| 11>  C        0.7488507344    -0.6135832047     1.2878964172
| 12>  C       -1.3342631758    -0.5527790930    -0.0773411531
| 13>  O       -2.3725160867     0.0420600459    -0.2130200249
| 14>  H        0.9101906499     2.0698289651     0.2596123044
| 15>  H       -0.4850558971     1.9710928275    -0.8300121070
| 16>  H       -0.7346399153     1.9558736121     0.9133734748
| 17>  H        0.5695910702    -1.3198469343    -1.5411989412
| 18>  H        1.6671058780     0.0814000449    -1.4621442788
| 19>  H        3.0503111838    -2.6467732925     0.0955199979
| 20>  H        2.7547287252    -0.6965335230     2.1489634889
| 21>  H        2.5886584937     0.7043424744     0.9854788969
| 22>  H        0.2623118221    -1.0121088373     2.1702828808
| 23>  H       -1.3052314595    -1.6675715443    -0.0850249218
| 24> *
| 25>
| 26>                          ****END OF INPUT****

CARTESIAN COORDINATES (ANGSTROEM)
---------------------------------
  C     -0.071117    1.609905    0.115773
  C      0.021814    0.091655    0.116135
  C      1.050077   -0.602237   -0.870770
  C      1.717031   -1.285387    0.326112
  O      2.117409   -2.608155    0.333584
  C      2.224857   -0.269597    1.303074
  C      0.748851   -0.613583    1.287896
  C     -1.334263   -0.552779   -0.077341
  O     -2.372516    0.042060   -0.213020
  H      0.910191    2.069829    0.259612
  H     -0.485056    1.971093   -0.830012
  H     -0.734640    1.955874    0.913373
  H      0.569591   -1.319847   -1.541199
  H      1.667106    0.081400   -1.462144
  H      3.050311   -2.646773    0.095520
  H      2.754729   -0.696534    2.148963
  H      2.588658    0.704342    0.985479
  H      0.262312   -1.012109    2.170283
  H     -1.305231   -1.667572   -0.085025

 Total Charge           Charge          ....    0
 Multiplicity           Mult            ....    1
 Number of Electrons    NEL             ....   68
 Basis Dimension        Dim             ....  339

ORBITAL ENERGIES
----------------

  NO   OCC          E(Eh)            E(eV)
   0   2.0000     -20.579781      -560.0043
   1   2.0000     -20.553856      -559.2989
   2   2.0000     -11.326548      -308.2110
   3   2.0000     -11.303386      -307.5808
   4   2.0000     -11.257891      -306.3428
   5   2.0000     -11.248085      -306.0760
   6   2.0000     -11.244859      -305.9882
   7   2.0000     -11.242589      -305.9264
   8   2.0000     -11.217823      -305.2525
   9   2.0000      -1.393955       -37.9315
  10   2.0000      -1.391574       -37.8667
  11   2.0000      -1.202271       -32.7154
  12   2.0000      -1.047178       -28.4952
  13   2.0000      -0.962075       -26.1794
  14   2.0000      -0.904977       -24.6257
  15   2.0000      -0.830040       -22.5865
  16   2.0000      -0.799585       -21.7578
  17   2.0000      -0.733444       -19.9580
  18   2.0000      -0.717650       -19.5282
  19   2.0000      -0.674142       -18.3443
  20   2.0000      -0.649293       -17.6682
  21   2.0000      -0.642586       -17.4856
  22   2.0000      -0.624340       -16.9892
  23   2.0000      -0.584073       -15.8934
  24   2.0000      -0.572618       -15.5817
  25   2.0000      -0.552469       -15.0335
  26   2.0000      -0.548200       -14.9173
  27   2.0000      -0.527668       -14.3586
  28   2.0000      -0.519187       -14.1278
  29   2.0000      -0.484200       -13.1757
  30   2.0000      -0.453234       -12.3331
  31   2.0000      -0.435267       -11.8442
  32   2.0000      -0.399034       -10.8583
  33   2.0000      -0.390714       -10.6319
  34   0.0000       0.121605         3.3090
  35   0.0000       0.142324         3.8728
  36   0.0000       0.145674         3.9640
  37   0.0000       0.164446         4.4748
  38   0.0000       0.176327         4.7981

MULLIKEN ATOMIC CHARGES
-----------------------
   0 C :   -0.406368
   1 C :    0.191035
   2 C :   -0.267507
   3 C :    0.151062
   4 O :   -0.451249
   5 C :   -0.316825
   6 C :   -0.152942
   7 C :   -0.002079
   8 O :   -0.259943
   9 H :    0.122560
  10 H :    0.141645
  11 H :    0.141390
  12 H :    0.130995
  13 H :    0.127713
  14 H :    0.330505
  15 H :    0.142767
  16 H :    0.131101
  17 H :    0.144594
  18 H :    0.101545
Sum of atomic charges:    0.0000000

LOEWDIN ATOMIC CHARGES
----------------------
   0 C :   -0.265305
   1 C :   -0.248872
   2 C :   -0.146973
   3 C :   -0.338329
   4 O :    0.031606
   5 C :   -0.191061
   6 C :   -0.122767
   7 C :   -0.258228
   8 O :    0.140452
   9 H :    0.123840
  10 H :    0.132614
  11 H :    0.133780
  12 H :    0.144089
  13 H :    0.134483
  14 H :    0.187362
  15 H :    0.145889
  16 H :    0.130437
  17 H :    0.143755
  18 H :    0.123229

  Mayer bond orders larger than 0.1
B(  0-C ,  1-C ) :   0.9136 B(  0-C ,  9-H ) :   0.9324 B(  0-C , 10-H ) :   0.9298
B(  0-C , 11-H ) :   0.9312 B(  1-C ,  2-C ) :   0.8830 B(  1-C ,  6-C ) :   0.8750
B(  1-C ,  7-C ) :   0.7985 B(  2-C ,  3-C ) :   0.9556 B(  2-C , 12-H ) :   0.9154
B(  2-C , 13-H ) :   0.8988 B(  3-C ,  4-O ) :   1.0547 B(  3-C ,  5-C ) :   0.9227
B(  3-C ,  6-C ) :   0.8494 B(  4-O , 14-H ) :   0.8327 B(  5-C ,  6-C ) :   0.8576
B(  5-C , 15-H ) :   0.9316 B(  5-C , 16-H ) :   0.8997 B(  6-C , 17-H ) :   0.9044
B(  7-C ,  8-O ) :   2.0171 B(  7-C , 18-H ) :   0.9586

MP2 TOTAL ENERGY:     -422.297530592 Eh
FINAL SINGLE POINT ENERGY      -422.297530592391

DIPOLE MOMENT
-------------
                                X             Y             Z
Electronic contribution:     -2.96540      -3.99639      -0.15623
Nuclear contribution   :      4.40314       3.99468       0.17689
                        -----------------------------------------
Total Dipole Moment    :      1.43774      -0.00172       0.02066
                        -----------------------------------------
Magnitude (a.u.)       :      1.43789
Magnitude (Debye)      :      3.65482

                             ****ORCA TERMINATED NORMALLY****
TOTAL RUN TIME: 0 days 0 hours 18 minutes 13 seconds 9 msec
