                         Program Version 3.0.3 - RELEASE   -
|  1> ! RI-MP2 RIJK def2-TZVP def2-TZVP/C def2-TZVP/JK TIGHTSCF
|  2> % maxcore 2000
|  3> % mp2 density relaxed end
|  4> *xyz 0 1
|  5>  C       -0.0277035620     1.4517306908     0.0145282969
|  6>  N       -0.0108682010    -0.0018148817     0.0776129020
|  7>  N       -0.0275487895    -0.7073288121    -1.0568902301
|  8>  N       -0.0072437377    -1.9829745083    -0.7507912653
|  9>  C        0.0225566557    -2.0974453700     0.5943681035
| 10>  C        0.0213664945    -0.8331947355     1.1614219574
| 11>  C        0.0466239348    -0.3719960952     2.5586907026
| 12>  C        0.0808977875    -1.4501633537     3.6239013069
| 13>  O        0.0401603884     0.8122750594     2.8374850079
| 14>  H        0.8637334448     1.8606294884     0.4917302549
| 15>  H       -0.0553291266     1.7159671405    -1.0422202091
| 16>  H       -0.9040208066     1.8418846304     0.5334970118
| 17>  H        0.0431948158    -3.0600233700     1.0802160989
| 18>  H        0.9686248522    -2.0804732519     3.5052130530
| 19>  H        0.0949960577    -0.9783656632     4.6065383449
| 20>  H       -0.7951209180    -2.1021074178     3.5406510037
| 21> *
| 22>
| 23>                          ****END OF INPUT****

CARTESIAN COORDINATES (ANGSTROEM)
---------------------------------
  C     -0.027704    1.451731    0.014528
  N     -0.010868   -0.001815    0.077613
  N     -0.027549   -0.707329   -1.056890
  N     -0.007244   -1.982975   -0.750791
  C      0.022557   -2.097445    0.594368
  C      0.021366   -0.833195    1.161422
  C      0.046624   -0.371996    2.558691
  C      0.080898   -1.450163    3.623901
  O      0.040160    0.812275    2.837485
  H      0.863733    1.860629    0.491730
  H     -0.055329    1.715967   -1.042220
  H     -0.904021    1.841885    0.533497
  H      0.043195   -3.060023    1.080216
  H      0.968625   -2.080473    3.505213
  H      0.094996   -0.978366    4.606538
  H     -0.795121   -2.102107    3.540651

 Total Charge           Charge          ....    0
 Multiplicity           Mult            ....    1
 Number of Electrons    NEL             ....   66
 Basis Dimension        Dim             ....  321

ORBITAL ENERGIES
----------------

  NO   OCC          E(Eh)            E(eV)
   0   2.0000     -20.565673      -559.6204
   1   2.0000     -15.676489      -426.5790
   2   2.0000     -15.654395      -425.9777
   3   2.0000     -15.602768      -424.5729
   4   2.0000     -11.362302      -309.1840
   5   2.0000     -11.292458      -307.2834
   6   2.0000     -11.282047      -307.0001
   7   2.0000     -11.277801      -306.8846
   8   2.0000     -11.252413      -306.1937
   9   2.0000      -1.452536       -39.5255
  10   2.0000      -1.408116       -38.3168
  11   2.0000      -1.228034       -33.4165
  12   2.0000      -1.112266       -30.2663
  13   2.0000      -1.028560       -27.9885
  14   2.0000      -0.997104       -27.1326
  15   2.0000      -0.885296       -24.0901
  16   2.0000      -0.842596       -22.9282
  17   2.0000      -0.776291       -21.1239
  18   2.0000      -0.714430       -19.4406
  19   2.0000      -0.683747       -18.6057
  20   2.0000      -0.665266       -18.1028
  21   2.0000      -0.646746       -17.5989
  22   2.0000      -0.617869       -16.8131
  23   2.0000      -0.612601       -16.6697
  24   2.0000      -0.584045       -15.8927
  25   2.0000      -0.578131       -15.7317
  26   2.0000      -0.576538       -15.6884
  27   2.0000      -0.526132       -14.3168
  28   2.0000      -0.520613       -14.1666
  29   2.0000      -0.454707       -12.3732
  30   2.0000      -0.444637       -12.0992
  31   2.0000      -0.411026       -11.1846
  32   2.0000      -0.371664       -10.1135
  33   0.0000       0.071154         1.9362
  34   0.0000       0.125030         3.4022
  35   0.0000       0.152084         4.1384
  36   0.0000       0.154615         4.2073
  37   0.0000       0.185948         5.0599

MULLIKEN ATOMIC CHARGES
-----------------------
   0 C :   -0.306272
   1 N :    0.157801
   2 N :   -0.168963
   3 N :   -0.144923
   4 C :   -0.117079
   5 C :   -0.039661
   6 C :    0.211218
   7 C :   -0.412372
   8 O :   -0.303575
   9 H :    0.161206
  10 H :    0.175440
  11 H :    0.161336
  12 H :    0.154215
  13 H :    0.154978
  14 H :    0.161754
  15 H :    0.154899
Sum of atomic charges:    0.0000000

LOEWDIN ATOMIC CHARGES
----------------------
   0 C :   -0.259581
   1 N :    0.202637
   2 N :   -0.017364
   3 N :    0.016452
   4 C :   -0.237707
   5 C :   -0.213524
   6 C :   -0.329926
   7 C :   -0.264896
   8 O :    0.149863
   9 H :    0.130494
  10 H :    0.133267
  11 H :    0.130510
  12 H :    0.141153
  13 H :    0.140660
  14 H :    0.137374
  15 H :    0.140589

  Mayer bond orders larger than 0.1
B(  0-C ,  1-N ) :   0.8429 B(  0-C ,  9-H ) :   0.9275 B(  0-C , 10-H ) :   0.9151
B(  0-C , 11-H ) :   0.9275 B(  1-N ,  2-N ) :   1.0319 B(  1-N ,  5-C ) :   1.1832
B(  2-N ,  3-N ) :   1.2280 B(  2-N ,  5-C ) :   0.1124 B(  3-N ,  4-C ) :   1.4299
B(  4-C ,  5-C ) :   1.3328 B(  4-C , 12-H ) :   0.9400 B(  5-C ,  6-C ) :   0.9144
B(  6-C ,  7-C ) :   0.9588 B(  6-C ,  8-O ) :   1.9333 B(  7-C , 13-H ) :   0.9141
B(  7-C , 14-H ) :   0.9344 B(  7-C , 15-H ) :   0.9142

MP2 TOTAL ENERGY:     -433.366956890 Eh
FINAL SINGLE POINT ENERGY      -433.366956890445

DIPOLE MOMENT
-------------
                                X             Y             Z
Electronic contribution:     -0.07909      -0.76206      -4.05874
Nuclear contribution   :      0.10038       0.91094       5.13281
                        -----------------------------------------
Total Dipole Moment    :      0.02129       0.14888       1.07407
                        -----------------------------------------
Magnitude (a.u.)       :      1.08455
Magnitude (Debye)      :      2.75671

                             ****ORCA TERMINATED NORMALLY****
TOTAL RUN TIME: 0 days 0 hours 18 minutes 7 seconds 918 msec
