                         Program Version 3.0.3 - RELEASE   -
|  1> ! RI-MP2 RIJK def2-TZVP def2-TZVP/C def2-TZVP/JK TIGHTSCF
|  2> % maxcore 2000
|  3> % mp2 density relaxed end
|  4> *xyz 0 1
|  5>  N        0.1696396642     1.4858976710    -0.0321452449
|  6>  C        0.0383722841     0.0468844938     0.0439912058
|  7>  C        0.6074025777    -0.5510947317     1.3113034485
|  8>  C       -0.1278667031    -1.5516608448     1.7849273464
|  9>  C       -1.3452123661    -1.8162900501     0.9328363870
| 10>  C       -1.4389675548    -0.5357970039     0.0555213534
| 11>  O       -2.2447255375     0.4572337050     0.6707060273
| 12>  C       -1.9359374212    -0.8100404956    -1.3036273976
| 13>  N       -2.3327503878    -1.0142078982    -2.3704536045
| 14>  H       -0.1132110204     1.8191105369    -0.9487870568
| 15>  H       -0.4569038137     1.9181961789     0.6401178074
| 16>  H        0.5609090973    -0.3765945902    -0.8239619852
| 17>  H        1.5388971993    -0.1831029427     1.7232816670
| 18>  H        0.1073152702    -2.1523929466     2.6554640038
| 19>  H       -1.2171219804    -2.7129494107     0.3131151428
| 20>  H       -2.2672399580    -1.9584656853     1.5089455416
| 21>  H       -3.1466833698     0.1244451041     0.7324143979
| 22> *
| 23>
| 24>                          ****END OF INPUT****

CARTESIAN COORDINATES (ANGSTROEM)
---------------------------------
  N      0.169640    1.485898   -0.032145
  C      0.038372    0.046884    0.043991
  C      0.607403   -0.551095    1.311303
  C     -0.127867   -1.551661    1.784927
  C     -1.345212   -1.816290    0.932836
  C     -1.438968   -0.535797    0.055521
  O     -2.244726    0.457234    0.670706
  C     -1.935937   -0.810040   -1.303627
  N     -2.332750   -1.014208   -2.370454
  H     -0.113211    1.819111   -0.948787
  H     -0.456904    1.918196    0.640118
  H      0.560909   -0.376595   -0.823962
  H      1.538897   -0.183103    1.723282
  H      0.107315   -2.152393    2.655464
  H     -1.217122   -2.712949    0.313115
  H     -2.267240   -1.958466    1.508946
  H     -3.146683    0.124445    0.732414

 Total Charge           Charge          ....    0
 Multiplicity           Mult            ....    1
 Number of Electrons    NEL             ....   66
 Basis Dimension        Dim             ....  327

ORBITAL ENERGIES
----------------

  NO   OCC          E(Eh)            E(eV)
   0   2.0000     -20.593434      -560.3758
   1   2.0000     -15.581164      -423.9850
   2   2.0000     -15.550356      -423.1467
   3   2.0000     -11.345801      -308.7349
   4   2.0000     -11.286193      -307.1129
   5   2.0000     -11.278020      -306.8905
   6   2.0000     -11.260122      -306.4035
   7   2.0000     -11.246299      -306.0273
   8   2.0000     -11.240344      -305.8653
   9   2.0000      -1.407135       -38.2901
  10   2.0000      -1.227097       -33.3910
  11   2.0000      -1.206203       -32.8225
  12   2.0000      -1.129751       -30.7421
  13   2.0000      -1.005633       -27.3647
  14   2.0000      -0.961086       -26.1525
  15   2.0000      -0.844383       -22.9768
  16   2.0000      -0.780187       -21.2300
  17   2.0000      -0.759296       -20.6615
  18   2.0000      -0.702991       -19.1294
  19   2.0000      -0.670344       -18.2410
  20   2.0000      -0.653442       -17.7811
  21   2.0000      -0.606418       -16.5015
  22   2.0000      -0.586322       -15.9546
  23   2.0000      -0.580455       -15.7950
  24   2.0000      -0.571096       -15.5403
  25   2.0000      -0.553415       -15.0592
  26   2.0000      -0.541506       -14.7351
  27   2.0000      -0.514094       -13.9892
  28   2.0000      -0.498092       -13.5538
  29   2.0000      -0.475423       -12.9369
  30   2.0000      -0.465039       -12.6544
  31   2.0000      -0.403546       -10.9810
  32   2.0000      -0.370727       -10.0880
  33   0.0000       0.111319         3.0291
  34   0.0000       0.133590         3.6352
  35   0.0000       0.149080         4.0567
  36   0.0000       0.154254         4.1975
  37   0.0000       0.170210         4.6317

MULLIKEN ATOMIC CHARGES
-----------------------
   0 N :   -0.537407
   1 C :    0.116346
   2 C :   -0.234345
   3 C :   -0.139844
   4 C :   -0.205961
   5 C :    0.331412
   6 O :   -0.465113
   7 C :   -0.300520
   8 N :   -0.046236
   9 H :    0.231794
  10 H :    0.247381
  11 H :    0.127667
  12 H :    0.140493
  13 H :    0.139816
  14 H :    0.141977
  15 H :    0.121870
  16 H :    0.330671
Sum of atomic charges:    0.0000000

LOEWDIN ATOMIC CHARGES
----------------------
   0 N :   -0.125967
   1 C :   -0.261681
   2 C :   -0.131448
   3 C :   -0.149092
   4 C :   -0.189394
   5 C :   -0.332091
   6 O :    0.034265
   7 C :   -0.165131
   8 N :    0.068819
   9 H :    0.160097
  10 H :    0.162754
  11 H :    0.162270
  12 H :    0.145161
  13 H :    0.140335
  14 H :    0.154059
  15 H :    0.142230
  16 H :    0.184815

  Mayer bond orders larger than 0.1
B(  0-N ,  1-C ) :   0.9804 B(  0-N ,  9-H ) :   0.8925 B(  0-N , 10-H ) :   0.8839
B(  1-C ,  2-C ) :   0.9426 B(  1-C ,  5-C ) :   0.8560 B(  1-C , 11-H ) :   0.9163
B(  2-C ,  3-C ) :   1.7730 B(  2-C , 12-H ) :   0.9285 B(  3-C ,  4-C ) :   0.9396
B(  3-C , 13-H ) :   0.9234 B(  4-C ,  5-C ) :   0.9224 B(  4-C , 14-H ) :   0.8999
B(  4-C , 15-H ) :   0.9124 B(  5-C ,  6-O ) :   0.8923 B(  5-C ,  7-C ) :   0.9031
B(  6-O , 16-H ) :   0.8322 B(  7-C ,  8-N ) :   2.8678

MP2 TOTAL ENERGY:     -417.318607249 Eh
FINAL SINGLE POINT ENERGY      -417.318607248502

DIPOLE MOMENT
-------------
                                X             Y             Z
Electronic contribution:     -2.77963      -0.20654      -3.29250
Nuclear contribution   :      2.65375      -0.12179       4.41615
                        -----------------------------------------
Total Dipole Moment    :     -0.12588      -0.32832       1.12365
                        -----------------------------------------
Magnitude (a.u.)       :      1.17739
Magnitude (Debye)      :      2.99268

                             ****ORCA TERMINATED NORMALLY****
TOTAL RUN TIME: 0 days 0 hours 17 minutes 8 seconds 189 msec
