                         Program Version 3.0.3 - RELEASE   -
|  1> ! RI-MP2 RIJK def2-TZVP def2-TZVP/C def2-TZVP/JK TIGHTSCF
|  2> % maxcore 2000
|  3> % mp2 density relaxed end
|  4> *xyz 0 1
|  5>  C       -0.0011233881     1.4991247033     0.0356137065
|  6>  C        1.3085395712     0.7173390353     0.0190066271
|  7>  C       -0.0097897505     0.0082109981    -0.0478587746
|  8>  O       -0.4258656922    -0.7310411366     1.0914170939
|  9>  C       -1.0992366878    -1.9108992201     0.5550739143
| 10>  C       -0.2362893737    -2.2286086023    -0.6772417477
| 11>  C       -0.4922795972    -0.8106662306    -1.2598189132
| 12>  C       -2.0142659971    -0.7598925717    -1.1963905861
| 13>  C       -2.3872936752    -1.4304645728    -0.1010472317
| 14>  H       -0.3043097908     1.9394146071     0.9789508940
| 15>  H       -0.2696512805     2.0776059032    -0.8427191674
| 16>  H        1.9268108916     0.7620771907    -0.8721688748
| 17>  H        1.8573451131     0.6461684078     0.9514696708
| 18>  H       -1.1718117062    -2.6435845477     1.3565068348
| 19>  H        0.8093449039    -2.4218970625    -0.4235996723
| 20>  H       -0.6401110584    -3.0258163866    -1.3025632556
| 21>  H       -0.0204261020    -0.5458238830    -2.2050441828
| 22>  H       -2.6385512430    -0.1792357287    -1.8633390794
| 23>  H       -3.3775520273    -1.5153165130     0.3265755142
| 24> *
| 25>
| 26>                          ****END OF INPUT****

CARTESIAN COORDINATES (ANGSTROEM)
---------------------------------
  C     -0.001123    1.499125    0.035614
  C      1.308540    0.717339    0.019007
  C     -0.009790    0.008211   -0.047859
  O     -0.425866   -0.731041    1.091417
  C     -1.099237   -1.910899    0.555074
  C     -0.236289   -2.228609   -0.677242
  C     -0.492280   -0.810666   -1.259819
  C     -2.014266   -0.759893   -1.196391
  C     -2.387294   -1.430465   -0.101047
  H     -0.304310    1.939415    0.978951
  H     -0.269651    2.077606   -0.842719
  H      1.926811    0.762077   -0.872169
  H      1.857345    0.646168    0.951470
  H     -1.171812   -2.643585    1.356507
  H      0.809345   -2.421897   -0.423600
  H     -0.640111   -3.025816   -1.302563
  H     -0.020426   -0.545824   -2.205044
  H     -2.638551   -0.179236   -1.863339
  H     -3.377552   -1.515317    0.326576

 Total Charge           Charge          ....    0
 Multiplicity           Mult            ....    1
 Number of Electrons    NEL             ....   66
 Basis Dimension        Dim             ....  339

ORBITAL ENERGIES
----------------

  NO   OCC          E(Eh)            E(eV)
   0   2.0000     -20.547888      -559.1365
   1   2.0000     -11.284287      -307.0611
   2   2.0000     -11.281587      -306.9876
   3   2.0000     -11.242768      -305.9313
   4   2.0000     -11.231743      -305.6313
   5   2.0000     -11.226788      -305.4964
   6   2.0000     -11.224174      -305.4253
   7   2.0000     -11.218534      -305.2718
   8   2.0000     -11.217811      -305.2521
   9   2.0000      -1.376608       -37.4594
  10   2.0000      -1.134236       -30.8641
  11   2.0000      -1.126691       -30.6588
  12   2.0000      -0.977406       -26.5966
  13   2.0000      -0.947937       -25.7947
  14   2.0000      -0.824224       -22.4283
  15   2.0000      -0.802929       -21.8488
  16   2.0000      -0.779524       -21.2119
  17   2.0000      -0.711149       -19.3513
  18   2.0000      -0.704653       -19.1746
  19   2.0000      -0.670848       -18.2547
  20   2.0000      -0.632752       -17.2181
  21   2.0000      -0.601325       -16.3629
  22   2.0000      -0.582182       -15.8420
  23   2.0000      -0.559228       -15.2174
  24   2.0000      -0.528652       -14.3854
  25   2.0000      -0.514069       -13.9885
  26   2.0000      -0.510076       -13.8799
  27   2.0000      -0.490415       -13.3449
  28   2.0000      -0.472227       -12.8499
  29   2.0000      -0.470131       -12.7929
  30   2.0000      -0.413243       -11.2449
  31   2.0000      -0.364337        -9.9141
  32   2.0000      -0.353779        -9.6268
  33   0.0000       0.138777         3.7763
  34   0.0000       0.144066         3.9202
  35   0.0000       0.162343         4.4176
  36   0.0000       0.172013         4.6807
  37   0.0000       0.183044         4.9809

MULLIKEN ATOMIC CHARGES
-----------------------
   0 C :   -0.296039
   1 C :   -0.279861
   2 C :    0.170443
   3 O :   -0.307880
   4 C :    0.094468
   5 C :   -0.253077
   6 C :    0.002161
   7 C :   -0.222270
   8 C :   -0.196281
   9 H :    0.131890
  10 H :    0.122551
  11 H :    0.121260
  12 H :    0.131625
  13 H :    0.130292
  14 H :    0.124219
  15 H :    0.127681
  16 H :    0.133920
  17 H :    0.132183
  18 H :    0.132717
Sum of atomic charges:   -0.0000000

LOEWDIN ATOMIC CHARGES
----------------------
   0 C :   -0.205592
   1 C :   -0.207629
   2 C :   -0.301299
   3 O :    0.207211
   4 C :   -0.253975
   5 C :   -0.190190
   6 C :   -0.178902
   7 C :   -0.117409
   8 C :   -0.129519
   9 H :    0.138601
  10 H :    0.132475
  11 H :    0.131158
  12 H :    0.137311
  13 H :    0.138271
  14 H :    0.139507
  15 H :    0.140618
  16 H :    0.148722
  17 H :    0.135961
  18 H :    0.134679

  Mayer bond orders larger than 0.1
B(  0-C ,  1-C ) :   0.9406 B(  0-C ,  2-C ) :   0.8500 B(  0-C ,  9-H ) :   0.9173
B(  0-C , 10-H ) :   0.9153 B(  1-C ,  2-C ) :   0.8615 B(  1-C , 11-H ) :   0.9120
B(  1-C , 12-H ) :   0.9183 B(  2-C ,  3-O ) :   0.9879 B(  2-C ,  6-C ) :   0.8698
B(  3-O ,  4-C ) :   0.8888 B(  4-C ,  5-C ) :   0.9605 B(  4-C ,  8-C ) :   0.9393
B(  4-C , 13-H ) :   0.9228 B(  5-C ,  6-C ) :   0.9278 B(  5-C , 14-H ) :   0.9243
B(  5-C , 15-H ) :   0.9206 B(  6-C ,  7-C ) :   0.9312 B(  6-C , 16-H ) :   0.9036
B(  7-C ,  8-C ) :   1.7922 B(  7-C , 17-H ) :   0.9266 B(  8-C , 18-H ) :   0.9285

MP2 TOTAL ENERGY:     -385.191120682 Eh
FINAL SINGLE POINT ENERGY      -385.191120681861

DIPOLE MOMENT
-------------
                                X             Y             Z
Electronic contribution:     -1.84220      -1.36923       1.66378
Nuclear contribution   :      1.77853       1.20754      -2.21085
                        -----------------------------------------
Total Dipole Moment    :     -0.06367      -0.16169      -0.54706
                        -----------------------------------------
Magnitude (a.u.)       :      0.57400
Magnitude (Debye)      :      1.45899

                             ****ORCA TERMINATED NORMALLY****
TOTAL RUN TIME: 0 days 0 hours 20 minutes 0 seconds 728 msec
