                         Program Version 3.0.3 - RELEASE   -
|  1> ! RI-MP2 RIJK def2-TZVP def2-TZVP/C def2-TZVP/JK TIGHTSCF
|  2> % maxcore 2000
|  3> % mp2 density relaxed end
|  4> *xyz 0 1
|  5>  C       -0.5324220898     0.8390846059    -0.2227261006
|  6>  C       -0.5266263054    -0.6554976179     0.0916439283
|  7>  N        0.3542371960    -0.9463663449     1.2222970017
|  8>  C        1.8341959455    -0.6106223221     1.3299629413
|  9>  C        1.8217797201    -1.5682949819     2.5549789066
| 10>  C        1.0465578500    -2.2722807119     1.4002546789
| 11>  C        2.2233941480    -1.8583248411     0.4441416814
| 12>  C        2.1350939183    -1.7940959802    -1.0770541452
| 13>  O        3.4161819134    -2.5554579271     0.7773219922
| 14>  H        0.4261008884     1.1659603826    -0.6407291184
| 15>  H       -1.3135657533     1.0791330262    -0.9499721211
| 16>  H       -0.7164159191     1.4171599364     0.6878972901
| 17>  H       -1.5321095776    -0.9526837904     0.4188734112
| 18>  H       -0.3374913073    -1.2291138539    -0.8260203131
| 19>  H        2.2013670683     0.4167721665     1.2784075875
| 20>  H        2.7694040792    -1.9998378398     2.8621348490
| 21>  H        1.1861653029    -1.2362394738     3.3740532670
| 22>  H        0.4986721172    -3.2169313338     1.4272832104
| 23>  H        1.3892675631    -1.1027377870    -1.4591712111
| 24>  H        3.1033107402    -1.4535336582    -1.4689260038
| 25>  H        1.9475227891    -2.7875031294    -1.4968654123
| 26>  H        4.1231818227    -2.2308601742     0.2105570702
| 27> *
| 28>
| 29>                          ****END OF INPUT****

CARTESIAN COORDINATES (ANGSTROEM)
---------------------------------
  C     -0.532422    0.839085   -0.222726
  C     -0.526626   -0.655498    0.091644
  N      0.354237   -0.946366    1.222297
  C      1.834196   -0.610622    1.329963
  C      1.821780   -1.568295    2.554979
  C      1.046558   -2.272281    1.400255
  C      2.223394   -1.858325    0.444142
  C      2.135094   -1.794096   -1.077054
  O      3.416182   -2.555458    0.777322
  H      0.426101    1.165960   -0.640729
  H     -1.313566    1.079133   -0.949972
  H     -0.716416    1.417160    0.687897
  H     -1.532110   -0.952684    0.418873
  H     -0.337491   -1.229114   -0.826020
  H      2.201367    0.416772    1.278408
  H      2.769404   -1.999838    2.862135
  H      1.186165   -1.236239    3.374053
  H      0.498672   -3.216931    1.427283
  H      1.389268   -1.102738   -1.459171
  H      3.103311   -1.453534   -1.468926
  H      1.947523   -2.787503   -1.496865
  H      4.123182   -2.230860    0.210557

 Total Charge           Charge          ....    0
 Multiplicity           Mult            ....    1
 Number of Electrons    NEL             ....   70
 Basis Dimension        Dim             ....  357

ORBITAL ENERGIES
----------------

  NO   OCC          E(Eh)            E(eV)
   0   2.0000     -20.555998      -559.3571
   1   2.0000     -15.543114      -422.9496
   2   2.0000     -11.295341      -307.3619
   3   2.0000     -11.266582      -306.5793
   4   2.0000     -11.266101      -306.5662
   5   2.0000     -11.242614      -305.9271
   6   2.0000     -11.224287      -305.4284
   7   2.0000     -11.216832      -305.2255
   8   2.0000     -11.213520      -305.1354
   9   2.0000      -1.371049       -37.3081
  10   2.0000      -1.269112       -34.5343
  11   2.0000      -1.070181       -29.1211
  12   2.0000      -1.001363       -27.2485
  13   2.0000      -0.950135       -25.8545
  14   2.0000      -0.869725       -23.6664
  15   2.0000      -0.853828       -23.2338
  16   2.0000      -0.821386       -22.3511
  17   2.0000      -0.723592       -19.6899
  18   2.0000      -0.684886       -18.6367
  19   2.0000      -0.661655       -18.0045
  20   2.0000      -0.644657       -17.5420
  21   2.0000      -0.624262       -16.9870
  22   2.0000      -0.596137       -16.2217
  23   2.0000      -0.576339       -15.6830
  24   2.0000      -0.561573       -15.2812
  25   2.0000      -0.540917       -14.7191
  26   2.0000      -0.526205       -14.3188
  27   2.0000      -0.504421       -13.7260
  28   2.0000      -0.500518       -13.6198
  29   2.0000      -0.482495       -13.1294
  30   2.0000      -0.454745       -12.3742
  31   2.0000      -0.447827       -12.1860
  32   2.0000      -0.446174       -12.1410
  33   2.0000      -0.408912       -11.1271
  34   2.0000      -0.347682        -9.4609
  35   0.0000       0.130314         3.5460
  36   0.0000       0.149961         4.0807
  37   0.0000       0.165823         4.5123
  38   0.0000       0.176680         4.8077
  39   0.0000       0.186320         5.0700

MULLIKEN ATOMIC CHARGES
-----------------------
   0 C :   -0.388779
   1 C :   -0.173702
   2 N :   -0.217421
   3 C :   -0.084039
   4 C :   -0.169852
   5 C :   -0.038707
   6 C :    0.143690
   7 C :   -0.419725
   8 O :   -0.462077
   9 H :    0.118375
  10 H :    0.132979
  11 H :    0.136674
  12 H :    0.119176
  13 H :    0.088734
  14 H :    0.134264
  15 H :    0.134309
  16 H :    0.110976
  17 H :    0.129791
  18 H :    0.133530
  19 H :    0.111197
  20 H :    0.150612
  21 H :    0.309998
Sum of atomic charges:    0.0000000

LOEWDIN ATOMIC CHARGES
----------------------
   0 C :   -0.319621
   1 C :   -0.334743
   2 N :    0.128425
   3 C :   -0.175900
   4 C :   -0.198146
   5 C :   -0.167800
   6 C :   -0.325790
   7 C :   -0.286055
   8 O :    0.008171
   9 H :    0.117106
  10 H :    0.123388
  11 H :    0.125496
  12 H :    0.132164
  13 H :    0.114579
  14 H :    0.122171
  15 H :    0.130881
  16 H :    0.130669
  17 H :    0.124272
  18 H :    0.124750
  19 H :    0.124057
  20 H :    0.131001
  21 H :    0.170924

  Mayer bond orders larger than 0.1
B(  0-C ,  1-C ) :   0.9290 B(  0-C ,  9-H ) :   0.9336 B(  0-C , 10-H ) :   0.9378
B(  0-C , 11-H ) :   0.9362 B(  1-C ,  2-N ) :   0.9364 B(  1-C , 12-H ) :   0.9307
B(  1-C , 13-H ) :   0.9169 B(  2-N ,  3-C ) :   0.8433 B(  2-N ,  5-C ) :   0.8628
B(  3-C ,  4-C ) :   0.9520 B(  3-C ,  6-C ) :   0.8378 B(  3-C , 14-H ) :   0.8827
B(  4-C ,  5-C ) :   0.9510 B(  4-C , 15-H ) :   0.8915 B(  4-C , 16-H ) :   0.9239
B(  5-C ,  6-C ) :   0.8602 B(  5-C , 17-H ) :   0.8793 B(  6-C ,  7-C ) :   0.9250
B(  6-C ,  8-O ) :   1.0492 B(  7-C , 18-H ) :   0.9324 B(  7-C , 19-H ) :   0.9157
B(  7-C , 20-H ) :   0.9430 B(  8-O , 21-H ) :   0.8382

MP2 TOTAL ENERGY:     -403.575422619 Eh
FINAL SINGLE POINT ENERGY      -403.575422619089

DIPOLE MOMENT
-------------
                                X             Y             Z
Electronic contribution:      3.57967      -3.82141       4.39430
Nuclear contribution   :     -3.34086       4.08852      -5.16148
                        -----------------------------------------
Total Dipole Moment    :      0.23881       0.26711      -0.76718
                        -----------------------------------------
Magnitude (a.u.)       :      0.84672
Magnitude (Debye)      :      2.15220

                             ****ORCA TERMINATED NORMALLY****
TOTAL RUN TIME: 0 days 0 hours 32 minutes 14 seconds 558 msec
