                         Program Version 3.0.3 - RELEASE   -
|  1> ! RI-MP2 RIJK def2-TZVP def2-TZVP/C def2-TZVP/JK TIGHTSCF
|  2> % maxcore 2000
|  3> % mp2 density relaxed end
|  4> *xyz 0 1
|  5>  O       -0.0334468307     1.4129623984    -0.0061038313
|  6>  C        0.0086812093     0.0201771975    -0.0600565955
|  7>  C        0.4229108308    -0.7400336272    -1.3331418174
|  8>  C       -0.4868542205    -1.8817051354    -0.7941920632
|  9>  O        0.2264144493    -2.7794333906     0.0426280930
| 10>  C        1.0690969859    -2.0662208448     0.9497261590
| 11>  C        0.4140107842    -0.7284699336     1.2848662821
| 12>  C       -1.0974280589    -0.9840501150     1.5600043387
| 13>  C       -1.2975286803    -0.8099018892     0.0492261328
| 14>  H        0.8646321205     1.7421042527     0.1122894460
| 15>  H       -0.0237423049    -0.2585154834    -2.2081325401
| 16>  H        1.4717496282    -0.9747219392    -1.5386229113
| 17>  H       -1.0413171630    -2.4887289619    -1.5092482529
| 18>  H        1.1787627536    -2.6947985735     1.8401362669
| 19>  H        2.0696821115    -1.9211247020     0.5147578732
| 20>  H        0.9929560331    -0.1492760395     2.0086605137
| 21>  H       -1.3618628251    -1.9433757457     2.0129182250
| 22>  H       -1.5628242684    -0.1681756810     2.1173855761
| 23>  H       -2.2441590846    -0.4881358668    -0.3869111348
| 24> *
| 25>
| 26>                          ****END OF INPUT****

CARTESIAN COORDINATES (ANGSTROEM)
---------------------------------
  O     -0.033447    1.412962   -0.006104
  C      0.008681    0.020177   -0.060057
  C      0.422911   -0.740034   -1.333142
  C     -0.486854   -1.881705   -0.794192
  O      0.226414   -2.779433    0.042628
  C      1.069097   -2.066221    0.949726
  C      0.414011   -0.728470    1.284866
  C     -1.097428   -0.984050    1.560004
  C     -1.297529   -0.809902    0.049226
  H      0.864632    1.742104    0.112289
  H     -0.023742   -0.258515   -2.208133
  H      1.471750   -0.974722   -1.538623
  H     -1.041317   -2.488729   -1.509248
  H      1.178763   -2.694799    1.840136
  H      2.069682   -1.921125    0.514758
  H      0.992956   -0.149276    2.008661
  H     -1.361863   -1.943376    2.012918
  H     -1.562824   -0.168176    2.117386
  H     -2.244159   -0.488136   -0.386911

 Total Charge           Charge          ....    0
 Multiplicity           Mult            ....    1
 Number of Electrons    NEL             ....   68
 Basis Dimension        Dim             ....  339

ORBITAL ENERGIES
----------------

  NO   OCC          E(Eh)            E(eV)
   0   2.0000     -20.564163      -559.5793
   1   2.0000     -20.552528      -559.2627
   2   2.0000     -11.287658      -307.1528
   3   2.0000     -11.283790      -307.0475
   4   2.0000     -11.275302      -306.8166
   5   2.0000     -11.235546      -305.7347
   6   2.0000     -11.225630      -305.4649
   7   2.0000     -11.222268      -305.3734
   8   2.0000     -11.221191      -305.3441
   9   2.0000      -1.383066       -37.6351
  10   2.0000      -1.369929       -37.2777
  11   2.0000      -1.157157       -31.4878
  12   2.0000      -1.044930       -28.4340
  13   2.0000      -0.963885       -26.2286
  14   2.0000      -0.849230       -23.1087
  15   2.0000      -0.840626       -22.8746
  16   2.0000      -0.830583       -22.6013
  17   2.0000      -0.730094       -19.8669
  18   2.0000      -0.689860       -18.7720
  19   2.0000      -0.671797       -18.2805
  20   2.0000      -0.640115       -17.4184
  21   2.0000      -0.634130       -17.2556
  22   2.0000      -0.616058       -16.7638
  23   2.0000      -0.587919       -15.9981
  24   2.0000      -0.557191       -15.1619
  25   2.0000      -0.543749       -14.7962
  26   2.0000      -0.534268       -14.5382
  27   2.0000      -0.519958       -14.1488
  28   2.0000      -0.512977       -13.9588
  29   2.0000      -0.454588       -12.3700
  30   2.0000      -0.440796       -11.9947
  31   2.0000      -0.408325       -11.1111
  32   2.0000      -0.403102       -10.9690
  33   2.0000      -0.389146       -10.5892
  34   0.0000       0.131510         3.5786
  35   0.0000       0.152268         4.1434
  36   0.0000       0.166053         4.5185
  37   0.0000       0.170309         4.6343
  38   0.0000       0.186991         5.0883

MULLIKEN ATOMIC CHARGES
-----------------------
   0 O :   -0.454695
   1 C :    0.134531
   2 C :   -0.276791
   3 C :    0.055362
   4 O :   -0.318148
   5 C :   -0.084918
   6 C :   -0.084062
   7 C :   -0.270057
   8 C :   -0.097892
   9 H :    0.319351
  10 H :    0.122958
  11 H :    0.120288
  12 H :    0.128058
  13 H :    0.120083
  14 H :    0.098152
  15 H :    0.121522
  16 H :    0.121370
  17 H :    0.122536
  18 H :    0.122350
Sum of atomic charges:   -0.0000000

LOEWDIN ATOMIC CHARGES
----------------------
   0 O :    0.021046
   1 C :   -0.319382
   2 C :   -0.198293
   3 C :   -0.247349
   4 O :    0.171294
   5 C :   -0.283900
   6 C :   -0.189010
   7 C :   -0.198550
   8 C :   -0.146374
   9 H :    0.180730
  10 H :    0.145783
  11 H :    0.126668
  12 H :    0.133587
  13 H :    0.131307
  14 H :    0.121795
  15 H :    0.140860
  16 H :    0.131160
  17 H :    0.141091
  18 H :    0.137537

  Mayer bond orders larger than 0.1
B(  0-O ,  1-C ) :   1.0096 B(  0-O ,  9-H ) :   0.8363 B(  1-C ,  2-C ) :   0.9838
B(  1-C ,  6-C ) :   0.8978 B(  1-C ,  8-C ) :   0.8983 B(  2-C ,  3-C ) :   0.8967
B(  2-C , 10-H ) :   0.9127 B(  2-C , 11-H ) :   0.9164 B(  3-C ,  4-O ) :   0.9554
B(  3-C ,  8-C ) :   0.8795 B(  3-C , 12-H ) :   0.9305 B(  4-O ,  5-C ) :   0.9290
B(  5-C ,  6-C ) :   0.9225 B(  5-C , 13-H ) :   0.9135 B(  5-C , 14-H ) :   0.9372
B(  6-C ,  7-C ) :   0.9200 B(  6-C , 15-H ) :   0.9114 B(  7-C ,  8-C ) :   0.9616
B(  7-C , 16-H ) :   0.9084 B(  7-C , 17-H ) :   0.9161 B(  8-C , 18-H ) :   0.8916

MP2 TOTAL ENERGY:     -422.296085092 Eh
FINAL SINGLE POINT ENERGY      -422.296085091764

DIPOLE MOMENT
-------------
                                X             Y             Z
Electronic contribution:     -0.41151       0.32412      -0.90398
Nuclear contribution   :      0.93586      -0.01088       1.02993
                        -----------------------------------------
Total Dipole Moment    :      0.52435       0.31324       0.12595
                        -----------------------------------------
Magnitude (a.u.)       :      0.62364
Magnitude (Debye)      :      1.58517

                             ****ORCA TERMINATED NORMALLY****
TOTAL RUN TIME: 0 days 0 hours 18 minutes 51 seconds 44 msec
