                         Program Version 3.0.3 - RELEASE   -
|  1> ! RI-MP2 RIJK def2-TZVP def2-TZVP/C def2-TZVP/JK TIGHTSCF
|  2> % maxcore 2000
|  3> % mp2 density relaxed end
|  4> *xyz 0 1
|  5>  O       -0.0459414522    -0.0555574994     0.2412373287
|  6>  C       -0.0417428472     1.1409256722     0.0734542750
|  7>  N       -1.0724519584     2.0589390405    -0.0151369535
|  8>  N       -0.6235554539     3.3289055061    -0.1954372930
|  9>  N        0.6439227632     3.2985862393    -0.2323191935
| 10>  N        1.0414423143     2.0041440739    -0.0740056234
| 11>  C        2.4285197399     1.6069005217    -0.0747046241
| 12>  C        3.0367777292     1.6330271764    -1.4117439149
| 13>  N        3.5302812877     1.6518548360    -2.4548927070
| 14>  H       -2.0597229496     1.8721688214     0.0395929484
| 15>  H        2.9991603980     2.2544418727     0.5971590799
| 16>  H        2.4526181091     0.5846732092     0.3169336473
| 17> *
| 18>
| 19>                          ****END OF INPUT****

CARTESIAN COORDINATES (ANGSTROEM)
---------------------------------
  O     -0.045941   -0.055557    0.241237
  C     -0.041743    1.140926    0.073454
  N     -1.072452    2.058939   -0.015137
  N     -0.623555    3.328906   -0.195437
  N      0.643923    3.298586   -0.232319
  N      1.041442    2.004144   -0.074006
  C      2.428520    1.606901   -0.074705
  C      3.036778    1.633027   -1.411744
  N      3.530281    1.651855   -2.454893
  H     -2.059723    1.872169    0.039593
  H      2.999160    2.254442    0.597159
  H      2.452618    0.584673    0.316934

 Total Charge           Charge          ....    0
 Multiplicity           Mult            ....    1
 Number of Electrons    NEL             ....   64
 Basis Dimension        Dim             ....  297

ORBITAL ENERGIES
----------------

  NO   OCC          E(Eh)            E(eV)
   0   2.0000     -20.558470      -559.4244
   1   2.0000     -15.705110      -427.3578
   2   2.0000     -15.701973      -427.2724
   3   2.0000     -15.683601      -426.7725
   4   2.0000     -15.677218      -426.5988
   5   2.0000     -15.595373      -424.3717
   6   2.0000     -11.427323      -310.9533
   7   2.0000     -11.358246      -309.0736
   8   2.0000     -11.295023      -307.3532
   9   2.0000      -1.535135       -41.7732
  10   2.0000      -1.418179       -38.5906
  11   2.0000      -1.314830       -35.7783
  12   2.0000      -1.242020       -33.7971
  13   2.0000      -1.224596       -33.3230
  14   2.0000      -1.072302       -29.1788
  15   2.0000      -0.947743       -25.7894
  16   2.0000      -0.899165       -24.4675
  17   2.0000      -0.807780       -21.9808
  18   2.0000      -0.764686       -20.8082
  19   2.0000      -0.723668       -19.6920
  20   2.0000      -0.697551       -18.9813
  21   2.0000      -0.679613       -18.4932
  22   2.0000      -0.652754       -17.7623
  23   2.0000      -0.597240       -16.2517
  24   2.0000      -0.580760       -15.8033
  25   2.0000      -0.572079       -15.5671
  26   2.0000      -0.557095       -15.1593
  27   2.0000      -0.512754       -13.9527
  28   2.0000      -0.490586       -13.3495
  29   2.0000      -0.483249       -13.1499
  30   2.0000      -0.465463       -12.6659
  31   2.0000      -0.402642       -10.9565
  32   0.0000       0.099983         2.7207
  33   0.0000       0.117259         3.1908
  34   0.0000       0.126418         3.4400
  35   0.0000       0.152790         4.1576
  36   0.0000       0.162084         4.4105

MULLIKEN ATOMIC CHARGES
-----------------------
   0 O :   -0.356855
   1 C :    0.259947
   2 N :   -0.165070
   3 N :   -0.069523
   4 N :   -0.109179
   5 N :    0.023006
   6 C :   -0.049829
   7 C :   -0.165547
   8 N :   -0.043485
   9 H :    0.284036
  10 H :    0.188693
  11 H :    0.203804
Sum of atomic charges:    0.0000000

LOEWDIN ATOMIC CHARGES
----------------------
   0 O :    0.076428
   1 C :   -0.527513
   2 N :    0.101823
   3 N :   -0.030359
   4 N :   -0.008535
   5 N :    0.159692
   6 C :   -0.227387
   7 C :   -0.178478
   8 N :    0.086713
   9 H :    0.197752
  10 H :    0.169739
  11 H :    0.180123

  Mayer bond orders larger than 0.1
B(  0-O ,  1-C ) :   1.9496 B(  1-C ,  2-N ) :   1.0928 B(  1-C ,  5-N ) :   1.0591
B(  2-N ,  3-N ) :   0.9893 B(  2-N ,  9-H ) :   0.8593 B(  3-N ,  4-N ) :   1.4602
B(  4-N ,  5-N ) :   0.9465 B(  5-N ,  6-C ) :   0.8703 B(  6-C ,  7-C ) :   0.9211
B(  6-C , 10-H ) :   0.9088 B(  6-C , 11-H ) :   0.8919 B(  7-C ,  8-N ) :   2.8321

MP2 TOTAL ENERGY:     -464.235908443 Eh
FINAL SINGLE POINT ENERGY      -464.235908442961

DIPOLE MOMENT
-------------
                                X             Y             Z
Electronic contribution:     -1.13720       0.82914      -0.91633
Nuclear contribution   :      0.52610      -0.75098       2.11009
                        -----------------------------------------
Total Dipole Moment    :     -0.61109       0.07815       1.19375
                        -----------------------------------------
Magnitude (a.u.)       :      1.34335
Magnitude (Debye)      :      3.41453

                             ****ORCA TERMINATED NORMALLY****
TOTAL RUN TIME: 0 days 0 hours 13 minutes 12 seconds 571 msec
