                         Program Version 3.0.3 - RELEASE   -
|  1> ! RI-MP2 RIJK def2-TZVP def2-TZVP/C def2-TZVP/JK TIGHTSCF
|  2> % maxcore 2000
|  3> % mp2 density relaxed end
|  4> *xyz 0 1
|  5>  C        0.0290776801     1.4855115112    -0.0931591382
|  6>  C        0.0281653447    -0.0090213086     0.0166165129
|  7>  O        0.4347118396    -0.6482242580    -1.2047858738
|  8>  C        0.3719341783    -1.9906730255    -0.9126783700
|  9>  O        0.6397157588    -2.8590476474    -1.6858689318
| 10>  C       -0.0893904187    -2.0070716453     0.5258297357
| 11>  C        0.6224548432    -0.7959345347     1.2263100333
| 12>  N       -0.6054372959    -0.4291644451     2.0212823583
| 13>  C       -1.1254423282    -0.8360209636     0.6654416223
| 14>  H        1.0299906438     1.8506255519    -0.3404132612
| 15>  H       -0.6560909856     1.8119911924    -0.8807051761
| 16>  H       -0.2859116319     1.9160440970     0.8589730002
| 17>  H       -0.2296059714    -2.9595484324     1.0308006801
| 18>  H        1.6316119384    -0.7584810931     1.6388926730
| 19>  H       -0.8038151424    -1.1747149496     2.6927987570
| 20>  H       -2.1868179628    -0.8460488492     0.4136339583
| 21> *
| 22>
| 23>                          ****END OF INPUT****

CARTESIAN COORDINATES (ANGSTROEM)
---------------------------------
  C      0.029078    1.485512   -0.093159
  C      0.028165   -0.009021    0.016617
  O      0.434712   -0.648224   -1.204786
  C      0.371934   -1.990673   -0.912678
  O      0.639716   -2.859048   -1.685869
  C     -0.089390   -2.007072    0.525830
  C      0.622455   -0.795935    1.226310
  N     -0.605437   -0.429164    2.021282
  C     -1.125442   -0.836021    0.665442
  H      1.029991    1.850626   -0.340413
  H     -0.656091    1.811991   -0.880705
  H     -0.285912    1.916044    0.858973
  H     -0.229606   -2.959548    1.030801
  H      1.631612   -0.758481    1.638893
  H     -0.803815   -1.174715    2.692799
  H     -2.186818   -0.846049    0.413634

 Total Charge           Charge          ....    0
 Multiplicity           Mult            ....    1
 Number of Electrons    NEL             ....   66
 Basis Dimension        Dim             ....  321

ORBITAL ENERGIES
----------------

  NO   OCC          E(Eh)            E(eV)
   0   2.0000     -20.603166      -560.6406
   1   2.0000     -20.552376      -559.2586
   2   2.0000     -15.581057      -423.9821
   3   2.0000     -11.384101      -309.7771
   4   2.0000     -11.326816      -308.2183
   5   2.0000     -11.305543      -307.6395
   6   2.0000     -11.305491      -307.6380
   7   2.0000     -11.275246      -306.8150
   8   2.0000     -11.234185      -305.6977
   9   2.0000      -1.469837       -39.9963
  10   2.0000      -1.382740       -37.6263
  11   2.0000      -1.302188       -35.4343
  12   2.0000      -1.053820       -28.6759
  13   2.0000      -1.039563       -28.2879
  14   2.0000      -0.909082       -24.7374
  15   2.0000      -0.904577       -24.6148
  16   2.0000      -0.808251       -21.9936
  17   2.0000      -0.768402       -20.9093
  18   2.0000      -0.720517       -19.6063
  19   2.0000      -0.688970       -18.7478
  20   2.0000      -0.659472       -17.9451
  21   2.0000      -0.642717       -17.4892
  22   2.0000      -0.620904       -16.8956
  23   2.0000      -0.591611       -16.0986
  24   2.0000      -0.566312       -15.4101
  25   2.0000      -0.551092       -14.9960
  26   2.0000      -0.529661       -14.4128
  27   2.0000      -0.514806       -14.0086
  28   2.0000      -0.511030       -13.9058
  29   2.0000      -0.474944       -12.9239
  30   2.0000      -0.472257       -12.8508
  31   2.0000      -0.431965       -11.7544
  32   2.0000      -0.400283       -10.8922
  33   0.0000       0.131115         3.5678
  34   0.0000       0.140383         3.8200
  35   0.0000       0.143071         3.8932
  36   0.0000       0.163305         4.4438
  37   0.0000       0.175917         4.7870

MULLIKEN ATOMIC CHARGES
-----------------------
   0 C :   -0.456660
   1 C :    0.182004
   2 O :   -0.240273
   3 C :    0.244343
   4 O :   -0.264906
   5 C :   -0.148596
   6 C :   -0.045978
   7 N :   -0.331575
   8 C :   -0.045939
   9 H :    0.146254
  10 H :    0.146243
  11 H :    0.169803
  12 H :    0.147046
  13 H :    0.145327
  14 H :    0.207576
  15 H :    0.145332
Sum of atomic charges:    0.0000000

LOEWDIN ATOMIC CHARGES
----------------------
   0 C :   -0.259222
   1 C :   -0.276368
   2 O :    0.278312
   3 C :   -0.431800
   4 O :    0.154066
   5 C :   -0.145440
   6 C :   -0.157622
   7 N :    0.006591
   8 C :   -0.157611
   9 H :    0.135894
  10 H :    0.135892
  11 H :    0.144150
  12 H :    0.148321
  13 H :    0.131016
  14 H :    0.162803
  15 H :    0.131017

  Mayer bond orders larger than 0.1
B(  0-C ,  1-C ) :   0.8892 B(  0-C ,  9-H ) :   0.9318 B(  0-C , 10-H ) :   0.9317
B(  0-C , 11-H ) :   0.9374 B(  1-C ,  2-O ) :   0.8899 B(  1-C ,  6-C ) :   0.8261
B(  1-C ,  8-C ) :   0.8261 B(  2-O ,  3-C ) :   1.0838 B(  3-C ,  4-O ) :   2.0452
B(  3-C ,  5-C ) :   0.9540 B(  5-C ,  6-C ) :   0.8538 B(  5-C ,  8-C ) :   0.8538
B(  5-C , 12-H ) :   0.9260 B(  6-C ,  7-N ) :   0.9094 B(  6-C , 13-H ) :   0.8929
B(  7-N ,  8-C ) :   0.9094 B(  7-N , 14-H ) :   0.8704 B(  8-C , 15-H ) :   0.8929

MP2 TOTAL ENERGY:     -437.141748223 Eh
FINAL SINGLE POINT ENERGY      -437.141748222527

DIPOLE MOMENT
-------------
                                X             Y             Z
Electronic contribution:      1.28001      -5.35643      -3.60558
Nuclear contribution   :     -1.67161       5.71417       4.80082
                        -----------------------------------------
Total Dipole Moment    :     -0.39161       0.35773       1.19524
                        -----------------------------------------
Magnitude (a.u.)       :      1.30764
Magnitude (Debye)      :      3.32376

                             ****ORCA TERMINATED NORMALLY****
TOTAL RUN TIME: 0 days 0 hours 16 minutes 53 seconds 413 msec
