                         Program Version 3.0.3 - RELEASE   -
|  1> ! RI-MP2 RIJK def2-TZVP def2-TZVP/C def2-TZVP/JK TIGHTSCF
|  2> % maxcore 2000
|  3> % mp2 density relaxed end
|  4> *xyz 0 1
|  5>  C       -0.0182527907     1.5253203369    -0.0126087573
|  6>  N        1.2723904982     0.7690985632     0.0326194317
|  7>  C        0.0161230435     0.0638226870    -0.0002304215
|  8>  C       -0.5443032100    -1.0344049163     0.9206647858
|  9>  O       -1.7419206453    -1.0637580141     0.0388691528
| 10>  C       -0.5956339930    -1.0200501883    -0.9066939914
| 11>  C        0.1029567483    -2.0679279615    -0.0193644873
| 12>  C        1.3524383175    -2.8389220904    -0.0124796885
| 13>  N        0.0159407478    -3.4986844521    -0.0848266592
| 14>  H       -0.2434512091     2.0835239877     0.8913672703
| 15>  H       -0.2945930565     2.0259253623    -0.9369671289
| 16>  H        1.7181445681     0.7705855945    -0.8819153277
| 17>  H       -0.6986908899    -1.0479667005     1.9990394440
| 18>  H       -0.8109088978    -1.0249551043    -1.9745408954
| 19>  H        1.9537423592    -2.9413995931    -0.9115728543
| 20>  H        1.9140978182    -2.8915672618     0.9168797918
| 21>  H       -0.2447045386    -3.8988838091     0.8129264050
| 22> *
| 23>
| 24>                          ****END OF INPUT****

CARTESIAN COORDINATES (ANGSTROEM)
---------------------------------
  C     -0.018253    1.525320   -0.012609
  N      1.272390    0.769099    0.032619
  C      0.016123    0.063823   -0.000230
  C     -0.544303   -1.034405    0.920665
  O     -1.741921   -1.063758    0.038869
  C     -0.595634   -1.020050   -0.906694
  C      0.102957   -2.067928   -0.019364
  C      1.352438   -2.838922   -0.012480
  N      0.015941   -3.498684   -0.084827
  H     -0.243451    2.083524    0.891367
  H     -0.294593    2.025925   -0.936967
  H      1.718145    0.770586   -0.881915
  H     -0.698691   -1.047967    1.999039
  H     -0.810909   -1.024955   -1.974541
  H      1.953742   -2.941400   -0.911573
  H      1.914098   -2.891567    0.916880
  H     -0.244705   -3.898884    0.812926

 Total Charge           Charge          ....    0
 Multiplicity           Mult            ....    1
 Number of Electrons    NEL             ....   66
 Basis Dimension        Dim             ....  327

ORBITAL ENERGIES
----------------

  NO   OCC          E(Eh)            E(eV)
   0   2.0000     -20.558801      -559.4334
   1   2.0000     -15.569600      -423.6704
   2   2.0000     -15.564892      -423.5423
   3   2.0000     -11.308002      -307.7064
   4   2.0000     -11.307785      -307.7005
   5   2.0000     -11.286125      -307.1111
   6   2.0000     -11.284806      -307.0752
   7   2.0000     -11.264845      -306.5320
   8   2.0000     -11.264739      -306.5291
   9   2.0000      -1.406651       -38.2769
  10   2.0000      -1.269607       -34.5478
  11   2.0000      -1.267214       -34.4827
  12   2.0000      -1.044529       -28.4231
  13   2.0000      -0.908475       -24.7209
  14   2.0000      -0.902126       -24.5481
  15   2.0000      -0.890835       -24.2409
  16   2.0000      -0.824950       -22.4480
  17   2.0000      -0.741948       -20.1894
  18   2.0000      -0.718323       -19.5466
  19   2.0000      -0.695782       -18.9332
  20   2.0000      -0.660346       -17.9689
  21   2.0000      -0.641897       -17.4669
  22   2.0000      -0.589951       -16.0534
  23   2.0000      -0.550239       -14.9728
  24   2.0000      -0.519708       -14.1420
  25   2.0000      -0.519062       -14.1244
  26   2.0000      -0.498030       -13.5521
  27   2.0000      -0.489209       -13.3121
  28   2.0000      -0.461504       -12.5582
  29   2.0000      -0.451507       -12.2861
  30   2.0000      -0.424391       -11.5483
  31   2.0000      -0.398517       -10.8442
  32   2.0000      -0.391753       -10.6601
  33   0.0000       0.129886         3.5344
  34   0.0000       0.142043         3.8652
  35   0.0000       0.157658         4.2901
  36   0.0000       0.179430         4.8826
  37   0.0000       0.182604         4.9689

MULLIKEN ATOMIC CHARGES
-----------------------
   0 C :   -0.208633
   1 N :   -0.384921
   2 C :    0.082281
   3 C :    0.010947
   4 O :   -0.289443
   5 C :   -0.019761
   6 C :    0.108706
   7 C :   -0.207352
   8 N :   -0.376777
   9 H :    0.128658
  10 H :    0.134419
  11 H :    0.228643
  12 H :    0.151267
  13 H :    0.150603
  14 H :    0.125151
  15 H :    0.135526
  16 H :    0.230687
Sum of atomic charges:   -0.0000000

LOEWDIN ATOMIC CHARGES
----------------------
   0 C :   -0.222092
   1 N :    0.008403
   2 C :   -0.271089
   3 C :   -0.149311
   4 O :    0.146660
   5 C :   -0.149086
   6 C :   -0.269741
   7 C :   -0.227405
   8 N :    0.019559
   9 H :    0.130107
  10 H :    0.126574
  11 H :    0.169658
  12 H :    0.130423
  13 H :    0.131314
  14 H :    0.127795
  15 H :    0.126550
  16 H :    0.171679

  Mayer bond orders larger than 0.1
B(  0-C ,  1-N ) :   0.9670 B(  0-C ,  2-C ) :   0.9443 B(  0-C ,  9-H ) :   0.9102
B(  0-C , 10-H ) :   0.9219 B(  1-N ,  2-C ) :   0.8770 B(  1-N , 11-H ) :   0.8612
B(  2-C ,  3-C ) :   0.9053 B(  2-C ,  5-C ) :   0.9192 B(  2-C ,  6-C ) :  -0.1003
B(  3-C ,  4-O ) :   0.9393 B(  3-C ,  6-C ) :   0.9385 B(  3-C , 12-H ) :   0.8635
B(  4-O ,  5-C ) :   0.9288 B(  5-C ,  6-C ) :   0.8970 B(  5-C , 13-H ) :   0.8687
B(  6-C ,  7-C ) :   0.9379 B(  6-C ,  8-N ) :   0.9413 B(  7-C ,  8-N ) :   0.9566
B(  7-C , 14-H ) :   0.9101 B(  7-C , 15-H ) :   0.9147 B(  8-N , 16-H ) :   0.8622

MP2 TOTAL ENERGY:     -417.145606599 Eh
FINAL SINGLE POINT ENERGY      -417.145606599444

DIPOLE MOMENT
-------------
                                X             Y             Z
Electronic contribution:     -2.61368      -0.83597       0.04197
Nuclear contribution   :      3.23757       1.16244      -0.04505
                        -----------------------------------------
Total Dipole Moment    :      0.62389       0.32647      -0.00308
                        -----------------------------------------
Magnitude (a.u.)       :      0.70415
Magnitude (Debye)      :      1.78981

                             ****ORCA TERMINATED NORMALLY****
TOTAL RUN TIME: 0 days 0 hours 16 minutes 1 seconds 35 msec
