                         Program Version 3.0.3 - RELEASE   -
|  1> ! RI-MP2 RIJK def2-TZVP def2-TZVP/C def2-TZVP/JK TIGHTSCF
|  2> % maxcore 2000
|  3> % mp2 density relaxed end
|  4> *xyz 0 1
|  5>  C        0.0224381087     1.5326201466    -0.0974522272
|  6>  N        1.3599779085     2.0689965341     0.2038280855
|  7>  C        2.3593331065     1.3008413858     0.3277868307
|  8>  N        2.3904375952    -0.0956788491     0.1824369178
|  9>  C        1.1364539069    -0.6845168085     0.1068881183
| 10>  C       -0.0288752070     0.0316626684    -0.0323661057
| 11>  C       -1.0274353246    -0.9665499006    -0.0825242776
| 12>  N       -0.5245680535    -2.1943674951     0.0138116324
| 13>  N        0.8188952636    -1.9978330142     0.1251316645
| 14>  H       -0.6835284777     1.9971557879     0.6037562006
| 15>  H       -0.2659821396     1.9102476392    -1.0898296055
| 16>  H        3.3378029873     1.7262125879     0.5496075437
| 17>  H        3.1467937091    -0.5864772708     0.6347522423
| 18>  H       -2.0961618146    -0.8421097190    -0.1839972897
| 19>  H        1.4245794313    -2.7957749225     0.2077763498
| 20> *
| 21>
| 22>                          ****END OF INPUT****

CARTESIAN COORDINATES (ANGSTROEM)
---------------------------------
  C      0.022438    1.532620   -0.097452
  N      1.359978    2.068997    0.203828
  C      2.359333    1.300841    0.327787
  N      2.390438   -0.095679    0.182437
  C      1.136454   -0.684517    0.106888
  C     -0.028875    0.031663   -0.032366
  C     -1.027435   -0.966550   -0.082524
  N     -0.524568   -2.194367    0.013812
  N      0.818895   -1.997833    0.125132
  H     -0.683528    1.997156    0.603756
  H     -0.265982    1.910248   -1.089830
  H      3.337803    1.726213    0.549608
  H      3.146794   -0.586477    0.634752
  H     -2.096162   -0.842110   -0.183997
  H      1.424579   -2.795775    0.207776

 Total Charge           Charge          ....    0
 Multiplicity           Mult            ....    1
 Number of Electrons    NEL             ....   64
 Basis Dimension        Dim             ....  315

ORBITAL ENERGIES
----------------

  NO   OCC          E(Eh)            E(eV)
   0   2.0000     -15.636378      -425.4875
   1   2.0000     -15.613748      -424.8717
   2   2.0000     -15.580730      -423.9732
   3   2.0000     -15.551438      -423.1761
   4   2.0000     -11.322641      -308.1047
   5   2.0000     -11.317491      -307.9646
   6   2.0000     -11.262600      -306.4709
   7   2.0000     -11.256416      -306.3026
   8   2.0000     -11.215005      -305.1758
   9   2.0000      -1.377427       -37.4817
  10   2.0000      -1.300797       -35.3965
  11   2.0000      -1.195138       -32.5214
  12   2.0000      -1.092981       -29.7415
  13   2.0000      -1.067987       -29.0614
  14   2.0000      -0.941057       -25.6075
  15   2.0000      -0.860042       -23.4029
  16   2.0000      -0.826455       -22.4890
  17   2.0000      -0.784527       -21.3481
  18   2.0000      -0.733298       -19.9541
  19   2.0000      -0.685292       -18.6478
  20   2.0000      -0.646885       -17.6026
  21   2.0000      -0.633371       -17.2349
  22   2.0000      -0.614293       -16.7158
  23   2.0000      -0.590926       -16.0799
  24   2.0000      -0.587261       -15.9802
  25   2.0000      -0.544432       -14.8147
  26   2.0000      -0.524976       -14.2853
  27   2.0000      -0.461703       -12.5636
  28   2.0000      -0.414436       -11.2774
  29   2.0000      -0.405623       -11.0376
  30   2.0000      -0.366589        -9.9754
  31   2.0000      -0.304813        -8.2944
  32   0.0000       0.110664         3.0113
  33   0.0000       0.141474         3.8497
  34   0.0000       0.147450         4.0123
  35   0.0000       0.160536         4.3684
  36   0.0000       0.181480         4.9383

MULLIKEN ATOMIC CHARGES
-----------------------
   0 C :   -0.102610
   1 N :   -0.263494
   2 C :    0.060310
   3 N :   -0.343494
   4 C :    0.168300
   5 C :   -0.065322
   6 C :   -0.131220
   7 N :   -0.209925
   8 N :   -0.133350
   9 H :    0.133193
  10 H :    0.129337
  11 H :    0.133774
  12 H :    0.241598
  13 H :    0.130795
  14 H :    0.252109
Sum of atomic charges:   -0.0000000

LOEWDIN ATOMIC CHARGES
----------------------
   0 C :   -0.246528
   1 N :    0.081844
   2 C :   -0.303490
   3 N :    0.105074
   4 C :   -0.285590
   5 C :   -0.180250
   6 C :   -0.254216
   7 N :    0.018037
   8 N :    0.138237
   9 H :    0.139811
  10 H :    0.139453
  11 H :    0.135728
  12 H :    0.190029
  13 H :    0.135544
  14 H :    0.186319

  Mayer bond orders larger than 0.1
B(  0-C ,  1-N ) :   0.9205 B(  0-C ,  5-C ) :   0.9121 B(  0-C ,  9-H ) :   0.9340
B(  0-C , 10-H ) :   0.9169 B(  1-N ,  2-C ) :   1.8708 B(  2-C ,  3-N ) :   1.0101
B(  2-C , 11-H ) :   0.9218 B(  3-N ,  4-C ) :   1.0173 B(  3-N , 12-H ) :   0.8631
B(  4-C ,  5-C ) :   1.3894 B(  4-C ,  7-N ) :   0.1173 B(  4-C ,  8-N ) :   1.2148
B(  5-C ,  6-C ) :   1.2586 B(  6-C ,  7-N ) :   1.5614 B(  6-C , 13-H ) :   0.9454
B(  7-N ,  8-N ) :   1.0259 B(  8-N , 14-H ) :   0.8672

MP2 TOTAL ENERGY:     -412.301352874 Eh
FINAL SINGLE POINT ENERGY      -412.301352874088

DIPOLE MOMENT
-------------
                                X             Y             Z
Electronic contribution:      0.80520      -2.51589       0.10051
Nuclear contribution   :      0.36858       2.00755       0.18268
                        -----------------------------------------
Total Dipole Moment    :      1.17378      -0.50834       0.28319
                        -----------------------------------------
Magnitude (a.u.)       :      1.31010
Magnitude (Debye)      :      3.33002

                             ****ORCA TERMINATED NORMALLY****
TOTAL RUN TIME: 0 days 0 hours 16 minutes 22 seconds 637 msec
