                         Program Version 3.0.3 - RELEASE   -
|  1> ! RI-MP2 RIJK def2-TZVP def2-TZVP/C def2-TZVP/JK TIGHTSCF
|  2> % maxcore 2000
|  3> % mp2 density relaxed end
|  4> *xyz 0 1
|  5>  N       -0.0392094589     1.2909403666     0.1279929236
|  6>  C        0.0082660471     0.0437884064    -0.0229560909
|  7>  O        1.1615368288    -0.7157710928    -0.1218696054
|  8>  C        0.7342185708    -2.0771188175    -0.1169890628
|  9>  C        0.0420129449    -2.5182586954     1.1793254125
| 10>  C       -1.2135641033    -2.9428194519     0.4248488214
| 11>  C       -1.2203268953    -1.6433660902     1.1566014280
| 12>  N       -1.1421448829    -0.8158076295    -0.0893397399
| 13>  C       -0.6733815495    -2.0856817919    -0.7559783462
| 14>  H        0.9055202572     1.6698572044     0.2051247671
| 15>  H        1.5131660377    -2.7182471086    -0.5229481459
| 16>  H        0.4719267193    -2.9178573264     2.0869048043
| 17>  H       -1.8435193943    -3.8154835774     0.4816837753
| 18>  H       -1.7553678190    -1.3170171348     2.0369616466
| 19>  H       -0.8514156527    -2.1883275611    -1.8235109978
| 20> *
| 21>
| 22>                          ****END OF INPUT****

CARTESIAN COORDINATES (ANGSTROEM)
---------------------------------
  N     -0.039209    1.290940    0.127993
  C      0.008266    0.043788   -0.022956
  O      1.161537   -0.715771   -0.121870
  C      0.734219   -2.077119   -0.116989
  C      0.042013   -2.518259    1.179325
  C     -1.213564   -2.942819    0.424849
  C     -1.220327   -1.643366    1.156601
  N     -1.142145   -0.815808   -0.089340
  C     -0.673382   -2.085682   -0.755978
  H      0.905520    1.669857    0.205125
  H      1.513166   -2.718247   -0.522948
  H      0.471927   -2.917857    2.086905
  H     -1.843519   -3.815484    0.481684
  H     -1.755368   -1.317017    2.036962
  H     -0.851416   -2.188328   -1.823511

 Total Charge           Charge          ....    0
 Multiplicity           Mult            ....    1
 Number of Electrons    NEL             ....   64
 Basis Dimension        Dim             ....  315

ORBITAL ENERGIES
----------------

  NO   OCC          E(Eh)            E(eV)
   0   2.0000     -20.597576      -560.4885
   1   2.0000     -15.584251      -424.0690
   2   2.0000     -15.531979      -422.6466
   3   2.0000     -11.356967      -309.0388
   4   2.0000     -11.313071      -307.8443
   5   2.0000     -11.291524      -307.2580
   6   2.0000     -11.291037      -307.2447
   7   2.0000     -11.264590      -306.5251
   8   2.0000     -11.260928      -306.4254
   9   2.0000      -1.450168       -39.4611
  10   2.0000      -1.305817       -35.5331
  11   2.0000      -1.209409       -32.9097
  12   2.0000      -1.112096       -30.2617
  13   2.0000      -0.989883       -26.9361
  14   2.0000      -0.913592       -24.8601
  15   2.0000      -0.843726       -22.9589
  16   2.0000      -0.779608       -21.2142
  17   2.0000      -0.744567       -20.2607
  18   2.0000      -0.737189       -20.0599
  19   2.0000      -0.689882       -18.7727
  20   2.0000      -0.674947       -18.3662
  21   2.0000      -0.652658       -17.7597
  22   2.0000      -0.595507       -16.2046
  23   2.0000      -0.578342       -15.7375
  24   2.0000      -0.548791       -14.9334
  25   2.0000      -0.515729       -14.0337
  26   2.0000      -0.503174       -13.6921
  27   2.0000      -0.478626       -13.0241
  28   2.0000      -0.443597       -12.0709
  29   2.0000      -0.412851       -11.2343
  30   2.0000      -0.396824       -10.7981
  31   2.0000      -0.385827       -10.4989
  32   0.0000       0.146259         3.9799
  33   0.0000       0.153523         4.1776
  34   0.0000       0.158371         4.3095
  35   0.0000       0.170399         4.6368
  36   0.0000       0.184200         5.0123

MULLIKEN ATOMIC CHARGES
-----------------------
   0 N :   -0.346250
   1 C :    0.151852
   2 O :   -0.273515
   3 C :    0.079310
   4 C :   -0.202328
   5 C :   -0.247905
   6 C :   -0.030759
   7 N :   -0.151564
   8 C :    0.015471
   9 H :    0.228578
  10 H :    0.140667
  11 H :    0.152640
  12 H :    0.167737
  13 H :    0.158352
  14 H :    0.157715
Sum of atomic charges:   -0.0000000

LOEWDIN ATOMIC CHARGES
----------------------
   0 N :   -0.045856
   1 C :   -0.443310
   2 O :    0.238328
   3 C :   -0.235817
   4 C :   -0.142569
   5 C :   -0.123764
   6 C :   -0.161325
   7 N :    0.178367
   8 C :   -0.140833
   9 H :    0.172554
  10 H :    0.146222
  11 H :    0.140939
  12 H :    0.138378
  13 H :    0.142555
  14 H :    0.136131

  Mayer bond orders larger than 0.1
B(  0-N ,  1-C ) :   2.0557 B(  0-N ,  9-H ) :   0.8472 B(  1-C ,  2-O ) :   1.0602
B(  1-C ,  7-N ) :   1.0100 B(  2-O ,  3-C ) :   0.9177 B(  3-C ,  4-C ) :   0.8943
B(  3-C ,  8-C ) :   0.9436 B(  3-C , 10-H ) :   0.9319 B(  4-C ,  5-C ) :   0.8306
B(  4-C ,  6-C ) :   0.8685 B(  4-C , 11-H ) :   0.9213 B(  5-C ,  6-C ) :   0.8604
B(  5-C ,  8-C ) :   0.9319 B(  5-C , 12-H ) :   0.8992 B(  6-C ,  7-N ) :   0.8958
B(  6-C , 13-H ) :   0.9222 B(  7-N ,  8-C ) :   0.9164 B(  8-C , 14-H ) :   0.9053

MP2 TOTAL ENERGY:     -416.042387290 Eh
FINAL SINGLE POINT ENERGY      -416.042387289556

DIPOLE MOMENT
-------------
                                X             Y             Z
Electronic contribution:      0.58298       2.02657      -0.98615
Nuclear contribution   :     -0.18227      -3.60645       1.22335
                        -----------------------------------------
Total Dipole Moment    :      0.40071      -1.57988       0.23719
                        -----------------------------------------
Magnitude (a.u.)       :      1.64707
Magnitude (Debye)      :      4.18653

                             ****ORCA TERMINATED NORMALLY****
TOTAL RUN TIME: 0 days 0 hours 15 minutes 58 seconds 877 msec
