                         Program Version 3.0.3 - RELEASE   -
|  1> ! RI-MP2 RIJK def2-TZVP def2-TZVP/C def2-TZVP/JK TIGHTSCF
|  2> % maxcore 2000
|  3> % mp2 density relaxed end
|  4> *xyz 0 1
|  5>  O        0.2415025723     0.1222815713    -0.6333418454
|  6>  C        0.1531654828     1.2404080464    -0.2342462474
|  7>  O        1.1873293023     2.1184910467    -0.3065254975
|  8>  C        0.9381133886     3.4468042830     0.1320391764
|  9>  C        2.2836904839     4.1579103203     0.3032773376
| 10>  C        2.5112253266     4.7545417068    -1.0885271242
| 11>  C        1.1038175668     4.8958542371    -1.6544341741
| 12>  O        0.7227221600     5.5164728636    -2.5959790578
| 13>  O        0.2369007688     4.1568989404    -0.8717261421
| 14>  H       -0.7467537954     1.6744076943     0.2391910637
| 15>  H        0.3059226319     3.4332706689     1.0241199705
| 16>  H        2.1820113217     4.9448087657     1.0550533355
| 17>  H        3.0544621695     3.4597815098     0.6286283975
| 18>  H        3.0177758037     5.7197651305    -1.0986639298
| 19>  H        3.0689979466     4.0759410751    -1.7416466828
| 20> *
| 21>
| 22>                          ****END OF INPUT****

CARTESIAN COORDINATES (ANGSTROEM)
---------------------------------
  O      0.241503    0.122282   -0.633342
  C      0.153165    1.240408   -0.234246
  O      1.187329    2.118491   -0.306525
  C      0.938113    3.446804    0.132039
  C      2.283690    4.157910    0.303277
  C      2.511225    4.754542   -1.088527
  C      1.103818    4.895854   -1.654434
  O      0.722722    5.516473   -2.595979
  O      0.236901    4.156899   -0.871726
  H     -0.746754    1.674408    0.239191
  H      0.305923    3.433271    1.024120
  H      2.182011    4.944809    1.055053
  H      3.054462    3.459782    0.628628
  H      3.017776    5.719765   -1.098664
  H      3.068998    4.075941   -1.741647

 Total Charge           Charge          ....    0
 Multiplicity           Mult            ....    1
 Number of Electrons    NEL             ....   68
 Basis Dimension        Dim             ....  315

ORBITAL ENERGIES
----------------

  NO   OCC          E(Eh)            E(eV)
   0   2.0000     -20.629928      -561.3689
   1   2.0000     -20.626025      -561.2627
   2   2.0000     -20.568307      -559.6921
   3   2.0000     -20.562242      -559.5270
   4   2.0000     -11.399717      -310.2021
   5   2.0000     -11.399113      -310.1856
   6   2.0000     -11.390783      -309.9590
   7   2.0000     -11.274029      -306.7819
   8   2.0000     -11.273410      -306.7651
   9   2.0000      -1.506568       -40.9958
  10   2.0000      -1.465629       -39.8818
  11   2.0000      -1.404559       -38.2200
  12   2.0000      -1.376835       -37.4656
  13   2.0000      -1.113930       -30.3116
  14   2.0000      -1.013260       -27.5722
  15   2.0000      -0.886878       -24.1332
  16   2.0000      -0.880238       -23.9525
  17   2.0000      -0.806407       -21.9435
  18   2.0000      -0.767694       -20.8900
  19   2.0000      -0.743637       -20.2354
  20   2.0000      -0.688021       -18.7220
  21   2.0000      -0.682574       -18.5738
  22   2.0000      -0.670235       -18.2380
  23   2.0000      -0.638239       -17.3674
  24   2.0000      -0.621327       -16.9072
  25   2.0000      -0.601233       -16.3604
  26   2.0000      -0.592045       -16.1104
  27   2.0000      -0.566125       -15.4051
  28   2.0000      -0.544528       -14.8174
  29   2.0000      -0.531380       -14.4596
  30   2.0000      -0.502718       -13.6797
  31   2.0000      -0.484969       -13.1967
  32   2.0000      -0.472324       -12.8526
  33   2.0000      -0.458064       -12.4646
  34   0.0000       0.116326         3.1654
  35   0.0000       0.127662         3.4739
  36   0.0000       0.144290         3.9263
  37   0.0000       0.152836         4.1589
  38   0.0000       0.159576         4.3423

MULLIKEN ATOMIC CHARGES
-----------------------
   0 O :   -0.248568
   1 C :    0.191144
   2 O :   -0.213802
   3 C :    0.160826
   4 C :   -0.225356
   5 C :   -0.247595
   6 C :    0.239948
   7 O :   -0.255106
   8 O :   -0.224158
   9 H :    0.091810
  10 H :    0.127558
  11 H :    0.139309
  12 H :    0.149541
  13 H :    0.154904
  14 H :    0.159544
Sum of atomic charges:   -0.0000000

LOEWDIN ATOMIC CHARGES
----------------------
   0 O :    0.139152
   1 C :   -0.428759
   2 O :    0.252706
   3 C :   -0.363203
   4 C :   -0.227314
   5 C :   -0.221688
   6 C :   -0.439010
   7 O :    0.162969
   8 O :    0.265428
   9 H :    0.108379
  10 H :    0.136065
  11 H :    0.148321
  12 H :    0.149235
  13 H :    0.154104
  14 H :    0.163614

  Mayer bond orders larger than 0.1
B(  0-O ,  1-C ) :   2.0459 B(  1-C ,  2-O ) :   1.0212 B(  1-C ,  9-H ) :   0.9169
B(  2-O ,  3-C ) :   0.9348 B(  3-C ,  4-C ) :   0.9222 B(  3-C ,  8-O ) :   0.9368
B(  3-C , 10-H ) :   0.9305 B(  4-C ,  5-C ) :   0.9426 B(  4-C , 11-H ) :   0.9206
B(  4-C , 12-H ) :   0.9264 B(  5-C ,  6-C ) :   0.9293 B(  5-C , 13-H ) :   0.9171
B(  5-C , 14-H ) :   0.9014 B(  6-C ,  7-O ) :   2.0682 B(  6-C ,  8-O ) :   1.0406

MP2 TOTAL ENERGY:     -494.206629569 Eh
FINAL SINGLE POINT ENERGY      -494.206629569136

DIPOLE MOMENT
-------------
                                X             Y             Z
Electronic contribution:     -3.66849      -2.23339      -2.88631
Nuclear contribution   :      4.42380       2.96901       4.44822
                        -----------------------------------------
Total Dipole Moment    :      0.75531       0.73562       1.56191
                        -----------------------------------------
Magnitude (a.u.)       :      1.88446
Magnitude (Debye)      :      4.78991

                             ****ORCA TERMINATED NORMALLY****
TOTAL RUN TIME: 0 days 0 hours 13 minutes 7 seconds 760 msec
