                         Program Version 3.0.3 - RELEASE   -
|  1> ! RI-MP2 RIJK def2-TZVP def2-TZVP/C def2-TZVP/JK TIGHTSCF
|  2> % maxcore 2000
|  3> % mp2 density relaxed end
|  4> *xyz 0 1
|  5>  C        0.0318665751     1.5293201689    -0.0129561112
|  6>  C       -0.0267365327     0.0366231535     0.0265511878
|  7>  C        0.4818592337    -1.0036544362    -0.9673213934
|  8>  N        1.1097993498    -0.8074754735     0.3853643955
|  9>  C        0.5926811508    -1.7130525074     1.3896449904
| 10>  N       -0.6669438598    -1.7734294898     1.5275243012
| 11>  C       -1.1979289298    -0.9217498533     0.4473156409
| 12>  C       -0.8718152836    -1.6482331465    -0.8918177246
| 13>  O       -1.5358606493    -2.2524726822    -1.6832147195
| 14>  H        0.9977694371     1.8592750505    -0.4033998355
| 15>  H       -0.7600139659     1.9306420293    -0.6527491180
| 16>  H       -0.0960007397     1.9478132779     0.9905998778
| 17>  H        1.1369172352    -0.9201797714    -1.8253042147
| 18>  H        1.3059110950    -2.2703391590     1.9863363322
| 19>  H       -2.2115545059    -0.5659166109     0.6127944811
| 20> *
| 21>
| 22>                          ****END OF INPUT****

CARTESIAN COORDINATES (ANGSTROEM)
---------------------------------
  C      0.031867    1.529320   -0.012956
  C     -0.026737    0.036623    0.026551
  C      0.481859   -1.003654   -0.967321
  N      1.109799   -0.807475    0.385364
  C      0.592681   -1.713053    1.389645
  N     -0.666944   -1.773429    1.527524
  C     -1.197929   -0.921750    0.447316
  C     -0.871815   -1.648233   -0.891818
  O     -1.535861   -2.252473   -1.683215
  H      0.997769    1.859275   -0.403400
  H     -0.760014    1.930642   -0.652749
  H     -0.096001    1.947813    0.990600
  H      1.136917   -0.920180   -1.825304
  H      1.305911   -2.270339    1.986336
  H     -2.211555   -0.565917    0.612794

 Total Charge           Charge          ....    0
 Multiplicity           Mult            ....    1
 Number of Electrons    NEL             ....   64
 Basis Dimension        Dim             ....  315

ORBITAL ENERGIES
----------------

  NO   OCC          E(Eh)            E(eV)
   0   2.0000     -20.560633      -559.4833
   1   2.0000     -15.611841      -424.8198
   2   2.0000     -15.581181      -423.9855
   3   2.0000     -11.351972      -308.9029
   4   2.0000     -11.324263      -308.1489
   5   2.0000     -11.315282      -307.9045
   6   2.0000     -11.301372      -307.5260
   7   2.0000     -11.292990      -307.2979
   8   2.0000     -11.252716      -306.2020
   9   2.0000      -1.410759       -38.3887
  10   2.0000      -1.369143       -37.2563
  11   2.0000      -1.219325       -33.1795
  12   2.0000      -1.082179       -29.4476
  13   2.0000      -1.018471       -27.7140
  14   2.0000      -0.914534       -24.8857
  15   2.0000      -0.858854       -23.3706
  16   2.0000      -0.794225       -21.6120
  17   2.0000      -0.749073       -20.3833
  18   2.0000      -0.699658       -19.0387
  19   2.0000      -0.683823       -18.6078
  20   2.0000      -0.627792       -17.0831
  21   2.0000      -0.610127       -16.6024
  22   2.0000      -0.603286       -16.4163
  23   2.0000      -0.596315       -16.2266
  24   2.0000      -0.568793       -15.4776
  25   2.0000      -0.562672       -15.3111
  26   2.0000      -0.523657       -14.2494
  27   2.0000      -0.491698       -13.3798
  28   2.0000      -0.477722       -12.9995
  29   2.0000      -0.440474       -11.9859
  30   2.0000      -0.428595       -11.6627
  31   2.0000      -0.375945       -10.2300
  32   0.0000       0.112100         3.0504
  33   0.0000       0.123937         3.3725
  34   0.0000       0.148137         4.0310
  35   0.0000       0.169984         4.6255
  36   0.0000       0.175633         4.7792

MULLIKEN ATOMIC CHARGES
-----------------------
   0 C :   -0.434897
   1 C :    0.106629
   2 C :   -0.091566
   3 N :   -0.210470
   4 C :    0.003075
   5 N :   -0.208551
   6 C :    0.054553
   7 C :    0.117685
   8 O :   -0.248290
   9 H :    0.155953
  10 H :    0.148311
  11 H :    0.152601
  12 H :    0.156338
  13 H :    0.151945
  14 H :    0.146683
Sum of atomic charges:   -0.0000000

LOEWDIN ATOMIC CHARGES
----------------------
   0 C :   -0.260860
   1 C :   -0.205864
   2 C :   -0.125162
   3 N :    0.169896
   4 C :   -0.256187
   5 N :    0.130183
   6 C :   -0.169169
   7 C :   -0.296692
   8 O :    0.168447
   9 H :    0.140769
  10 H :    0.137455
  11 H :    0.138001
  12 H :    0.144910
  13 H :    0.137764
  14 H :    0.146507

  Mayer bond orders larger than 0.1
B(  0-C ,  1-C ) :   0.8279 B(  0-C ,  9-H ) :   0.9407 B(  0-C , 10-H ) :   0.9347
B(  0-C , 11-H ) :   0.9389 B(  1-C ,  2-C ) :   0.7846 B(  1-C ,  3-N ) :   0.8390
B(  1-C ,  6-C ) :   0.8381 B(  2-C ,  3-N ) :   0.8443 B(  2-C ,  6-C ) :  -0.1082
B(  2-C ,  7-C ) :   0.9377 B(  2-C , 12-H ) :   0.9131 B(  3-N ,  4-C ) :   0.9671
B(  4-C ,  5-N ) :   1.8417 B(  4-C , 13-H ) :   0.9206 B(  5-N ,  6-C ) :   0.9005
B(  6-C ,  7-C ) :   0.8499 B(  6-C , 14-H ) :   0.9167 B(  7-C ,  8-O ) :   2.0349

MP2 TOTAL ENERGY:     -416.069389628 Eh
FINAL SINGLE POINT ENERGY      -416.069389628460

DIPOLE MOMENT
-------------
                                X             Y             Z
Electronic contribution:     -1.09586      -5.96100      -0.49954
Nuclear contribution   :      1.71346       7.13062       0.62814
                        -----------------------------------------
Total Dipole Moment    :      0.61759       1.16961       0.12859
                        -----------------------------------------
Magnitude (a.u.)       :      1.32889
Magnitude (Debye)      :      3.37778

                             ****ORCA TERMINATED NORMALLY****
TOTAL RUN TIME: 0 days 0 hours 18 minutes 16 seconds 557 msec
