                         Program Version 3.0.3 - RELEASE   -
|  1> ! RI-MP2 RIJK def2-TZVP def2-TZVP/C def2-TZVP/JK TIGHTSCF
|  2> % maxcore 2000
|  3> % mp2 density relaxed end
|  4> *xyz 0 1
|  5>  O       -0.0697779391     0.0522798622     0.0292741506
|  6>  C       -0.0668985180     1.2438108682     0.0784519157
|  7>  C       -1.1327019362     2.3399984686    -0.0844568717
|  8>  C       -0.9760333134     3.1825033662     1.2168035534
|  9>  C        0.4008020139     3.5726883960     0.6722377854
| 10>  C        0.0256882835     3.2142669054    -0.7201167618
| 11>  C        1.0237664714     2.2944250731     0.0475214160
| 12>  C        2.4222366983     2.1497633225    -0.1536212700
| 13>  N        3.5608610906     2.0194732058    -0.3144871203
| 14>  H       -2.0986570891     2.1119418827    -0.5235586678
| 15>  H       -1.6454679827     4.0458075888     1.2208273247
| 16>  H       -1.0383032305     2.6509037132     2.1709714252
| 17>  H        1.0728212103     4.3515539461     1.0089294696
| 18>  H        0.1835638810     3.6521204412    -1.6932833689
| 19> *
| 20>
| 21>                          ****END OF INPUT****

CARTESIAN COORDINATES (ANGSTROEM)
---------------------------------
  O     -0.069778    0.052280    0.029274
  C     -0.066899    1.243811    0.078452
  C     -1.132702    2.339998   -0.084457
  C     -0.976033    3.182503    1.216804
  C      0.400802    3.572688    0.672238
  C      0.025688    3.214267   -0.720117
  C      1.023766    2.294425    0.047521
  C      2.422237    2.149763   -0.153621
  N      3.560861    2.019473   -0.314487
  H     -2.098657    2.111942   -0.523559
  H     -1.645468    4.045808    1.220827
  H     -1.038303    2.650904    2.170971
  H      1.072821    4.351554    1.008929
  H      0.183564    3.652120   -1.693283

 Total Charge           Charge          ....    0
 Multiplicity           Mult            ....    1
 Number of Electrons    NEL             ....   62
 Basis Dimension        Dim             ....  309

ORBITAL ENERGIES
----------------

  NO   OCC          E(Eh)            E(eV)
   0   2.0000     -20.569048      -559.7123
   1   2.0000     -15.581583      -423.9964
   2   2.0000     -11.364506      -309.2439
   3   2.0000     -11.310047      -307.7620
   4   2.0000     -11.302886      -307.5672
   5   2.0000     -11.300614      -307.5053
   6   2.0000     -11.287867      -307.1585
   7   2.0000     -11.286556      -307.1228
   8   2.0000     -11.276550      -306.8505
   9   2.0000      -1.418592       -38.6018
  10   2.0000      -1.289584       -35.0914
  11   2.0000      -1.223917       -33.3045
  12   2.0000      -1.040255       -28.3068
  13   2.0000      -0.985627       -26.8203
  14   2.0000      -0.920531       -25.0489
  15   2.0000      -0.830729       -22.6053
  16   2.0000      -0.784245       -21.3404
  17   2.0000      -0.731113       -19.8946
  18   2.0000      -0.680409       -18.5149
  19   2.0000      -0.661483       -17.9999
  20   2.0000      -0.637243       -17.3403
  21   2.0000      -0.622077       -16.9276
  22   2.0000      -0.570760       -15.5312
  23   2.0000      -0.565858       -15.3978
  24   2.0000      -0.535773       -14.5791
  25   2.0000      -0.518679       -14.1140
  26   2.0000      -0.503456       -13.6997
  27   2.0000      -0.496834       -13.5195
  28   2.0000      -0.456907       -12.4331
  29   2.0000      -0.416159       -11.3243
  30   2.0000      -0.409828       -11.1520
  31   0.0000       0.118647         3.2285
  32   0.0000       0.132110         3.5949
  33   0.0000       0.139950         3.8082
  34   0.0000       0.144413         3.9297
  35   0.0000       0.160871         4.3775

MULLIKEN ATOMIC CHARGES
-----------------------
   0 O :   -0.234301
   1 C :    0.145203
   2 C :   -0.044584
   3 C :   -0.202391
   4 C :   -0.136763
   5 C :   -0.175692
   6 C :    0.163975
   7 C :   -0.274123
   8 N :   -0.033074
   9 H :    0.161271
  10 H :    0.136801
  11 H :    0.137494
  12 H :    0.169754
  13 H :    0.186429
Sum of atomic charges:   -0.0000000

LOEWDIN ATOMIC CHARGES
----------------------
   0 O :    0.182360
   1 C :   -0.264475
   2 C :   -0.113078
   3 C :   -0.174222
   4 C :   -0.112150
   5 C :   -0.051625
   6 C :   -0.128535
   7 C :   -0.151138
   8 N :    0.083652
   9 H :    0.144921
  10 H :    0.146711
  11 H :    0.135230
  12 H :    0.152980
  13 H :    0.149370

  Mayer bond orders larger than 0.1
B(  0-O ,  1-C ) :   2.0831 B(  1-C ,  2-C ) :   0.8919 B(  1-C ,  6-C ) :   0.8392
B(  2-C ,  3-C ) :   0.8946 B(  2-C ,  5-C ) :   0.8699 B(  2-C ,  6-C ) :  -0.1279
B(  2-C ,  9-H ) :   0.9018 B(  3-C ,  4-C ) :   0.9344 B(  3-C , 10-H ) :   0.9199
B(  3-C , 11-H ) :   0.9200 B(  4-C ,  5-C ) :   0.8960 B(  4-C ,  6-C ) :   0.7539
B(  4-C , 12-H ) :   0.9131 B(  5-C ,  6-C ) :   0.7937 B(  5-C , 13-H ) :   0.8861
B(  6-C ,  7-C ) :   0.9152 B(  7-C ,  8-N ) :   2.8634

MP2 TOTAL ENERGY:     -398.830444831 Eh
FINAL SINGLE POINT ENERGY      -398.830444830957

DIPOLE MOMENT
-------------
                                X             Y             Z
Electronic contribution:      4.23603      -3.84869      -1.43065
Nuclear contribution   :     -5.88338       5.41363       1.61419
                        -----------------------------------------
Total Dipole Moment    :     -1.64735       1.56494       0.18354
                        -----------------------------------------
Magnitude (a.u.)       :      2.27958
Magnitude (Debye)      :      5.79423

                             ****ORCA TERMINATED NORMALLY****
TOTAL RUN TIME: 0 days 0 hours 15 minutes 19 seconds 577 msec
