                         Program Version 3.0.3 - RELEASE   -
|  1> ! RI-MP2 RIJK def2-TZVP def2-TZVP/C def2-TZVP/JK TIGHTSCF
|  2> % maxcore 2000
|  3> % mp2 density relaxed end
|  4> *xyz 0 1
|  5>  O        0.0834698152     1.3789534964     0.2356685058
|  6>  C       -0.0160285612    -0.0089877118     0.0498571577
|  7>  C       -1.4621050640    -0.5419276804    -0.1081752979
|  8>  C       -1.1531089241    -1.9423968224    -0.7009844737
|  9>  C       -0.4220105737    -1.3913146500    -1.9489892100
| 10>  C       -1.4398061705    -0.3451168422    -2.4192652957
| 11>  C       -2.0456065416     0.1529150674    -1.3366226748
| 12>  C        0.6143720946    -0.4660721647    -1.2878894048
| 13>  O        1.6592953632    -0.0525735878    -1.7217511326
| 14>  H        0.9005293404     1.6526792325    -0.2029253514
| 15>  H        0.4900885410    -0.5522642383     0.8668527378
| 16>  H       -2.0589663633    -0.5097792685     0.8024898515
| 17>  H       -0.5204741884    -2.5605900356    -0.0549301767
| 18>  H       -2.0580378235    -2.4931767904    -0.9658630580
| 19>  H       -0.0296941972    -2.0773345701    -2.6964678226
| 20>  H       -1.5195539738    -0.0056881200    -3.4432247112
| 21>  H       -2.7533718529     0.9698021458    -1.3003758235
| 22> *
| 23>
| 24>                          ****END OF INPUT****

CARTESIAN COORDINATES (ANGSTROEM)
---------------------------------
  O      0.083470    1.378953    0.235669
  C     -0.016029   -0.008988    0.049857
  C     -1.462105   -0.541928   -0.108175
  C     -1.153109   -1.942397   -0.700984
  C     -0.422011   -1.391315   -1.948989
  C     -1.439806   -0.345117   -2.419265
  C     -2.045607    0.152915   -1.336623
  C      0.614372   -0.466072   -1.287889
  O      1.659295   -0.052574   -1.721751
  H      0.900529    1.652679   -0.202925
  H      0.490089   -0.552264    0.866853
  H     -2.058966   -0.509779    0.802490
  H     -0.520474   -2.560590   -0.054930
  H     -2.058038   -2.493177   -0.965863
  H     -0.029694   -2.077335   -2.696468
  H     -1.519554   -0.005688   -3.443225
  H     -2.753372    0.969802   -1.300376

 Total Charge           Charge          ....    0
 Multiplicity           Mult            ....    1
 Number of Electrons    NEL             ....   66
 Basis Dimension        Dim             ....  327

ORBITAL ENERGIES
----------------

  NO   OCC          E(Eh)            E(eV)
   0   2.0000     -20.564647      -559.5925
   1   2.0000     -20.556462      -559.3698
   2   2.0000     -11.336790      -308.4897
   3   2.0000     -11.296749      -307.4002
   4   2.0000     -11.257305      -306.3268
   5   2.0000     -11.252584      -306.1984
   6   2.0000     -11.247661      -306.0644
   7   2.0000     -11.246026      -306.0199
   8   2.0000     -11.244153      -305.9690
   9   2.0000      -1.406293       -38.2672
  10   2.0000      -1.368668       -37.2433
  11   2.0000      -1.196452       -32.5571
  12   2.0000      -1.014354       -27.6020
  13   2.0000      -0.988733       -26.9048
  14   2.0000      -0.939372       -25.5616
  15   2.0000      -0.806056       -21.9339
  16   2.0000      -0.780973       -21.2514
  17   2.0000      -0.734313       -19.9817
  18   2.0000      -0.708719       -19.2852
  19   2.0000      -0.683789       -18.6068
  20   2.0000      -0.670818       -18.2539
  21   2.0000      -0.646983       -17.6053
  22   2.0000      -0.589139       -16.0313
  23   2.0000      -0.573063       -15.5938
  24   2.0000      -0.551694       -15.0124
  25   2.0000      -0.545127       -14.8337
  26   2.0000      -0.543699       -14.7948
  27   2.0000      -0.516269       -14.0484
  28   2.0000      -0.501123       -13.6362
  29   2.0000      -0.482890       -13.1401
  30   2.0000      -0.456401       -12.4193
  31   2.0000      -0.409809       -11.1515
  32   2.0000      -0.354833        -9.6555
  33   0.0000       0.120013         3.2657
  34   0.0000       0.133991         3.6461
  35   0.0000       0.154627         4.2076
  36   0.0000       0.165314         4.4984
  37   0.0000       0.170816         4.6481

MULLIKEN ATOMIC CHARGES
-----------------------
   0 O :   -0.480437
   1 C :    0.048081
   2 C :    0.067288
   3 C :   -0.317880
   4 C :    0.045971
   5 C :   -0.217699
   6 C :   -0.226018
   7 C :    0.082700
   8 O :   -0.278598
   9 H :    0.331817
  10 H :    0.111740
  11 H :    0.140056
  12 H :    0.135735
  13 H :    0.129871
  14 H :    0.141383
  15 H :    0.145894
  16 H :    0.140097
Sum of atomic charges:    0.0000000

LOEWDIN ATOMIC CHARGES
----------------------
   0 O :   -0.001095
   1 C :   -0.298668
   2 C :   -0.186686
   3 C :   -0.180532
   4 C :   -0.180316
   5 C :   -0.114457
   6 C :   -0.107755
   7 C :   -0.274907
   8 O :    0.150091
   9 H :    0.186253
  10 H :    0.147314
  11 H :    0.146463
  12 H :    0.139198
  13 H :    0.144251
  14 H :    0.149314
  15 H :    0.140946
  16 H :    0.140585

  Mayer bond orders larger than 0.1
B(  0-O ,  1-C ) :   1.0048 B(  0-O ,  2-C ) :  -0.1004 B(  0-O ,  9-H ) :   0.8242
B(  1-C ,  2-C ) :   0.8477 B(  1-C ,  4-C ) :  -0.1042 B(  1-C ,  7-C ) :   0.9066
B(  1-C , 10-H ) :   0.9281 B(  2-C ,  3-C ) :   0.8769 B(  2-C ,  6-C ) :   0.8849
B(  2-C , 11-H ) :   0.9104 B(  3-C ,  4-C ) :   0.9048 B(  3-C , 12-H ) :   0.9308
B(  3-C , 13-H ) :   0.9062 B(  4-C ,  5-C ) :   0.8888 B(  4-C ,  7-C ) :   0.8217
B(  4-C , 14-H ) :   0.9079 B(  5-C ,  6-C ) :   1.7562 B(  5-C , 15-H ) :   0.9187
B(  6-C , 16-H ) :   0.9182 B(  7-C ,  8-O ) :   2.0119

MP2 TOTAL ENERGY:     -421.143654248 Eh
FINAL SINGLE POINT ENERGY      -421.143654248030

DIPOLE MOMENT
-------------
                                X             Y             Z
Electronic contribution:      3.33678       2.18670      -0.91080
Nuclear contribution   :     -3.96841      -2.84689       0.93869
                        -----------------------------------------
Total Dipole Moment    :     -0.63163      -0.66019       0.02789
                        -----------------------------------------
Magnitude (a.u.)       :      0.91411
Magnitude (Debye)      :      2.32348

                             ****ORCA TERMINATED NORMALLY****
TOTAL RUN TIME: 0 days 0 hours 19 minutes 59 seconds 789 msec
