                         Program Version 3.0.3 - RELEASE   -
|  1> ! RI-MP2 RIJK def2-TZVP def2-TZVP/C def2-TZVP/JK TIGHTSCF
|  2> % maxcore 2000
|  3> % mp2 density relaxed end
|  4> *xyz 0 1
|  5>  C       -0.0240475545     1.4128749266     0.0025918194
|  6>  N       -0.0367385260    -0.0281815875     0.0694072799
|  7>  C       -1.1987036836    -0.8149545525    -0.3073997043
|  8>  C       -0.8131207154    -2.2558207192     0.1008078539
|  9>  C        0.7058365819    -2.2224040538     0.1226324181
| 10>  C        1.5845521052    -3.2975024915     0.6277181090
| 11>  N        1.5534308089    -2.9960989103    -0.8135959644
| 12>  C        1.1007476989    -0.7675475801     0.2713491552
| 13>  O        2.2048570541    -0.3316926250     0.5211511852
| 14>  H        0.9728304190     1.7471591909     0.2955762261
| 15>  H       -0.2371429311     1.7688051377    -1.0142625020
| 16>  H       -0.7686743058     1.8454711058     0.6814909295
| 17>  H       -2.0939503764    -0.4608441347     0.2162423515
| 18>  H       -1.3962839054    -0.7336662608    -1.3869932287
| 19>  H       -1.2029597280    -2.4741740032     1.1002615957
| 20>  H       -1.2197459565    -3.0028875219    -0.5857734768
| 21>  H        2.5089242924    -3.0150170172     1.1227612580
| 22>  H        1.1163354296    -4.2113399587     0.9856607880
| 23>  H        0.9688113626    -3.6811724147    -1.2894297334
| 24> *
| 25>
| 26>                          ****END OF INPUT****

CARTESIAN COORDINATES (ANGSTROEM)
---------------------------------
  C     -0.024048    1.412875    0.002592
  N     -0.036739   -0.028182    0.069407
  C     -1.198704   -0.814955   -0.307400
  C     -0.813121   -2.255821    0.100808
  C      0.705837   -2.222404    0.122632
  C      1.584552   -3.297502    0.627718
  N      1.553431   -2.996099   -0.813596
  C      1.100748   -0.767548    0.271349
  O      2.204857   -0.331693    0.521151
  H      0.972830    1.747159    0.295576
  H     -0.237143    1.768805   -1.014263
  H     -0.768674    1.845471    0.681491
  H     -2.093950   -0.460844    0.216242
  H     -1.396284   -0.733666   -1.386993
  H     -1.202960   -2.474174    1.100262
  H     -1.219746   -3.002888   -0.585773
  H      2.508924   -3.015017    1.122761
  H      1.116335   -4.211340    0.985661
  H      0.968811   -3.681172   -1.289430

 Total Charge           Charge          ....    0
 Multiplicity           Mult            ....    1
 Number of Electrons    NEL             ....   68
 Basis Dimension        Dim             ....  339

ORBITAL ENERGIES
----------------

  NO   OCC          E(Eh)            E(eV)
   0   2.0000     -20.510156      -558.1097
   1   2.0000     -15.584611      -424.0788
   2   2.0000     -15.569538      -423.6687
   3   2.0000     -11.339308      -308.5583
   4   2.0000     -11.279755      -306.9377
   5   2.0000     -11.276461      -306.8481
   6   2.0000     -11.262356      -306.4643
   7   2.0000     -11.258218      -306.3517
   8   2.0000     -11.251362      -306.1651
   9   2.0000      -1.378281       -37.5049
  10   2.0000      -1.275076       -34.6966
  11   2.0000      -1.254844       -34.1460
  12   2.0000      -1.059343       -28.8262
  13   2.0000      -0.961540       -26.1648
  14   2.0000      -0.930979       -25.3332
  15   2.0000      -0.887864       -24.1600
  16   2.0000      -0.819183       -22.2911
  17   2.0000      -0.729452       -19.8494
  18   2.0000      -0.694138       -18.8885
  19   2.0000      -0.681545       -18.5458
  20   2.0000      -0.655629       -17.8406
  21   2.0000      -0.647746       -17.6261
  22   2.0000      -0.604991       -16.4626
  23   2.0000      -0.594998       -16.1907
  24   2.0000      -0.561466       -15.2783
  25   2.0000      -0.550225       -14.9724
  26   2.0000      -0.537999       -14.6397
  27   2.0000      -0.534314       -14.5394
  28   2.0000      -0.523741       -14.2517
  29   2.0000      -0.477797       -13.0015
  30   2.0000      -0.472696       -12.8627
  31   2.0000      -0.418478       -11.3874
  32   2.0000      -0.395252       -10.7553
  33   2.0000      -0.369556       -10.0561
  34   0.0000       0.121930         3.3179
  35   0.0000       0.140171         3.8143
  36   0.0000       0.158148         4.3034
  37   0.0000       0.167809         4.5663
  38   0.0000       0.172612         4.6970

MULLIKEN ATOMIC CHARGES
-----------------------
   0 C :   -0.328252
   1 N :   -0.074961
   2 C :   -0.155960
   3 C :   -0.207476
   4 C :    0.156122
   5 C :   -0.221072
   6 N :   -0.395017
   7 C :    0.153247
   8 O :   -0.360281
   9 H :    0.179560
  10 H :    0.132916
  11 H :    0.134592
  12 H :    0.129086
  13 H :    0.114345
  14 H :    0.127890
  15 H :    0.126672
  16 H :    0.147081
  17 H :    0.128194
  18 H :    0.213314
Sum of atomic charges:   -0.0000000

LOEWDIN ATOMIC CHARGES
----------------------
   0 C :   -0.290487
   1 N :    0.176806
   2 C :   -0.237390
   3 C :   -0.206974
   4 C :   -0.268062
   5 C :   -0.232077
   6 N :    0.016832
   7 C :   -0.396617
   8 O :    0.093633
   9 H :    0.137561
  10 H :    0.117941
  11 H :    0.117800
  12 H :    0.130922
  13 H :    0.128839
  14 H :    0.146898
  15 H :    0.139388
  16 H :    0.136823
  17 H :    0.123176
  18 H :    0.164988

  Mayer bond orders larger than 0.1
B(  0-C ,  1-N ) :   0.8796 B(  0-C ,  9-H ) :   0.9226 B(  0-C , 10-H ) :   0.9303
B(  0-C , 11-H ) :   0.9315 B(  1-N ,  2-C ) :   0.9098 B(  1-N ,  7-C ) :   1.1854
B(  2-C ,  3-C ) :   0.9533 B(  2-C , 12-H ) :   0.9327 B(  2-C , 13-H ) :   0.9107
B(  3-C ,  4-C ) :   0.9199 B(  3-C , 14-H ) :   0.9181 B(  3-C , 15-H ) :   0.9251
B(  4-C ,  5-C ) :   0.8846 B(  4-C ,  6-N ) :   0.8008 B(  4-C ,  7-C ) :   0.8726
B(  4-C ,  8-O ) :  -0.1031 B(  5-C ,  6-N ) :   0.9965 B(  5-C , 16-H ) :   0.9079
B(  5-C , 17-H ) :   0.9264 B(  6-N , 18-H ) :   0.8654 B(  7-C ,  8-O ) :   2.0014

MP2 TOTAL ENERGY:     -418.517014977 Eh
FINAL SINGLE POINT ENERGY      -418.517014976834

DIPOLE MOMENT
-------------
                                X             Y             Z
Electronic contribution:      4.62380      -0.52665       0.44006
Nuclear contribution   :     -6.55418       0.10527      -0.46488
                        -----------------------------------------
Total Dipole Moment    :     -1.93038      -0.42138      -0.02482
                        -----------------------------------------
Magnitude (a.u.)       :      1.97599
Magnitude (Debye)      :      5.02258

                             ****ORCA TERMINATED NORMALLY****
TOTAL RUN TIME: 0 days 0 hours 17 minutes 45 seconds 639 msec
