                         Program Version 3.0.3 - RELEASE   -
|  1> ! RI-MP2 RIJK def2-TZVP def2-TZVP/C def2-TZVP/JK TIGHTSCF
|  2> % maxcore 2000
|  3> % mp2 density relaxed end
|  4> *xyz 0 1
|  5>  C       -0.1189337783     1.5575545172     0.1370658625
|  6>  C        0.0875075040     0.0779830972     0.0369264135
|  7>  N       -0.8183679251    -0.8875369371     0.7252453539
|  8>  C        0.6417608586    -0.9147710988     1.0036344521
|  9>  C        1.2760106046    -1.7444992134    -0.1193911675
| 10>  C        0.6853509083    -0.7197357600    -1.1181710064
| 11>  C        0.0923707356    -0.9621286714    -2.4812756247
| 12>  C        1.3802511717    -0.1850214521    -2.3262243599
| 13>  O        1.3788741415     1.2029673341    -2.5161185641
| 14>  H        0.7689539653     2.1008366575    -0.1931165412
| 15>  H       -0.9558288873     1.8852491797    -0.4902490122
| 16>  H       -0.3438598532     1.8405990507     1.1718361352
| 17>  H       -1.2513295947    -0.3735810343     1.4943008928
| 18>  H        1.0177019328    -0.7668688810     2.0090663850
| 19>  H        2.3694951396    -1.7321030914    -0.1033864166
| 20>  H        0.9142965727    -2.7733478952    -0.2000347736
| 21>  H        0.1304796143    -1.9631737515    -2.8992865752
| 22>  H       -0.7951748266    -0.3922707761    -2.7392351892
| 23>  H        2.3076832177    -0.6801315902    -2.6204849754
| 24>  H        1.2480276885     1.3722991162    -3.4549601189
| 25> *
| 26>
| 27>                          ****END OF INPUT****

CARTESIAN COORDINATES (ANGSTROEM)
---------------------------------
  C     -0.118934    1.557555    0.137066
  C      0.087508    0.077983    0.036926
  N     -0.818368   -0.887537    0.725245
  C      0.641761   -0.914771    1.003634
  C      1.276011   -1.744499   -0.119391
  C      0.685351   -0.719736   -1.118171
  C      0.092371   -0.962129   -2.481276
  C      1.380251   -0.185021   -2.326224
  O      1.378874    1.202967   -2.516119
  H      0.768954    2.100837   -0.193117
  H     -0.955829    1.885249   -0.490249
  H     -0.343860    1.840599    1.171836
  H     -1.251330   -0.373581    1.494301
  H      1.017702   -0.766869    2.009066
  H      2.369495   -1.732103   -0.103386
  H      0.914297   -2.773348   -0.200035
  H      0.130480   -1.963174   -2.899287
  H     -0.795175   -0.392271   -2.739235
  H      2.307683   -0.680132   -2.620485
  H      1.248028    1.372299   -3.454960

 Total Charge           Charge          ....    0
 Multiplicity           Mult            ....    1
 Number of Electrons    NEL             ....   68
 Basis Dimension        Dim             ....  345

ORBITAL ENERGIES
----------------

  NO   OCC          E(Eh)            E(eV)
   0   2.0000     -20.563671      -559.5659
   1   2.0000     -15.549163      -423.1142
   2   2.0000     -11.281092      -306.9741
   3   2.0000     -11.261137      -306.4311
   4   2.0000     -11.252275      -306.1900
   5   2.0000     -11.235422      -305.7314
   6   2.0000     -11.223928      -305.4186
   7   2.0000     -11.219476      -305.2975
   8   2.0000     -11.216593      -305.2190
   9   2.0000      -1.372120       -37.3373
  10   2.0000      -1.273255       -34.6470
  11   2.0000      -1.127320       -30.6759
  12   2.0000      -1.002533       -27.2803
  13   2.0000      -0.984981       -26.8027
  14   2.0000      -0.839498       -22.8439
  15   2.0000      -0.825754       -22.4699
  16   2.0000      -0.808909       -22.0115
  17   2.0000      -0.711233       -19.3536
  18   2.0000      -0.698778       -19.0147
  19   2.0000      -0.665722       -18.1152
  20   2.0000      -0.635319       -17.2879
  21   2.0000      -0.612701       -16.6725
  22   2.0000      -0.589507       -16.0413
  23   2.0000      -0.568250       -15.4629
  24   2.0000      -0.562527       -15.3071
  25   2.0000      -0.544910       -14.8278
  26   2.0000      -0.519101       -14.1255
  27   2.0000      -0.505648       -13.7594
  28   2.0000      -0.482372       -13.1260
  29   2.0000      -0.464945       -12.6518
  30   2.0000      -0.444084       -12.0841
  31   2.0000      -0.396557       -10.7909
  32   2.0000      -0.392018       -10.6673
  33   2.0000      -0.345651        -9.4057
  34   0.0000       0.137113         3.7310
  35   0.0000       0.149288         4.0623
  36   0.0000       0.163333         4.4445
  37   0.0000       0.173864         4.7311
  38   0.0000       0.189648         5.1606

MULLIKEN ATOMIC CHARGES
-----------------------
   0 C :   -0.352872
   1 C :    0.144353
   2 N :   -0.383489
   3 C :   -0.166645
   4 C :   -0.099452
   5 C :    0.035354
   6 C :   -0.334096
   7 C :   -0.030203
   8 O :   -0.471422
   9 H :    0.157357
  10 H :    0.131641
  11 H :    0.116546
  12 H :    0.209371
  13 H :    0.134611
  14 H :    0.113838
  15 H :    0.105625
  16 H :    0.125981
  17 H :    0.134935
  18 H :    0.104474
  19 H :    0.324093
Sum of atomic charges:    0.0000000

LOEWDIN ATOMIC CHARGES
----------------------
   0 C :   -0.276752
   1 C :   -0.239567
   2 N :    0.017692
   3 C :   -0.211921
   4 C :   -0.170541
   5 C :   -0.168380
   6 C :   -0.195893
   7 C :   -0.298138
   8 O :   -0.002675
   9 H :    0.136583
  10 H :    0.130234
  11 H :    0.126577
  12 H :    0.168214
  13 H :    0.127463
  14 H :    0.137225
  15 H :    0.132895
  16 H :    0.134669
  17 H :    0.140358
  18 H :    0.131722
  19 H :    0.180236

  Mayer bond orders larger than 0.1
B(  0-C ,  1-C ) :   0.9022 B(  0-C ,  9-H ) :   0.9253 B(  0-C , 10-H ) :   0.9393
B(  0-C , 11-H ) :   0.9271 B(  1-C ,  2-N ) :   0.8966 B(  1-C ,  3-C ) :   0.8825
B(  1-C ,  5-C ) :   0.9022 B(  2-N ,  3-C ) :   0.9928 B(  2-N , 12-H ) :   0.8707
B(  3-C ,  4-C ) :   0.9283 B(  3-C , 13-H ) :   0.9144 B(  4-C ,  5-C ) :   0.9351
B(  4-C , 14-H ) :   0.9177 B(  4-C , 15-H ) :   0.8871 B(  5-C ,  6-C ) :   0.8523
B(  5-C ,  7-C ) :   0.8353 B(  5-C ,  8-O ) :  -0.1161 B(  6-C ,  7-C ) :   0.9348
B(  6-C , 16-H ) :   0.9169 B(  6-C , 17-H ) :   0.9178 B(  7-C ,  8-O ) :   1.0499
B(  7-C , 18-H ) :   0.9500 B(  8-O , 19-H ) :   0.8399

MP2 TOTAL ENERGY:     -402.392624714 Eh
FINAL SINGLE POINT ENERGY      -402.392624714162

DIPOLE MOMENT
-------------
                                X             Y             Z
Electronic contribution:      0.54266      -0.79036      -0.64403
Nuclear contribution   :     -0.24699       1.05068       0.42150
                        -----------------------------------------
Total Dipole Moment    :      0.29567       0.26033      -0.22253
                        -----------------------------------------
Magnitude (a.u.)       :      0.45245
Magnitude (Debye)      :      1.15004

                             ****ORCA TERMINATED NORMALLY****
TOTAL RUN TIME: 0 days 0 hours 18 minutes 5 seconds 633 msec
