                         Program Version 3.0.3 - RELEASE   -
|  1> ! RI-MP2 RIJK def2-TZVP def2-TZVP/C def2-TZVP/JK TIGHTSCF
|  2> % maxcore 2000
|  3> % mp2 density relaxed end
|  4> *xyz 0 1
|  5>  C        0.0494796483     1.4700724815     0.1769714713
|  6>  C       -0.0340353593    -0.0488377028    -0.0046648900
|  7>  C       -1.4711169525    -0.5246480276    -0.1879979857
|  8>  O        0.6822887054    -0.4894658844    -1.1539315685
|  9>  C        2.0864821486    -0.4903876453    -1.0317885400
| 10>  C        2.6694424557    -1.1577506927    -2.2717018566
| 11>  C        4.2093168967    -1.1976786527    -2.2346290755
| 12>  C        4.7897296987    -1.8253226418    -3.4152844117
| 13>  C        5.2465842214    -2.3458938144    -4.3975495563
| 14>  H        1.0789339354     1.8073960241     0.3273625855
| 15>  H       -0.3532067554     1.9779766321    -0.7054189534
| 16>  H       -0.5312992156     1.7820537813     1.0508555329
| 17>  H        0.3953421071    -0.5374523810     0.8872553319
| 18>  H       -1.9125494029    -0.0616903504    -1.0763822642
| 19>  H       -1.4998131712    -1.6095049104    -0.3185022585
| 20>  H       -2.0814815553    -0.2587342664     0.6800840902
| 21>  H        2.4846999103     0.5335411501    -0.9374232737
| 22>  H        2.3923170291    -1.0376693361    -0.1222899628
| 23>  H        2.2736618873    -2.1748276965    -2.3535137045
| 24>  H        2.3358247102    -0.6145096150    -3.1614463329
| 25>  H        4.6019369231    -0.1765520393    -2.1371430208
| 26>  H        4.5425496700    -1.7358068923    -1.3370439843
| 27>  H        5.6598698648    -2.8040468102    -5.2614040523
| 28> *
| 29>
| 30>                          ****END OF INPUT****

CARTESIAN COORDINATES (ANGSTROEM)
---------------------------------
  C      0.049480    1.470072    0.176971
  C     -0.034035   -0.048838   -0.004665
  C     -1.471117   -0.524648   -0.187998
  O      0.682289   -0.489466   -1.153932
  C      2.086482   -0.490388   -1.031789
  C      2.669442   -1.157751   -2.271702
  C      4.209317   -1.197679   -2.234629
  C      4.789730   -1.825323   -3.415284
  C      5.246584   -2.345894   -4.397550
  H      1.078934    1.807396    0.327363
  H     -0.353207    1.977977   -0.705419
  H     -0.531299    1.782054    1.050856
  H      0.395342   -0.537452    0.887255
  H     -1.912549   -0.061690   -1.076382
  H     -1.499813   -1.609505   -0.318502
  H     -2.081482   -0.258734    0.680084
  H      2.484700    0.533541   -0.937423
  H      2.392317   -1.037669   -0.122290
  H      2.273662   -2.174828   -2.353514
  H      2.335825   -0.614510   -3.161446
  H      4.601937   -0.176552   -2.137143
  H      4.542550   -1.735807   -1.337044
  H      5.659870   -2.804047   -5.261404

 Total Charge           Charge          ....    0
 Multiplicity           Mult            ....    1
 Number of Electrons    NEL             ....   70
 Basis Dimension        Dim             ....  363

ORBITAL ENERGIES
----------------

  NO   OCC          E(Eh)            E(eV)
   0   2.0000     -20.550695      -559.2128
   1   2.0000     -11.280721      -306.9640
   2   2.0000     -11.276363      -306.8454
   3   2.0000     -11.253530      -306.2241
   4   2.0000     -11.231187      -305.6161
   5   2.0000     -11.227515      -305.5162
   6   2.0000     -11.216955      -305.2289
   7   2.0000     -11.215915      -305.2006
   8   2.0000     -11.211790      -305.0883
   9   2.0000      -1.373675       -37.3796
  10   2.0000      -1.093573       -29.7576
  11   2.0000      -1.052110       -28.6294
  12   2.0000      -1.005516       -27.3615
  13   2.0000      -0.940741       -25.5989
  14   2.0000      -0.923998       -25.1433
  15   2.0000      -0.823334       -22.4041
  16   2.0000      -0.795825       -21.6555
  17   2.0000      -0.717977       -19.5372
  18   2.0000      -0.682609       -18.5747
  19   2.0000      -0.662643       -18.0314
  20   2.0000      -0.636252       -17.3133
  21   2.0000      -0.624307       -16.9883
  22   2.0000      -0.605139       -16.4667
  23   2.0000      -0.578528       -15.7425
  24   2.0000      -0.556424       -15.1411
  25   2.0000      -0.542647       -14.7662
  26   2.0000      -0.530001       -14.4221
  27   2.0000      -0.520250       -14.1567
  28   2.0000      -0.509635       -13.8679
  29   2.0000      -0.490417       -13.3449
  30   2.0000      -0.479069       -13.0361
  31   2.0000      -0.461013       -12.5448
  32   2.0000      -0.417806       -11.3691
  33   2.0000      -0.382905       -10.4194
  34   2.0000      -0.382518       -10.4088
  35   0.0000       0.130912         3.5623
  36   0.0000       0.145749         3.9660
  37   0.0000       0.167317         4.5529
  38   0.0000       0.169508         4.6126
  39   0.0000       0.173449         4.7198

MULLIKEN ATOMIC CHARGES
-----------------------
   0 C :   -0.396559
   1 C :    0.088979
   2 C :   -0.361686
   3 O :   -0.286851
   4 C :   -0.093606
   5 C :   -0.133480
   6 C :   -0.420067
   7 C :   -0.012097
   8 C :   -0.113344
   9 H :    0.130504
  10 H :    0.127986
  11 H :    0.128663
  12 H :    0.066129
  13 H :    0.127878
  14 H :    0.133871
  15 H :    0.119475
  16 H :    0.087685
  17 H :    0.088177
  18 H :    0.122775
  19 H :    0.123834
  20 H :    0.141431
  21 H :    0.140982
  22 H :    0.189323
Sum of atomic charges:    0.0000000

LOEWDIN ATOMIC CHARGES
----------------------
   0 C :   -0.300777
   1 C :   -0.376285
   2 C :   -0.293342
   3 O :    0.179428
   4 C :   -0.330844
   5 C :   -0.248379
   6 C :   -0.249907
   7 C :   -0.112566
   8 C :   -0.109160
   9 H :    0.119804
  10 H :    0.126279
  11 H :    0.126420
  12 H :    0.131251
  13 H :    0.126401
  14 H :    0.125120
  15 H :    0.124369
  16 H :    0.117752
  17 H :    0.118330
  18 H :    0.143639
  19 H :    0.144457
  20 H :    0.156206
  21 H :    0.156180
  22 H :    0.125623

  Mayer bond orders larger than 0.1
B(  0-C ,  1-C ) :   0.9095 B(  0-C ,  9-H ) :   0.9377 B(  0-C , 10-H ) :   0.9315
B(  0-C , 11-H ) :   0.9306 B(  1-C ,  2-C ) :   0.9306 B(  1-C ,  3-O ) :   0.9238
B(  1-C , 12-H ) :   0.9382 B(  2-C , 13-H ) :   0.9340 B(  2-C , 14-H ) :   0.9378
B(  2-C , 15-H ) :   0.9331 B(  3-O ,  4-C ) :   0.9696 B(  4-C ,  5-C ) :   0.9558
B(  4-C , 16-H ) :   0.9138 B(  4-C , 17-H ) :   0.9246 B(  5-C ,  6-C ) :   0.9262
B(  5-C , 18-H ) :   0.9245 B(  5-C , 19-H ) :   0.9228 B(  6-C ,  7-C ) :   1.1333
B(  6-C ,  8-C ) :  -0.1298 B(  6-C , 20-H ) :   0.9175 B(  6-C , 21-H ) :   0.9177
B(  7-C ,  8-C ) :   2.6128 B(  8-C , 22-H ) :   0.8942

MP2 TOTAL ENERGY:     -387.571231267 Eh
FINAL SINGLE POINT ENERGY      -387.571231266901

DIPOLE MOMENT
-------------
                                X             Y             Z
Electronic contribution:      6.92647      -4.12983      -5.99742
Nuclear contribution   :     -6.93358       4.37772       6.58316
                        -----------------------------------------
Total Dipole Moment    :     -0.00711       0.24789       0.58574
                        -----------------------------------------
Magnitude (a.u.)       :      0.63608
Magnitude (Debye)      :      1.61678

                             ****ORCA TERMINATED NORMALLY****
TOTAL RUN TIME: 0 days 0 hours 16 minutes 43 seconds 608 msec
