                         Program Version 3.0.3 - RELEASE   -
|  1> ! RI-MP2 RIJK def2-TZVP def2-TZVP/C def2-TZVP/JK TIGHTSCF
|  2> % maxcore 2000
|  3> % mp2 density relaxed end
|  4> *xyz 0 1
|  5>  C        0.0658207391     1.5192089151    -0.1097792375
|  6>  C        0.0130499403     0.0071224065    -0.0196269691
|  7>  C        1.3109816283    -0.7733395326    -0.1413848716
|  8>  C        0.6295554797    -0.6700177403     1.1927965765
|  9>  C       -1.2011041523    -0.6058096266    -0.5922960937
| 10>  C       -2.2921081662    -0.0573737512    -1.1920451267
| 11>  O       -3.1347923816    -1.0310200567    -1.5467459426
| 12>  N       -2.5271452555    -2.2485302557    -1.1427568301
| 13>  N       -1.4261194078    -1.9708107607    -0.6014145423
| 14>  H        0.9906647218     1.8981563352     0.3332872527
| 15>  H        0.0329741710     1.8591847034    -1.1514358462
| 16>  H       -0.7722276611     1.9812658612     0.4249067629
| 17>  H        1.2715158394    -1.7271843753    -0.6542281155
| 18>  H        2.2166326989    -0.2001517663    -0.3084630597
| 19>  H        1.0633155152    -0.0252792384     1.9496504281
| 20>  H        0.1332676151    -1.5545958149     1.5743786764
| 21>  H       -2.5875528143     0.9521975571    -1.4210962616
| 22> *
| 23>
| 24>                          ****END OF INPUT****

CARTESIAN COORDINATES (ANGSTROEM)
---------------------------------
  C      0.065821    1.519209   -0.109779
  C      0.013050    0.007122   -0.019627
  C      1.310982   -0.773340   -0.141385
  C      0.629555   -0.670018    1.192797
  C     -1.201104   -0.605810   -0.592296
  C     -2.292108   -0.057374   -1.192045
  O     -3.134792   -1.031020   -1.546746
  N     -2.527145   -2.248530   -1.142757
  N     -1.426119   -1.970811   -0.601415
  H      0.990665    1.898156    0.333287
  H      0.032974    1.859185   -1.151436
  H     -0.772228    1.981266    0.424907
  H      1.271516   -1.727184   -0.654228
  H      2.216633   -0.200152   -0.308463
  H      1.063316   -0.025279    1.949650
  H      0.133268   -1.554596    1.574379
  H     -2.587553    0.952198   -1.421096

 Total Charge           Charge          ....    0
 Multiplicity           Mult            ....    1
 Number of Electrons    NEL             ....   66
 Basis Dimension        Dim             ....  327

ORBITAL ENERGIES
----------------

  NO   OCC          E(Eh)            E(eV)
   0   2.0000     -20.659525      -562.1743
   1   2.0000     -15.691525      -426.9881
   2   2.0000     -15.634299      -425.4309
   3   2.0000     -11.317793      -307.9728
   4   2.0000     -11.279007      -306.9174
   5   2.0000     -11.262201      -306.4601
   6   2.0000     -11.236384      -305.7575
   7   2.0000     -11.236341      -305.7564
   8   2.0000     -11.235666      -305.7380
   9   2.0000      -1.529071       -41.6081
  10   2.0000      -1.312104       -35.7042
  11   2.0000      -1.177779       -32.0490
  12   2.0000      -1.090081       -29.6626
  13   2.0000      -0.984789       -26.7975
  14   2.0000      -0.882733       -24.0204
  15   2.0000      -0.863907       -23.5081
  16   2.0000      -0.834923       -22.7194
  17   2.0000      -0.796737       -21.6803
  18   2.0000      -0.723211       -19.6796
  19   2.0000      -0.682541       -18.5729
  20   2.0000      -0.666270       -18.1301
  21   2.0000      -0.645916       -17.5763
  22   2.0000      -0.592644       -16.1267
  23   2.0000      -0.588250       -16.0071
  24   2.0000      -0.567174       -15.4336
  25   2.0000      -0.551898       -15.0179
  26   2.0000      -0.530260       -14.4291
  27   2.0000      -0.526177       -14.3180
  28   2.0000      -0.493301       -13.4234
  29   2.0000      -0.469015       -12.7625
  30   2.0000      -0.444112       -12.0849
  31   2.0000      -0.434672       -11.8280
  32   2.0000      -0.348783        -9.4909
  33   0.0000       0.102258         2.7826
  34   0.0000       0.130279         3.5451
  35   0.0000       0.160106         4.3567
  36   0.0000       0.180888         4.9222
  37   0.0000       0.184166         5.0114

MULLIKEN ATOMIC CHARGES
-----------------------
   0 C :   -0.429742
   1 C :    0.143611
   2 C :   -0.281010
   3 C :   -0.281022
   4 C :    0.004621
   5 C :   -0.097057
   6 O :   -0.089485
   7 N :   -0.052227
   8 N :   -0.092715
   9 H :    0.139272
  10 H :    0.140361
  11 H :    0.140361
  12 H :    0.154859
  13 H :    0.134266
  14 H :    0.134268
  15 H :    0.154861
  16 H :    0.176778
Sum of atomic charges:   -0.0000000

LOEWDIN ATOMIC CHARGES
----------------------
   0 C :   -0.256746
   1 C :   -0.245515
   2 C :   -0.191438
   3 C :   -0.191435
   4 C :   -0.235056
   5 C :   -0.257020
   6 O :    0.257524
   7 N :   -0.022485
   8 N :    0.053569
   9 H :    0.132980
  10 H :    0.129372
  11 H :    0.129372
  12 H :    0.141315
  13 H :    0.134797
  14 H :    0.134798
  15 H :    0.141315
  16 H :    0.144653

  Mayer bond orders larger than 0.1
B(  0-C ,  1-C ) :   0.9107 B(  0-C ,  9-H ) :   0.9290 B(  0-C , 10-H ) :   0.9381
B(  0-C , 11-H ) :   0.9381 B(  1-C ,  2-C ) :   0.8352 B(  1-C ,  3-C ) :   0.8352
B(  1-C ,  4-C ) :   0.9660 B(  2-C ,  3-C ) :   0.9041 B(  2-C , 12-H ) :   0.9223
B(  2-C , 13-H ) :   0.9274 B(  3-C , 14-H ) :   0.9274 B(  3-C , 15-H ) :   0.9223
B(  4-C ,  5-C ) :   1.5002 B(  4-C ,  8-N ) :   1.2418 B(  5-C ,  6-O ) :   1.1546
B(  5-C ,  7-N ) :   0.1149 B(  5-C , 16-H ) :   0.9077 B(  6-O ,  7-N ) :   0.8745
B(  7-N ,  8-N ) :   1.4085

MP2 TOTAL ENERGY:     -417.266981558 Eh
FINAL SINGLE POINT ENERGY      -417.266981557764

DIPOLE MOMENT
-------------
                                X             Y             Z
Electronic contribution:     -8.88817      -6.37812      -4.04569
Nuclear contribution   :      9.46740       7.76244       4.23436
                        -----------------------------------------
Total Dipole Moment    :      0.57923       1.38432       0.18867
                        -----------------------------------------
Magnitude (a.u.)       :      1.51243
Magnitude (Debye)      :      3.84428

                             ****ORCA TERMINATED NORMALLY****
TOTAL RUN TIME: 0 days 0 hours 17 minutes 52 seconds 190 msec
