                         Program Version 3.0.3 - RELEASE   -
|  1> ! RI-MP2 RIJK def2-TZVP def2-TZVP/C def2-TZVP/JK TIGHTSCF
|  2> % maxcore 2000
|  3> % mp2 density relaxed end
|  4> *xyz 0 1
|  5>  C       -0.0014463078     1.4720073720     0.0923616678
|  6>  C       -0.0030048580    -0.0358591614    -0.0228037455
|  7>  C        0.6930094626    -0.7049471254    -1.2333725768
|  8>  C        0.4375894798    -2.1282860151    -0.6694686943
|  9>  C        1.0530249214    -1.9502096645     0.7283957774
| 10>  O        0.7214971567    -0.5938268585     1.0807075280
| 11>  C       -1.1036257871    -2.0993593116    -0.5490595888
| 12>  N       -1.6190340559    -1.8353579529     0.8131111953
| 13>  C       -1.4045454435    -0.7105199534    -0.1187859094
| 14>  H        1.0209930240     1.8586047685     0.0673106263
| 15>  H       -0.5653869256     1.9242549983    -0.7295387124
| 16>  H       -0.4594938476     1.7810907339     1.0366262859
| 17>  H        0.1785060181    -0.5249236372    -2.1813569010
| 18>  H        1.7492541078    -0.4334204420    -1.3226696349
| 19>  H        0.8383374405    -2.9691866068    -1.2359745137
| 20>  H        0.6303081538    -2.6319251725     1.4697051547
| 21>  H        2.1449906236    -2.0635240852     0.7016835916
| 22>  H       -1.7147899962    -2.6504305177    -1.2557032352
| 23>  H       -2.6133643885    -2.0544408689     0.8360162855
| 24>  H       -2.2565102081    -0.1397047496    -0.4750915105
| 25> *
| 26>
| 27>                          ****END OF INPUT****

CARTESIAN COORDINATES (ANGSTROEM)
---------------------------------
  C     -0.001446    1.472007    0.092362
  C     -0.003005   -0.035859   -0.022804
  C      0.693009   -0.704947   -1.233373
  C      0.437589   -2.128286   -0.669469
  C      1.053025   -1.950210    0.728396
  O      0.721497   -0.593827    1.080708
  C     -1.103626   -2.099359   -0.549060
  N     -1.619034   -1.835358    0.813111
  C     -1.404545   -0.710520   -0.118786
  H      1.020993    1.858605    0.067311
  H     -0.565387    1.924255   -0.729539
  H     -0.459494    1.781091    1.036626
  H      0.178506   -0.524924   -2.181357
  H      1.749254   -0.433420   -1.322670
  H      0.838337   -2.969187   -1.235975
  H      0.630308   -2.631925    1.469705
  H      2.144991   -2.063524    0.701684
  H     -1.714790   -2.650431   -1.255703
  H     -2.613364   -2.054441    0.836016
  H     -2.256510   -0.139705   -0.475092

 Total Charge           Charge          ....    0
 Multiplicity           Mult            ....    1
 Number of Electrons    NEL             ....   68
 Basis Dimension        Dim             ....  345

ORBITAL ENERGIES
----------------

  NO   OCC          E(Eh)            E(eV)
   0   2.0000     -20.536302      -558.8212
   1   2.0000     -15.558947      -423.3805
   2   2.0000     -11.283725      -307.0458
   3   2.0000     -11.259776      -306.3941
   4   2.0000     -11.257133      -306.3222
   5   2.0000     -11.252989      -306.2094
   6   2.0000     -11.234439      -305.7046
   7   2.0000     -11.222039      -305.3672
   8   2.0000     -11.213283      -305.1290
   9   2.0000      -1.369897       -37.2768
  10   2.0000      -1.259587       -34.2751
  11   2.0000      -1.075658       -29.2701
  12   2.0000      -1.033219       -28.1153
  13   2.0000      -0.918950       -25.0059
  14   2.0000      -0.888176       -24.1685
  15   2.0000      -0.849032       -23.1033
  16   2.0000      -0.777783       -21.1645
  17   2.0000      -0.734659       -19.9911
  18   2.0000      -0.704772       -19.1778
  19   2.0000      -0.668660       -18.1952
  20   2.0000      -0.652627       -17.7589
  21   2.0000      -0.595183       -16.1958
  22   2.0000      -0.577585       -15.7169
  23   2.0000      -0.570653       -15.5283
  24   2.0000      -0.534784       -14.5522
  25   2.0000      -0.523783       -14.2529
  26   2.0000      -0.508588       -13.8394
  27   2.0000      -0.503007       -13.6875
  28   2.0000      -0.479706       -13.0535
  29   2.0000      -0.476604       -12.9691
  30   2.0000      -0.455659       -12.3991
  31   2.0000      -0.438498       -11.9321
  32   2.0000      -0.395645       -10.7660
  33   2.0000      -0.369000       -10.0410
  34   0.0000       0.130807         3.5594
  35   0.0000       0.150106         4.0846
  36   0.0000       0.159637         4.3439
  37   0.0000       0.175033         4.7629
  38   0.0000       0.197786         5.3820

MULLIKEN ATOMIC CHARGES
-----------------------
   0 C :   -0.429305
   1 C :    0.331302
   2 C :   -0.312879
   3 C :    0.031991
   4 C :   -0.074544
   5 O :   -0.318321
   6 C :   -0.177140
   7 N :   -0.362992
   8 C :   -0.140333
   9 H :    0.138328
  10 H :    0.124497
  11 H :    0.146494
  12 H :    0.116485
  13 H :    0.120658
  14 H :    0.135778
  15 H :    0.112204
  16 H :    0.095941
  17 H :    0.125552
  18 H :    0.213235
  19 H :    0.123049
Sum of atomic charges:   -0.0000000

LOEWDIN ATOMIC CHARGES
----------------------
   0 C :   -0.266909
   1 C :   -0.342888
   2 C :   -0.183937
   3 C :   -0.219400
   4 C :   -0.264710
   5 O :    0.189860
   6 C :   -0.223836
   7 N :    0.016244
   8 C :   -0.205246
   9 H :    0.130411
  10 H :    0.128340
  11 H :    0.133230
  12 H :    0.140367
  13 H :    0.137281
  14 H :    0.146070
  15 H :    0.128573
  16 H :    0.119993
  17 H :    0.132777
  18 H :    0.169022
  19 H :    0.134757

  Mayer bond orders larger than 0.1
B(  0-C ,  1-C ) :   0.8350 B(  0-C ,  9-H ) :   0.9482 B(  0-C , 10-H ) :   0.9411
B(  0-C , 11-H ) :   0.9477 B(  1-C ,  2-C ) :   0.9575 B(  1-C ,  5-O ) :   0.9478
B(  1-C ,  8-C ) :   0.8445 B(  2-C ,  3-C ) :   0.9041 B(  2-C , 12-H ) :   0.9159
B(  2-C , 13-H ) :   0.9188 B(  3-C ,  4-C ) :   0.9397 B(  3-C ,  6-C ) :   0.8652
B(  3-C , 14-H ) :   0.9107 B(  4-C ,  5-O ) :   0.9491 B(  4-C , 15-H ) :   0.9201
B(  4-C , 16-H ) :   0.9138 B(  6-C ,  7-N ) :   1.0007 B(  6-C ,  8-C ) :   0.9969
B(  6-C , 17-H ) :   0.9247 B(  7-N ,  8-C ) :   0.9825 B(  7-N , 18-H ) :   0.8695
B(  8-C , 19-H ) :   0.9240

MP2 TOTAL ENERGY:     -402.441781278 Eh
FINAL SINGLE POINT ENERGY      -402.441781277626

DIPOLE MOMENT
-------------
                                X             Y             Z
Electronic contribution:     -0.83810      -2.40526       2.21402
Nuclear contribution   :      0.35279       2.24204      -3.23059
                        -----------------------------------------
Total Dipole Moment    :     -0.48532      -0.16321      -1.01657
                        -----------------------------------------
Magnitude (a.u.)       :      1.13823
Magnitude (Debye)      :      2.89316

                             ****ORCA TERMINATED NORMALLY****
TOTAL RUN TIME: 0 days 0 hours 21 minutes 41 seconds 999 msec
