                         Program Version 3.0.3 - RELEASE   -
|  1> ! RI-MP2 RIJK def2-TZVP def2-TZVP/C def2-TZVP/JK TIGHTSCF
|  2> % maxcore 2000
|  3> % mp2 density relaxed end
|  4> *xyz 0 1
|  5>  C       -0.2128981336     1.0722826772    -0.3661667665
|  6>  C        1.2048460143     0.6487242524    -0.1960857705
|  7>  N        0.1110544370    -0.2392937210     0.1824321947
|  8>  C       -0.1148187699    -0.4210246369     1.6161473729
|  9>  C       -1.5391306949    -0.9496724534     1.8614937890
| 10>  C       -1.3295361834    -2.4621347481     1.7647084154
| 11>  O       -0.0820916176    -2.6908323381     2.4073772615
| 12>  C        0.7683461776    -1.5767730468     2.1510074749
| 13>  H       -0.5876220490     1.8341314482     0.3161671170
| 14>  H       -0.6750706074     1.0759156896    -1.3490820272
| 15>  H        1.7973811719     0.3377172240    -1.0515001029
| 16>  H        1.7714572854     1.1303701001     0.5998546038
| 17>  H        0.0755316767     0.5132724091     2.1699807891
| 18>  H       -1.8724896274    -0.6805671286     2.8685183767
| 19>  H       -2.2551038650    -0.5563269804     1.1363905478
| 20>  H       -2.0880704153    -3.0524714905     2.2861848361
| 21>  H       -1.2959543693    -2.7795954720     0.7114858784
| 22>  H        1.5323801986    -1.8342435109     1.4053821876
| 23>  H        1.2714977013    -1.3141410137     3.0883724821
| 24> *
| 25>
| 26>                          ****END OF INPUT****

CARTESIAN COORDINATES (ANGSTROEM)
---------------------------------
  C     -0.212898    1.072283   -0.366167
  C      1.204846    0.648724   -0.196086
  N      0.111054   -0.239294    0.182432
  C     -0.114819   -0.421025    1.616147
  C     -1.539131   -0.949672    1.861494
  C     -1.329536   -2.462135    1.764708
  O     -0.082092   -2.690832    2.407377
  C      0.768346   -1.576773    2.151007
  H     -0.587622    1.834131    0.316167
  H     -0.675071    1.075916   -1.349082
  H      1.797381    0.337717   -1.051500
  H      1.771457    1.130370    0.599855
  H      0.075532    0.513272    2.169981
  H     -1.872490   -0.680567    2.868518
  H     -2.255104   -0.556327    1.136391
  H     -2.088070   -3.052471    2.286185
  H     -1.295954   -2.779595    0.711486
  H      1.532380   -1.834244    1.405382
  H      1.271498   -1.314141    3.088372

 Total Charge           Charge          ....    0
 Multiplicity           Mult            ....    1
 Number of Electrons    NEL             ....   62
 Basis Dimension        Dim             ....  314

ORBITAL ENERGIES
----------------

  NO   OCC          E(Eh)            E(eV)
   0   2.0000     -20.542664      -558.9943
   1   2.0000     -15.562802      -423.4854
   2   2.0000     -11.266161      -306.5678
   3   2.0000     -11.264296      -306.5171
   4   2.0000     -11.261386      -306.4379
   5   2.0000     -11.258370      -306.3558
   6   2.0000     -11.257637      -306.3359
   7   2.0000     -11.221037      -305.3399
   8   2.0000      -1.367976       -37.2245
   9   2.0000      -1.278272       -34.7835
  10   2.0000      -1.062456       -28.9109
  11   2.0000      -0.991756       -26.9871
  12   2.0000      -0.888923       -24.1888
  13   2.0000      -0.850301       -23.1379
  14   2.0000      -0.810665       -22.0593
  15   2.0000      -0.779830       -21.2203
  16   2.0000      -0.693410       -18.8686
  17   2.0000      -0.685953       -18.6657
  18   2.0000      -0.648908       -17.6577
  19   2.0000      -0.626373       -17.0445
  20   2.0000      -0.608240       -16.5511
  21   2.0000      -0.557066       -15.1585
  22   2.0000      -0.533906       -14.5283
  23   2.0000      -0.523843       -14.2545
  24   2.0000      -0.522644       -14.2219
  25   2.0000      -0.501692       -13.6517
  26   2.0000      -0.485943       -13.2232
  27   2.0000      -0.457397       -12.4464
  28   2.0000      -0.433121       -11.7858
  29   2.0000      -0.409568       -11.1449
  30   2.0000      -0.380625       -10.3573
  31   0.0000       0.140728         3.8294
  32   0.0000       0.155451         4.2300
  33   0.0000       0.163585         4.4514
  34   0.0000       0.170612         4.6426
  35   0.0000       0.198158         5.3922

MULLIKEN ATOMIC CHARGES
-----------------------
   0 C :   -0.187210
   1 C :   -0.189117
   2 N :   -0.264743
   3 C :    0.043581
   4 C :   -0.248752
   5 C :   -0.029820
   6 O :   -0.322227
   7 C :   -0.053126
   8 H :    0.121663
   9 H :    0.133058
  10 H :    0.133779
  11 H :    0.123268
  12 H :    0.093827
  13 H :    0.112856
  14 H :    0.122737
  15 H :    0.113897
  16 H :    0.095194
  17 H :    0.101802
  18 H :    0.099333
Sum of atomic charges:    0.0000000

LOEWDIN ATOMIC CHARGES
----------------------
   0 C :   -0.269165
   1 C :   -0.268848
   2 N :    0.109777
   3 C :   -0.290675
   4 C :   -0.241258
   5 C :   -0.309944
   6 O :    0.140400
   7 C :   -0.276164
   8 H :    0.122879
   9 H :    0.124677
  10 H :    0.124832
  11 H :    0.123081
  12 H :    0.135196
  13 H :    0.139304
  14 H :    0.140892
  15 H :    0.124069
  16 H :    0.121763
  17 H :    0.126801
  18 H :    0.122382

  Mayer bond orders larger than 0.1
B(  0-C ,  1-C ) :   0.9472 B(  0-C ,  2-N ) :   0.8864 B(  0-C ,  8-H ) :   0.9224
B(  0-C ,  9-H ) :   0.9267 B(  1-C ,  2-N ) :   0.8798 B(  1-C , 10-H ) :   0.9279
B(  1-C , 11-H ) :   0.9233 B(  2-N ,  3-C ) :   0.8564 B(  3-C ,  4-C ) :   0.8930
B(  3-C ,  7-C ) :   0.9243 B(  3-C , 12-H ) :   0.9108 B(  4-C ,  5-C ) :   0.9739
B(  4-C , 13-H ) :   0.9216 B(  4-C , 14-H ) :   0.9197 B(  5-C ,  6-O ) :   0.9316
B(  5-C , 15-H ) :   0.9260 B(  5-C , 16-H ) :   0.9249 B(  6-O ,  7-C ) :   0.9601
B(  7-C , 17-H ) :   0.9292 B(  7-C , 18-H ) :   0.9141

MP2 TOTAL ENERGY:     -364.411243491 Eh
FINAL SINGLE POINT ENERGY      -364.411243491014

DIPOLE MOMENT
-------------
                                X             Y             Z
Electronic contribution:      0.53871      -2.79548       0.78314
Nuclear contribution   :     -0.64825       3.74125      -0.90709
                        -----------------------------------------
Total Dipole Moment    :     -0.10954       0.94577      -0.12395
                        -----------------------------------------
Magnitude (a.u.)       :      0.96013
Magnitude (Debye)      :      2.44046

                             ****ORCA TERMINATED NORMALLY****
TOTAL RUN TIME: 0 days 0 hours 12 minutes 9 seconds 170 msec
