                         Program Version 3.0.3 - RELEASE   -
|  1> ! RI-MP2 RIJK def2-TZVP def2-TZVP/C def2-TZVP/JK TIGHTSCF
|  2> % maxcore 2000
|  3> % mp2 density relaxed end
|  4> *xyz 0 1
|  5>  C        0.0906048054     1.2474949925     0.2438386133
|  6>  O       -0.2133653402    -0.0708539827    -0.1758839379
|  7>  C        0.6001599978    -0.5332787841    -1.2187607025
|  8>  C        1.9528161620    -1.1097123014    -0.8261617647
|  9>  C        0.8143559209    -2.0243554047    -1.2033769790
| 10>  C        0.4670736417     0.1582177454    -2.4779749486
| 11>  C        0.3436214316     0.7549880404    -3.5178707695
| 12>  C        0.1906538205     1.4643579109    -4.7796848387
| 13>  H        1.1243384985     1.3265522824     0.6103258177
| 14>  H       -0.0486265936     1.9712171467    -0.5697630288
| 15>  H       -0.5977569269     1.4838822986     1.0582382660
| 16>  H        2.7801280590    -0.9917164918    -1.5158139253
| 17>  H        2.2089581433    -1.0412959375     0.2251346691
| 18>  H        0.3120860622    -2.5560754700    -0.4036543421
| 19>  H        0.8497064529    -2.5381406499    -2.1562346639
| 20>  H        0.2808766084     0.7801465871    -5.6307754464
| 21>  H       -0.7931207241     1.9420612527    -4.8458857179
| 22>  H        0.9488896907     2.2462641855    -4.9000134108
| 23> *
| 24>
| 25>                          ****END OF INPUT****

CARTESIAN COORDINATES (ANGSTROEM)
---------------------------------
  C      0.090605    1.247495    0.243839
  O     -0.213365   -0.070854   -0.175884
  C      0.600160   -0.533279   -1.218761
  C      1.952816   -1.109712   -0.826162
  C      0.814356   -2.024355   -1.203377
  C      0.467074    0.158218   -2.477975
  C      0.343621    0.754988   -3.517871
  C      0.190654    1.464358   -4.779685
  H      1.124338    1.326552    0.610326
  H     -0.048627    1.971217   -0.569763
  H     -0.597757    1.483882    1.058238
  H      2.780128   -0.991716   -1.515814
  H      2.208958   -1.041296    0.225135
  H      0.312086   -2.556075   -0.403654
  H      0.849706   -2.538141   -2.156235
  H      0.280877    0.780147   -5.630775
  H     -0.793121    1.942061   -4.845886
  H      0.948890    2.246264   -4.900013

 Total Charge           Charge          ....    0
 Multiplicity           Mult            ....    1
 Number of Electrons    NEL             ....   60
 Basis Dimension        Dim             ....  308

ORBITAL ENERGIES
----------------

  NO   OCC          E(Eh)            E(eV)
   0   2.0000     -20.560750      -559.4864
   1   2.0000     -11.305176      -307.6295
   2   2.0000     -11.266023      -306.5641
   3   2.0000     -11.247592      -306.0625
   4   2.0000     -11.231739      -305.6312
   5   2.0000     -11.230057      -305.5854
   6   2.0000     -11.226175      -305.4798
   7   2.0000     -11.217675      -305.2485
   8   2.0000      -1.383862       -37.6568
   9   2.0000      -1.141501       -31.0618
  10   2.0000      -1.053828       -28.6761
  11   2.0000      -0.964149       -26.2358
  12   2.0000      -0.930720       -25.3262
  13   2.0000      -0.833848       -22.6902
  14   2.0000      -0.829098       -22.5609
  15   2.0000      -0.711137       -19.3510
  16   2.0000      -0.667949       -18.1758
  17   2.0000      -0.633778       -17.2460
  18   2.0000      -0.625035       -17.0081
  19   2.0000      -0.602258       -16.3883
  20   2.0000      -0.594468       -16.1763
  21   2.0000      -0.587408       -15.9842
  22   2.0000      -0.585875       -15.9425
  23   2.0000      -0.522532       -14.2188
  24   2.0000      -0.506793       -13.7905
  25   2.0000      -0.476960       -12.9787
  26   2.0000      -0.447832       -12.1861
  27   2.0000      -0.418432       -11.3861
  28   2.0000      -0.375891       -10.2285
  29   2.0000      -0.344721        -9.3803
  30   0.0000       0.134824         3.6687
  31   0.0000       0.158802         4.3212
  32   0.0000       0.171155         4.6574
  33   0.0000       0.180681         4.9166
  34   0.0000       0.183116         4.9828

MULLIKEN ATOMIC CHARGES
-----------------------
   0 C :   -0.216271
   1 O :   -0.299880
   2 C :    0.136270
   3 C :   -0.280375
   4 C :   -0.258658
   5 C :   -0.026045
   6 C :    0.022458
   7 C :   -0.491712
   8 H :    0.110717
   9 H :    0.128447
  10 H :    0.137915
  11 H :    0.134436
  12 H :    0.135923
  13 H :    0.136889
  14 H :    0.138942
  15 H :    0.163757
  16 H :    0.165074
  17 H :    0.162114
Sum of atomic charges:   -0.0000000

LOEWDIN ATOMIC CHARGES
----------------------
   0 C :   -0.339137
   1 O :    0.195940
   2 C :   -0.342731
   3 C :   -0.196103
   4 C :   -0.184684
   5 C :   -0.046507
   6 C :   -0.091860
   7 C :   -0.295096
   8 H :    0.102806
   9 H :    0.108148
  10 H :    0.112905
  11 H :    0.135538
  12 H :    0.138031
  13 H :    0.141007
  14 H :    0.137696
  15 H :    0.141959
  16 H :    0.142390
  17 H :    0.139698

  Mayer bond orders larger than 0.1
B(  0-C ,  1-O ) :   0.8940 B(  0-C ,  8-H ) :   0.9325 B(  0-C ,  9-H ) :   0.9343
B(  0-C , 10-H ) :   0.9388 B(  1-O ,  2-C ) :   1.0052 B(  2-C ,  3-C ) :   0.8907
B(  2-C ,  4-C ) :   0.8447 B(  2-C ,  5-C ) :   1.0483 B(  2-C ,  6-C ) :  -0.1065
B(  3-C ,  4-C ) :   0.9313 B(  3-C , 11-H ) :   0.9204 B(  3-C , 12-H ) :   0.9187
B(  4-C , 13-H ) :   0.9180 B(  4-C , 14-H ) :   0.9287 B(  5-C ,  6-C ) :   2.6846
B(  6-C ,  7-C ) :   0.8531 B(  7-C , 15-H ) :   0.9502 B(  7-C , 16-H ) :   0.9468
B(  7-C , 17-H ) :   0.9484

MP2 TOTAL ENERGY:     -347.133704573 Eh
FINAL SINGLE POINT ENERGY      -347.133704573002

DIPOLE MOMENT
-------------
                                X             Y             Z
Electronic contribution:     -1.38972      -2.01908       0.77460
Nuclear contribution   :      1.74035       2.37419      -1.09297
                        -----------------------------------------
Total Dipole Moment    :      0.35063       0.35511      -0.31838
                        -----------------------------------------
Magnitude (a.u.)       :      0.59195
Magnitude (Debye)      :      1.50462

                             ****ORCA TERMINATED NORMALLY****
TOTAL RUN TIME: 0 days 0 hours 12 minutes 15 seconds 565 msec
