                         Program Version 3.0.3 - RELEASE   -
|  1> ! RI-MP2 RIJK def2-TZVP def2-TZVP/C def2-TZVP/JK TIGHTSCF
|  2> % maxcore 2000
|  3> % mp2 density relaxed end
|  4> *xyz 0 1
|  5>  C        0.0208170377     1.5081685388     0.1025619626
|  6>  C       -0.0429051945     0.0151353480    -0.0334710376
|  7>  C       -1.1596917331    -0.7056914092     0.0863732451
|  8>  C       -1.1406631326    -2.1839529309    -0.0032910703
|  9>  C       -1.0941868039    -2.9175912818    -1.3497672720
| 10>  O       -1.1307140837    -2.2300196460    -2.5512433887
| 11>  C        0.1454077368    -2.8050808941    -0.5005334383
| 12>  O        1.0920848543    -1.9194348876    -1.0410950433
| 13>  C        1.2610226700    -0.7018751730    -0.3144755902
| 14>  H        0.7250772625     1.8072539027     0.8902818210
| 15>  H        0.3720724006     1.9809515139    -0.8239583981
| 16>  H       -0.9579707544     1.9270642944     0.3502242033
| 17>  H       -2.1152708812    -0.2182731951     0.2627757591
| 18>  H       -1.6628585950    -2.7145099682     0.7890165270
| 19>  H       -1.6060036082    -3.8739112009    -1.4022991444
| 20>  H       -0.2756047277    -1.7810776405    -2.6197491750
| 21>  H        0.5820932910    -3.6706394573    -0.0070822511
| 22>  H        1.9137100793    -0.0830365142    -0.9396637891
| 23>  H        1.8027830922    -0.8952129091     0.6261625101
| 24> *
| 25>
| 26>                          ****END OF INPUT****

CARTESIAN COORDINATES (ANGSTROEM)
---------------------------------
  C      0.020817    1.508169    0.102562
  C     -0.042905    0.015135   -0.033471
  C     -1.159692   -0.705691    0.086373
  C     -1.140663   -2.183953   -0.003291
  C     -1.094187   -2.917591   -1.349767
  O     -1.130714   -2.230020   -2.551243
  C      0.145408   -2.805081   -0.500533
  O      1.092085   -1.919435   -1.041095
  C      1.261023   -0.701875   -0.314476
  H      0.725077    1.807254    0.890282
  H      0.372072    1.980952   -0.823958
  H     -0.957971    1.927064    0.350224
  H     -2.115271   -0.218273    0.262776
  H     -1.662859   -2.714510    0.789017
  H     -1.606004   -3.873911   -1.402299
  H     -0.275605   -1.781078   -2.619749
  H      0.582093   -3.670639   -0.007082
  H      1.913710   -0.083037   -0.939664
  H      1.802783   -0.895213    0.626163

 Total Charge           Charge          ....    0
 Multiplicity           Mult            ....    1
 Number of Electrons    NEL             ....   68
 Basis Dimension        Dim             ....  339

ORBITAL ENERGIES
----------------

  NO   OCC          E(Eh)            E(eV)
   0   2.0000     -20.572919      -559.8176
   1   2.0000     -20.551679      -559.2396
   2   2.0000     -11.288857      -307.1854
   3   2.0000     -11.284041      -307.0544
   4   2.0000     -11.283344      -307.0354
   5   2.0000     -11.239380      -305.8391
   6   2.0000     -11.235329      -305.7288
   7   2.0000     -11.230309      -305.5922
   8   2.0000     -11.229036      -305.5576
   9   2.0000      -1.401807       -38.1451
  10   2.0000      -1.358183       -36.9580
  11   2.0000      -1.130828       -30.7714
  12   2.0000      -1.093146       -29.7460
  13   2.0000      -0.957031       -26.0421
  14   2.0000      -0.929762       -25.3001
  15   2.0000      -0.831142       -22.6165
  16   2.0000      -0.812597       -22.1119
  17   2.0000      -0.735343       -20.0097
  18   2.0000      -0.696524       -18.9534
  19   2.0000      -0.678478       -18.4623
  20   2.0000      -0.661561       -18.0020
  21   2.0000      -0.621070       -16.9002
  22   2.0000      -0.611819       -16.6484
  23   2.0000      -0.581465       -15.8225
  24   2.0000      -0.569599       -15.4996
  25   2.0000      -0.568117       -15.4592
  26   2.0000      -0.559289       -15.2190
  27   2.0000      -0.536176       -14.5901
  28   2.0000      -0.516243       -14.0477
  29   2.0000      -0.500867       -13.6293
  30   2.0000      -0.454300       -12.3621
  31   2.0000      -0.412194       -11.2164
  32   2.0000      -0.395071       -10.7504
  33   2.0000      -0.332246        -9.0409
  34   0.0000       0.131790         3.5862
  35   0.0000       0.145182         3.9506
  36   0.0000       0.154922         4.2156
  37   0.0000       0.172981         4.7070
  38   0.0000       0.178049         4.8450

MULLIKEN ATOMIC CHARGES
-----------------------
   0 C :   -0.430780
   1 C :   -0.014951
   2 C :   -0.171474
   3 C :   -0.099133
   4 C :    0.029718
   5 O :   -0.467826
   6 C :    0.036242
   7 O :   -0.353407
   8 C :   -0.021005
   9 H :    0.138460
  10 H :    0.141621
  11 H :    0.137653
  12 H :    0.124378
  13 H :    0.130350
  14 H :    0.121290
  15 H :    0.334804
  16 H :    0.116647
  17 H :    0.133050
  18 H :    0.114362
Sum of atomic charges:    0.0000000

LOEWDIN ATOMIC CHARGES
----------------------
   0 C :   -0.272180
   1 C :   -0.201953
   2 C :   -0.127698
   3 C :   -0.189342
   4 C :   -0.292892
   5 O :    0.010561
   6 C :   -0.270487
   7 O :    0.180972
   8 C :   -0.259385
   9 H :    0.131466
  10 H :    0.130858
  11 H :    0.131647
  12 H :    0.148123
  13 H :    0.155222
  14 H :    0.138327
  15 H :    0.183959
  16 H :    0.132249
  17 H :    0.137613
  18 H :    0.132941

  Mayer bond orders larger than 0.1
B(  0-C ,  1-C ) :   0.8961 B(  0-C ,  9-H ) :   0.9288 B(  0-C , 10-H ) :   0.9302
B(  0-C , 11-H ) :   0.9435 B(  1-C ,  2-C ) :   1.7662 B(  1-C ,  8-C ) :   0.9245
B(  2-C ,  3-C ) :   0.9306 B(  2-C , 12-H ) :   0.9261 B(  3-C ,  4-C ) :   0.8201
B(  3-C ,  6-C ) :   0.8699 B(  3-C , 13-H ) :   0.9063 B(  4-C ,  5-O ) :   1.0213
B(  4-C ,  6-C ) :   0.8984 B(  4-C , 14-H ) :   0.9525 B(  5-O , 15-H ) :   0.8110
B(  6-C ,  7-O ) :   0.9240 B(  6-C , 16-H ) :   0.9350 B(  7-O ,  8-C ) :   0.8938
B(  8-C , 17-H ) :   0.9332 B(  8-C , 18-H ) :   0.9214

MP2 TOTAL ENERGY:     -422.297408469 Eh
FINAL SINGLE POINT ENERGY      -422.297408469094

DIPOLE MOMENT
-------------
                                X             Y             Z
Electronic contribution:     -0.47871      -5.06330      -2.70152
Nuclear contribution   :      0.79221       5.38134       3.55742
                        -----------------------------------------
Total Dipole Moment    :      0.31351       0.31804       0.85590
                        -----------------------------------------
Magnitude (a.u.)       :      0.96540
Magnitude (Debye)      :      2.45385

                             ****ORCA TERMINATED NORMALLY****
TOTAL RUN TIME: 0 days 0 hours 17 minutes 56 seconds 390 msec
