                         Program Version 3.0.3 - RELEASE   -
|  1> ! RI-MP2 RIJK def2-TZVP def2-TZVP/C def2-TZVP/JK TIGHTSCF
|  2> % maxcore 2000
|  3> % mp2 density relaxed end
|  4> *xyz 0 1
|  5>  O        0.1413964783     1.3655919111     0.2175090272
|  6>  C        0.0443242385    -0.0077340346     0.0720049893
|  7>  C       -1.3485471770    -0.6347812074     0.0142576550
|  8>  N       -1.9699597541    -0.0522295166    -1.2059696844
|  9>  C       -1.0955841217    -1.2440046292    -1.3169270571
| 10>  C        0.3129632960    -0.6237037559    -1.4115134471
| 11>  O        0.5120721832     0.2903042479    -2.4460636310
| 12>  C        1.3877157936    -1.6104152653    -1.4125484011
| 13>  N        2.2162300771    -2.4139203039    -1.3565086719
| 14>  H       -0.5287756544     1.7610808325    -0.3539560239
| 15>  H        0.6987683977    -0.4764295062     0.8082535371
| 16>  H       -1.9625371719    -0.9911626686     0.8310510028
| 17>  H       -2.9389073532    -0.3581513842    -1.2576863996
| 18>  H       -1.4461525141    -2.1722433180    -1.7482007664
| 19>  H       -0.3407686679     0.7328826386    -2.5625222388
| 20> *
| 21>
| 22>                          ****END OF INPUT****

CARTESIAN COORDINATES (ANGSTROEM)
---------------------------------
  O      0.141396    1.365592    0.217509
  C      0.044324   -0.007734    0.072005
  C     -1.348547   -0.634781    0.014258
  N     -1.969960   -0.052230   -1.205970
  C     -1.095584   -1.244005   -1.316927
  C      0.312963   -0.623704   -1.411513
  O      0.512072    0.290304   -2.446064
  C      1.387716   -1.610415   -1.412548
  N      2.216230   -2.413920   -1.356509
  H     -0.528776    1.761081   -0.353956
  H      0.698768   -0.476430    0.808254
  H     -1.962537   -0.991163    0.831051
  H     -2.938907   -0.358151   -1.257686
  H     -1.446153   -2.172243   -1.748201
  H     -0.340769    0.732883   -2.562522

 Total Charge           Charge          ....    0
 Multiplicity           Mult            ....    1
 Number of Electrons    NEL             ....   66
 Basis Dimension        Dim             ....  315

ORBITAL ENERGIES
----------------

  NO   OCC          E(Eh)            E(eV)
   0   2.0000     -20.588344      -560.2373
   1   2.0000     -20.580964      -560.0365
   2   2.0000     -15.610235      -424.7761
   3   2.0000     -15.580641      -423.9708
   4   2.0000     -11.352421      -308.9151
   5   2.0000     -11.321914      -308.0850
   6   2.0000     -11.307932      -307.7045
   7   2.0000     -11.302009      -307.5433
   8   2.0000     -11.278694      -306.9089
   9   2.0000      -1.419339       -38.6222
  10   2.0000      -1.389165       -37.8011
  11   2.0000      -1.316199       -35.8156
  12   2.0000      -1.225029       -33.3347
  13   2.0000      -1.077061       -29.3083
  14   2.0000      -0.951039       -25.8791
  15   2.0000      -0.894923       -24.3521
  16   2.0000      -0.829853       -22.5814
  17   2.0000      -0.793721       -21.5983
  18   2.0000      -0.724664       -19.7191
  19   2.0000      -0.688788       -18.7429
  20   2.0000      -0.672884       -18.3101
  21   2.0000      -0.653674       -17.7874
  22   2.0000      -0.638160       -17.3652
  23   2.0000      -0.592129       -16.1127
  24   2.0000      -0.564796       -15.3689
  25   2.0000      -0.547625       -14.9016
  26   2.0000      -0.544730       -14.8229
  27   2.0000      -0.522451       -14.2166
  28   2.0000      -0.499287       -13.5863
  29   2.0000      -0.489776       -13.3275
  30   2.0000      -0.465549       -12.6682
  31   2.0000      -0.429866       -11.6972
  32   2.0000      -0.412305       -11.2194
  33   0.0000       0.108995         2.9659
  34   0.0000       0.133451         3.6314
  35   0.0000       0.150704         4.1009
  36   0.0000       0.159258         4.3336
  37   0.0000       0.172615         4.6971

MULLIKEN ATOMIC CHARGES
-----------------------
   0 O :   -0.432264
   1 C :    0.070634
   2 C :   -0.111335
   3 N :   -0.440265
   4 C :   -0.066596
   5 C :    0.315729
   6 O :   -0.419467
   7 C :   -0.248188
   8 N :   -0.043360
   9 H :    0.328816
  10 H :    0.146046
  11 H :    0.156802
  12 H :    0.235392
  13 H :    0.166955
  14 H :    0.341102
Sum of atomic charges:   -0.0000000

LOEWDIN ATOMIC CHARGES
----------------------
   0 O :    0.026636
   1 C :   -0.273074
   2 C :   -0.208184
   3 N :   -0.008530
   4 C :   -0.185800
   5 C :   -0.329384
   6 O :    0.053479
   7 C :   -0.137323
   8 N :    0.081460
   9 H :    0.183562
  10 H :    0.154231
  11 H :    0.136450
  12 H :    0.178700
  13 H :    0.140895
  14 H :    0.186882

  Mayer bond orders larger than 0.1
B(  0-O ,  1-C ) :   1.0120 B(  0-O ,  9-H ) :   0.8227 B(  1-C ,  2-C ) :   0.9306
B(  1-C ,  5-C ) :   0.8360 B(  1-C , 10-H ) :   0.9193 B(  2-C ,  3-N ) :   0.9145
B(  2-C ,  4-C ) :   0.8878 B(  2-C , 11-H ) :   0.9172 B(  3-N ,  4-C ) :   0.8169
B(  3-N , 12-H ) :   0.8712 B(  4-C ,  5-C ) :   0.9003 B(  4-C , 13-H ) :   0.9020
B(  5-C ,  6-O ) :   1.1007 B(  5-C ,  7-C ) :   0.8928 B(  6-O , 14-H ) :   0.8073
B(  7-C ,  8-N ) :   2.8533

MP2 TOTAL ENERGY:     -453.175294428 Eh
FINAL SINGLE POINT ENERGY      -453.175294427618

DIPOLE MOMENT
-------------
                                X             Y             Z
Electronic contribution:      3.69279      -1.18138      -1.26908
Nuclear contribution   :     -6.05656       1.25497       1.53467
                        -----------------------------------------
Total Dipole Moment    :     -2.36376       0.07359       0.26559
                        -----------------------------------------
Magnitude (a.u.)       :      2.37978
Magnitude (Debye)      :      6.04891

                             ****ORCA TERMINATED NORMALLY****
TOTAL RUN TIME: 0 days 0 hours 15 minutes 5 seconds 884 msec
