                         Program Version 3.0.3 - RELEASE   -
|  1> ! RI-MP2 RIJK def2-TZVP def2-TZVP/C def2-TZVP/JK TIGHTSCF
|  2> % maxcore 2000
|  3> % mp2 density relaxed end
|  4> *xyz 0 1
|  5>  O        0.8928949420    -0.7597229095    -1.1863232933
|  6>  C        0.2097623170    -0.4695846453     0.0109291126
|  7>  C       -1.3176809614    -0.5020654648    -0.1470438295
|  8>  C       -2.2047176287     0.4721559020     0.6722968817
|  9>  C       -2.8739526594     0.8282818556    -0.6513557263
| 10>  C       -1.9427267527     1.3618664365    -1.6769744049
| 11>  C       -0.8423600655     2.3448831401    -1.4736629245
| 12>  O        0.3316131241     2.1031609111    -1.3142888944
| 13>  N       -1.9691399135    -0.0884496998    -1.4658560402
| 14>  H        0.8956003101     0.0696005963    -1.6805211806
| 15>  H        0.4884905441    -1.2423617711     0.7377206459
| 16>  H        0.5266214686     0.4951867571     0.4245374978
| 17>  H       -1.6655529716    -1.5294180101    -0.0153573092
| 18>  H       -2.8736159119    -0.0188819562     1.3801594354
| 19>  H       -1.6915172982     1.2900834088     1.1871750722
| 20>  H       -3.9464419738     0.8573843276    -0.8180364529
| 21>  H       -2.4620096465     1.6123719547    -2.6065925591
| 22>  H       -1.1926994626     3.3983486069    -1.5455167707
| 23> *
| 24>
| 25>                          ****END OF INPUT****

CARTESIAN COORDINATES (ANGSTROEM)
---------------------------------
  O      0.892895   -0.759723   -1.186323
  C      0.209762   -0.469585    0.010929
  C     -1.317681   -0.502065   -0.147044
  C     -2.204718    0.472156    0.672297
  C     -2.873953    0.828282   -0.651356
  C     -1.942727    1.361866   -1.676974
  C     -0.842360    2.344883   -1.473663
  O      0.331613    2.103161   -1.314289
  N     -1.969140   -0.088450   -1.465856
  H      0.895600    0.069601   -1.680521
  H      0.488491   -1.242362    0.737721
  H      0.526621    0.495187    0.424537
  H     -1.665553   -1.529418   -0.015357
  H     -2.873616   -0.018882    1.380159
  H     -1.691517    1.290083    1.187175
  H     -3.946442    0.857384   -0.818036
  H     -2.462010    1.612372   -2.606593
  H     -1.192699    3.398349   -1.545517

 Total Charge           Charge          ....    0
 Multiplicity           Mult            ....    1
 Number of Electrons    NEL             ....   68
 Basis Dimension        Dim             ....  333

ORBITAL ENERGIES
----------------

  NO   OCC          E(Eh)            E(eV)
   0   2.0000     -20.581580      -560.0533
   1   2.0000     -20.536220      -558.8189
   2   2.0000     -15.579444      -423.9382
   3   2.0000     -11.358334      -309.0760
   4   2.0000     -11.289999      -307.2165
   5   2.0000     -11.289009      -307.1896
   6   2.0000     -11.269392      -306.6557
   7   2.0000     -11.266151      -306.5676
   8   2.0000     -11.247653      -306.0642
   9   2.0000      -1.420754       -38.6607
  10   2.0000      -1.346313       -36.6350
  11   2.0000      -1.303890       -35.4806
  12   2.0000      -1.053065       -28.6553
  13   2.0000      -0.970103       -26.3979
  14   2.0000      -0.957288       -26.0491
  15   2.0000      -0.870994       -23.7010
  16   2.0000      -0.786134       -21.3918
  17   2.0000      -0.750235       -20.4149
  18   2.0000      -0.717889       -19.5347
  19   2.0000      -0.688630       -18.7386
  20   2.0000      -0.669743       -18.2246
  21   2.0000      -0.663213       -18.0469
  22   2.0000      -0.629262       -17.1231
  23   2.0000      -0.596450       -16.2302
  24   2.0000      -0.575475       -15.6595
  25   2.0000      -0.565483       -15.3876
  26   2.0000      -0.537967       -14.6388
  27   2.0000      -0.526743       -14.3334
  28   2.0000      -0.495996       -13.4967
  29   2.0000      -0.475604       -12.9418
  30   2.0000      -0.458712       -12.4822
  31   2.0000      -0.439778       -11.9670
  32   2.0000      -0.410406       -11.1677
  33   2.0000      -0.383009       -10.4222
  34   0.0000       0.103716         2.8223
  35   0.0000       0.136959         3.7268
  36   0.0000       0.153062         4.1650
  37   0.0000       0.157860         4.2956
  38   0.0000       0.167950         4.5701

MULLIKEN ATOMIC CHARGES
-----------------------
   0 O :   -0.479066
   1 C :   -0.069119
   2 C :    0.036135
   3 C :   -0.281082
   4 C :   -0.049927
   5 C :   -0.056111
   6 C :    0.136025
   7 O :   -0.301737
   8 N :   -0.244215
   9 H :    0.330557
  10 H :    0.112520
  11 H :    0.111953
  12 H :    0.111618
  13 H :    0.138456
  14 H :    0.130788
  15 H :    0.137736
  16 H :    0.135353
  17 H :    0.100117
Sum of atomic charges:    0.0000000

LOEWDIN ATOMIC CHARGES
----------------------
   0 O :   -0.035459
   1 C :   -0.349701
   2 C :   -0.236771
   3 C :   -0.211153
   4 C :   -0.179523
   5 C :   -0.268475
   6 C :   -0.276306
   7 O :    0.135769
   8 N :    0.147054
   9 H :    0.171541
  10 H :    0.129727
  11 H :    0.117397
  12 H :    0.150770
  13 H :    0.138817
  14 H :    0.133955
  15 H :    0.135556
  16 H :    0.171759
  17 H :    0.125044

  Mayer bond orders larger than 0.1
B(  0-O ,  1-C ) :   0.9578 B(  0-O ,  9-H ) :   0.8282 B(  1-C ,  2-C ) :   0.9237
B(  1-C , 10-H ) :   0.9272 B(  1-C , 11-H ) :   0.9320 B(  2-C ,  3-C ) :   0.9347
B(  2-C ,  8-N ) :   0.8731 B(  2-C , 12-H ) :   0.9188 B(  3-C ,  4-C ) :   0.9303
B(  3-C , 13-H ) :   0.9296 B(  3-C , 14-H ) :   0.9120 B(  4-C ,  5-C ) :   0.9358
B(  4-C ,  8-N ) :   0.8300 B(  4-C , 15-H ) :   0.9009 B(  5-C ,  6-C ) :   0.8941
B(  5-C ,  8-N ) :   0.9521 B(  5-C , 16-H ) :   0.9041 B(  6-C ,  7-O ) :   1.8788
B(  6-C , 17-H ) :   0.9213

MP2 TOTAL ENERGY:     -438.304844836 Eh
FINAL SINGLE POINT ENERGY      -438.304844835722

DIPOLE MOMENT
-------------
                                X             Y             Z
Electronic contribution:      1.39191       1.24165      -3.44976
Nuclear contribution   :     -2.65662      -0.26783       4.05039
                        -----------------------------------------
Total Dipole Moment    :     -1.26471       0.97382       0.60063
                        -----------------------------------------
Magnitude (a.u.)       :      1.70546
Magnitude (Debye)      :      4.33492

                             ****ORCA TERMINATED NORMALLY****
TOTAL RUN TIME: 0 days 0 hours 30 minutes 36 seconds 48 msec
