                         Program Version 3.0.3 - RELEASE   -
|  1> ! RI-MP2 RIJK def2-TZVP def2-TZVP/C def2-TZVP/JK TIGHTSCF
|  2> % maxcore 2000
|  3> % mp2 density relaxed end
|  4> *xyz 0 1
|  5>  C       -0.6294815331     1.4270254554     0.5442477202
|  6>  C        0.1231723512     0.1942457306     0.0221960768
|  7>  C        0.9580009832    -0.5035462778     1.0865664497
|  8>  C        0.2464735612    -1.2967647091     2.1726698086
|  9>  C        1.0360321128    -2.0461040698     1.1516546944
| 10>  C        0.3868056244    -2.9503687567     0.1290519829
| 11>  C        2.2564462742     0.1270744941     1.5216954226
| 12>  C        2.9153384698     1.1436834895     0.6025509468
| 13>  O        2.8025256946    -0.2082997570     2.5540774068
| 14>  H        0.0507762843     2.1849698598     0.9460370817
| 15>  H       -1.2136309306     1.8953714023    -0.2540723782
| 16>  H       -1.3181378220     1.1506763046     1.3488614149
| 17>  H       -0.6087451148    -0.5105039305    -0.3828283636
| 18>  H        0.7558961565     0.4789602790    -0.8264124756
| 19>  H        0.6509157710    -1.2117657962     3.1741973242
| 20>  H       -0.8363722263    -1.3397713284     2.1023767756
| 21>  H        2.0035681975    -2.3939373630     1.5024070027
| 22>  H       -0.6254285771    -2.6296258841    -0.1314522354
| 23>  H        0.9724422824    -3.0066693529    -0.7952012257
| 24>  H        0.3086240806    -3.9662818237     0.5320685257
| 25>  H        3.1003981197     0.7046253121    -0.3844462151
| 26>  H        2.2787525385     2.0198438279     0.4467492046
| 27>  H        3.8617004519     1.4549274141     1.0456642952
| 28> *
| 29>
| 30>                          ****END OF INPUT****

CARTESIAN COORDINATES (ANGSTROEM)
---------------------------------
  C     -0.629482    1.427025    0.544248
  C      0.123172    0.194246    0.022196
  C      0.958001   -0.503546    1.086566
  C      0.246474   -1.296765    2.172670
  C      1.036032   -2.046104    1.151655
  C      0.386806   -2.950369    0.129052
  C      2.256446    0.127074    1.521695
  C      2.915338    1.143683    0.602551
  O      2.802526   -0.208300    2.554077
  H      0.050776    2.184970    0.946037
  H     -1.213631    1.895371   -0.254072
  H     -1.318138    1.150676    1.348861
  H     -0.608745   -0.510504   -0.382828
  H      0.755896    0.478960   -0.826412
  H      0.650916   -1.211766    3.174197
  H     -0.836372   -1.339771    2.102377
  H      2.003568   -2.393937    1.502407
  H     -0.625429   -2.629626   -0.131452
  H      0.972442   -3.006669   -0.795201
  H      0.308624   -3.966282    0.532069
  H      3.100398    0.704625   -0.384446
  H      2.278753    2.019844    0.446749
  H      3.861700    1.454927    1.045664

 Total Charge           Charge          ....    0
 Multiplicity           Mult            ....    1
 Number of Electrons    NEL             ....   70
 Basis Dimension        Dim             ....  363

ORBITAL ENERGIES
----------------

  NO   OCC          E(Eh)            E(eV)
   0   2.0000     -20.531099      -558.6796
   1   2.0000     -11.324774      -308.1628
   2   2.0000     -11.242294      -305.9184
   3   2.0000     -11.241629      -305.9003
   4   2.0000     -11.233830      -305.6880
   5   2.0000     -11.230304      -305.5921
   6   2.0000     -11.225294      -305.4558
   7   2.0000     -11.224222      -305.4266
   8   2.0000     -11.221228      -305.3452
   9   2.0000      -1.377796       -37.4917
  10   2.0000      -1.162249       -31.6264
  11   2.0000      -1.041986       -28.3539
  12   2.0000      -1.001961       -27.2647
  13   2.0000      -0.970167       -26.3996
  14   2.0000      -0.885365       -24.0920
  15   2.0000      -0.830251       -22.5923
  16   2.0000      -0.786188       -21.3933
  17   2.0000      -0.703055       -19.1311
  18   2.0000      -0.683080       -18.5875
  19   2.0000      -0.639234       -17.3944
  20   2.0000      -0.611542       -16.6409
  21   2.0000      -0.606305       -16.4984
  22   2.0000      -0.591752       -16.1024
  23   2.0000      -0.583592       -15.8803
  24   2.0000      -0.574695       -15.6382
  25   2.0000      -0.550753       -14.9867
  26   2.0000      -0.546610       -14.8740
  27   2.0000      -0.526564       -14.3285
  28   2.0000      -0.519067       -14.1245
  29   2.0000      -0.500407       -13.6168
  30   2.0000      -0.493453       -13.4275
  31   2.0000      -0.483041       -13.1442
  32   2.0000      -0.428405       -11.6575
  33   2.0000      -0.398276       -10.8376
  34   2.0000      -0.386611       -10.5202
  35   0.0000       0.127580         3.4716
  36   0.0000       0.146439         3.9848
  37   0.0000       0.150106         4.0846
  38   0.0000       0.154190         4.1957
  39   0.0000       0.185092         5.0366

MULLIKEN ATOMIC CHARGES
-----------------------
   0 C :   -0.390738
   1 C :   -0.215485
   2 C :    0.064134
   3 C :   -0.290867
   4 C :   -0.086865
   5 C :   -0.393317
   6 C :    0.178527
   7 C :   -0.434685
   8 O :   -0.315917
   9 H :    0.119144
  10 H :    0.136129
  11 H :    0.130783
  12 H :    0.110515
  13 H :    0.118282
  14 H :    0.154277
  15 H :    0.131647
  16 H :    0.138642
  17 H :    0.122170
  18 H :    0.134807
  19 H :    0.142482
  20 H :    0.148994
  21 H :    0.141643
  22 H :    0.155698
Sum of atomic charges:   -0.0000000

LOEWDIN ATOMIC CHARGES
----------------------
   0 C :   -0.309124
   1 C :   -0.248524
   2 C :   -0.197358
   3 C :   -0.175493
   4 C :   -0.197047
   5 C :   -0.292726
   6 C :   -0.312854
   7 C :   -0.275098
   8 O :    0.138985
   9 H :    0.118650
  10 H :    0.121502
  11 H :    0.123244
  12 H :    0.142773
  13 H :    0.141141
  14 H :    0.143066
  15 H :    0.138049
  16 H :    0.157902
  17 H :    0.122577
  18 H :    0.126389
  19 H :    0.130593
  20 H :    0.136805
  21 H :    0.133049
  22 H :    0.133498

  Mayer bond orders larger than 0.1
B(  0-C ,  1-C ) :   0.9306 B(  0-C ,  9-H ) :   0.9338 B(  0-C , 10-H ) :   0.9412
B(  0-C , 11-H ) :   0.9392 B(  1-C ,  2-C ) :   0.8958 B(  1-C , 12-H ) :   0.9380
B(  1-C , 13-H ) :   0.9207 B(  2-C ,  3-C ) :   0.8320 B(  2-C ,  4-C ) :   0.8037
B(  2-C ,  6-C ) :   0.9132 B(  3-C ,  4-C ) :   0.9494 B(  3-C , 14-H ) :   0.9101
B(  3-C , 15-H ) :   0.9319 B(  4-C ,  5-C ) :   0.9002 B(  4-C , 16-H ) :   0.9181
B(  5-C , 17-H ) :   0.9341 B(  5-C , 18-H ) :   0.9394 B(  5-C , 19-H ) :   0.9347
B(  6-C ,  7-C ) :   0.9229 B(  6-C ,  8-O ) :   1.9548 B(  7-C , 20-H ) :   0.9199
B(  7-C , 21-H ) :   0.9110 B(  7-C , 22-H ) :   0.9388

MP2 TOTAL ENERGY:     -387.628926016 Eh
FINAL SINGLE POINT ENERGY      -387.628926016420

DIPOLE MOMENT
-------------
                                X             Y             Z
Electronic contribution:      5.34454      -0.85316       5.39061
Nuclear contribution   :     -5.94162       0.92419      -6.33382
                        -----------------------------------------
Total Dipole Moment    :     -0.59708       0.07103      -0.94321
                        -----------------------------------------
Magnitude (a.u.)       :      1.11857
Magnitude (Debye)      :      2.84317

                             ****ORCA TERMINATED NORMALLY****
TOTAL RUN TIME: 0 days 0 hours 21 minutes 19 seconds 643 msec
