                         Program Version 3.0.3 - RELEASE   -
|  1> ! RI-MP2 RIJK def2-TZVP def2-TZVP/C def2-TZVP/JK TIGHTSCF
|  2> % maxcore 2000
|  3> % mp2 density relaxed end
|  4> *xyz 0 1
|  5>  C        1.0425790939     1.2063732556    -0.6462443968
|  6>  C        0.1255070560     0.1526045647    -0.0818160990
|  7>  N        0.7325409623    -1.1068162620     0.3692183302
|  8>  C        0.0910296834    -0.2357287523     1.3666887280
|  9>  C        0.9867611726     0.3365746112     2.3871203783
| 10>  C        2.3190685964     0.1744741688     2.6061153279
| 11>  O        2.6770477354     0.8934049384     3.6666892119
| 12>  N        1.4857445341     1.5338888125     4.1344999576
| 13>  N        0.5434945688     1.1910313395     3.3771876325
| 14>  H        1.9681019945     1.2743378022    -0.0701472821
| 15>  H        1.3052690119     0.9695915305    -1.6823913699
| 16>  H        0.5555502580     2.1868762795    -0.6337499070
| 17>  H       -0.8380316953     0.0743207005    -0.5842770840
| 18>  H        0.1383690781    -1.9026665808     0.1567763236
| 19>  H       -0.8845555574    -0.5197645781     1.7550745514
| 20>  H        3.0765499071    -0.4036379203     2.1053745776
| 21> *
| 22>
| 23>                          ****END OF INPUT****

CARTESIAN COORDINATES (ANGSTROEM)
---------------------------------
  C      1.042579    1.206373   -0.646244
  C      0.125507    0.152605   -0.081816
  N      0.732541   -1.106816    0.369218
  C      0.091030   -0.235729    1.366689
  C      0.986761    0.336575    2.387120
  C      2.319069    0.174474    2.606115
  O      2.677048    0.893405    3.666689
  N      1.485745    1.533889    4.134500
  N      0.543495    1.191031    3.377188
  H      1.968102    1.274338   -0.070147
  H      1.305269    0.969592   -1.682391
  H      0.555550    2.186876   -0.633750
  H     -0.838032    0.074321   -0.584277
  H      0.138369   -1.902667    0.156776
  H     -0.884556   -0.519765    1.755075
  H      3.076550   -0.403638    2.105375

 Total Charge           Charge          ....    0
 Multiplicity           Mult            ....    1
 Number of Electrons    NEL             ....   66
 Basis Dimension        Dim             ....  321

ORBITAL ENERGIES
----------------

  NO   OCC          E(Eh)            E(eV)
   0   2.0000     -20.659806      -562.1819
   1   2.0000     -15.690094      -426.9492
   2   2.0000     -15.636955      -425.5032
   3   2.0000     -15.576142      -423.8484
   4   2.0000     -11.320975      -308.0594
   5   2.0000     -11.285476      -307.0934
   6   2.0000     -11.279380      -306.9275
   7   2.0000     -11.276521      -306.8497
   8   2.0000     -11.228074      -305.5314
   9   2.0000      -1.527162       -41.5562
  10   2.0000      -1.315324       -35.7918
  11   2.0000      -1.283358       -34.9219
  12   2.0000      -1.105537       -30.0832
  13   2.0000      -1.003701       -27.3121
  14   2.0000      -0.927813       -25.2471
  15   2.0000      -0.870375       -23.6841
  16   2.0000      -0.846634       -23.0381
  17   2.0000      -0.807279       -21.9672
  18   2.0000      -0.729431       -19.8488
  19   2.0000      -0.720043       -19.5934
  20   2.0000      -0.680734       -18.5237
  21   2.0000      -0.640453       -17.4276
  22   2.0000      -0.601780       -16.3753
  23   2.0000      -0.587366       -15.9830
  24   2.0000      -0.569374       -15.4934
  25   2.0000      -0.557348       -15.1662
  26   2.0000      -0.528667       -14.3858
  27   2.0000      -0.502639       -13.6775
  28   2.0000      -0.491042       -13.3619
  29   2.0000      -0.474594       -12.9144
  30   2.0000      -0.467162       -12.7121
  31   2.0000      -0.424158       -11.5419
  32   2.0000      -0.358402        -9.7526
  33   0.0000       0.100648         2.7388
  34   0.0000       0.125144         3.4053
  35   0.0000       0.151949         4.1347
  36   0.0000       0.166604         4.5335
  37   0.0000       0.181106         4.9281

MULLIKEN ATOMIC CHARGES
-----------------------
   0 C :   -0.390333
   1 C :    0.008957
   2 N :   -0.395174
   3 C :   -0.091758
   4 C :   -0.008721
   5 C :    0.005966
   6 O :   -0.092772
   7 N :   -0.027015
   8 N :   -0.097962
   9 H :    0.134534
  10 H :    0.137572
  11 H :    0.135249
  12 H :    0.126569
  13 H :    0.227150
  14 H :    0.141515
  15 H :    0.186222
Sum of atomic charges:   -0.0000000

LOEWDIN ATOMIC CHARGES
----------------------
   0 C :   -0.290181
   1 C :   -0.269004
   2 N :    0.014548
   3 C :   -0.227158
   4 C :   -0.267122
   5 C :   -0.252075
   6 O :    0.259384
   7 N :   -0.017293
   8 N :    0.049874
   9 H :    0.130034
  10 H :    0.129276
  11 H :    0.130842
  12 H :    0.139755
  13 H :    0.169185
  14 H :    0.151642
  15 H :    0.148296

  Mayer bond orders larger than 0.1
B(  0-C ,  1-C ) :   0.9220 B(  0-C ,  9-H ) :   0.9347 B(  0-C , 10-H ) :   0.9363
B(  0-C , 11-H ) :   0.9356 B(  1-C ,  2-N ) :   0.8693 B(  1-C ,  3-C ) :   0.8962
B(  1-C , 12-H ) :   0.9213 B(  2-N ,  3-C ) :   0.9606 B(  2-N , 13-H ) :   0.8678
B(  3-C ,  4-C ) :   0.9143 B(  3-C , 14-H ) :   0.9249 B(  4-C ,  5-C ) :   1.5203
B(  4-C ,  8-N ) :   1.2364 B(  5-C ,  6-O ) :   1.1446 B(  5-C , 15-H ) :   0.8966
B(  6-O ,  7-N ) :   0.8627 B(  7-N ,  8-N ) :   1.4157

MP2 TOTAL ENERGY:     -433.295302564 Eh
FINAL SINGLE POINT ENERGY      -433.295302564287

DIPOLE MOMENT
-------------
                                X             Y             Z
Electronic contribution:      2.09242       0.68164      10.16353
Nuclear contribution   :     -2.42561      -1.47593     -11.45774
                        -----------------------------------------
Total Dipole Moment    :     -0.33319      -0.79429      -1.29422
                        -----------------------------------------
Magnitude (a.u.)       :      1.55464
Magnitude (Debye)      :      3.95159

                             ****ORCA TERMINATED NORMALLY****
TOTAL RUN TIME: 0 days 0 hours 15 minutes 36 seconds 22 msec
