                         Program Version 3.0.3 - RELEASE   -
|  1> ! RI-MP2 RIJK def2-TZVP def2-TZVP/C def2-TZVP/JK TIGHTSCF
|  2> % maxcore 2000
|  3> % mp2 density relaxed end
|  4> *xyz 0 1
|  5>  C       -0.0434305750     1.5216248458     0.0116518827
|  6>  C       -0.0145846506     0.0245919386     0.0043194526
|  7>  C       -0.0124359585    -0.8120393019    -1.0958342846
|  8>  N        0.0018918168    -2.1045769788    -0.6805370465
|  9>  C        0.0163634661    -2.1372157198     0.7098369335
| 10>  C        0.0501778660    -3.3242670347     1.4557784067
| 11>  N        0.0854420755    -4.2926497966     2.0978539420
| 12>  C        0.0009515799    -0.8154043070     1.1539248095
| 13>  N       -0.0681943740    -0.3849029375     2.4725270846
| 14>  H        0.8551607244     1.9501338369     0.4750867679
| 15>  H       -0.1016242687     1.9187018332    -1.0053181579
| 16>  H       -0.9061519288     1.9055197914     0.5690670332
| 17>  H       -0.0242790737    -0.5651527954    -2.1461240488
| 18>  H        0.0024929030    -2.9183055020    -1.2689077837
| 19>  H        0.1882145740    -1.0870921143     3.1534541126
| 20>  H        0.4133007537     0.4855189019     2.6498004464
| 21> *
| 22>
| 23>                          ****END OF INPUT****

CARTESIAN COORDINATES (ANGSTROEM)
---------------------------------
  C     -0.043431    1.521625    0.011652
  C     -0.014585    0.024592    0.004319
  C     -0.012436   -0.812039   -1.095834
  N      0.001892   -2.104577   -0.680537
  C      0.016363   -2.137216    0.709837
  C      0.050178   -3.324267    1.455778
  N      0.085442   -4.292650    2.097854
  C      0.000952   -0.815404    1.153925
  N     -0.068194   -0.384903    2.472527
  H      0.855161    1.950134    0.475087
  H     -0.101624    1.918702   -1.005318
  H     -0.906152    1.905520    0.569067
  H     -0.024279   -0.565153   -2.146124
  H      0.002493   -2.918306   -1.268908
  H      0.188215   -1.087092    3.153454
  H      0.413301    0.485519    2.649800

 Total Charge           Charge          ....    0
 Multiplicity           Mult            ....    1
 Number of Electrons    NEL             ....   64
 Basis Dimension        Dim             ....  321

ORBITAL ENERGIES
----------------

  NO   OCC          E(Eh)            E(eV)
   0   2.0000     -15.623014      -425.1238
   1   2.0000     -15.576218      -423.8504
   2   2.0000     -15.563558      -423.5059
   3   2.0000     -11.289238      -307.1958
   4   2.0000     -11.284468      -307.0660
   5   2.0000     -11.278634      -306.9072
   6   2.0000     -11.271810      -306.7216
   7   2.0000     -11.237087      -305.7767
   8   2.0000     -11.234395      -305.7034
   9   2.0000      -1.318029       -35.8654
  10   2.0000      -1.223483       -33.2927
  11   2.0000      -1.207200       -32.8496
  12   2.0000      -1.074789       -29.2465
  13   2.0000      -1.021844       -27.8058
  14   2.0000      -0.956183       -26.0191
  15   2.0000      -0.850098       -23.1323
  16   2.0000      -0.781014       -21.2525
  17   2.0000      -0.774195       -21.0669
  18   2.0000      -0.699694       -19.0396
  19   2.0000      -0.651395       -17.7253
  20   2.0000      -0.639836       -17.4108
  21   2.0000      -0.615591       -16.7511
  22   2.0000      -0.594890       -16.1878
  23   2.0000      -0.569174       -15.4880
  24   2.0000      -0.559194       -15.2164
  25   2.0000      -0.549878       -14.9629
  26   2.0000      -0.526144       -14.3171
  27   2.0000      -0.495989       -13.4965
  28   2.0000      -0.483342       -13.1524
  29   2.0000      -0.459385       -12.5005
  30   2.0000      -0.334026        -9.0893
  31   2.0000      -0.302861        -8.2413
  32   0.0000       0.113327         3.0838
  33   0.0000       0.120479         3.2784
  34   0.0000       0.125327         3.4103
  35   0.0000       0.153207         4.1690
  36   0.0000       0.171117         4.6563

MULLIKEN ATOMIC CHARGES
-----------------------
   0 C :   -0.474045
   1 C :    0.021568
   2 C :   -0.091308
   3 N :   -0.286449
   4 C :    0.250661
   5 C :   -0.258474
   6 N :   -0.050008
   7 C :    0.050412
   8 N :   -0.515380
   9 H :    0.140515
  10 H :    0.141173
  11 H :    0.159437
  12 H :    0.147608
  13 H :    0.255925
  14 H :    0.254763
  15 H :    0.253602
Sum of atomic charges:   -0.0000000

LOEWDIN ATOMIC CHARGES
----------------------
   0 C :   -0.273912
   1 C :   -0.187992
   2 C :   -0.203969
   3 N :    0.212261
   4 C :   -0.221723
   5 C :   -0.187576
   6 N :    0.059460
   7 C :   -0.212071
   8 N :   -0.062134
   9 H :    0.128233
  10 H :    0.133542
  11 H :    0.133859
  12 H :    0.138201
  13 H :    0.198796
  14 H :    0.174028
  15 H :    0.170998

  Mayer bond orders larger than 0.1
B(  0-C ,  1-C ) :   0.8474 B(  0-C ,  9-H ) :   0.9373 B(  0-C , 10-H ) :   0.9465
B(  0-C , 11-H ) :   0.9408 B(  1-C ,  2-C ) :   1.4574 B(  1-C ,  7-C ) :   1.3102
B(  2-C ,  3-N ) :   1.1895 B(  2-C , 12-H ) :   0.9115 B(  3-N ,  4-C ) :   1.0623
B(  3-N , 13-H ) :   0.8702 B(  4-C ,  5-C ) :   0.8838 B(  4-C ,  7-C ) :   1.3877
B(  5-C ,  6-N ) :   2.8795 B(  7-C ,  8-N ) :   1.0456 B(  8-N , 14-H ) :   0.8750
B(  8-N , 15-H ) :   0.8699

MP2 TOTAL ENERGY:     -396.292115467 Eh
FINAL SINGLE POINT ENERGY      -396.292115467379

DIPOLE MOMENT
-------------
                                X             Y             Z
Electronic contribution:     -0.01836      -8.96923       1.20574
Nuclear contribution   :      0.36478      10.23587      -2.25760
                        -----------------------------------------
Total Dipole Moment    :      0.34641       1.26665      -1.05187
                        -----------------------------------------
Magnitude (a.u.)       :      1.68250
Magnitude (Debye)      :      4.27659

                             ****ORCA TERMINATED NORMALLY****
TOTAL RUN TIME: 0 days 0 hours 16 minutes 12 seconds 683 msec
