                         Program Version 3.0.3 - RELEASE   -
|  1> ! RI-MP2 RIJK def2-TZVP def2-TZVP/C def2-TZVP/JK TIGHTSCF
|  2> % maxcore 2000
|  3> % mp2 density relaxed end
|  4> *xyz 0 1
|  5>  C       -0.0031843648     1.3689289595    -0.1345334995
|  6>  O       -0.0311993492    -0.0399662169    -0.1364463458
|  7>  C       -1.3026107463    -0.5695250169     0.1664710527
|  8>  C       -1.1979073711    -2.0810226446     0.1046635143
|  9>  C       -2.5375671715    -2.8726235659     0.0892446621
| 10>  C       -2.1159915158    -3.3335559890    -1.3323356945
| 11>  O       -2.5860822014    -4.0258061503    -2.1933302697
| 12>  N       -0.9457652573    -2.6203325596    -1.2353482488
| 13>  H        1.0162238387     1.6758912282    -0.3795513987
| 14>  H       -0.6925235059     1.7913645993    -0.8821627686
| 15>  H       -0.2717534649     1.7798994572     0.8511576262
| 16>  H       -1.6310504882    -0.2563713545     1.1727847500
| 17>  H       -2.0557963996    -0.2152434042    -0.5579586608
| 18>  H       -0.4719981918    -2.4293702289     0.8474214078
| 19>  H       -2.6196003810    -3.6777671397     0.8205089175
| 20>  H       -3.4433095527    -2.2625715410     0.1094566215
| 21>  H       -0.1915444872    -2.4577971728    -1.8854437556
| 22> *
| 23>
| 24>                          ****END OF INPUT****

CARTESIAN COORDINATES (ANGSTROEM)
---------------------------------
  C     -0.003184    1.368929   -0.134533
  O     -0.031199   -0.039966   -0.136446
  C     -1.302611   -0.569525    0.166471
  C     -1.197907   -2.081023    0.104664
  C     -2.537567   -2.872624    0.089245
  C     -2.115992   -3.333556   -1.332336
  O     -2.586082   -4.025806   -2.193330
  N     -0.945765   -2.620333   -1.235348
  H      1.016224    1.675891   -0.379551
  H     -0.692524    1.791365   -0.882163
  H     -0.271753    1.779899    0.851158
  H     -1.631050   -0.256371    1.172785
  H     -2.055796   -0.215243   -0.557959
  H     -0.471998   -2.429370    0.847421
  H     -2.619600   -3.677767    0.820509
  H     -3.443310   -2.262572    0.109457
  H     -0.191544   -2.457797   -1.885444

 Total Charge           Charge          ....    0
 Multiplicity           Mult            ....    1
 Number of Electrons    NEL             ....   62
 Basis Dimension        Dim             ....  302

ORBITAL ENERGIES
----------------

  NO   OCC          E(Eh)            E(eV)
   0   2.0000     -20.571651      -559.7831
   1   2.0000     -20.522383      -558.4424
   2   2.0000     -15.581093      -423.9831
   3   2.0000     -11.350395      -308.8599
   4   2.0000     -11.291323      -307.2525
   5   2.0000     -11.285458      -307.0929
   6   2.0000     -11.283039      -307.0271
   7   2.0000     -11.250374      -306.1382
   8   2.0000      -1.393767       -37.9263
   9   2.0000      -1.384463       -37.6732
  10   2.0000      -1.268377       -34.5143
  11   2.0000      -1.033794       -28.1310
  12   2.0000      -0.988814       -26.9070
  13   2.0000      -0.909541       -24.7499
  14   2.0000      -0.838401       -22.8140
  15   2.0000      -0.786046       -21.3894
  16   2.0000      -0.704733       -19.1768
  17   2.0000      -0.676814       -18.4170
  18   2.0000      -0.672972       -18.3125
  19   2.0000      -0.653433       -17.7808
  20   2.0000      -0.639105       -17.3909
  21   2.0000      -0.610131       -16.6025
  22   2.0000      -0.577243       -15.7076
  23   2.0000      -0.538476       -14.6527
  24   2.0000      -0.532348       -14.4859
  25   2.0000      -0.528888       -14.3918
  26   2.0000      -0.509887       -13.8747
  27   2.0000      -0.498590       -13.5673
  28   2.0000      -0.440970       -11.9994
  29   2.0000      -0.416121       -11.3232
  30   2.0000      -0.396343       -10.7850
  31   0.0000       0.130253         3.5444
  32   0.0000       0.148475         4.0402
  33   0.0000       0.159307         4.3350
  34   0.0000       0.166637         4.5344
  35   0.0000       0.177341         4.8257

MULLIKEN ATOMIC CHARGES
-----------------------
   0 C :   -0.218042
   1 O :   -0.312140
   2 C :   -0.101024
   3 C :    0.123167
   4 C :   -0.265262
   5 C :    0.219588
   6 O :   -0.314762
   7 N :   -0.333054
   8 H :    0.142234
   9 H :    0.116953
  10 H :    0.114498
  11 H :    0.099475
  12 H :    0.101199
  13 H :    0.113256
  14 H :    0.138054
  15 H :    0.133489
  16 H :    0.242372
Sum of atomic charges:    0.0000000

LOEWDIN ATOMIC CHARGES
----------------------
   0 C :   -0.357258
   1 O :    0.133111
   2 C :   -0.318389
   3 C :   -0.252177
   4 C :   -0.180506
   5 C :   -0.442313
   6 O :    0.100067
   7 N :    0.146412
   8 H :    0.114723
   9 H :    0.103092
  10 H :    0.102659
  11 H :    0.124676
  12 H :    0.125123
  13 H :    0.143193
  14 H :    0.141173
  15 H :    0.142275
  16 H :    0.174137

  Mayer bond orders larger than 0.1
B(  0-C ,  1-O ) :   0.9138 B(  0-C ,  8-H ) :   0.9384 B(  0-C ,  9-H ) :   0.9364
B(  0-C , 10-H ) :   0.9381 B(  1-O ,  2-C ) :   0.9466 B(  2-C ,  3-C ) :   0.9356
B(  2-C , 11-H ) :   0.9258 B(  2-C , 12-H ) :   0.9150 B(  3-C ,  4-C ) :   0.8884
B(  3-C ,  7-N ) :   0.8705 B(  3-C , 13-H ) :   0.9230 B(  4-C ,  5-C ) :   0.8897
B(  4-C , 14-H ) :   0.9079 B(  4-C , 15-H ) :   0.9038 B(  5-C ,  6-O ) :   2.0263
B(  5-C ,  7-N ) :   1.1495 B(  7-N , 16-H ) :   0.8579

MP2 TOTAL ENERGY:     -400.356178761 Eh
FINAL SINGLE POINT ENERGY      -400.356178761117

DIPOLE MOMENT
-------------
                                X             Y             Z
Electronic contribution:     -0.95458      -7.50794      -4.02827
Nuclear contribution   :      1.39454       8.81332       5.03985
                        -----------------------------------------
Total Dipole Moment    :      0.43995       1.30537       1.01158
                        -----------------------------------------
Magnitude (a.u.)       :      1.70905
Magnitude (Debye)      :      4.34406

                             ****ORCA TERMINATED NORMALLY****
TOTAL RUN TIME: 0 days 0 hours 10 minutes 41 seconds 475 msec
