                         Program Version 3.0.3 - RELEASE   -
|  1> ! RI-MP2 RIJK def2-TZVP def2-TZVP/C def2-TZVP/JK TIGHTSCF
|  2> % maxcore 2000
|  3> % mp2 density relaxed end
|  4> *xyz 0 1
|  5>  O       -0.0571610084    -0.0504853195     0.0048526692
|  6>  C        0.0102464453     1.1504341844     0.0088497633
|  7>  N       -1.1147389373     1.9687943504     0.0279023974
|  8>  N       -1.1967609674     3.3317298091     0.0358814850
|  9>  N       -0.1354278923     3.9948413667     0.0251471146
| 10>  N        1.0533508247     3.3233857489     0.0068086652
| 11>  C        1.2953724129     1.9533451511    -0.0023160786
| 12>  O        2.4040764601     1.4872759209    -0.0202683660
| 13>  H       -2.0183231189     1.5121109031     0.0376179521
| 14>  H        1.8600019613     3.9352443749    -0.0010316422
| 15> *
| 16>
| 17>                          ****END OF INPUT****

CARTESIAN COORDINATES (ANGSTROEM)
---------------------------------
  O     -0.057161   -0.050485    0.004853
  C      0.010246    1.150434    0.008850
  N     -1.114739    1.968794    0.027902
  N     -1.196761    3.331730    0.035881
  N     -0.135428    3.994841    0.025147
  N      1.053351    3.323386    0.006809
  C      1.295372    1.953345   -0.002316
  O      2.404076    1.487276   -0.020268
  H     -2.018323    1.512111    0.037618
  H      1.860002    3.935244   -0.001032

 Total Charge           Charge          ....    0
 Multiplicity           Mult            ....    1
 Number of Electrons    NEL             ....   58
 Basis Dimension        Dim             ....  260

ORBITAL ENERGIES
----------------

  NO   OCC          E(Eh)            E(eV)
   0   2.0000     -20.580411      -560.0215
   1   2.0000     -20.580406      -560.0213
   2   2.0000     -15.712070      -427.5472
   3   2.0000     -15.710792      -427.5124
   4   2.0000     -15.678319      -426.6287
   5   2.0000     -15.678313      -426.6286
   6   2.0000     -11.411810      -310.5311
   7   2.0000     -11.411189      -310.5142
   8   2.0000      -1.503605       -40.9152
   9   2.0000      -1.443452       -39.2783
  10   2.0000      -1.429478       -38.8981
  11   2.0000      -1.314544       -35.7706
  12   2.0000      -1.224447       -33.3189
  13   2.0000      -0.995908       -27.1000
  14   2.0000      -0.977597       -26.6018
  15   2.0000      -0.838551       -22.8181
  16   2.0000      -0.780251       -21.2317
  17   2.0000      -0.778828       -21.1930
  18   2.0000      -0.710518       -19.3342
  19   2.0000      -0.687821       -18.7166
  20   2.0000      -0.672363       -18.2959
  21   2.0000      -0.605414       -16.4742
  22   2.0000      -0.603461       -16.4210
  23   2.0000      -0.600835       -16.3495
  24   2.0000      -0.553288       -15.0557
  25   2.0000      -0.490915       -13.3585
  26   2.0000      -0.482162       -13.1203
  27   2.0000      -0.464173       -12.6308
  28   2.0000      -0.400785       -10.9059
  29   0.0000       0.066242         1.8025
  30   0.0000       0.089974         2.4483
  31   0.0000       0.129488         3.5236
  32   0.0000       0.135128         3.6770
  33   0.0000       0.184278         5.0145

MULLIKEN ATOMIC CHARGES
-----------------------
   0 O :   -0.271877
   1 C :    0.215449
   2 N :   -0.155350
   3 N :   -0.064158
   4 N :   -0.064158
   5 N :   -0.155350
   6 C :    0.215448
   7 O :   -0.271877
   8 H :    0.275937
   9 H :    0.275937
Sum of atomic charges:    0.0000000

LOEWDIN ATOMIC CHARGES
----------------------
   0 O :    0.160001
   1 C :   -0.422656
   2 N :    0.094105
   3 N :   -0.033524
   4 N :   -0.033524
   5 N :    0.094105
   6 C :   -0.422656
   7 O :    0.160001
   8 H :    0.202074
   9 H :    0.202074

  Mayer bond orders larger than 0.1
B(  0-O ,  1-C ) :   1.9867 B(  1-C ,  2-N ) :   1.0656 B(  1-C ,  6-C ) :   0.8673
B(  2-N ,  3-N ) :   0.9430 B(  2-N ,  8-H ) :   0.8504 B(  3-N ,  4-N ) :   1.5413
B(  4-N ,  5-N ) :   0.9430 B(  5-N ,  6-C ) :   1.0656 B(  5-N ,  9-H ) :   0.8504
B(  6-C ,  7-O ) :   1.9867

MP2 TOTAL ENERGY:     -446.070026584 Eh
FINAL SINGLE POINT ENERGY      -446.070026584454

DIPOLE MOMENT
-------------
                                X             Y             Z
Electronic contribution:      0.15191      -0.24319      -0.00290
Nuclear contribution   :     -0.68859       1.10234       0.01418
                        -----------------------------------------
Total Dipole Moment    :     -0.53667       0.85914       0.01127
                        -----------------------------------------
Magnitude (a.u.)       :      1.01305
Magnitude (Debye)      :      2.57497

                             ****ORCA TERMINATED NORMALLY****
TOTAL RUN TIME: 0 days 0 hours 7 minutes 44 seconds 711 msec
