                         Program Version 3.0.3 - RELEASE   -
|  1> ! RI-MP2 RIJK def2-TZVP def2-TZVP/C def2-TZVP/JK TIGHTSCF
|  2> % maxcore 2000
|  3> % mp2 density relaxed end
|  4> *xyz 0 1
|  5>  C       -0.0150381114     1.5656392302     0.0069739170
|  6>  C       -0.1037122641     0.0338267906    -0.0166626005
|  7>  C        0.6712151466    -0.5577714926    -1.1654490128
|  8>  C        0.1663524988    -0.4405685270    -2.6196734882
|  9>  O        0.4744003596    -1.8360883116    -2.8748997067
| 10>  C        0.9170327074    -2.0432166039    -1.5238109951
| 11>  C        2.4014994745    -1.7181939803    -1.3177145042
| 12>  O        2.0988547793    -0.3191596453    -1.0783975870
| 13>  H        1.0284287543     1.8865348069     0.0676774050
| 14>  H       -0.4508981755     2.0046697483    -0.8970687010
| 15>  H       -0.5510326607     1.9750131496     0.8677595377
| 16>  H        0.2908988228    -0.3755893738     0.9205530640
| 17>  H       -1.1496862793    -0.2878576442    -0.0926461805
| 18>  H       -0.9086319060    -0.2472185325    -2.7305244319
| 19>  H        0.7387931432     0.2430425154    -3.2550890848
| 20>  H        0.4775616658    -2.9266087618    -1.0562911802
| 21>  H        2.8625659475    -2.1804714660    -0.4353081370
| 22>  H        3.0358903470    -1.8721157819    -2.1968942337
| 23> *
| 24>
| 25>                          ****END OF INPUT****

CARTESIAN COORDINATES (ANGSTROEM)
---------------------------------
  C     -0.015038    1.565639    0.006974
  C     -0.103712    0.033827   -0.016663
  C      0.671215   -0.557771   -1.165449
  C      0.166352   -0.440569   -2.619673
  O      0.474400   -1.836088   -2.874900
  C      0.917033   -2.043217   -1.523811
  C      2.401499   -1.718194   -1.317715
  O      2.098855   -0.319160   -1.078398
  H      1.028429    1.886535    0.067677
  H     -0.450898    2.004670   -0.897069
  H     -0.551033    1.975013    0.867760
  H      0.290899   -0.375589    0.920553
  H     -1.149686   -0.287858   -0.092646
  H     -0.908632   -0.247219   -2.730524
  H      0.738793    0.243043   -3.255089
  H      0.477562   -2.926609   -1.056291
  H      2.862566   -2.180471   -0.435308
  H      3.035890   -1.872116   -2.196894

 Total Charge           Charge          ....    0
 Multiplicity           Mult            ....    1
 Number of Electrons    NEL             ....   62
 Basis Dimension        Dim             ....  308

ORBITAL ENERGIES
----------------

  NO   OCC          E(Eh)            E(eV)
   0   2.0000     -20.555391      -559.3406
   1   2.0000     -20.553108      -559.2785
   2   2.0000     -11.292765      -307.2918
   3   2.0000     -11.287838      -307.1577
   4   2.0000     -11.281209      -306.9773
   5   2.0000     -11.280281      -306.9520
   6   2.0000     -11.232961      -305.6644
   7   2.0000     -11.219906      -305.3092
   8   2.0000      -1.413695       -38.4686
   9   2.0000      -1.349616       -36.7249
  10   2.0000      -1.065108       -28.9831
  11   2.0000      -0.988341       -26.8941
  12   2.0000      -0.965646       -26.2766
  13   2.0000      -0.888396       -24.1745
  14   2.0000      -0.843241       -22.9457
  15   2.0000      -0.727580       -19.7985
  16   2.0000      -0.685289       -18.6477
  17   2.0000      -0.677670       -18.4403
  18   2.0000      -0.673899       -18.3377
  19   2.0000      -0.614686       -16.7265
  20   2.0000      -0.592940       -16.1347
  21   2.0000      -0.570721       -15.5301
  22   2.0000      -0.564167       -15.3518
  23   2.0000      -0.549354       -14.9487
  24   2.0000      -0.531682       -14.4678
  25   2.0000      -0.513536       -13.9740
  26   2.0000      -0.505023       -13.7424
  27   2.0000      -0.475777       -12.9465
  28   2.0000      -0.431755       -11.7486
  29   2.0000      -0.422077       -11.4853
  30   2.0000      -0.402020       -10.9395
  31   0.0000       0.132546         3.6068
  32   0.0000       0.155314         4.2263
  33   0.0000       0.171997         4.6803
  34   0.0000       0.174508         4.7486
  35   0.0000       0.193606         5.2683

MULLIKEN ATOMIC CHARGES
-----------------------
   0 C :   -0.413358
   1 C :   -0.199364
   2 C :    0.157332
   3 C :   -0.039030
   4 O :   -0.328947
   5 C :    0.028418
   6 C :   -0.031002
   7 O :   -0.340041
   8 H :    0.152723
   9 H :    0.123258
  10 H :    0.137125
  11 H :    0.111484
  12 H :    0.117052
  13 H :    0.096734
  14 H :    0.108845
  15 H :    0.111039
  16 H :    0.098841
  17 H :    0.108892
Sum of atomic charges:   -0.0000000

LOEWDIN ATOMIC CHARGES
----------------------
   0 C :   -0.307393
   1 C :   -0.256854
   2 C :   -0.298285
   3 C :   -0.220465
   4 O :    0.134902
   5 C :   -0.237681
   6 C :   -0.246377
   7 O :    0.152137
   8 H :    0.129251
   9 H :    0.121810
  10 H :    0.122211
  11 H :    0.144445
  12 H :    0.144488
  13 H :    0.121228
  14 H :    0.124315
  15 H :    0.128344
  16 H :    0.120113
  17 H :    0.123812

  Mayer bond orders larger than 0.1
B(  0-C ,  1-C ) :   0.9218 B(  0-C ,  8-H ) :   0.9360 B(  0-C ,  9-H ) :   0.9349
B(  0-C , 10-H ) :   0.9381 B(  1-C ,  2-C ) :   0.9206 B(  1-C , 11-H ) :   0.9237
B(  1-C , 12-H ) :   0.9281 B(  2-C ,  3-C ) :   0.9603 B(  2-C ,  5-C ) :   0.9536
B(  2-C ,  7-O ) :   0.9248 B(  3-C ,  4-O ) :   0.9380 B(  3-C , 13-H ) :   0.9089
B(  3-C , 14-H ) :   0.9023 B(  4-O ,  5-C ) :   0.9808 B(  5-C ,  6-C ) :   0.9541
B(  5-C , 15-H ) :   0.9113 B(  6-C ,  7-O ) :   0.9358 B(  6-C , 16-H ) :   0.9142
B(  6-C , 17-H ) :   0.9006

MP2 TOTAL ENERGY:     -384.261576675 Eh
FINAL SINGLE POINT ENERGY      -384.261576674667

DIPOLE MOMENT
-------------
                                X             Y             Z
Electronic contribution:      2.40575      -4.46344      -3.65588
Nuclear contribution   :     -2.75969       4.41838       4.19735
                        -----------------------------------------
Total Dipole Moment    :     -0.35394      -0.04506       0.54147
                        -----------------------------------------
Magnitude (a.u.)       :      0.64845
Magnitude (Debye)      :      1.64823

                             ****ORCA TERMINATED NORMALLY****
TOTAL RUN TIME: 0 days 0 hours 12 minutes 15 seconds 721 msec
