                         Program Version 3.0.3 - RELEASE   -
|  1> ! RI-MP2 RIJK def2-TZVP def2-TZVP/C def2-TZVP/JK TIGHTSCF
|  2> % maxcore 2000
|  3> % mp2 density relaxed end
|  4> *xyz 0 1
|  5>  C       -0.3787173415     1.5494848064    -0.0665346003
|  6>  C        0.0374228456     0.0724556574     0.0490360665
|  7>  C        0.7796517782    -0.4359730429    -1.1387655199
|  8>  C        2.0382904532    -0.8869120214    -1.2548788049
|  9>  N        3.0416035235    -1.0289668040    -0.3028212973
| 10>  O        2.2830747240    -1.2499969076    -2.5876938007
| 11>  C        1.1406953845    -1.0177704707    -3.3224957803
| 12>  O        1.0231522817    -1.2285001018    -4.4997059508
| 13>  N        0.2259137692    -0.5153337277    -2.4237096417
| 14>  H        0.4977498286     2.1926715902    -0.1868441011
| 15>  H       -1.0365238813     1.7194415598    -0.9253787030
| 16>  H       -0.9171642883     1.8670531418     0.8309618079
| 17>  H        0.6859079103    -0.0686137571     0.9178610037
| 18>  H       -0.8563241032    -0.5442484294     0.2164916526
| 19>  H        3.8605396975    -0.4692415319    -0.5226676055
| 20>  H        3.3462214867    -1.9937453911    -0.2088365006
| 21>  H       -0.7089577387    -0.2685446899    -2.6965218448
| 22> *
| 23>
| 24>                          ****END OF INPUT****

CARTESIAN COORDINATES (ANGSTROEM)
---------------------------------
  C     -0.378717    1.549485   -0.066535
  C      0.037423    0.072456    0.049036
  C      0.779652   -0.435973   -1.138766
  C      2.038290   -0.886912   -1.254879
  N      3.041604   -1.028967   -0.302821
  O      2.283075   -1.249997   -2.587694
  C      1.140695   -1.017770   -3.322496
  O      1.023152   -1.228500   -4.499706
  N      0.225914   -0.515334   -2.423710
  H      0.497750    2.192672   -0.186844
  H     -1.036524    1.719442   -0.925379
  H     -0.917164    1.867053    0.830962
  H      0.685908   -0.068614    0.917861
  H     -0.856324   -0.544248    0.216492
  H      3.860540   -0.469242   -0.522668
  H      3.346221   -1.993745   -0.208837
  H     -0.708958   -0.268545   -2.696522

 Total Charge           Charge          ....    0
 Multiplicity           Mult            ....    1
 Number of Electrons    NEL             ....   68
 Basis Dimension        Dim             ....  327

ORBITAL ENERGIES
----------------

  NO   OCC          E(Eh)            E(eV)
   0   2.0000     -20.616124      -560.9933
   1   2.0000     -20.524362      -558.4963
   2   2.0000     -15.610982      -424.7964
   3   2.0000     -15.578528      -423.9133
   4   2.0000     -11.404153      -310.3228
   5   2.0000     -11.319665      -308.0237
   6   2.0000     -11.284976      -307.0798
   7   2.0000     -11.253315      -306.2183
   8   2.0000     -11.235831      -305.7425
   9   2.0000      -1.482021       -40.3279
  10   2.0000      -1.369316       -37.2610
  11   2.0000      -1.262069       -34.3426
  12   2.0000      -1.217023       -33.1169
  13   2.0000      -1.075900       -29.2767
  14   2.0000      -0.990755       -26.9598
  15   2.0000      -0.882641       -24.0179
  16   2.0000      -0.860471       -23.4146
  17   2.0000      -0.804931       -21.9033
  18   2.0000      -0.737968       -20.0811
  19   2.0000      -0.704583       -19.1727
  20   2.0000      -0.657233       -17.8842
  21   2.0000      -0.654338       -17.8054
  22   2.0000      -0.649779       -17.6814
  23   2.0000      -0.629760       -17.1366
  24   2.0000      -0.612870       -16.6770
  25   2.0000      -0.589873       -16.0513
  26   2.0000      -0.548151       -14.9159
  27   2.0000      -0.526496       -14.3267
  28   2.0000      -0.516819       -14.0634
  29   2.0000      -0.511368       -13.9150
  30   2.0000      -0.476248       -12.9594
  31   2.0000      -0.471280       -12.8242
  32   2.0000      -0.439361       -11.9556
  33   2.0000      -0.319609        -8.6970
  34   0.0000       0.114927         3.1273
  35   0.0000       0.130611         3.5541
  36   0.0000       0.156243         4.2516
  37   0.0000       0.171012         4.6535
  38   0.0000       0.180719         4.9176

MULLIKEN ATOMIC CHARGES
-----------------------
   0 C :   -0.378237
   1 C :   -0.245043
   2 C :    0.047801
   3 C :    0.168280
   4 N :   -0.515737
   5 O :   -0.205922
   6 C :    0.321684
   7 O :   -0.335328
   8 N :   -0.303591
   9 H :    0.135813
  10 H :    0.116616
  11 H :    0.139738
  12 H :    0.158828
  13 H :    0.128993
  14 H :    0.255326
  15 H :    0.255453
  16 H :    0.255326
Sum of atomic charges:    0.0000000

LOEWDIN ATOMIC CHARGES
----------------------
   0 C :   -0.306024
   1 C :   -0.252545
   2 C :   -0.221687
   3 C :   -0.349400
   4 N :   -0.093818
   5 O :    0.295160
   6 C :   -0.541945
   7 O :    0.084281
   8 N :    0.173389
   9 H :    0.125452
  10 H :    0.118101
  11 H :    0.123978
  12 H :    0.157837
  13 H :    0.146059
  14 H :    0.172034
  15 H :    0.172203
  16 H :    0.196923

  Mayer bond orders larger than 0.1
B(  0-C ,  1-C ) :   0.9121 B(  0-C ,  9-H ) :   0.9350 B(  0-C , 10-H ) :   0.9381
B(  0-C , 11-H ) :   0.9373 B(  1-C ,  2-C ) :   0.8919 B(  1-C , 12-H ) :   0.9374
B(  1-C , 13-H ) :   0.9287 B(  2-C ,  3-C ) :   1.6862 B(  2-C ,  8-N ) :   1.0389
B(  3-C ,  4-N ) :   1.1987 B(  3-C ,  5-O ) :   1.0096 B(  4-N , 14-H ) :   0.8792
B(  4-N , 15-H ) :   0.8783 B(  5-O ,  6-C ) :   1.0494 B(  6-C ,  7-O ) :   2.0186
B(  6-C ,  8-N ) :   1.1280 B(  8-N , 16-H ) :   0.8660

MP2 TOTAL ENERGY:     -454.469076987 Eh
FINAL SINGLE POINT ENERGY      -454.469076986683

DIPOLE MOMENT
-------------
                                X             Y             Z
Electronic contribution:      3.69564      -5.72369      -8.95947
Nuclear contribution   :     -4.02143       6.21216      10.60013
                        -----------------------------------------
Total Dipole Moment    :     -0.32579       0.48847       1.64067
                        -----------------------------------------
Magnitude (a.u.)       :      1.74257
Magnitude (Debye)      :      4.42925

                             ****ORCA TERMINATED NORMALLY****
TOTAL RUN TIME: 0 days 0 hours 15 minutes 22 seconds 732 msec
