                         Program Version 3.0.3 - RELEASE   -
|  1> ! RI-MP2 RIJK def2-TZVP def2-TZVP/C def2-TZVP/JK TIGHTSCF
|  2> % maxcore 2000
|  3> % mp2 density relaxed end
|  4> *xyz 0 1
|  5>  O       -0.2623459823     1.4486336450     0.0525692376
|  6>  C       -0.0052334357     0.0555706683     0.0220810353
|  7>  C        0.5535521631    -0.4660451841     1.3745846700
|  8>  C       -0.6796642953    -0.6084645574     2.3349770844
|  9>  C       -1.8426720918    -0.4877184189     1.3933448119
| 10>  C       -3.0752622264     0.0003157989     1.3854912406
| 11>  C       -3.5248471158     0.1733840480    -0.0464545176
| 12>  O       -2.3866147523    -0.1567987523    -0.8528963258
| 13>  C       -1.3690678069    -0.6670907040    -0.0224482047
| 14>  H        0.5822007155     1.9018379041     0.1343051140
| 15>  H        0.6473114860    -0.2078636747    -0.8215392108
| 16>  H        1.0339960560    -1.4387609037     1.2234046943
| 17>  H        1.3190986783     0.2087050524     1.7692430578
| 18>  H       -0.6535934532    -1.5702810860     2.8585975406
| 19>  H       -0.7009224179     0.1706994001     3.1012475098
| 20>  H       -3.6700971701     0.3237902211     2.2305387713
| 21>  H       -4.3715909533    -0.4764554336    -0.3219744277
| 22>  H       -3.8287312678     1.2098261279    -0.2527876842
| 23>  H       -1.1711179200    -1.7243888311    -0.2754181269
| 24> *
| 25>
| 26>                          ****END OF INPUT****

CARTESIAN COORDINATES (ANGSTROEM)
---------------------------------
  O     -0.262346    1.448634    0.052569
  C     -0.005233    0.055571    0.022081
  C      0.553552   -0.466045    1.374585
  C     -0.679664   -0.608465    2.334977
  C     -1.842672   -0.487718    1.393345
  C     -3.075262    0.000316    1.385491
  C     -3.524847    0.173384   -0.046455
  O     -2.386615   -0.156799   -0.852896
  C     -1.369068   -0.667091   -0.022448
  H      0.582201    1.901838    0.134305
  H      0.647311   -0.207864   -0.821539
  H      1.033996   -1.438761    1.223405
  H      1.319099    0.208705    1.769243
  H     -0.653593   -1.570281    2.858598
  H     -0.700922    0.170699    3.101248
  H     -3.670097    0.323790    2.230539
  H     -4.371591   -0.476455   -0.321974
  H     -3.828731    1.209826   -0.252788
  H     -1.171118   -1.724389   -0.275418

 Total Charge           Charge          ....    0
 Multiplicity           Mult            ....    1
 Number of Electrons    NEL             ....   68
 Basis Dimension        Dim             ....  339

ORBITAL ENERGIES
----------------

  NO   OCC          E(Eh)            E(eV)
   0   2.0000     -20.553180      -559.2805
   1   2.0000     -20.543154      -559.0076
   2   2.0000     -11.280327      -306.9533
   3   2.0000     -11.271766      -306.7203
   4   2.0000     -11.270772      -306.6933
   5   2.0000     -11.235296      -305.7280
   6   2.0000     -11.232780      -305.6595
   7   2.0000     -11.225815      -305.4700
   8   2.0000     -11.220051      -305.3131
   9   2.0000      -1.377374       -37.4802
  10   2.0000      -1.354525       -36.8585
  11   2.0000      -1.121052       -30.5054
  12   2.0000      -1.038936       -28.2709
  13   2.0000      -0.966329       -26.2952
  14   2.0000      -0.932697       -25.3800
  15   2.0000      -0.823244       -22.4016
  16   2.0000      -0.785751       -21.3814
  17   2.0000      -0.738455       -20.0944
  18   2.0000      -0.702657       -19.1203
  19   2.0000      -0.666464       -18.1354
  20   2.0000      -0.638294       -17.3689
  21   2.0000      -0.630963       -17.1694
  22   2.0000      -0.601775       -16.3751
  23   2.0000      -0.578726       -15.7479
  24   2.0000      -0.564664       -15.3653
  25   2.0000      -0.548455       -14.9242
  26   2.0000      -0.519800       -14.1445
  27   2.0000      -0.515341       -14.0231
  28   2.0000      -0.500537       -13.6203
  29   2.0000      -0.472075       -12.8458
  30   2.0000      -0.451974       -12.2988
  31   2.0000      -0.437332       -11.9004
  32   2.0000      -0.418720       -11.3940
  33   2.0000      -0.335833        -9.1385
  34   0.0000       0.126553         3.4437
  35   0.0000       0.146552         3.9879
  36   0.0000       0.157077         4.2743
  37   0.0000       0.169526         4.6130
  38   0.0000       0.184249         5.0137

MULLIKEN ATOMIC CHARGES
-----------------------
   0 O :   -0.457089
   1 C :    0.054046
   2 C :   -0.289685
   3 C :   -0.187141
   4 C :   -0.079410
   5 C :   -0.237756
   6 C :    0.018788
   7 O :   -0.345008
   8 C :    0.184015
   9 H :    0.308770
  10 H :    0.097558
  11 H :    0.121376
  12 H :    0.120313
  13 H :    0.131798
  14 H :    0.124463
  15 H :    0.132759
  16 H :    0.101841
  17 H :    0.108950
  18 H :    0.091414
Sum of atomic charges:   -0.0000000

LOEWDIN ATOMIC CHARGES
----------------------
   0 O :   -0.003071
   1 C :   -0.319838
   2 C :   -0.228016
   3 C :   -0.207523
   4 C :   -0.152956
   5 C :   -0.137708
   6 C :   -0.270686
   7 O :    0.181806
   8 C :   -0.259232
   9 H :    0.174124
  10 H :    0.128558
  11 H :    0.138328
  12 H :    0.131899
  13 H :    0.143003
  14 H :    0.144476
  15 H :    0.139343
  16 H :    0.122369
  17 H :    0.127760
  18 H :    0.147364

  Mayer bond orders larger than 0.1
B(  0-O ,  1-C ) :   1.0400 B(  0-O ,  9-H ) :   0.8462 B(  1-C ,  2-C ) :   0.9130
B(  1-C ,  8-C ) :   0.8480 B(  1-C , 10-H ) :   0.9447 B(  2-C ,  3-C ) :   0.9398
B(  2-C , 11-H ) :   0.9186 B(  2-C , 12-H ) :   0.9245 B(  3-C ,  4-C ) :   0.9120
B(  3-C , 13-H ) :   0.9294 B(  3-C , 14-H ) :   0.9075 B(  4-C ,  5-C ) :   1.7666
B(  4-C ,  8-C ) :   0.9499 B(  5-C ,  6-C ) :   0.9804 B(  5-C , 15-H ) :   0.9109
B(  6-C ,  7-O ) :   0.9294 B(  6-C , 16-H ) :   0.9187 B(  6-C , 17-H ) :   0.9126
B(  7-O ,  8-C ) :   0.9473 B(  8-C , 18-H ) :   0.9138

MP2 TOTAL ENERGY:     -422.322691721 Eh
FINAL SINGLE POINT ENERGY      -422.322691720669

DIPOLE MOMENT
-------------
                                X             Y             Z
Electronic contribution:     -2.05518       0.97066      -2.75846
Nuclear contribution   :      2.70020      -1.11390       3.49545
                        -----------------------------------------
Total Dipole Moment    :      0.64502      -0.14324       0.73699
                        -----------------------------------------
Magnitude (a.u.)       :      0.98981
Magnitude (Debye)      :      2.51590

                             ****ORCA TERMINATED NORMALLY****
TOTAL RUN TIME: 0 days 0 hours 17 minutes 40 seconds 729 msec
