                         Program Version 3.0.3 - RELEASE   -
|  1> ! RI-MP2 RIJK def2-TZVP def2-TZVP/C def2-TZVP/JK TIGHTSCF
|  2> % maxcore 2000
|  3> % mp2 density relaxed end
|  4> *xyz 0 1
|  5>  C        0.1323691600     1.5058849154     0.0245312135
|  6>  C        0.0507772387     0.0188885209     0.0177481278
|  7>  C        0.0500377837    -0.8753764666    -0.9742304884
|  8>  C       -0.0226897925    -2.2447934586    -0.2680542717
|  9>  C       -1.0268354678    -3.2284521584    -0.9388953200
| 10>  C       -2.1591368994    -2.3425151843    -0.2487229481
| 11>  C       -1.0626056795    -1.9861694308     0.8096540311
| 12>  C       -0.0241947114    -0.8780546891     1.2594267031
| 13>  C        1.0624892834    -2.0015505631     0.8654581263
| 14>  H        1.0167870634     1.8601690148     0.5702366969
| 15>  H        0.1801860576     1.9065488043    -0.9922584126
| 16>  H       -0.7377270094     1.9516173456     0.5239469991
| 17>  H        0.1122622427    -0.7240591762    -2.0443826595
| 18>  H       -1.0306582954    -3.2943389155    -2.0312323896
| 19>  H       -1.0011798523    -4.2358946642    -0.5151729368
| 20>  H       -2.4423754205    -1.5086401506    -0.8932770418
| 21>  H       -3.0550185828    -2.8536850749     0.1118836307
| 22>  H       -1.0543248473    -2.7933545202     1.5513574525
| 23>  H       -0.0270906771    -0.4109598005     2.2468195215
| 24>  H        1.1453161335    -2.8080816030     1.6006595444
| 25>  H        2.0496347024    -1.6358193649     0.5683082918
| 26> *
| 27>
| 28>                          ****END OF INPUT****

CARTESIAN COORDINATES (ANGSTROEM)
---------------------------------
  C      0.132369    1.505885    0.024531
  C      0.050777    0.018889    0.017748
  C      0.050038   -0.875376   -0.974230
  C     -0.022690   -2.244793   -0.268054
  C     -1.026835   -3.228452   -0.938895
  C     -2.159137   -2.342515   -0.248723
  C     -1.062606   -1.986169    0.809654
  C     -0.024195   -0.878055    1.259427
  C      1.062489   -2.001551    0.865458
  H      1.016787    1.860169    0.570237
  H      0.180186    1.906549   -0.992258
  H     -0.737727    1.951617    0.523947
  H      0.112262   -0.724059   -2.044383
  H     -1.030658   -3.294339   -2.031232
  H     -1.001180   -4.235895   -0.515173
  H     -2.442375   -1.508640   -0.893277
  H     -3.055019   -2.853685    0.111884
  H     -1.054325   -2.793355    1.551357
  H     -0.027091   -0.410960    2.246820
  H      1.145316   -2.808082    1.600660
  H      2.049635   -1.635819    0.568308

 Total Charge           Charge          ....    0
 Multiplicity           Mult            ....    1
 Number of Electrons    NEL             ....   66
 Basis Dimension        Dim             ....  351

ORBITAL ENERGIES
----------------

  NO   OCC          E(Eh)            E(eV)
   0   2.0000     -11.244158      -305.9691
   1   2.0000     -11.235073      -305.7219
   2   2.0000     -11.230872      -305.6076
   3   2.0000     -11.227490      -305.5155
   4   2.0000     -11.227359      -305.5120
   5   2.0000     -11.223782      -305.4146
   6   2.0000     -11.221596      -305.3551
   7   2.0000     -11.217797      -305.2518
   8   2.0000     -11.205330      -304.9125
   9   2.0000      -1.205224       -32.7958
  10   2.0000      -1.067686       -29.0532
  11   2.0000      -1.003133       -27.2966
  12   2.0000      -0.937231       -25.5033
  13   2.0000      -0.890554       -24.2332
  14   2.0000      -0.838266       -22.8104
  15   2.0000      -0.823811       -22.4170
  16   2.0000      -0.722713       -19.6660
  17   2.0000      -0.699981       -19.0475
  18   2.0000      -0.646177       -17.5834
  19   2.0000      -0.611412       -16.6374
  20   2.0000      -0.592232       -16.1155
  21   2.0000      -0.577303       -15.7092
  22   2.0000      -0.566670       -15.4199
  23   2.0000      -0.552140       -15.0245
  24   2.0000      -0.534918       -14.5559
  25   2.0000      -0.512459       -13.9447
  26   2.0000      -0.497200       -13.5295
  27   2.0000      -0.459476       -12.5030
  28   2.0000      -0.443615       -12.0714
  29   2.0000      -0.438357       -11.9283
  30   2.0000      -0.427478       -11.6323
  31   2.0000      -0.361768        -9.8442
  32   2.0000      -0.310713        -8.4549
  33   0.0000       0.139335         3.7915
  34   0.0000       0.150546         4.0966
  35   0.0000       0.152343         4.1455
  36   0.0000       0.168328         4.5804
  37   0.0000       0.175266         4.7692

MULLIKEN ATOMIC CHARGES
-----------------------
   0 C :   -0.471610
   1 C :    0.004799
   2 C :   -0.271887
   3 C :    0.128243
   4 C :   -0.281566
   5 C :   -0.210022
   6 C :   -0.129954
   7 C :   -0.036813
   8 C :   -0.198872
   9 H :    0.140667
  10 H :    0.140418
  11 H :    0.142437
  12 H :    0.119213
  13 H :    0.119984
  14 H :    0.117613
  15 H :    0.125173
  16 H :    0.120418
  17 H :    0.088963
  18 H :    0.123407
  19 H :    0.114993
  20 H :    0.114395
Sum of atomic charges:    0.0000000

LOEWDIN ATOMIC CHARGES
----------------------
   0 C :   -0.278849
   1 C :   -0.161975
   2 C :   -0.102810
   3 C :   -0.185843
   4 C :   -0.197056
   5 C :   -0.211381
   6 C :   -0.154774
   7 C :   -0.137012
   8 C :   -0.154120
   9 H :    0.131317
  10 H :    0.131551
  11 H :    0.132102
  12 H :    0.135406
  13 H :    0.123387
  14 H :    0.134260
  15 H :    0.137614
  16 H :    0.120314
  17 H :    0.154811
  18 H :    0.130110
  19 H :    0.128439
  20 H :    0.124508

  Mayer bond orders larger than 0.1
B(  0-C ,  1-C ) :   0.8669 B(  0-C ,  9-H ) :   0.9329 B(  0-C , 10-H ) :   0.9557
B(  0-C , 11-H ) :   0.9401 B(  1-C ,  2-C ) :   1.6969 B(  1-C ,  7-C ) :   0.9151
B(  2-C ,  3-C ) :   0.8666 B(  2-C , 12-H ) :   0.9452 B(  3-C ,  4-C ) :   0.8888
B(  3-C ,  6-C ) :   0.8931 B(  3-C ,  8-C ) :   0.8986 B(  4-C ,  5-C ) :   0.9437
B(  4-C , 13-H ) :   0.9229 B(  4-C , 14-H ) :   0.9209 B(  5-C ,  6-C ) :   0.9167
B(  5-C , 15-H ) :   0.9099 B(  5-C , 16-H ) :   0.9246 B(  6-C ,  7-C ) :   0.8691
B(  6-C , 17-H ) :   0.9287 B(  7-C ,  8-C ) :   0.9013 B(  7-C , 18-H ) :   0.9094
B(  8-C , 19-H ) :   0.9188 B(  8-C , 20-H ) :   0.9123

MP2 TOTAL ENERGY:     -349.208384148 Eh
FINAL SINGLE POINT ENERGY      -349.208384148152

DIPOLE MOMENT
-------------
                                X             Y             Z
Electronic contribution:      0.68491      -1.21812       0.11561
Nuclear contribution   :     -0.71253       1.26257      -0.02728
                        -----------------------------------------
Total Dipole Moment    :     -0.02762       0.04444       0.08833
                        -----------------------------------------
Magnitude (a.u.)       :      0.10267
Magnitude (Debye)      :      0.26097

                             ****ORCA TERMINATED NORMALLY****
TOTAL RUN TIME: 0 days 0 hours 21 minutes 53 seconds 273 msec
