                         Program Version 3.0.3 - RELEASE   -
|  1> ! RI-MP2 RIJK def2-TZVP def2-TZVP/C def2-TZVP/JK TIGHTSCF
|  2> % maxcore 2000
|  3> % mp2 density relaxed end
|  4> *xyz 0 1
|  5>  C       -0.1610697216     1.6326467405    -0.0393120887
|  6>  C        0.0850558984     0.1487177883     0.1138966379
|  7>  O       -1.0700347930    -0.5988441869    -0.2626733541
|  8>  C        1.3374246170    -0.6747691802    -0.2220281992
|  9>  C        2.6653661080    -0.1895196064     0.4197855784
| 10>  N        2.4701646189     1.0989194193     1.1408591412
| 11>  C        2.0720972425    -0.1875920558     1.7693109541
| 12>  C        0.7189927777    -0.6752048997     1.1992957862
| 13>  O        0.0376086649    -1.6278430063     1.9167420858
| 14>  H        0.6944807552     2.2140273379     0.2918360263
| 15>  H       -0.3601415251     1.8632238900    -1.0949725432
| 16>  H       -1.0481372229     1.9160420171     0.5369659907
| 17>  H       -1.1987701121    -0.4951709081    -1.2114536096
| 18>  H        1.3004989314    -1.4258166160    -1.0019269074
| 19>  H        3.6496506393    -0.5027085905     0.0965014178
| 20>  H        3.3729183493     1.3511303491     1.5451081884
| 21>  H        2.4676260013    -0.5127324693     2.7224755160
| 22>  H       -0.7769424194    -1.7953244429     1.4221041492
| 23> *
| 24>
| 25>                          ****END OF INPUT****

CARTESIAN COORDINATES (ANGSTROEM)
---------------------------------
  C     -0.161070    1.632647   -0.039312
  C      0.085056    0.148718    0.113897
  O     -1.070035   -0.598844   -0.262673
  C      1.337425   -0.674769   -0.222028
  C      2.665366   -0.189520    0.419786
  N      2.470165    1.098919    1.140859
  C      2.072097   -0.187592    1.769311
  C      0.718993   -0.675205    1.199296
  O      0.037609   -1.627843    1.916742
  H      0.694481    2.214027    0.291836
  H     -0.360142    1.863224   -1.094973
  H     -1.048137    1.916042    0.536966
  H     -1.198770   -0.495171   -1.211454
  H      1.300499   -1.425817   -1.001927
  H      3.649651   -0.502709    0.096501
  H      3.372918    1.351130    1.545108
  H      2.467626   -0.512732    2.722476
  H     -0.776942   -1.795324    1.422104

 Total Charge           Charge          ....    0
 Multiplicity           Mult            ....    1
 Number of Electrons    NEL             ....   68
 Basis Dimension        Dim             ....  333

ORBITAL ENERGIES
----------------

  NO   OCC          E(Eh)            E(eV)
   0   2.0000     -20.570976      -559.7647
   1   2.0000     -20.561311      -559.5017
   2   2.0000     -15.567363      -423.6095
   3   2.0000     -11.299050      -307.4628
   4   2.0000     -11.295755      -307.3731
   5   2.0000     -11.270307      -306.6806
   6   2.0000     -11.265882      -306.5602
   7   2.0000     -11.230420      -305.5953
   8   2.0000     -11.206317      -304.9394
   9   2.0000      -1.397859       -38.0377
  10   2.0000      -1.361077       -37.0368
  11   2.0000      -1.284039       -34.9405
  12   2.0000      -1.113288       -30.2941
  13   2.0000      -0.980973       -26.6936
  14   2.0000      -0.900638       -24.5076
  15   2.0000      -0.879962       -23.9450
  16   2.0000      -0.773184       -21.0394
  17   2.0000      -0.748118       -20.3573
  18   2.0000      -0.734369       -19.9832
  19   2.0000      -0.682023       -18.5588
  20   2.0000      -0.660863       -17.9830
  21   2.0000      -0.625240       -17.0136
  22   2.0000      -0.606607       -16.5066
  23   2.0000      -0.584997       -15.9186
  24   2.0000      -0.557281       -15.1644
  25   2.0000      -0.549715       -14.9585
  26   2.0000      -0.538533       -14.6542
  27   2.0000      -0.516114       -14.0442
  28   2.0000      -0.508596       -13.8396
  29   2.0000      -0.488512       -13.2931
  30   2.0000      -0.473688       -12.8897
  31   2.0000      -0.399679       -10.8758
  32   2.0000      -0.391096       -10.6423
  33   2.0000      -0.321804        -8.7567
  34   0.0000       0.131725         3.5844
  35   0.0000       0.139308         3.7908
  36   0.0000       0.170545         4.6408
  37   0.0000       0.182329         4.9614
  38   0.0000       0.191781         5.2186

MULLIKEN ATOMIC CHARGES
-----------------------
   0 C :   -0.361919
   1 C :    0.161305
   2 O :   -0.508318
   3 C :   -0.189697
   4 C :   -0.106987
   5 N :   -0.384842
   6 C :   -0.138649
   7 C :    0.264845
   8 O :   -0.455650
   9 H :    0.168099
  10 H :    0.099479
  11 H :    0.129802
  12 H :    0.327158
  13 H :    0.150193
  14 H :    0.143060
  15 H :    0.214342
  16 H :    0.144517
  17 H :    0.343262
Sum of atomic charges:   -0.0000000

LOEWDIN ATOMIC CHARGES
----------------------
   0 C :   -0.282295
   1 C :   -0.312131
   2 O :    0.009416
   3 C :   -0.133527
   4 C :   -0.207810
   5 N :    0.004050
   6 C :   -0.183455
   7 C :   -0.280305
   8 O :    0.045613
   9 H :    0.133357
  10 H :    0.121951
  11 H :    0.128999
  12 H :    0.181261
  13 H :    0.138514
  14 H :    0.132340
  15 H :    0.172326
  16 H :    0.137833
  17 H :    0.193863

  Mayer bond orders larger than 0.1
B(  0-C ,  1-C ) :   0.8790 B(  0-C ,  9-H ) :   0.9244 B(  0-C , 10-H ) :   0.9119
B(  0-C , 11-H ) :   0.9357 B(  1-C ,  2-O ) :   0.8589 B(  1-C ,  3-C ) :   0.8344
B(  1-C ,  7-C ) :   0.9283 B(  2-O , 12-H ) :   0.8378 B(  3-C ,  4-C ) :   0.8535
B(  3-C ,  7-C ) :   0.8421 B(  3-C , 13-H ) :   0.8984 B(  4-C ,  5-N ) :   0.9272
B(  4-C ,  6-C ) :   0.9948 B(  4-C , 14-H ) :   0.9125 B(  5-N ,  6-C ) :   0.9477
B(  5-N , 15-H ) :   0.8684 B(  6-C ,  7-C ) :   0.9168 B(  6-C , 16-H ) :   0.9221
B(  7-C ,  8-O ) :   1.0875 B(  8-O , 17-H ) :   0.8104

MP2 TOTAL ENERGY:     -438.263573228 Eh
FINAL SINGLE POINT ENERGY      -438.263573228422

DIPOLE MOMENT
-------------
                                X             Y             Z
Electronic contribution:      0.05911      -3.52649       1.87783
Nuclear contribution   :      0.46752       3.55438      -2.51560
                        -----------------------------------------
Total Dipole Moment    :      0.52663       0.02789      -0.63777
                        -----------------------------------------
Magnitude (a.u.)       :      0.82757
Magnitude (Debye)      :      2.10351

                             ****ORCA TERMINATED NORMALLY****
TOTAL RUN TIME: 0 days 0 hours 18 minutes 50 seconds 992 msec
