                         Program Version 3.0.3 - RELEASE   -
|  1> ! RI-MP2 RIJK def2-TZVP def2-TZVP/C def2-TZVP/JK TIGHTSCF
|  2> % maxcore 2000
|  3> % mp2 density relaxed end
|  4> *xyz 0 1
|  5>  N       -0.2080443885     1.1753908481     0.6733169592
|  6>  C        0.0251167241    -0.0283310984     0.0693163545
|  7>  O        1.1177463326    -0.3290529953    -0.3722497255
|  8>  C       -1.1918214015    -0.9491738638    -0.0192630969
|  9>  C       -0.8037770413    -2.4291258329    -0.1154775517
| 10>  C       -0.2102049844    -2.9448059996     1.2289577779
| 11>  C       -1.3501107134    -3.7135633812     1.8509081557
| 12>  C       -2.3456265874    -3.9187249524     0.9904291916
| 13>  C       -2.0522954141    -3.3245040118    -0.3664120376
| 14>  H        0.5278090678     1.8627700199     0.6618860324
| 15>  H       -1.1264644402     1.4567503083     0.9677319123
| 16>  H       -1.8623237953    -0.7835317962     0.8336789164
| 17>  H       -1.7513837851    -0.6515015640    -0.9167463068
| 18>  H       -0.0714700690    -2.5205799189    -0.9189243985
| 19>  H        0.6577817393    -3.5965276580     1.0628532963
| 20>  H        0.1512354093    -2.1262178116     1.8628837556
| 21>  H       -1.3234759060    -4.0733475870     2.8739909115
| 22>  H       -3.2539058603    -4.4729528528     1.2013239112
| 23>  H       -2.8974513405    -2.7546711038    -0.7734382814
| 24>  H       -1.8410019060    -4.1156123586    -1.0993257162
| 25> *
| 26>
| 27>                          ****END OF INPUT****

CARTESIAN COORDINATES (ANGSTROEM)
---------------------------------
  N     -0.208044    1.175391    0.673317
  C      0.025117   -0.028331    0.069316
  O      1.117746   -0.329053   -0.372250
  C     -1.191821   -0.949174   -0.019263
  C     -0.803777   -2.429126   -0.115478
  C     -0.210205   -2.944806    1.228958
  C     -1.350111   -3.713563    1.850908
  C     -2.345627   -3.918725    0.990429
  C     -2.052295   -3.324504   -0.366412
  H      0.527809    1.862770    0.661886
  H     -1.126464    1.456750    0.967732
  H     -1.862324   -0.783532    0.833679
  H     -1.751384   -0.651502   -0.916746
  H     -0.071470   -2.520580   -0.918924
  H      0.657782   -3.596528    1.062853
  H      0.151235   -2.126218    1.862884
  H     -1.323476   -4.073348    2.873991
  H     -3.253906   -4.472953    1.201324
  H     -2.897451   -2.754671   -0.773438
  H     -1.841002   -4.115612   -1.099326

 Total Charge           Charge          ....    0
 Multiplicity           Mult            ....    1
 Number of Electrons    NEL             ....   68
 Basis Dimension        Dim             ....  345

ORBITAL ENERGIES
----------------

  NO   OCC          E(Eh)            E(eV)
   0   2.0000     -20.514114      -558.2174
   1   2.0000     -15.581407      -423.9916
   2   2.0000     -11.348079      -308.7969
   3   2.0000     -11.237621      -305.7912
   4   2.0000     -11.228213      -305.5352
   5   2.0000     -11.223824      -305.4158
   6   2.0000     -11.221886      -305.3630
   7   2.0000     -11.220205      -305.3173
   8   2.0000     -11.219310      -305.2929
   9   2.0000      -1.378919       -37.5223
  10   2.0000      -1.208430       -32.8831
  11   2.0000      -1.136958       -30.9382
  12   2.0000      -1.029823       -28.0229
  13   2.0000      -0.956983       -26.0408
  14   2.0000      -0.924824       -25.1657
  15   2.0000      -0.805228       -21.9114
  16   2.0000      -0.759338       -20.6626
  17   2.0000      -0.730571       -19.8798
  18   2.0000      -0.715272       -19.4635
  19   2.0000      -0.682721       -18.5778
  20   2.0000      -0.656297       -17.8587
  21   2.0000      -0.634736       -17.2720
  22   2.0000      -0.600991       -16.3538
  23   2.0000      -0.577519       -15.7151
  24   2.0000      -0.549092       -14.9416
  25   2.0000      -0.536776       -14.6064
  26   2.0000      -0.525393       -14.2967
  27   2.0000      -0.490516       -13.3476
  28   2.0000      -0.483513       -13.1571
  29   2.0000      -0.472786       -12.8652
  30   2.0000      -0.462163       -12.5761
  31   2.0000      -0.419558       -11.4168
  32   2.0000      -0.414440       -11.2775
  33   2.0000      -0.343389        -9.3441
  34   0.0000       0.123339         3.3562
  35   0.0000       0.147684         4.0187
  36   0.0000       0.162888         4.4324
  37   0.0000       0.172258         4.6874
  38   0.0000       0.174733         4.7547

MULLIKEN ATOMIC CHARGES
-----------------------
   0 N :   -0.481487
   1 C :    0.276219
   2 O :   -0.355054
   3 C :   -0.343506
   4 C :    0.013528
   5 C :   -0.215671
   6 C :   -0.182254
   7 C :   -0.205333
   8 C :   -0.148780
   9 H :    0.258644
  10 H :    0.257740
  11 H :    0.140835
  12 H :    0.140920
  13 H :    0.119341
  14 H :    0.124111
  15 H :    0.122728
  16 H :    0.123330
  17 H :    0.123043
  18 H :    0.111576
  19 H :    0.120069
Sum of atomic charges:    0.0000000

LOEWDIN ATOMIC CHARGES
----------------------
   0 N :   -0.024577
   1 C :   -0.478038
   2 O :    0.084866
   3 C :   -0.222331
   4 C :   -0.215328
   5 C :   -0.216515
   6 C :   -0.167430
   7 C :   -0.169687
   8 C :   -0.221408
   9 H :    0.171967
  10 H :    0.168942
  11 H :    0.148060
  12 H :    0.152979
  13 H :    0.155625
  14 H :    0.143792
  15 H :    0.142152
  16 H :    0.135001
  17 H :    0.134381
  18 H :    0.136486
  19 H :    0.141063

  Mayer bond orders larger than 0.1
B(  0-N ,  1-C ) :   1.1465 B(  0-N ,  9-H ) :   0.8584 B(  0-N , 10-H ) :   0.8712
B(  1-C ,  2-O ) :   1.9704 B(  1-C ,  3-C ) :   0.9113 B(  3-C ,  4-C ) :   0.9279
B(  3-C , 11-H ) :   0.9168 B(  3-C , 12-H ) :   0.8991 B(  4-C ,  5-C ) :   0.9104
B(  4-C ,  8-C ) :   0.8757 B(  4-C , 13-H ) :   0.9339 B(  5-C ,  6-C ) :   0.9416
B(  5-C , 14-H ) :   0.9103 B(  5-C , 15-H ) :   0.9321 B(  6-C ,  7-C ) :   1.7889
B(  6-C , 16-H ) :   0.9299 B(  7-C ,  8-C ) :   0.9449 B(  7-C , 17-H ) :   0.9293
B(  8-C , 18-H ) :   0.9268 B(  8-C , 19-H ) :   0.9131

MP2 TOTAL ENERGY:     -402.505462260 Eh
FINAL SINGLE POINT ENERGY      -402.505462260065

DIPOLE MOMENT
-------------
                                X             Y             Z
Electronic contribution:      3.24240       3.00044      -0.60709
Nuclear contribution   :     -4.28898      -2.36601       1.02173
                        -----------------------------------------
Total Dipole Moment    :     -1.04658       0.63443       0.41464
                        -----------------------------------------
Magnitude (a.u.)       :      1.29219
Magnitude (Debye)      :      3.28450

                             ****ORCA TERMINATED NORMALLY****
TOTAL RUN TIME: 0 days 0 hours 19 minutes 53 seconds 244 msec
