                         Program Version 3.0.3 - RELEASE   -
|  1> ! RI-MP2 RIJK def2-TZVP def2-TZVP/C def2-TZVP/JK TIGHTSCF
|  2> % maxcore 2000
|  3> % mp2 density relaxed end
|  4> *xyz 0 1
|  5>  C       -0.0384933097     1.4405002820     0.0465654665
|  6>  C       -0.0106816027    -0.0735605821     0.0181159930
|  7>  C       -1.2634013436    -0.6793482687    -0.5807491497
|  8>  O       -1.2739271619    -2.0996816161    -0.6248270190
|  9>  C       -0.1391965110    -2.7259543758    -0.1142371974
| 10>  C        1.2690346089    -2.2449022381    -0.2969066970
| 11>  C        0.6190206721    -2.2831153157     1.1010604711
| 12>  C        0.7048830801    -0.7372609835     1.1713165435
| 13>  C        1.3457215952    -0.6995746883    -0.2070688463
| 14>  H        0.8803037709     1.8427489345     0.4848922323
| 15>  H       -0.1353622686     1.8523829326    -0.9646158263
| 16>  H       -0.8823717955     1.8084787598     0.6415284010
| 17>  H       -2.1397685163    -0.3489248609    -0.0018175976
| 18>  H       -1.3934261083    -0.3046837376    -1.6079124534
| 19>  H       -0.2671283188    -3.8004823724    -0.2030774781
| 20>  H        2.0609514783    -2.8604039480    -0.7056661964
| 21>  H        0.8300286965    -2.9328090672     1.9415563085
| 22>  H        0.9875337752    -0.1938256494     2.0640556104
| 23>  H        2.1987413089    -0.1225769149    -0.5411759452
| 24> *
| 25>
| 26>                          ****END OF INPUT****

CARTESIAN COORDINATES (ANGSTROEM)
---------------------------------
  C     -0.038493    1.440500    0.046565
  C     -0.010682   -0.073561    0.018116
  C     -1.263401   -0.679348   -0.580749
  O     -1.273927   -2.099682   -0.624827
  C     -0.139197   -2.725954   -0.114237
  C      1.269035   -2.244902   -0.296907
  C      0.619021   -2.283115    1.101060
  C      0.704883   -0.737261    1.171317
  C      1.345722   -0.699575   -0.207069
  H      0.880304    1.842749    0.484892
  H     -0.135362    1.852383   -0.964616
  H     -0.882372    1.808479    0.641528
  H     -2.139769   -0.348925   -0.001818
  H     -1.393426   -0.304684   -1.607912
  H     -0.267128   -3.800482   -0.203077
  H      2.060951   -2.860404   -0.705666
  H      0.830029   -2.932809    1.941556
  H      0.987534   -0.193826    2.064056
  H      2.198741   -0.122577   -0.541176

 Total Charge           Charge          ....    0
 Multiplicity           Mult            ....    1
 Number of Electrons    NEL             ....   66
 Basis Dimension        Dim             ....  339

ORBITAL ENERGIES
----------------

  NO   OCC          E(Eh)            E(eV)
   0   2.0000     -20.551202      -559.2266
   1   2.0000     -11.283547      -307.0409
   2   2.0000     -11.272702      -306.7458
   3   2.0000     -11.244649      -305.9825
   4   2.0000     -11.234565      -305.7081
   5   2.0000     -11.233950      -305.6913
   6   2.0000     -11.232525      -305.6525
   7   2.0000     -11.231952      -305.6370
   8   2.0000     -11.224726      -305.4403
   9   2.0000      -1.378651       -37.5150
  10   2.0000      -1.213407       -33.0185
  11   2.0000      -1.099712       -29.9247
  12   2.0000      -0.966134       -26.2898
  13   2.0000      -0.932400       -25.3719
  14   2.0000      -0.875234       -23.8163
  15   2.0000      -0.830595       -22.6016
  16   2.0000      -0.729625       -19.8541
  17   2.0000      -0.720456       -19.6046
  18   2.0000      -0.673779       -18.3345
  19   2.0000      -0.671686       -18.2775
  20   2.0000      -0.644136       -17.5278
  21   2.0000      -0.622822       -16.9479
  22   2.0000      -0.581025       -15.8105
  23   2.0000      -0.566481       -15.4147
  24   2.0000      -0.555132       -15.1059
  25   2.0000      -0.513492       -13.9728
  26   2.0000      -0.504776       -13.7357
  27   2.0000      -0.485755       -13.2181
  28   2.0000      -0.484891       -13.1946
  29   2.0000      -0.461476       -12.5574
  30   2.0000      -0.418560       -11.3896
  31   2.0000      -0.356768        -9.7082
  32   2.0000      -0.324714        -8.8359
  33   0.0000       0.138549         3.7701
  34   0.0000       0.159097         4.3293
  35   0.0000       0.165648         4.5075
  36   0.0000       0.176020         4.7897
  37   0.0000       0.195400         5.3171

MULLIKEN ATOMIC CHARGES
-----------------------
   0 C :   -0.447943
   1 C :    0.112963
   2 C :    0.021513
   3 O :   -0.305074
   4 C :    0.017640
   5 C :   -0.131005
   6 C :   -0.131026
   7 C :   -0.199158
   8 C :   -0.199164
   9 H :    0.137940
  10 H :    0.138764
  11 H :    0.138757
  12 H :    0.090723
  13 H :    0.090746
  14 H :    0.122199
  15 H :    0.135305
  16 H :    0.135300
  17 H :    0.135759
  18 H :    0.135761
Sum of atomic charges:    0.0000000

LOEWDIN ATOMIC CHARGES
----------------------
   0 C :   -0.255829
   1 C :   -0.242855
   2 C :   -0.249895
   3 O :    0.189005
   4 C :   -0.272876
   5 C :   -0.137901
   6 C :   -0.137897
   7 C :   -0.124208
   8 C :   -0.124196
   9 H :    0.132719
  10 H :    0.129200
  11 H :    0.129202
  12 H :    0.129426
  13 H :    0.129432
  14 H :    0.152574
  15 H :    0.136063
  16 H :    0.136063
  17 H :    0.140987
  18 H :    0.140987

  Mayer bond orders larger than 0.1
B(  0-C ,  1-C ) :   0.8831 B(  0-C ,  9-H ) :   0.9303 B(  0-C , 10-H ) :   0.9378
B(  0-C , 11-H ) :   0.9378 B(  1-C ,  2-C ) :   0.9398 B(  1-C ,  7-C ) :   0.8833
B(  1-C ,  8-C ) :   0.8832 B(  2-C ,  3-O ) :   0.9369 B(  2-C , 12-H ) :   0.9173
B(  2-C , 13-H ) :   0.9173 B(  3-O ,  4-C ) :   1.0008 B(  4-C ,  5-C ) :   0.8822
B(  4-C ,  6-C ) :   0.8823 B(  4-C , 14-H ) :   0.9549 B(  5-C ,  6-C ) :   0.8433
B(  5-C ,  8-C ) :   0.8744 B(  5-C , 15-H ) :   0.9182 B(  6-C ,  7-C ) :   0.8744
B(  6-C , 16-H ) :   0.9182 B(  7-C ,  8-C ) :   0.9033 B(  7-C , 17-H ) :   0.9233
B(  8-C , 18-H ) :   0.9233

MP2 TOTAL ENERGY:     -385.143710681 Eh
FINAL SINGLE POINT ENERGY      -385.143710680548

DIPOLE MOMENT
-------------
                                X             Y             Z
Electronic contribution:     -0.59937      -5.21606      -0.42187
Nuclear contribution   :      1.09270       5.59145       0.66164
                        -----------------------------------------
Total Dipole Moment    :      0.49333       0.37539       0.23977
                        -----------------------------------------
Magnitude (a.u.)       :      0.66467
Magnitude (Debye)      :      1.68946

                             ****ORCA TERMINATED NORMALLY****
TOTAL RUN TIME: 0 days 0 hours 18 minutes 15 seconds 68 msec
