                         Program Version 3.0.3 - RELEASE   -
|  1> ! RI-MP2 RIJK def2-TZVP def2-TZVP/C def2-TZVP/JK TIGHTSCF
|  2> % maxcore 2000
|  3> % mp2 density relaxed end
|  4> *xyz 0 1
|  5>  C        0.0162455265     1.4972327331     0.1293817730
|  6>  C        0.0223875339     0.0124852821    -0.0320245004
|  7>  C       -0.0023154978    -0.7922717156    -1.1509638712
|  8>  C       -0.0447205518    -0.3586660018    -2.5851809057
|  9>  C        0.0196206686    -2.1577655604    -0.7031113450
| 10>  C        0.0033639249    -3.3574136017    -1.6016480309
| 11>  C        0.0570736430    -2.1426145738     0.6748007725
| 12>  C        0.0931779603    -3.2429293205     1.6840397385
| 13>  N        0.0582663831    -0.8207917071     1.0652590826
| 14>  H        0.9112166134     1.8616545902     0.6508431037
| 15>  H       -0.0127365863     1.9878219656    -0.8458511520
| 16>  H       -0.8550391635     1.8494710247     0.6972546321
| 17>  H        0.8231541604    -0.7250062963    -3.1484504967
| 18>  H       -0.9355089547    -0.7398881254    -3.1007695137
| 19>  H       -0.0565667376     0.7307078221    -2.6814641314
| 20>  H        0.8646676967    -3.3698731940    -2.2818434178
| 21>  H        0.0257421553    -4.2920572365    -1.0341227395
| 22>  H       -0.8939856273    -3.3824135928    -2.2331743467
| 23>  H        0.9949441493    -3.2031887852     2.3093046541
| 24>  H       -0.7711843915    -3.2141003036     2.3605876861
| 25>  H        0.0848100542    -4.2163287978     1.1890444034
| 26>  H        0.0824131809    -0.5072457754     2.0200769250
| 27> *
| 28>
| 29>                          ****END OF INPUT****

CARTESIAN COORDINATES (ANGSTROEM)
---------------------------------
  C      0.016246    1.497233    0.129382
  C      0.022388    0.012485   -0.032025
  C     -0.002315   -0.792272   -1.150964
  C     -0.044721   -0.358666   -2.585181
  C      0.019621   -2.157766   -0.703111
  C      0.003364   -3.357414   -1.601648
  C      0.057074   -2.142615    0.674801
  C      0.093178   -3.242929    1.684040
  N      0.058266   -0.820792    1.065259
  H      0.911217    1.861655    0.650843
  H     -0.012737    1.987822   -0.845851
  H     -0.855039    1.849471    0.697255
  H      0.823154   -0.725006   -3.148450
  H     -0.935509   -0.739888   -3.100770
  H     -0.056567    0.730708   -2.681464
  H      0.864668   -3.369873   -2.281843
  H      0.025742   -4.292057   -1.034123
  H     -0.893986   -3.382414   -2.233174
  H      0.994944   -3.203189    2.309305
  H     -0.771184   -3.214100    2.360588
  H      0.084810   -4.216329    1.189044
  H      0.082413   -0.507246    2.020077

 Total Charge           Charge          ....    0
 Multiplicity           Mult            ....    1
 Number of Electrons    NEL             ....   68
 Basis Dimension        Dim             ....  357

ORBITAL ENERGIES
----------------

  NO   OCC          E(Eh)            E(eV)
   0   2.0000     -15.579730      -423.9460
   1   2.0000     -11.240701      -305.8750
   2   2.0000     -11.240659      -305.8739
   3   2.0000     -11.224057      -305.4221
   4   2.0000     -11.224056      -305.4221
   5   2.0000     -11.208875      -305.0090
   6   2.0000     -11.208871      -305.0089
   7   2.0000     -11.197608      -304.7024
   8   2.0000     -11.196633      -304.6759
   9   2.0000      -1.275061       -34.6962
  10   2.0000      -1.062032       -28.8994
  11   2.0000      -1.044617       -28.4255
  12   2.0000      -0.972261       -26.4566
  13   2.0000      -0.959187       -26.1008
  14   2.0000      -0.917076       -24.9549
  15   2.0000      -0.849944       -23.1281
  16   2.0000      -0.740496       -20.1499
  17   2.0000      -0.717557       -19.5257
  18   2.0000      -0.665934       -18.1210
  19   2.0000      -0.605112       -16.4659
  20   2.0000      -0.594864       -16.1871
  21   2.0000      -0.573063       -15.5938
  22   2.0000      -0.567483       -15.4420
  23   2.0000      -0.557289       -15.1646
  24   2.0000      -0.540574       -14.7098
  25   2.0000      -0.536618       -14.6021
  26   2.0000      -0.535127       -14.5615
  27   2.0000      -0.531114       -14.4523
  28   2.0000      -0.517489       -14.0816
  29   2.0000      -0.501712       -13.6523
  30   2.0000      -0.496006       -13.4970
  31   2.0000      -0.465221       -12.6593
  32   2.0000      -0.316592        -8.6149
  33   2.0000      -0.266811        -7.2603
  34   0.0000       0.129476         3.5232
  35   0.0000       0.148687         4.0460
  36   0.0000       0.155819         4.2401
  37   0.0000       0.174714         4.7542
  38   0.0000       0.188100         5.1185

MULLIKEN ATOMIC CHARGES
-----------------------
   0 C :   -0.450207
   1 C :    0.114588
   2 C :   -0.025000
   3 C :   -0.419107
   4 C :   -0.024998
   5 C :   -0.419107
   6 C :    0.114585
   7 C :   -0.450208
   8 N :   -0.290276
   9 H :    0.139156
  10 H :    0.137765
  11 H :    0.139214
  12 H :    0.136535
  13 H :    0.136501
  14 H :    0.120662
  15 H :    0.136519
  16 H :    0.120661
  17 H :    0.136515
  18 H :    0.139216
  19 H :    0.139155
  20 H :    0.137765
  21 H :    0.230067
Sum of atomic charges:   -0.0000000

LOEWDIN ATOMIC CHARGES
----------------------
   0 C :   -0.284212
   1 C :   -0.235286
   2 C :   -0.172283
   3 C :   -0.274672
   4 C :   -0.172283
   5 C :   -0.274672
   6 C :   -0.235284
   7 C :   -0.284213
   8 N :    0.207554
   9 H :    0.127352
  10 H :    0.133248
  11 H :    0.127346
  12 H :    0.127785
  13 H :    0.127797
  14 H :    0.124791
  15 H :    0.127791
  16 H :    0.124791
  17 H :    0.127791
  18 H :    0.127355
  19 H :    0.127343
  20 H :    0.133248
  21 H :    0.188713

  Mayer bond orders larger than 0.1
B(  0-C ,  1-C ) :   0.8304 B(  0-C ,  9-H ) :   0.9389 B(  0-C , 10-H ) :   0.9583
B(  0-C , 11-H ) :   0.9389 B(  1-C ,  2-C ) :   1.5181 B(  1-C ,  8-N ) :   1.1251
B(  2-C ,  3-C ) :   0.8358 B(  2-C ,  4-C ) :   1.2797 B(  3-C , 12-H ) :   0.9454
B(  3-C , 13-H ) :   0.9454 B(  3-C , 14-H ) :   0.9506 B(  4-C ,  5-C ) :   0.8358
B(  4-C ,  6-C ) :   1.5181 B(  5-C , 15-H ) :   0.9454 B(  5-C , 16-H ) :   0.9506
B(  5-C , 17-H ) :   0.9454 B(  6-C ,  7-C ) :   0.8304 B(  6-C ,  8-N ) :   1.1251
B(  7-C , 18-H ) :   0.9388 B(  7-C , 19-H ) :   0.9390 B(  7-C , 20-H ) :   0.9583
B(  8-N , 21-H ) :   0.8774

MP2 TOTAL ENERGY:     -366.604216846 Eh
FINAL SINGLE POINT ENERGY      -366.604216845634

DIPOLE MOMENT
-------------
                                X             Y             Z
Electronic contribution:      0.07271       0.96489       2.93832
Nuclear contribution   :     -0.05701      -0.76194      -2.32031
                        -----------------------------------------
Total Dipole Moment    :      0.01570       0.20295       0.61801
                        -----------------------------------------
Magnitude (a.u.)       :      0.65067
Magnitude (Debye)      :      1.65387

                             ****ORCA TERMINATED NORMALLY****
TOTAL RUN TIME: 0 days 0 hours 20 minutes 22 seconds 890 msec
