                         Program Version 3.0.3 - RELEASE   -
|  1> ! RI-MP2 RIJK def2-TZVP def2-TZVP/C def2-TZVP/JK TIGHTSCF
|  2> % maxcore 2000
|  3> % mp2 density relaxed end
|  4> *xyz 0 1
|  5>  C        0.3355463318     1.3228231668    -0.0711382412
|  6>  C        0.0314766785    -0.1530752846     0.0201528197
|  7>  C        0.7312945557    -1.1540827322    -0.8646495696
|  8>  N        1.0190457618    -1.0690678417     0.5485391042
|  9>  C        2.1873769844    -0.7963920166     1.2002679896
| 10>  O        2.3229927629     0.0119053249     2.0978215008
| 11>  C        3.3828621740    -1.6716720058     0.8016917362
| 12>  O        3.4189028249    -2.3970908659    -0.1559452049
| 13>  H        1.3380181807     1.4973841448    -0.4723895518
| 14>  H       -0.3893742677     1.8123051133    -0.7288460126
| 15>  H        0.2842434257     1.7919784471     0.9148135626
| 16>  H       -0.9855702185    -0.3980439735     0.3220088520
| 17>  H        0.2159332974    -2.0529428267    -1.1908365472
| 18>  H        1.4836612099    -0.7815882880    -1.5543618394
| 19>  H        4.2381424586    -1.5266259820     1.4936759117
| 20> *
| 21>
| 22>                          ****END OF INPUT****

CARTESIAN COORDINATES (ANGSTROEM)
---------------------------------
  C      0.335546    1.322823   -0.071138
  C      0.031477   -0.153075    0.020153
  C      0.731295   -1.154083   -0.864650
  N      1.019046   -1.069068    0.548539
  C      2.187377   -0.796392    1.200268
  O      2.322993    0.011905    2.097822
  C      3.382862   -1.671672    0.801692
  O      3.418903   -2.397091   -0.155945
  H      1.338018    1.497384   -0.472390
  H     -0.389374    1.812305   -0.728846
  H      0.284243    1.791978    0.914814
  H     -0.985570   -0.398044    0.322009
  H      0.215933   -2.052943   -1.190837
  H      1.483661   -0.781588   -1.554362
  H      4.238142   -1.526626    1.493676

 Total Charge           Charge          ....    0
 Multiplicity           Mult            ....    1
 Number of Electrons    NEL             ....   60
 Basis Dimension        Dim             ....  290

ORBITAL ENERGIES
----------------

  NO   OCC          E(Eh)            E(eV)
   0   2.0000     -20.591835      -560.3323
   1   2.0000     -20.556003      -559.3573
   2   2.0000     -15.596820      -424.4110
   3   2.0000     -11.373232      -309.4814
   4   2.0000     -11.355442      -308.9973
   5   2.0000     -11.292600      -307.2873
   6   2.0000     -11.286372      -307.1178
   7   2.0000     -11.235678      -305.7383
   8   2.0000      -1.432224       -38.9728
   9   2.0000      -1.406703       -38.2783
  10   2.0000      -1.307579       -35.5810
  11   2.0000      -1.042598       -28.3705
  12   2.0000      -0.979360       -26.6497
  13   2.0000      -0.910783       -24.7837
  14   2.0000      -0.839183       -22.8353
  15   2.0000      -0.749223       -20.3874
  16   2.0000      -0.705839       -19.2069
  17   2.0000      -0.700134       -19.0516
  18   2.0000      -0.688829       -18.7440
  19   2.0000      -0.653566       -17.7844
  20   2.0000      -0.598581       -16.2882
  21   2.0000      -0.584325       -15.9003
  22   2.0000      -0.571184       -15.5427
  23   2.0000      -0.541226       -14.7275
  24   2.0000      -0.530048       -14.4233
  25   2.0000      -0.520028       -14.1507
  26   2.0000      -0.498874       -13.5751
  27   2.0000      -0.491802       -13.3826
  28   2.0000      -0.419069       -11.4035
  29   2.0000      -0.402833       -10.9616
  30   0.0000       0.065083         1.7710
  31   0.0000       0.137305         3.7362
  32   0.0000       0.164856         4.4860
  33   0.0000       0.170739         4.6460
  34   0.0000       0.182179         4.9573

MULLIKEN ATOMIC CHARGES
-----------------------
   0 C :   -0.386706
   1 C :   -0.009049
   2 C :   -0.165722
   3 N :   -0.157122
   4 C :    0.210561
   5 O :   -0.316696
   6 C :    0.110635
   7 O :   -0.247185
   8 H :    0.127769
   9 H :    0.141460
  10 H :    0.157168
  11 H :    0.134586
  12 H :    0.140797
  13 H :    0.145273
  14 H :    0.114231
Sum of atomic charges:   -0.0000000

LOEWDIN ATOMIC CHARGES
----------------------
   0 C :   -0.288293
   1 C :   -0.244705
   2 C :   -0.202893
   3 N :    0.214883
   4 C :   -0.451024
   5 O :    0.129009
   6 C :   -0.249355
   7 O :    0.160535
   8 H :    0.130101
   9 H :    0.131367
  10 H :    0.135772
  11 H :    0.147076
  12 H :    0.130797
  13 H :    0.133218
  14 H :    0.123513

  Mayer bond orders larger than 0.1
B(  0-C ,  1-C ) :   0.9358 B(  0-C ,  8-H ) :   0.9298 B(  0-C ,  9-H ) :   0.9296
B(  0-C , 10-H ) :   0.9294 B(  1-C ,  2-C ) :   0.9173 B(  1-C ,  3-N ) :   0.8569
B(  1-C , 11-H ) :   0.9126 B(  2-C ,  3-N ) :   0.8473 B(  2-C , 12-H ) :   0.9224
B(  2-C , 13-H ) :   0.9208 B(  3-N ,  4-C ) :   1.1033 B(  4-C ,  5-O ) :   1.9136
B(  4-C ,  6-C ) :   0.8575 B(  6-C ,  7-O ) :   1.9582 B(  6-C , 14-H ) :   0.9168

MP2 TOTAL ENERGY:     -399.140858724 Eh
FINAL SINGLE POINT ENERGY      -399.140858723928

DIPOLE MOMENT
-------------
                                X             Y             Z
Electronic contribution:      4.70247      -4.79556       3.33889
Nuclear contribution   :     -5.34077       5.08062      -4.06089
                        -----------------------------------------
Total Dipole Moment    :     -0.63830       0.28505      -0.72200
                        -----------------------------------------
Magnitude (a.u.)       :      1.00497
Magnitude (Debye)      :      2.55443

                             ****ORCA TERMINATED NORMALLY****
TOTAL RUN TIME: 0 days 0 hours 11 minutes 28 seconds 93 msec
