                         Program Version 3.0.3 - RELEASE   -
|  1> ! RI-MP2 RIJK def2-TZVP def2-TZVP/C def2-TZVP/JK TIGHTSCF
|  2> % maxcore 2000
|  3> % mp2 density relaxed end
|  4> *xyz 0 1
|  5>  C       -0.1563169864     1.4743996603    -0.0377686765
|  6>  C        0.0726958658    -0.0032568913    -0.0303134843
|  7>  C        0.5591865301    -0.9582738924    -1.1276525658
|  8>  C        0.0142515783    -1.8028197731     0.0571356423
|  9>  C        0.3973798646    -3.2145593174     0.3930789106
| 10>  C        1.8895473686    -2.9054451248     0.8243061370
| 11>  O        2.0435065650    -1.4738939411     1.0763623845
| 12>  C        0.7398223732    -0.9405333130     1.0506664180
| 13>  O       -1.1519655758    -0.8896360264     0.1395007325
| 14>  H        0.7982675379     1.9957017615    -0.1595091074
| 15>  H       -0.8165756869     1.7603057739    -0.8621699018
| 16>  H       -0.6111480009     1.7981148729     0.9030125374
| 17>  H       -0.0555559335    -0.9807913951    -2.0285097737
| 18>  H        1.6311122916    -0.9942187403    -1.3272281398
| 19>  H       -0.1837333809    -3.5973462053     1.2367309671
| 20>  H        0.3557382520    -3.9344092271    -0.4272380404
| 21>  H        2.1587465335    -3.4570255596     1.7310422758
| 22>  H        2.5939182618    -3.1762885066     0.0318931742
| 23>  H        0.2866687818    -0.8465614451     2.0437745203
| 24> *
| 25>
| 26>                          ****END OF INPUT****

CARTESIAN COORDINATES (ANGSTROEM)
---------------------------------
  C     -0.156317    1.474400   -0.037769
  C      0.072696   -0.003257   -0.030313
  C      0.559187   -0.958274   -1.127653
  C      0.014252   -1.802820    0.057136
  C      0.397380   -3.214559    0.393079
  C      1.889547   -2.905445    0.824306
  O      2.043507   -1.473894    1.076362
  C      0.739822   -0.940533    1.050666
  O     -1.151966   -0.889636    0.139501
  H      0.798268    1.995702   -0.159509
  H     -0.816576    1.760306   -0.862170
  H     -0.611148    1.798115    0.903013
  H     -0.055556   -0.980791   -2.028510
  H      1.631112   -0.994219   -1.327228
  H     -0.183733   -3.597346    1.236731
  H      0.355738   -3.934409   -0.427238
  H      2.158747   -3.457026    1.731042
  H      2.593918   -3.176289    0.031893
  H      0.286669   -0.846561    2.043775

 Total Charge           Charge          ....    0
 Multiplicity           Mult            ....    1
 Number of Electrons    NEL             ....   68
 Basis Dimension        Dim             ....  339

ORBITAL ENERGIES
----------------

  NO   OCC          E(Eh)            E(eV)
   0   2.0000     -20.562636      -559.5378
   1   2.0000     -20.553807      -559.2975
   2   2.0000     -11.311194      -307.7932
   3   2.0000     -11.293687      -307.3168
   4   2.0000     -11.291506      -307.2575
   5   2.0000     -11.274648      -306.7988
   6   2.0000     -11.246960      -306.0453
   7   2.0000     -11.231157      -305.6153
   8   2.0000     -11.225932      -305.4731
   9   2.0000      -1.406570       -38.2747
  10   2.0000      -1.361799       -37.0564
  11   2.0000      -1.078445       -29.3460
  12   2.0000      -1.047272       -28.4977
  13   2.0000      -0.993964       -27.0471
  14   2.0000      -0.933931       -25.4136
  15   2.0000      -0.856797       -23.3146
  16   2.0000      -0.778126       -21.1739
  17   2.0000      -0.732265       -19.9260
  18   2.0000      -0.677791       -18.4436
  19   2.0000      -0.662716       -18.0334
  20   2.0000      -0.647828       -17.6283
  21   2.0000      -0.628255       -17.0957
  22   2.0000      -0.602616       -16.3980
  23   2.0000      -0.580826       -15.8051
  24   2.0000      -0.567313       -15.4374
  25   2.0000      -0.558746       -15.2043
  26   2.0000      -0.519674       -14.1411
  27   2.0000      -0.514892       -14.0109
  28   2.0000      -0.493507       -13.4290
  29   2.0000      -0.483006       -13.1433
  30   2.0000      -0.464197       -12.6314
  31   2.0000      -0.431976       -11.7547
  32   2.0000      -0.405898       -11.0451
  33   2.0000      -0.401711       -10.9311
  34   0.0000       0.137316         3.7365
  35   0.0000       0.149714         4.0739
  36   0.0000       0.172881         4.7043
  37   0.0000       0.173946         4.7333
  38   0.0000       0.188722         5.1354

MULLIKEN ATOMIC CHARGES
-----------------------
   0 C :   -0.412583
   1 C :    0.101431
   2 C :   -0.152653
   3 C :    0.045402
   4 C :   -0.252609
   5 C :   -0.037058
   6 O :   -0.330027
   7 C :    0.068817
   8 O :   -0.305338
   9 H :    0.144532
  10 H :    0.145917
  11 H :    0.144889
  12 H :    0.115065
  13 H :    0.126390
  14 H :    0.134631
  15 H :    0.138267
  16 H :    0.115012
  17 H :    0.115478
  18 H :    0.094434
Sum of atomic charges:   -0.0000000

LOEWDIN ATOMIC CHARGES
----------------------
   0 C :   -0.272826
   1 C :   -0.247215
   2 C :   -0.151679
   3 C :   -0.286935
   4 C :   -0.217454
   5 C :   -0.244593
   6 O :    0.151025
   7 C :   -0.231595
   8 O :    0.150881
   9 H :    0.137699
  10 H :    0.135028
  11 H :    0.135707
  12 H :    0.135206
  13 H :    0.137950
  14 H :    0.146513
  15 H :    0.139578
  16 H :    0.122219
  17 H :    0.122713
  18 H :    0.137778

  Mayer bond orders larger than 0.1
B(  0-C ,  1-C ) :   0.8227 B(  0-C ,  9-H ) :   0.9358 B(  0-C , 10-H ) :   0.9434
B(  0-C , 11-H ) :   0.9412 B(  1-C ,  2-C ) :   0.9065 B(  1-C ,  7-C ) :   0.8106
B(  1-C ,  8-O ) :   0.8698 B(  2-C ,  3-C ) :   0.9508 B(  2-C , 12-H ) :   0.9141
B(  2-C , 13-H ) :   0.8811 B(  3-C ,  4-C ) :   0.8634 B(  3-C ,  7-C ) :   0.9163
B(  3-C ,  8-O ) :   0.9786 B(  4-C ,  5-C ) :   0.9271 B(  4-C , 14-H ) :   0.9255
B(  4-C , 15-H ) :   0.9262 B(  5-C ,  6-O ) :   0.9015 B(  5-C , 16-H ) :   0.9251
B(  5-C , 17-H ) :   0.9293 B(  6-O ,  7-C ) :   1.0166 B(  7-C , 18-H ) :   0.9570

MP2 TOTAL ENERGY:     -422.233723333 Eh
FINAL SINGLE POINT ENERGY      -422.233723333306

DIPOLE MOMENT
-------------
                                X             Y             Z
Electronic contribution:     -0.78887      -0.73574       1.24417
Nuclear contribution   :      1.11185       0.40237      -1.45989
                        -----------------------------------------
Total Dipole Moment    :      0.32297      -0.33337      -0.21572
                        -----------------------------------------
Magnitude (a.u.)       :      0.51184
Magnitude (Debye)      :      1.30100

                             ****ORCA TERMINATED NORMALLY****
TOTAL RUN TIME: 0 days 0 hours 18 minutes 47 seconds 686 msec
