                         Program Version 3.0.3 - RELEASE   -
|  1> ! RI-MP2 RIJK def2-TZVP def2-TZVP/C def2-TZVP/JK TIGHTSCF
|  2> % maxcore 2000
|  3> % mp2 density relaxed end
|  4> *xyz 0 1
|  5>  C       -0.0113994264     1.5187935352    -0.0023948200
|  6>  C       -0.0363426075    -0.0178832344    -0.0275385593
|  7>  N        0.7409972831    -0.5931403327    -1.1234447497
|  8>  C        1.8520521301    -1.2057177447    -0.6238652448
|  9>  C        1.8918536132    -1.2620856737     0.7330268814
| 10>  C        0.7351002933    -0.5629234377     1.2549574224
| 11>  O        0.3621194120    -0.3447656209     2.3820502386
| 12>  C       -1.4125302036    -0.5214809827    -0.0536136774
| 13>  N       -2.5026879088    -0.9031320816    -0.0832820553
| 14>  H        1.0249073402     1.8667265786    -0.0197584651
| 15>  H       -0.5506518595     1.9400000428    -0.8552076358
| 16>  H       -0.4819720701     1.8618478404     0.9219931299
| 17>  H        0.7114292419    -0.1973584325    -2.0486025425
| 18>  H        2.5825740010    -1.6019298581    -1.3186481458
| 19>  H        2.6462320311    -1.7403505181     1.3364347733
| 20> *
| 21>
| 22>                          ****END OF INPUT****

CARTESIAN COORDINATES (ANGSTROEM)
---------------------------------
  C     -0.011399    1.518794   -0.002395
  C     -0.036343   -0.017883   -0.027539
  N      0.740997   -0.593140   -1.123445
  C      1.852052   -1.205718   -0.623865
  C      1.891854   -1.262086    0.733027
  C      0.735100   -0.562923    1.254957
  O      0.362119   -0.344766    2.382050
  C     -1.412530   -0.521481   -0.053614
  N     -2.502688   -0.903132   -0.083282
  H      1.024907    1.866727   -0.019758
  H     -0.550652    1.940000   -0.855208
  H     -0.481972    1.861848    0.921993
  H      0.711429   -0.197358   -2.048603
  H      2.582574   -1.601930   -1.318648
  H      2.646232   -1.740351    1.336435

 Total Charge           Charge          ....    0
 Multiplicity           Mult            ....    1
 Number of Electrons    NEL             ....   64
 Basis Dimension        Dim             ....  315

ORBITAL ENERGIES
----------------

  NO   OCC          E(Eh)            E(eV)
   0   2.0000     -20.549761      -559.1874
   1   2.0000     -15.621544      -425.0838
   2   2.0000     -15.578596      -423.9151
   3   2.0000     -11.351318      -308.8851
   4   2.0000     -11.341495      -308.6178
   5   2.0000     -11.335627      -308.4581
   6   2.0000     -11.279019      -306.9177
   7   2.0000     -11.259363      -306.3829
   8   2.0000     -11.240420      -305.8674
   9   2.0000      -1.398011       -38.0418
  10   2.0000      -1.318056       -35.8661
  11   2.0000      -1.223025       -33.2802
  12   2.0000      -1.089175       -29.6379
  13   2.0000      -1.064827       -28.9754
  14   2.0000      -0.944108       -25.6905
  15   2.0000      -0.856378       -23.3032
  16   2.0000      -0.808215       -21.9926
  17   2.0000      -0.753330       -20.4992
  18   2.0000      -0.703295       -19.1376
  19   2.0000      -0.653925       -17.7942
  20   2.0000      -0.633821       -17.2471
  21   2.0000      -0.625242       -17.0137
  22   2.0000      -0.616669       -16.7804
  23   2.0000      -0.586866       -15.9694
  24   2.0000      -0.575975       -15.6731
  25   2.0000      -0.556732       -15.1494
  26   2.0000      -0.538718       -14.6593
  27   2.0000      -0.519711       -14.1421
  28   2.0000      -0.479650       -13.0519
  29   2.0000      -0.470681       -12.8079
  30   2.0000      -0.415058       -11.2943
  31   2.0000      -0.353567        -9.6210
  32   0.0000       0.081561         2.2194
  33   0.0000       0.107374         2.9218
  34   0.0000       0.142388         3.8746
  35   0.0000       0.158905         4.3240
  36   0.0000       0.168639         4.5889

MULLIKEN ATOMIC CHARGES
-----------------------
   0 C :   -0.431187
   1 C :    0.347007
   2 N :   -0.357682
   3 C :    0.010403
   4 C :   -0.244064
   5 C :    0.171189
   6 O :   -0.291956
   7 C :   -0.202497
   8 N :   -0.047673
   9 H :    0.155579
  10 H :    0.150740
  11 H :    0.168547
  12 H :    0.254768
  13 H :    0.160343
  14 H :    0.156483
Sum of atomic charges:   -0.0000000

LOEWDIN ATOMIC CHARGES
----------------------
   0 C :   -0.236961
   1 C :   -0.268460
   2 N :    0.149844
   3 C :   -0.166365
   4 C :   -0.172060
   5 C :   -0.296745
   6 O :    0.152273
   7 C :   -0.142485
   8 N :    0.080920
   9 H :    0.136468
  10 H :    0.131777
  11 H :    0.146135
  12 H :    0.189967
  13 H :    0.145901
  14 H :    0.149790

  Mayer bond orders larger than 0.1
B(  0-C ,  1-C ) :   0.9248 B(  0-C ,  9-H ) :   0.9256 B(  0-C , 10-H ) :   0.9237
B(  0-C , 11-H ) :   0.9231 B(  1-C ,  2-N ) :   0.7613 B(  1-C ,  5-C ) :   0.7688
B(  1-C ,  7-C ) :   0.9133 B(  2-N ,  3-C ) :   1.1903 B(  2-N , 12-H ) :   0.8650
B(  3-C ,  4-C ) :   1.5191 B(  3-C , 13-H ) :   0.9076 B(  4-C ,  5-C ) :   1.1133
B(  4-C , 14-H ) :   0.9170 B(  5-C ,  6-O ) :   1.9749 B(  7-C ,  8-N ) :   2.8596

MP2 TOTAL ENERGY:     -416.137691810 Eh
FINAL SINGLE POINT ENERGY      -416.137691810205

DIPOLE MOMENT
-------------
                                X             Y             Z
Electronic contribution:     -2.66598      -3.65602       1.77805
Nuclear contribution   :      4.47997       4.25127      -3.43414
                        -----------------------------------------
Total Dipole Moment    :      1.81398       0.59525      -1.65609
                        -----------------------------------------
Magnitude (a.u.)       :      2.52735
Magnitude (Debye)      :      6.42402

                             ****ORCA TERMINATED NORMALLY****
TOTAL RUN TIME: 0 days 0 hours 15 minutes 26 seconds 789 msec
