                         Program Version 3.0.3 - RELEASE   -
|  1> ! RI-MP2 RIJK def2-TZVP def2-TZVP/C def2-TZVP/JK TIGHTSCF
|  2> % maxcore 2000
|  3> % mp2 density relaxed end
|  4> *xyz 0 1
|  5>  C       -0.2040578731     1.6485541277     0.0278834831
|  6>  C       -0.1327270079     0.1164208247     0.0194646442
|  7>  C        0.5337843122    -0.4034835212     1.3105364939
|  8>  C       -1.5207762784    -0.5006109879    -0.1411130489
|  9>  N       -2.5348562488     0.2006570997     0.1768796248
| 10>  N       -1.6150436536    -1.8400932510    -0.5955448663
| 11>  C       -2.9361893135    -2.4611560813    -0.6672413490
| 12>  C       -0.5387058272    -2.6151793491    -0.9972213460
| 13>  O       -0.6279701564    -3.7562680707    -1.3904373060
| 14>  H        0.8072643217     2.0609187148     0.1015263430
| 15>  H       -0.6689201577     2.0287141674    -0.8849205069
| 16>  H       -0.7951520405     2.0083758742     0.8716875991
| 17>  H        0.4881931645    -0.1734635713    -0.8352816130
| 18>  H       -0.0595411044    -0.1088531989     2.1816691986
| 19>  H        0.6334375726    -1.4927133440     1.3260979777
| 20>  H        1.5339192029     0.0267405306     1.4184247479
| 21>  H       -3.4153080595    -0.2984368249     0.0727125683
| 22>  H       -3.5800131045    -1.9263819454    -1.3728457868
| 23>  H       -2.7951414707    -3.4836903476    -1.0115925177
| 24>  H       -3.4126840670    -2.4687981477     0.3179586176
| 25>  H        0.4244076493    -2.0956724079    -0.9287621777
| 26> *
| 27>
| 28>                          ****END OF INPUT****

CARTESIAN COORDINATES (ANGSTROEM)
---------------------------------
  C     -0.204058    1.648554    0.027883
  C     -0.132727    0.116421    0.019465
  C      0.533784   -0.403484    1.310536
  C     -1.520776   -0.500611   -0.141113
  N     -2.534856    0.200657    0.176880
  N     -1.615044   -1.840093   -0.595545
  C     -2.936189   -2.461156   -0.667241
  C     -0.538706   -2.615179   -0.997221
  O     -0.627970   -3.756268   -1.390437
  H      0.807264    2.060919    0.101526
  H     -0.668920    2.028714   -0.884921
  H     -0.795152    2.008376    0.871688
  H      0.488193   -0.173464   -0.835282
  H     -0.059541   -0.108853    2.181669
  H      0.633438   -1.492713    1.326098
  H      1.533919    0.026741    1.418425
  H     -3.415308   -0.298437    0.072713
  H     -3.580013   -1.926382   -1.372846
  H     -2.795141   -3.483690   -1.011593
  H     -3.412684   -2.468798    0.317959
  H      0.424408   -2.095672   -0.928762

 Total Charge           Charge          ....    0
 Multiplicity           Mult            ....    1
 Number of Electrons    NEL             ....   70
 Basis Dimension        Dim             ....  351

ORBITAL ENERGIES
----------------

  NO   OCC          E(Eh)            E(eV)
   0   2.0000     -20.546252      -559.0919
   1   2.0000     -15.620055      -425.0433
   2   2.0000     -15.541824      -422.9145
   3   2.0000     -11.367539      -309.3265
   4   2.0000     -11.333170      -308.3912
   5   2.0000     -11.271439      -306.7114
   6   2.0000     -11.256313      -306.2999
   7   2.0000     -11.233690      -305.6842
   8   2.0000     -11.217143      -305.2340
   9   2.0000      -1.407550       -38.3014
  10   2.0000      -1.298368       -35.3304
  11   2.0000      -1.186579       -32.2885
  12   2.0000      -1.083136       -29.4736
  13   2.0000      -0.982522       -26.7358
  14   2.0000      -0.941062       -25.6076
  15   2.0000      -0.886969       -24.1357
  16   2.0000      -0.835023       -22.7221
  17   2.0000      -0.766542       -20.8587
  18   2.0000      -0.737611       -20.0714
  19   2.0000      -0.672456       -18.2985
  20   2.0000      -0.657493       -17.8913
  21   2.0000      -0.635621       -17.2961
  22   2.0000      -0.622663       -16.9435
  23   2.0000      -0.607677       -16.5357
  24   2.0000      -0.575538       -15.6612
  25   2.0000      -0.563149       -15.3241
  26   2.0000      -0.551923       -15.0186
  27   2.0000      -0.548427       -14.9235
  28   2.0000      -0.510086       -13.8801
  29   2.0000      -0.505666       -13.7599
  30   2.0000      -0.494917       -13.4674
  31   2.0000      -0.469433       -12.7739
  32   2.0000      -0.456524       -12.4227
  33   2.0000      -0.431544       -11.7429
  34   2.0000      -0.381990       -10.3945
  35   0.0000       0.122803         3.3416
  36   0.0000       0.127555         3.4709
  37   0.0000       0.145344         3.9550
  38   0.0000       0.161395         4.3918
  39   0.0000       0.173379         4.7179

MULLIKEN ATOMIC CHARGES
-----------------------
   0 C :   -0.367701
   1 C :   -0.045973
   2 C :   -0.412396
   3 C :    0.095421
   4 N :   -0.371138
   5 N :   -0.066605
   6 C :   -0.400227
   7 C :    0.135785
   8 O :   -0.331439
   9 H :    0.127390
  10 H :    0.131686
  11 H :    0.145270
  12 H :    0.099331
  13 H :    0.144065
  14 H :    0.136818
  15 H :    0.139679
  16 H :    0.213375
  17 H :    0.156279
  18 H :    0.192296
  19 H :    0.156097
  20 H :    0.121989
Sum of atomic charges:    0.0000000

LOEWDIN ATOMIC CHARGES
----------------------
   0 C :   -0.283930
   1 C :   -0.275295
   2 C :   -0.283594
   3 C :   -0.299817
   4 N :   -0.030887
   5 N :    0.181058
   6 C :   -0.285068
   7 C :   -0.382312
   8 O :    0.084174
   9 H :    0.122478
  10 H :    0.127005
  11 H :    0.130426
  12 H :    0.152322
  13 H :    0.131317
  14 H :    0.122283
  15 H :    0.127216
  16 H :    0.156390
  17 H :    0.121295
  18 H :    0.138464
  19 H :    0.121528
  20 H :    0.124945

  Mayer bond orders larger than 0.1
B(  0-C ,  1-C ) :   0.9282 B(  0-C ,  9-H ) :   0.9348 B(  0-C , 10-H ) :   0.9364
B(  0-C , 11-H ) :   0.9338 B(  1-C ,  2-C ) :   0.8981 B(  1-C ,  3-C ) :   0.8935
B(  1-C , 12-H ) :   0.9278 B(  2-C , 13-H ) :   0.9324 B(  2-C , 14-H ) :   0.9325
B(  2-C , 15-H ) :   0.9363 B(  3-C ,  4-N ) :   1.9658 B(  3-C ,  5-N ) :   1.0328
B(  4-N , 16-H ) :   0.8706 B(  5-N ,  6-C ) :   0.8424 B(  5-N ,  7-C ) :   1.0625
B(  6-C , 17-H ) :   0.9292 B(  6-C , 18-H ) :   0.9129 B(  6-C , 19-H ) :   0.9287
B(  7-C ,  8-O ) :   1.9191 B(  7-C , 20-H ) :   0.9293

MP2 TOTAL ENERGY:     -419.733340508 Eh
FINAL SINGLE POINT ENERGY      -419.733340507949

DIPOLE MOMENT
-------------
                                X             Y             Z
Electronic contribution:     -1.90535      -6.37335      -3.81029
Nuclear contribution   :      1.83620       6.67359       3.99264
                        -----------------------------------------
Total Dipole Moment    :     -0.06916       0.30024       0.18235
                        -----------------------------------------
Magnitude (a.u.)       :      0.35802
Magnitude (Debye)      :      0.91001

                             ****ORCA TERMINATED NORMALLY****
TOTAL RUN TIME: 0 days 0 hours 21 minutes 43 seconds 718 msec
