                         Program Version 3.0.3 - RELEASE   -
|  1> ! RI-MP2 RIJK def2-TZVP def2-TZVP/C def2-TZVP/JK TIGHTSCF
|  2> % maxcore 2000
|  3> % mp2 density relaxed end
|  4> *xyz 0 1
|  5>  O       -0.2338378357     1.5191194780    -0.1879009745
|  6>  C       -0.0104813103     0.1275203958    -0.1853053887
|  7>  C       -1.2418683139    -0.7468699464    -0.0638737894
|  8>  C       -1.7922125351    -0.9717774523    -1.4775576705
|  9>  C       -0.6267519971    -1.7859485043    -0.9795450351
| 10>  C        0.2762711349    -0.6128545972    -1.5276902072
| 11>  C       -0.8925058972    -0.1726559286    -2.4418382534
| 12>  C       -0.8823623394    -0.7905850836    -3.8130710588
| 13>  O       -0.0471806716    -1.5584297986    -4.2225359981
| 14>  H        0.6187291518     1.9658588417    -0.1780874954
| 15>  H        0.7330098591    -0.1603924791     0.5703167303
| 16>  H       -1.8635362167    -0.9080274481     0.8072983447
| 17>  H       -2.8161168745    -1.2876227309    -1.6310090221
| 18>  H       -0.4702134800    -2.8458410324    -0.8561178482
| 19>  H        1.2795316716    -0.7120193854    -1.9330851190
| 20>  H       -1.0946356317     0.9030201239    -2.5151800453
| 21>  H       -1.7447789341    -0.4933562426    -4.4549871093
| 22> *
| 23>
| 24>                          ****END OF INPUT****

CARTESIAN COORDINATES (ANGSTROEM)
---------------------------------
  O     -0.233838    1.519119   -0.187901
  C     -0.010481    0.127520   -0.185305
  C     -1.241868   -0.746870   -0.063874
  C     -1.792213   -0.971777   -1.477558
  C     -0.626752   -1.785949   -0.979545
  C      0.276271   -0.612855   -1.527690
  C     -0.892506   -0.172656   -2.441838
  C     -0.882362   -0.790585   -3.813071
  O     -0.047181   -1.558430   -4.222536
  H      0.618729    1.965859   -0.178087
  H      0.733010   -0.160392    0.570317
  H     -1.863536   -0.908027    0.807298
  H     -2.816117   -1.287623   -1.631009
  H     -0.470213   -2.845841   -0.856118
  H      1.279532   -0.712019   -1.933085
  H     -1.094636    0.903020   -2.515180
  H     -1.744779   -0.493356   -4.454987

 Total Charge           Charge          ....    0
 Multiplicity           Mult            ....    1
 Number of Electrons    NEL             ....   66
 Basis Dimension        Dim             ....  327

ORBITAL ENERGIES
----------------

  NO   OCC          E(Eh)            E(eV)
   0   2.0000     -20.562811      -559.5425
   1   2.0000     -20.553553      -559.2906
   2   2.0000     -11.328137      -308.2543
   3   2.0000     -11.292673      -307.2893
   4   2.0000     -11.252174      -306.1872
   5   2.0000     -11.245540      -306.0067
   6   2.0000     -11.244745      -305.9851
   7   2.0000     -11.244347      -305.9742
   8   2.0000     -11.242586      -305.9263
   9   2.0000      -1.392168       -37.8828
  10   2.0000      -1.372386       -37.3445
  11   2.0000      -1.240650       -33.7598
  12   2.0000      -1.016727       -27.6666
  13   2.0000      -0.966581       -26.3020
  14   2.0000      -0.883425       -24.0392
  15   2.0000      -0.818757       -22.2795
  16   2.0000      -0.756421       -20.5833
  17   2.0000      -0.725599       -19.7445
  18   2.0000      -0.718423       -19.5493
  19   2.0000      -0.695037       -18.9129
  20   2.0000      -0.673986       -18.3401
  21   2.0000      -0.628885       -17.1128
  22   2.0000      -0.608040       -16.5456
  23   2.0000      -0.602575       -16.3969
  24   2.0000      -0.571680       -15.5562
  25   2.0000      -0.523094       -14.2341
  26   2.0000      -0.504009       -13.7148
  27   2.0000      -0.481140       -13.0925
  28   2.0000      -0.470898       -12.8138
  29   2.0000      -0.445209       -12.1148
  30   2.0000      -0.424773       -11.5587
  31   2.0000      -0.396494       -10.7892
  32   2.0000      -0.386271       -10.5110
  33   0.0000       0.130785         3.5589
  34   0.0000       0.133290         3.6270
  35   0.0000       0.158264         4.3066
  36   0.0000       0.160125         4.3572
  37   0.0000       0.177969         4.8428

MULLIKEN ATOMIC CHARGES
-----------------------
   0 O :   -0.465957
   1 C :    0.040737
   2 C :   -0.106159
   3 C :   -0.221037
   4 C :   -0.246949
   5 C :   -0.058527
   6 C :    0.034035
   7 C :    0.077174
   8 O :   -0.272230
   9 H :    0.316672
  10 H :    0.098468
  11 H :    0.139827
  12 H :    0.143181
  13 H :    0.156988
  14 H :    0.155681
  15 H :    0.126341
  16 H :    0.081755
Sum of atomic charges:   -0.0000000

LOEWDIN ATOMIC CHARGES
----------------------
   0 O :   -0.012542
   1 C :   -0.300290
   2 C :   -0.139234
   3 C :   -0.133749
   4 C :   -0.109287
   5 C :   -0.123787
   6 C :   -0.193168
   7 C :   -0.267968
   8 O :    0.136194
   9 H :    0.176375
  10 H :    0.141050
  11 H :    0.141148
  12 H :    0.142131
  13 H :    0.136677
  14 H :    0.138414
  15 H :    0.154779
  16 H :    0.113259

  Mayer bond orders larger than 0.1
B(  0-O ,  1-C ) :   1.1494 B(  0-O ,  5-C ) :  -0.1153 B(  0-O ,  9-H ) :   0.8424
B(  1-C ,  2-C ) :   0.9261 B(  1-C ,  5-C ) :   0.8899 B(  1-C , 10-H ) :   0.9754
B(  2-C ,  3-C ) :   0.8393 B(  2-C ,  4-C ) :   0.8228 B(  2-C , 11-H ) :   0.9219
B(  3-C ,  4-C ) :   0.9068 B(  3-C ,  6-C ) :   0.9211 B(  3-C , 12-H ) :   0.9218
B(  4-C ,  5-C ) :   0.9079 B(  4-C , 13-H ) :   0.9067 B(  5-C ,  6-C ) :   0.9066
B(  5-C , 14-H ) :   0.9082 B(  6-C ,  7-C ) :   0.8436 B(  6-C ,  8-O ) :  -0.1123
B(  6-C , 15-H ) :   0.8619 B(  7-C ,  8-O ) :   2.0089 B(  7-C , 16-H ) :   0.9533

MP2 TOTAL ENERGY:     -421.073163730 Eh
FINAL SINGLE POINT ENERGY      -421.073163730194

DIPOLE MOMENT
-------------
                                X             Y             Z
Electronic contribution:      0.65727      -0.25520      -2.28108
Nuclear contribution   :     -0.66110       0.54554       2.92733
                        -----------------------------------------
Total Dipole Moment    :     -0.00383       0.29034       0.64625
                        -----------------------------------------
Magnitude (a.u.)       :      0.70848
Magnitude (Debye)      :      1.80082

                             ****ORCA TERMINATED NORMALLY****
TOTAL RUN TIME: 0 days 0 hours 16 minutes 53 seconds 39 msec
