                         Program Version 3.0.3 - RELEASE   -
|  1> ! RI-MP2 RIJK def2-TZVP def2-TZVP/C def2-TZVP/JK TIGHTSCF
|  2> % maxcore 2000
|  3> % mp2 density relaxed end
|  4> *xyz 0 1
|  5>  C       -0.0298469549     1.6124667966     0.0004190561
|  6>  C        0.0746731878     0.0968806057     0.0110987603
|  7>  C        1.1338883418    -0.6052408391    -0.9084284647
|  8>  O        2.2951228757     0.1549283240    -1.1752628844
|  9>  C        1.3239845461    -1.6170411466     0.2310560126
| 10>  C        1.1405614945    -3.0810989259     0.1423777298
| 11>  N        2.4546750269    -2.4970941065     0.4680480721
| 12>  C        0.7389607933    -0.6230064343     1.2336493217
| 13>  O        1.8213418761     0.1245168740     1.7823365901
| 14>  H        0.9470906254     2.0810017567     0.1443645242
| 15>  H       -0.4206046453     1.9673610293    -0.9582388647
| 16>  H       -0.7054444006     1.9705713729     0.7860195368
| 17>  H       -0.9039550554    -0.3605580549    -0.1723162240
| 18>  H        0.7820118756    -0.9790825821    -1.8739741144
| 19>  H        2.6645272722     0.4015823598    -0.3160583138
| 20>  H        0.6728016365    -3.6259157162     0.9585501018
| 21>  H        0.9798203085    -3.5122969285    -0.8431839323
| 22>  H        3.0610115969    -2.4885215864    -0.3501383098
| 23>  H        0.0811936589    -1.0051523551     2.0240692371
| 24>  H        1.4537920901     0.8920907365     2.2339492754
| 25> *
| 26>
| 27>                          ****END OF INPUT****

CARTESIAN COORDINATES (ANGSTROEM)
---------------------------------
  C     -0.029847    1.612467    0.000419
  C      0.074673    0.096881    0.011099
  C      1.133888   -0.605241   -0.908428
  O      2.295123    0.154928   -1.175263
  C      1.323985   -1.617041    0.231056
  C      1.140561   -3.081099    0.142378
  N      2.454675   -2.497094    0.468048
  C      0.738961   -0.623006    1.233649
  O      1.821342    0.124517    1.782337
  H      0.947091    2.081002    0.144365
  H     -0.420605    1.967361   -0.958239
  H     -0.705444    1.970571    0.786020
  H     -0.903955   -0.360558   -0.172316
  H      0.782012   -0.979083   -1.873974
  H      2.664527    0.401582   -0.316058
  H      0.672802   -3.625916    0.958550
  H      0.979820   -3.512297   -0.843184
  H      3.061012   -2.488522   -0.350138
  H      0.081194   -1.005152    2.024069
  H      1.453792    0.892091    2.233949

 Total Charge           Charge          ....    0
 Multiplicity           Mult            ....    1
 Number of Electrons    NEL             ....   70
 Basis Dimension        Dim             ....  345

ORBITAL ENERGIES
----------------

  NO   OCC          E(Eh)            E(eV)
   0   2.0000     -20.568644      -559.7012
   1   2.0000     -20.552228      -559.2546
   2   2.0000     -15.558665      -423.3728
   3   2.0000     -11.288229      -307.1683
   4   2.0000     -11.284062      -307.0549
   5   2.0000     -11.261762      -306.4481
   6   2.0000     -11.260535      -306.4147
   7   2.0000     -11.236554      -305.7622
   8   2.0000     -11.223175      -305.3981
   9   2.0000      -1.380259       -37.5588
  10   2.0000      -1.357138       -36.9296
  11   2.0000      -1.264374       -34.4054
  12   2.0000      -1.105979       -30.0952
  13   2.0000      -0.980998       -26.6943
  14   2.0000      -0.892162       -24.2769
  15   2.0000      -0.885257       -24.0891
  16   2.0000      -0.813279       -22.1305
  17   2.0000      -0.760865       -20.7042
  18   2.0000      -0.720261       -19.5993
  19   2.0000      -0.693759       -18.8781
  20   2.0000      -0.660351       -17.9691
  21   2.0000      -0.637418       -17.3450
  22   2.0000      -0.614819       -16.7301
  23   2.0000      -0.591606       -16.0984
  24   2.0000      -0.586448       -15.9581
  25   2.0000      -0.555323       -15.1111
  26   2.0000      -0.541478       -14.7344
  27   2.0000      -0.526865       -14.3367
  28   2.0000      -0.511981       -13.9317
  29   2.0000      -0.497627       -13.5411
  30   2.0000      -0.489836       -13.3291
  31   2.0000      -0.444839       -12.1047
  32   2.0000      -0.417966       -11.3734
  33   2.0000      -0.410737       -11.1767
  34   2.0000      -0.391435       -10.6515
  35   0.0000       0.121418         3.3040
  36   0.0000       0.145094         3.9482
  37   0.0000       0.157298         4.2803
  38   0.0000       0.172633         4.6976
  39   0.0000       0.191166         5.2019

MULLIKEN ATOMIC CHARGES
-----------------------
   0 C :   -0.465406
   1 C :    0.011045
   2 C :    0.073152
   3 O :   -0.466972
   4 C :    0.063616
   5 C :   -0.232267
   6 N :   -0.362187
   7 C :   -0.014229
   8 O :   -0.457662
   9 H :    0.129553
  10 H :    0.140949
  11 H :    0.137203
  12 H :    0.105378
  13 H :    0.106491
  14 H :    0.336396
  15 H :    0.120275
  16 H :    0.127727
  17 H :    0.229476
  18 H :    0.094934
  19 H :    0.322529
Sum of atomic charges:   -0.0000000

LOEWDIN ATOMIC CHARGES
----------------------
   0 C :   -0.306678
   1 C :   -0.226678
   2 C :   -0.269135
   3 O :   -0.008806
   4 C :   -0.280659
   5 C :   -0.233690
   6 N :    0.019480
   7 C :   -0.259965
   8 O :   -0.009319
   9 H :    0.122727
  10 H :    0.131251
  11 H :    0.123934
  12 H :    0.156782
  13 H :    0.134220
  14 H :    0.179793
  15 H :    0.126991
  16 H :    0.123738
  17 H :    0.173981
  18 H :    0.125639
  19 H :    0.176394

  Mayer bond orders larger than 0.1
B(  0-C ,  1-C ) :   0.8600 B(  0-C ,  9-H ) :   0.9360 B(  0-C , 10-H ) :   0.9374
B(  0-C , 11-H ) :   0.9445 B(  1-C ,  2-C ) :   0.9027 B(  1-C ,  7-C ) :   0.9021
B(  1-C , 12-H ) :   0.9025 B(  2-C ,  3-O ) :   0.9567 B(  2-C ,  4-C ) :   0.9278
B(  2-C , 13-H ) :   0.9179 B(  3-O , 14-H ) :   0.8182 B(  4-C ,  5-C ) :   0.9124
B(  4-C ,  6-N ) :   0.8921 B(  4-C ,  7-C ) :   0.8359 B(  4-C ,  8-O ) :  -0.1040
B(  5-C ,  6-N ) :   0.9957 B(  5-C , 15-H ) :   0.9100 B(  5-C , 16-H ) :   0.9199
B(  6-N , 17-H ) :   0.8615 B(  7-C ,  8-O ) :   1.1051 B(  7-C , 18-H ) :   0.9399
B(  8-O , 19-H ) :   0.8399

MP2 TOTAL ENERGY:     -439.526184052 Eh
FINAL SINGLE POINT ENERGY      -439.526184051682

DIPOLE MOMENT
-------------
                                X             Y             Z
Electronic contribution:      3.72262      -2.35880       0.65723
Nuclear contribution   :     -4.79834       2.50256      -0.57649
                        -----------------------------------------
Total Dipole Moment    :     -1.07572       0.14376       0.08074
                        -----------------------------------------
Magnitude (a.u.)       :      1.08828
Magnitude (Debye)      :      2.76620

                             ****ORCA TERMINATED NORMALLY****
TOTAL RUN TIME: 0 days 0 hours 17 minutes 10 seconds 368 msec
