                         Program Version 3.0.3 - RELEASE   -
|  1> ! RI-MP2 RIJK def2-TZVP def2-TZVP/C def2-TZVP/JK TIGHTSCF
|  2> % maxcore 2000
|  3> % mp2 density relaxed end
|  4> *xyz 0 1
|  5>  C        0.0383551788     1.5062567086     0.0036836862
|  6>  C       -0.0259051368    -0.0139120252    -0.0159498455
|  7>  C       -1.4699160896    -0.5297084724     0.0729393304
|  8>  O        0.6160305902    -0.4114616195    -1.2168190820
|  9>  C        0.6811232964    -1.8163962265    -1.4222744320
| 10>  C        1.1593943187    -2.5485941898    -0.1860848992
| 11>  C        2.4379313923    -2.1433164706     0.5119714661
| 12>  C        1.1047366474    -1.7927988295     1.1187823862
| 13>  O        0.7279621342    -0.4442423199     1.1155423075
| 14>  H        1.0767465047     1.8231870708    -0.1106648988
| 15>  H       -0.5527868946     1.9206327310    -0.8163491372
| 16>  H       -0.3465913182     1.8843010772     0.9533528238
| 17>  H       -2.0323746158    -0.2428801644    -0.8200921735
| 18>  H       -1.5093024810    -1.6163677349     0.1758806353
| 19>  H       -1.9553166874    -0.0935132802     0.9494855491
| 20>  H       -0.3015637419    -2.2077068164    -1.7250673773
| 21>  H        1.3645258417    -1.9575233057    -2.2659225113
| 22>  H        0.8921897114    -3.6006911653    -0.1551438121
| 23>  H        3.0399037292    -2.9178828607     0.9740740771
| 24>  H        2.9921741616    -1.3109276191     0.0919524686
| 25>  H        0.7843526286    -2.3119417675     2.0183680885
| 26> *
| 27>
| 28>                          ****END OF INPUT****

CARTESIAN COORDINATES (ANGSTROEM)
---------------------------------
  C      0.038355    1.506257    0.003684
  C     -0.025905   -0.013912   -0.015950
  C     -1.469916   -0.529708    0.072939
  O      0.616031   -0.411462   -1.216819
  C      0.681123   -1.816396   -1.422274
  C      1.159394   -2.548594   -0.186085
  C      2.437931   -2.143316    0.511971
  C      1.104737   -1.792799    1.118782
  O      0.727962   -0.444242    1.115542
  H      1.076747    1.823187   -0.110665
  H     -0.552787    1.920633   -0.816349
  H     -0.346591    1.884301    0.953353
  H     -2.032375   -0.242880   -0.820092
  H     -1.509302   -1.616368    0.175881
  H     -1.955317   -0.093513    0.949486
  H     -0.301564   -2.207707   -1.725067
  H      1.364526   -1.957523   -2.265923
  H      0.892190   -3.600691   -0.155144
  H      3.039904   -2.917883    0.974074
  H      2.992174   -1.310928    0.091952
  H      0.784353   -2.311942    2.018368

 Total Charge           Charge          ....    0
 Multiplicity           Mult            ....    1
 Number of Electrons    NEL             ....   70
 Basis Dimension        Dim             ....  351

ORBITAL ENERGIES
----------------

  NO   OCC          E(Eh)            E(eV)
   0   2.0000     -20.556323      -559.3660
   1   2.0000     -20.554896      -559.3272
   2   2.0000     -11.336173      -308.4729
   3   2.0000     -11.283177      -307.0309
   4   2.0000     -11.280715      -306.9639
   5   2.0000     -11.236649      -305.7648
   6   2.0000     -11.222471      -305.3790
   7   2.0000     -11.217179      -305.2350
   8   2.0000     -11.207890      -304.9822
   9   2.0000      -1.419044       -38.6142
  10   2.0000      -1.341198       -36.4958
  11   2.0000      -1.144617       -31.1466
  12   2.0000      -1.032668       -28.1003
  13   2.0000      -0.960144       -26.1268
  14   2.0000      -0.935687       -25.4613
  15   2.0000      -0.841645       -22.9023
  16   2.0000      -0.817197       -22.2371
  17   2.0000      -0.716318       -19.4920
  18   2.0000      -0.703059       -19.1312
  19   2.0000      -0.693470       -18.8703
  20   2.0000      -0.648326       -17.6419
  21   2.0000      -0.628928       -17.1140
  22   2.0000      -0.624732       -16.9998
  23   2.0000      -0.580637       -15.7999
  24   2.0000      -0.562436       -15.3047
  25   2.0000      -0.551205       -14.9991
  26   2.0000      -0.533613       -14.5204
  27   2.0000      -0.532351       -14.4860
  28   2.0000      -0.520421       -14.1614
  29   2.0000      -0.510935       -13.9032
  30   2.0000      -0.500583       -13.6216
  31   2.0000      -0.453223       -12.3328
  32   2.0000      -0.438334       -11.9277
  33   2.0000      -0.402923       -10.9641
  34   2.0000      -0.385042       -10.4775
  35   0.0000       0.134312         3.6548
  36   0.0000       0.158739         4.3195
  37   0.0000       0.172613         4.6970
  38   0.0000       0.174470         4.7476
  39   0.0000       0.195286         5.3140

MULLIKEN ATOMIC CHARGES
-----------------------
   0 C :   -0.363289
   1 C :    0.295816
   2 C :   -0.449665
   3 O :   -0.300592
   4 C :   -0.056564
   5 C :   -0.144004
   6 C :   -0.291065
   7 C :    0.037916
   8 O :   -0.294577
   9 H :    0.135306
  10 H :    0.125763
  11 H :    0.130315
  12 H :    0.140314
  13 H :    0.143242
  14 H :    0.140481
  15 H :    0.105806
  16 H :    0.128988
  17 H :    0.127491
  18 H :    0.131279
  19 H :    0.143034
  20 H :    0.114005
Sum of atomic charges:   -0.0000000

LOEWDIN ATOMIC CHARGES
----------------------
   0 C :   -0.263657
   1 C :   -0.477547
   2 C :   -0.272961
   3 O :    0.199311
   4 C :   -0.296900
   5 C :   -0.225115
   6 C :   -0.206491
   7 C :   -0.281203
   8 O :    0.225816
   9 H :    0.130866
  10 H :    0.128888
  11 H :    0.129630
  12 H :    0.130216
  13 H :    0.128577
  14 H :    0.132274
  15 H :    0.124837
  16 H :    0.133618
  17 H :    0.149954
  18 H :    0.132260
  19 H :    0.142831
  20 H :    0.134795

  Mayer bond orders larger than 0.1
B(  0-C ,  1-C ) :   0.8950 B(  0-C ,  9-H ) :   0.9402 B(  0-C , 10-H ) :   0.9363
B(  0-C , 11-H ) :   0.9369 B(  1-C ,  2-C ) :   0.9103 B(  1-C ,  3-O ) :   0.9659
B(  1-C ,  8-O ) :   0.9419 B(  2-C , 12-H ) :   0.9387 B(  2-C , 13-H ) :   0.9291
B(  2-C , 14-H ) :   0.9349 B(  3-O ,  4-C ) :   0.9313 B(  4-C ,  5-C ) :   0.9346
B(  4-C , 15-H ) :   0.9376 B(  4-C , 16-H ) :   0.9258 B(  5-C ,  6-C ) :   0.8887
B(  5-C ,  7-C ) :   0.8832 B(  5-C , 17-H ) :   0.9156 B(  6-C ,  7-C ) :   0.8696
B(  6-C , 18-H ) :   0.9233 B(  6-C , 19-H ) :   0.9176 B(  7-C ,  8-O ) :   0.9623
B(  7-C , 20-H ) :   0.9468

MP2 TOTAL ENERGY:     -423.515728278 Eh
FINAL SINGLE POINT ENERGY      -423.515728277835

DIPOLE MOMENT
-------------
                                X             Y             Z
Electronic contribution:      2.75951      -0.55449       0.49403
Nuclear contribution   :     -3.09423      -0.07479      -0.56684
                        -----------------------------------------
Total Dipole Moment    :     -0.33472      -0.62927      -0.07281
                        -----------------------------------------
Magnitude (a.u.)       :      0.71646
Magnitude (Debye)      :      1.82110

                             ****ORCA TERMINATED NORMALLY****
TOTAL RUN TIME: 0 days 0 hours 19 minutes 9 seconds 207 msec
