                         Program Version 3.0.3 - RELEASE   -
|  1> ! RI-MP2 RIJK def2-TZVP def2-TZVP/C def2-TZVP/JK TIGHTSCF
|  2> % maxcore 2000
|  3> % mp2 density relaxed end
|  4> *xyz 0 1
|  5>  C       -0.1989390768     0.9924998388    -0.2934147165
|  6>  O       -0.0504067162    -0.3885805427    -0.0528025727
|  7>  C        0.7145998526    -0.6757318679     1.0883038471
|  8>  C        0.8330783946    -2.1893381809     1.2286740997
|  9>  O       -0.4153966585    -2.8269483315     1.3418146810
| 10>  C       -0.7667734550    -3.3160757607     0.0531726894
| 11>  C        0.5483981066    -3.3760405458    -0.6906684617
| 12>  N        0.7508401026    -3.9181747163    -1.8081819725
| 13>  O        1.4803297071    -2.7455087598     0.0839830615
| 14>  H        0.7741327615     1.4833595679    -0.4475741678
| 15>  H       -0.7985252132     1.1014045075    -1.1996174217
| 16>  H       -0.7132445745     1.4964476495     0.5392018829
| 17>  H        1.7268616928    -0.2439365554     1.0149578260
| 18>  H        0.2418675924    -0.2789795517     2.0021061762
| 19>  H        1.4328698157    -2.4299345426     2.1144727056
| 20>  H       -1.2207860745    -4.3045179126     0.1536012852
| 21>  H       -1.4628339541    -2.6415470593    -0.4574129826
| 22>  H        1.7227949670    -3.8066042665    -2.0989183490
| 23> *
| 24>
| 25>                          ****END OF INPUT****

CARTESIAN COORDINATES (ANGSTROEM)
---------------------------------
  C     -0.198939    0.992500   -0.293415
  O     -0.050407   -0.388581   -0.052803
  C      0.714600   -0.675732    1.088304
  C      0.833078   -2.189338    1.228674
  O     -0.415397   -2.826948    1.341815
  C     -0.766773   -3.316076    0.053173
  C      0.548398   -3.376041   -0.690668
  N      0.750840   -3.918175   -1.808182
  O      1.480330   -2.745509    0.083983
  H      0.774133    1.483360   -0.447574
  H     -0.798525    1.101405   -1.199617
  H     -0.713245    1.496448    0.539202
  H      1.726862   -0.243937    1.014958
  H      0.241868   -0.278980    2.002106
  H      1.432870   -2.429935    2.114473
  H     -1.220786   -4.304518    0.153601
  H     -1.462834   -2.641547   -0.457413
  H      1.722795   -3.806604   -2.098918

 Total Charge           Charge          ....    0
 Multiplicity           Mult            ....    1
 Number of Electrons    NEL             ....   70
 Basis Dimension        Dim             ....  333

ORBITAL ENERGIES
----------------

  NO   OCC          E(Eh)            E(eV)
   0   2.0000     -20.602870      -560.6326
   1   2.0000     -20.580373      -560.0204
   2   2.0000     -20.572825      -559.8150
   3   2.0000     -15.533378      -422.6847
   4   2.0000     -11.356702      -309.0316
   5   2.0000     -11.340657      -308.5950
   6   2.0000     -11.293440      -307.3101
   7   2.0000     -11.292737      -307.2910
   8   2.0000     -11.283732      -307.0460
   9   2.0000      -1.476983       -40.1907
  10   2.0000      -1.394065       -37.9344
  11   2.0000      -1.367598       -37.2142
  12   2.0000      -1.200872       -32.6774
  13   2.0000      -1.045644       -28.4534
  14   2.0000      -0.975723       -26.5508
  15   2.0000      -0.914471       -24.8840
  16   2.0000      -0.845841       -23.0165
  17   2.0000      -0.807345       -21.9690
  18   2.0000      -0.731462       -19.9041
  19   2.0000      -0.711312       -19.3558
  20   2.0000      -0.689926       -18.7738
  21   2.0000      -0.674745       -18.3608
  22   2.0000      -0.652213       -17.7476
  23   2.0000      -0.637509       -17.3475
  24   2.0000      -0.595197       -16.1961
  25   2.0000      -0.591971       -16.1084
  26   2.0000      -0.570343       -15.5198
  27   2.0000      -0.553739       -15.0680
  28   2.0000      -0.541866       -14.7449
  29   2.0000      -0.533618       -14.5205
  30   2.0000      -0.503438       -13.6993
  31   2.0000      -0.445286       -12.1169
  32   2.0000      -0.439447       -11.9580
  33   2.0000      -0.433416       -11.7939
  34   2.0000      -0.402220       -10.9450
  35   0.0000       0.133621         3.6360
  36   0.0000       0.158320         4.3081
  37   0.0000       0.161993         4.4080
  38   0.0000       0.176172         4.7939
  39   0.0000       0.187602         5.1049

MULLIKEN ATOMIC CHARGES
-----------------------
   0 C :   -0.235018
   1 O :   -0.295314
   2 C :   -0.078931
   3 C :    0.285325
   4 O :   -0.336381
   5 C :    0.023217
   6 C :    0.104234
   7 N :   -0.378219
   8 O :   -0.280691
   9 H :    0.116842
  10 H :    0.144583
  11 H :    0.116760
  12 H :    0.101642
  13 H :    0.103974
  14 H :    0.122670
  15 H :    0.139102
  16 H :    0.120247
  17 H :    0.225958
Sum of atomic charges:   -0.0000000

LOEWDIN ATOMIC CHARGES
----------------------
   0 C :   -0.351188
   1 O :    0.148926
   2 C :   -0.317525
   3 C :   -0.366778
   4 O :    0.183540
   5 C :   -0.257588
   6 C :   -0.410899
   7 N :   -0.056207
   8 O :    0.258838
   9 H :    0.104072
  10 H :    0.116083
  11 H :    0.103713
  12 H :    0.127927
  13 H :    0.128725
  14 H :    0.140764
  15 H :    0.139527
  16 H :    0.137875
  17 H :    0.170194

  Mayer bond orders larger than 0.1
B(  0-C ,  1-O ) :   0.9139 B(  0-C ,  9-H ) :   0.9358 B(  0-C , 10-H ) :   0.9397
B(  0-C , 11-H ) :   0.9361 B(  1-O ,  2-C ) :   0.9532 B(  2-C ,  3-C ) :   0.9526
B(  2-C , 12-H ) :   0.9125 B(  2-C , 13-H ) :   0.9135 B(  3-C ,  4-O ) :   0.9584
B(  3-C ,  8-O ) :   0.8974 B(  3-C , 14-H ) :   0.9246 B(  4-O ,  5-C ) :   0.9277
B(  5-C ,  6-C ) :   0.9471 B(  5-C , 15-H ) :   0.9124 B(  5-C , 16-H ) :   0.9097
B(  6-C ,  7-N ) :   2.0461 B(  6-C ,  8-O ) :   1.0578 B(  7-N , 17-H ) :   0.8540

MP2 TOTAL ENERGY:     -475.467549330 Eh
FINAL SINGLE POINT ENERGY      -475.467549330300

DIPOLE MOMENT
-------------
                                X             Y             Z
Electronic contribution:      1.36258      -6.77198       0.08730
Nuclear contribution   :     -1.10611       7.88431       0.56450
                        -----------------------------------------
Total Dipole Moment    :      0.25647       1.11233       0.65181
                        -----------------------------------------
Magnitude (a.u.)       :      1.31450
Magnitude (Debye)      :      3.34120

                             ****ORCA TERMINATED NORMALLY****
TOTAL RUN TIME: 0 days 0 hours 15 minutes 47 seconds 372 msec
