                         Program Version 3.0.3 - RELEASE   -
|  1> ! RI-MP2 RIJK def2-TZVP def2-TZVP/C def2-TZVP/JK TIGHTSCF
|  2> % maxcore 2000
|  3> % mp2 density relaxed end
|  4> *xyz 0 1
|  5>  C        0.3660307318     1.4619278523     0.1841546519
|  6>  C       -0.1397220905     0.0418101328    -0.1291948971
|  7>  C        0.3981063300    -0.4934747976    -1.3758727318
|  8>  C        0.8607446490    -0.9064746302    -2.4082237558
|  9>  C        1.4146629772    -1.4466954090    -3.6462454780
| 10>  C        1.8893618991    -2.8830264512    -3.5036523833
| 11>  C        2.9805913926    -3.4155319897    -4.3265024507
| 12>  O        3.1887416854    -3.0786449383    -2.9528973997
| 13>  H        1.4557677607     1.4748642291     0.2712538490
| 14>  H        0.0831859209     2.1588514848    -0.6094885599
| 15>  H       -0.0603499083     1.8199471016     1.1260648759
| 16>  H        0.1241738582    -0.6303067244     0.6974834189
| 17>  H       -1.2365207374     0.0456794714    -0.1746911496
| 18>  H        0.6584022122    -1.4069884807    -4.4427453367
| 19>  H        2.2603745076    -0.8353962558    -3.9844577223
| 20>  H        1.1370127358    -3.5779307220    -3.1291408001
| 21>  H        3.0161314623    -4.4782615758    -4.5617386948
| 22>  H        3.4771268633    -2.7655183572    -5.0465550860
| 23> *
| 24>
| 25>                          ****END OF INPUT****

CARTESIAN COORDINATES (ANGSTROEM)
---------------------------------
  C      0.366031    1.461928    0.184155
  C     -0.139722    0.041810   -0.129195
  C      0.398106   -0.493475   -1.375873
  C      0.860745   -0.906475   -2.408224
  C      1.414663   -1.446695   -3.646245
  C      1.889362   -2.883026   -3.503652
  C      2.980591   -3.415532   -4.326502
  O      3.188742   -3.078645   -2.952897
  H      1.455768    1.474864    0.271254
  H      0.083186    2.158851   -0.609489
  H     -0.060350    1.819947    1.126065
  H      0.124174   -0.630307    0.697483
  H     -1.236521    0.045679   -0.174691
  H      0.658402   -1.406988   -4.442745
  H      2.260375   -0.835396   -3.984458
  H      1.137013   -3.577931   -3.129141
  H      3.016131   -4.478262   -4.561739
  H      3.477127   -2.765518   -5.046555

 Total Charge           Charge          ....    0
 Multiplicity           Mult            ....    1
 Number of Electrons    NEL             ....   60
 Basis Dimension        Dim             ....  308

ORBITAL ENERGIES
----------------

  NO   OCC          E(Eh)            E(eV)
   0   2.0000     -20.568216      -559.6896
   1   2.0000     -11.292978      -307.2976
   2   2.0000     -11.284357      -307.0630
   3   2.0000     -11.256709      -306.3106
   4   2.0000     -11.247248      -306.0532
   5   2.0000     -11.221231      -305.3452
   6   2.0000     -11.219249      -305.2913
   7   2.0000     -11.215269      -305.1830
   8   2.0000      -1.413343       -38.4590
   9   2.0000      -1.083587       -29.4859
  10   2.0000      -1.049258       -28.5518
  11   2.0000      -0.968694       -26.3595
  12   2.0000      -0.913293       -24.8520
  13   2.0000      -0.864880       -23.5346
  14   2.0000      -0.825498       -22.4630
  15   2.0000      -0.709891       -19.3171
  16   2.0000      -0.660572       -17.9751
  17   2.0000      -0.654062       -17.7979
  18   2.0000      -0.623872       -16.9764
  19   2.0000      -0.618413       -16.8279
  20   2.0000      -0.594854       -16.1868
  21   2.0000      -0.547239       -14.8911
  22   2.0000      -0.538124       -14.6431
  23   2.0000      -0.529281       -14.4025
  24   2.0000      -0.518395       -14.1062
  25   2.0000      -0.507613       -13.8129
  26   2.0000      -0.454403       -12.3649
  27   2.0000      -0.443565       -12.0700
  28   2.0000      -0.365802        -9.9540
  29   2.0000      -0.364758        -9.9256
  30   0.0000       0.133777         3.6402
  31   0.0000       0.152835         4.1589
  32   0.0000       0.171705         4.6723
  33   0.0000       0.175558         4.7772
  34   0.0000       0.182555         4.9676

MULLIKEN ATOMIC CHARGES
-----------------------
   0 C :   -0.360678
   1 C :   -0.301962
   2 C :    0.057264
   3 C :   -0.026049
   4 C :   -0.359678
   5 C :    0.064582
   6 C :   -0.068848
   7 O :   -0.327261
   8 H :    0.132514
   9 H :    0.128019
  10 H :    0.130440
  11 H :    0.142025
  12 H :    0.138165
  13 H :    0.143543
  14 H :    0.150344
  15 H :    0.124660
  16 H :    0.117850
  17 H :    0.115069
Sum of atomic charges:   -0.0000000

LOEWDIN ATOMIC CHARGES
----------------------
   0 C :   -0.300017
   1 C :   -0.278296
   2 C :   -0.078835
   3 C :   -0.080257
   4 C :   -0.237982
   5 C :   -0.282818
   6 C :   -0.267508
   7 O :    0.149130
   8 H :    0.124725
   9 H :    0.123479
  10 H :    0.120376
  11 H :    0.153326
  12 H :    0.151765
  13 H :    0.161179
  14 H :    0.162517
  15 H :    0.140122
  16 H :    0.119247
  17 H :    0.119847

  Mayer bond orders larger than 0.1
B(  0-C ,  1-C ) :   0.9378 B(  0-C ,  8-H ) :   0.9355 B(  0-C ,  9-H ) :   0.9355
B(  0-C , 10-H ) :   0.9390 B(  1-C ,  2-C ) :   0.9493 B(  1-C , 11-H ) :   0.9403
B(  1-C , 12-H ) :   0.9425 B(  2-C ,  3-C ) :   2.6508 B(  3-C ,  4-C ) :   1.0328
B(  4-C ,  5-C ) :   0.9218 B(  4-C , 13-H ) :   0.9364 B(  4-C , 14-H ) :   0.9321
B(  5-C ,  6-C ) :   0.9778 B(  5-C ,  7-O ) :   0.8949 B(  5-C , 15-H ) :   0.9190
B(  6-C ,  7-O ) :   0.9099 B(  6-C , 16-H ) :   0.9177 B(  6-C , 17-H ) :   0.9125

MP2 TOTAL ENERGY:     -347.138591628 Eh
FINAL SINGLE POINT ENERGY      -347.138591628076

DIPOLE MOMENT
-------------
                                X             Y             Z
Electronic contribution:      2.49519      -4.95247      -3.12277
Nuclear contribution   :     -2.96339       5.00147       2.64593
                        -----------------------------------------
Total Dipole Moment    :     -0.46820       0.04899      -0.47683
                        -----------------------------------------
Magnitude (a.u.)       :      0.67006
Magnitude (Debye)      :      1.70316

                             ****ORCA TERMINATED NORMALLY****
TOTAL RUN TIME: 0 days 0 hours 10 minutes 53 seconds 99 msec
