                         Program Version 3.0.3 - RELEASE   -
|  1> ! RI-MP2 RIJK def2-TZVP def2-TZVP/C def2-TZVP/JK TIGHTSCF
|  2> % maxcore 2000
|  3> % mp2 density relaxed end
|  4> *xyz 0 1
|  5>  C        0.2783145872     1.0683934942    -0.6838982038
|  6>  C        0.1436718058    -0.2032039370     0.0852640447
|  7>  C       -0.9087854956    -0.5619173719     1.0875567928
|  8>  C        0.5563992809    -0.6732629725     1.4656047307
|  9>  C        1.1532267035    -1.8761430488     0.7463664962
| 10>  O        0.6383410230    -1.4126112794    -0.5355808955
| 11>  C        2.6792707490    -1.9297196429     0.8077182616
| 12>  N        3.2924123233    -1.6423527661    -0.3654393294
| 13>  O        3.2444883150    -2.2074015936     1.8480413508
| 14>  H        1.3188358454     1.2449545554    -0.9742435675
| 15>  H       -0.3320455281     1.0344290405    -1.5935281802
| 16>  H       -0.0623113415     1.9150323443    -0.0813214226
| 17>  H       -1.4269241610     0.2770609210     1.5421091719
| 18>  H       -1.5120779491    -1.4545621468     0.9447698316
| 19>  H        1.0135371875    -0.1561545588     2.2973435727
| 20>  H        0.7597882635    -2.8630545392     1.0161763248
| 21>  H        2.7303486221    -1.4456009703    -1.1768942980
| 22>  H        4.2956468290    -1.6872873582    -0.4237699607
| 23> *
| 24>
| 25>                          ****END OF INPUT****

CARTESIAN COORDINATES (ANGSTROEM)
---------------------------------
  C      0.278315    1.068393   -0.683898
  C      0.143672   -0.203204    0.085264
  C     -0.908785   -0.561917    1.087557
  C      0.556399   -0.673263    1.465605
  C      1.153227   -1.876143    0.746366
  O      0.638341   -1.412611   -0.535581
  C      2.679271   -1.929720    0.807718
  N      3.292412   -1.642353   -0.365439
  O      3.244488   -2.207402    1.848041
  H      1.318836    1.244955   -0.974244
  H     -0.332046    1.034429   -1.593528
  H     -0.062311    1.915032   -0.081321
  H     -1.426924    0.277061    1.542109
  H     -1.512078   -1.454562    0.944770
  H      1.013537   -0.156155    2.297344
  H      0.759788   -2.863055    1.016176
  H      2.730349   -1.445601   -1.176894
  H      4.295647   -1.687287   -0.423770

 Total Charge           Charge          ....    0
 Multiplicity           Mult            ....    1
 Number of Electrons    NEL             ....   68
 Basis Dimension        Dim             ....  333

ORBITAL ENERGIES
----------------

  NO   OCC          E(Eh)            E(eV)
   0   2.0000     -20.571694      -559.7843
   1   2.0000     -20.517274      -558.3034
   2   2.0000     -15.582037      -424.0088
   3   2.0000     -11.350624      -308.8662
   4   2.0000     -11.306683      -307.6705
   5   2.0000     -11.304818      -307.6197
   6   2.0000     -11.249527      -306.1152
   7   2.0000     -11.242631      -305.9275
   8   2.0000     -11.237009      -305.7746
   9   2.0000      -1.412691       -38.4413
  10   2.0000      -1.377896       -37.4945
  11   2.0000      -1.213010       -33.0077
  12   2.0000      -1.132559       -30.8185
  13   2.0000      -1.021300       -27.7910
  14   2.0000      -0.961322       -26.1589
  15   2.0000      -0.841016       -22.8852
  16   2.0000      -0.799285       -21.7496
  17   2.0000      -0.745995       -20.2995
  18   2.0000      -0.740036       -20.1374
  19   2.0000      -0.691533       -18.8176
  20   2.0000      -0.670052       -18.2330
  21   2.0000      -0.647094       -17.6083
  22   2.0000      -0.630384       -17.1536
  23   2.0000      -0.593018       -16.1368
  24   2.0000      -0.578138       -15.7319
  25   2.0000      -0.567100       -15.4316
  26   2.0000      -0.557771       -15.1777
  27   2.0000      -0.544040       -14.8041
  28   2.0000      -0.518350       -14.1050
  29   2.0000      -0.480987       -13.0883
  30   2.0000      -0.447839       -12.1863
  31   2.0000      -0.415417       -11.3041
  32   2.0000      -0.405140       -11.0244
  33   2.0000      -0.387338       -10.5400
  34   0.0000       0.131175         3.5694
  35   0.0000       0.151994         4.1360
  36   0.0000       0.162345         4.4176
  37   0.0000       0.173888         4.7317
  38   0.0000       0.180769         4.9190

MULLIKEN ATOMIC CHARGES
-----------------------
   0 C :   -0.397380
   1 C :    0.169658
   2 C :   -0.252523
   3 C :   -0.215605
   4 C :    0.182623
   5 O :   -0.370248
   6 C :    0.205835
   7 N :   -0.471069
   8 O :   -0.355560
   9 H :    0.133249
  10 H :    0.146570
  11 H :    0.135182
  12 H :    0.133602
  13 H :    0.137878
  14 H :    0.154752
  15 H :    0.125646
  16 H :    0.280270
  17 H :    0.257121
Sum of atomic charges:   -0.0000000

LOEWDIN ATOMIC CHARGES
----------------------
   0 C :   -0.269104
   1 C :   -0.299466
   2 C :   -0.182239
   3 C :   -0.151084
   4 C :   -0.214131
   5 O :    0.172313
   6 C :   -0.471079
   7 N :    0.001471
   8 O :    0.083345
   9 H :    0.129682
  10 H :    0.135418
  11 H :    0.136854
  12 H :    0.144061
  13 H :    0.137229
  14 H :    0.145773
  15 H :    0.150083
  16 H :    0.177242
  17 H :    0.173632

  Mayer bond orders larger than 0.1
B(  0-C ,  1-C ) :   0.9071 B(  0-C ,  9-H ) :   0.9324 B(  0-C , 10-H ) :   0.9374
B(  0-C , 11-H ) :   0.9294 B(  1-C ,  2-C ) :   0.8897 B(  1-C ,  3-C ) :   0.8834
B(  1-C ,  5-O ) :   0.9122 B(  2-C ,  3-C ) :   0.8633 B(  2-C , 12-H ) :   0.9281
B(  2-C , 13-H ) :   0.9038 B(  3-C ,  4-C ) :   0.9213 B(  3-C , 14-H ) :   0.9132
B(  4-C ,  5-O ) :   0.8537 B(  4-C ,  6-C ) :   0.8753 B(  4-C , 15-H ) :   0.9018
B(  6-C ,  7-N ) :   1.1979 B(  6-C ,  8-O ) :   1.9846 B(  7-N , 16-H ) :   0.8452
B(  7-N , 17-H ) :   0.8600

MP2 TOTAL ENERGY:     -438.363417964 Eh
FINAL SINGLE POINT ENERGY      -438.363417963629

DIPOLE MOMENT
-------------
                                X             Y             Z
Electronic contribution:      3.92227      -5.10508       1.67003
Nuclear contribution   :     -4.35862       5.94784      -2.50127
                        -----------------------------------------
Total Dipole Moment    :     -0.43635       0.84276      -0.83125
                        -----------------------------------------
Magnitude (a.u.)       :      1.26159
Magnitude (Debye)      :      3.20671

                             ****ORCA TERMINATED NORMALLY****
TOTAL RUN TIME: 0 days 0 hours 17 minutes 36 seconds 220 msec
