                         Program Version 3.0.3 - RELEASE   -
|  1> ! RI-MP2 RIJK def2-TZVP def2-TZVP/C def2-TZVP/JK TIGHTSCF
|  2> % maxcore 2000
|  3> % mp2 density relaxed end
|  4> *xyz 0 1
|  5>  C       -0.2944872616     1.4522379887     0.7691594340
|  6>  C       -0.2026782601    -0.0368029603     0.4951435510
|  7>  C        1.1874591766    -0.5717922153     0.2633609286
|  8>  C        0.4604879169    -0.8573761787     1.5719023480
|  9>  C        0.5927757586    -2.3830572844     1.3148412927
| 10>  C        1.3215992780    -2.0966878067     0.0027105296
| 11>  C        0.0687832432    -2.9496222974     0.0104554688
| 12>  C        0.4297255753    -4.4306138539    -0.1123640914
| 13>  C       -1.2733867732    -2.6495255345    -0.6693734376
| 14>  H        0.5768825925     1.8066677557     1.3306515296
| 15>  H       -0.3433951117     2.0225381763    -0.1648182474
| 16>  H       -1.1882899730     1.6906109543     1.3558826283
| 17>  H       -1.0469236127    -0.4206929798    -0.0577527385
| 18>  H        2.0210330299     0.1009789936     0.1002239282
| 19>  H        0.6606756644    -0.4333197479     2.5487230730
| 20>  H        0.9068268269    -3.0482222805     2.1116694095
| 21>  H        2.2643373246    -2.5149022329    -0.3324696172
| 22>  H        1.3858429342    -4.6578292696     0.3689582749
| 23>  H       -0.3400964043    -5.0555330501     0.3544212927
| 24>  H        0.5040218502    -4.7237306733    -1.1657397828
| 25>  H       -1.1733437564    -1.9347835062    -1.4903870033
| 26>  H       -1.6840728287    -3.5696467043    -1.0974949078
| 27>  H       -2.0186799995    -2.2659940629     0.0322995670
| 28> *
| 29>
| 30>                          ****END OF INPUT****

CARTESIAN COORDINATES (ANGSTROEM)
---------------------------------
  C     -0.294487    1.452238    0.769159
  C     -0.202678   -0.036803    0.495144
  C      1.187459   -0.571792    0.263361
  C      0.460488   -0.857376    1.571902
  C      0.592776   -2.383057    1.314841
  C      1.321599   -2.096688    0.002711
  C      0.068783   -2.949622    0.010455
  C      0.429726   -4.430614   -0.112364
  C     -1.273387   -2.649526   -0.669373
  H      0.576883    1.806668    1.330652
  H     -0.343395    2.022538   -0.164818
  H     -1.188290    1.690611    1.355883
  H     -1.046924   -0.420693   -0.057753
  H      2.021033    0.100979    0.100224
  H      0.660676   -0.433320    2.548723
  H      0.906827   -3.048222    2.111669
  H      2.264337   -2.514902   -0.332470
  H      1.385843   -4.657829    0.368958
  H     -0.340096   -5.055533    0.354421
  H      0.504022   -4.723731   -1.165740
  H     -1.173344   -1.934784   -1.490387
  H     -1.684073   -3.569647   -1.097495
  H     -2.018680   -2.265994    0.032300

 Total Charge           Charge          ....    0
 Multiplicity           Mult            ....    1
 Number of Electrons    NEL             ....   68
 Basis Dimension        Dim             ....  363

ORBITAL ENERGIES
----------------

  NO   OCC          E(Eh)            E(eV)
   0   2.0000     -11.242820      -305.9327
   1   2.0000     -11.228953      -305.5554
   2   2.0000     -11.225545      -305.4626
   3   2.0000     -11.224968      -305.4469
   4   2.0000     -11.224900      -305.4450
   5   2.0000     -11.224295      -305.4286
   6   2.0000     -11.215171      -305.1803
   7   2.0000     -11.214045      -305.1497
   8   2.0000     -11.211779      -305.0880
   9   2.0000      -1.208716       -32.8908
  10   2.0000      -1.098845       -29.9011
  11   2.0000      -0.996189       -27.1077
  12   2.0000      -0.939571       -25.5670
  13   2.0000      -0.919502       -25.0209
  14   2.0000      -0.861034       -23.4299
  15   2.0000      -0.792231       -21.5577
  16   2.0000      -0.720851       -19.6154
  17   2.0000      -0.720483       -19.6053
  18   2.0000      -0.677239       -18.4286
  19   2.0000      -0.625437       -17.0190
  20   2.0000      -0.597785       -16.2666
  21   2.0000      -0.582041       -15.8381
  22   2.0000      -0.558528       -15.1983
  23   2.0000      -0.557153       -15.1609
  24   2.0000      -0.548097       -14.9145
  25   2.0000      -0.540117       -14.6973
  26   2.0000      -0.507837       -13.8189
  27   2.0000      -0.501787       -13.6543
  28   2.0000      -0.483586       -13.1591
  29   2.0000      -0.474614       -12.9149
  30   2.0000      -0.431337       -11.7373
  31   2.0000      -0.414463       -11.2781
  32   2.0000      -0.376281       -10.2391
  33   2.0000      -0.311623        -8.4797
  34   0.0000       0.141323         3.8456
  35   0.0000       0.150537         4.0963
  36   0.0000       0.163370         4.4455
  37   0.0000       0.164065         4.4644
  38   0.0000       0.193069         5.2537

MULLIKEN ATOMIC CHARGES
-----------------------
   0 C :   -0.454634
   1 C :    0.033880
   2 C :   -0.198297
   3 C :   -0.198334
   4 C :   -0.172466
   5 C :   -0.172483
   6 C :    0.196697
   7 C :   -0.463468
   8 C :   -0.443513
   9 H :    0.130329
  10 H :    0.136650
  11 H :    0.136650
  12 H :    0.124874
  13 H :    0.125898
  14 H :    0.125898
  15 H :    0.125084
  16 H :    0.125083
  17 H :    0.133188
  18 H :    0.137978
  19 H :    0.137986
  20 H :    0.146413
  21 H :    0.140167
  22 H :    0.146419
Sum of atomic charges:    0.0000000

LOEWDIN ATOMIC CHARGES
----------------------
   0 C :   -0.286194
   1 C :   -0.214277
   2 C :   -0.147645
   3 C :   -0.147632
   4 C :   -0.133642
   5 C :   -0.133639
   6 C :   -0.241964
   7 C :   -0.265006
   8 C :   -0.277256
   9 H :    0.128090
  10 H :    0.125179
  11 H :    0.125178
  12 H :    0.147473
  13 H :    0.139712
  14 H :    0.139710
  15 H :    0.139812
  16 H :    0.139812
  17 H :    0.128544
  18 H :    0.126211
  19 H :    0.126216
  20 H :    0.126741
  21 H :    0.127834
  22 H :    0.126741

  Mayer bond orders larger than 0.1
B(  0-C ,  1-C ) :   0.8792 B(  0-C ,  9-H ) :   0.9369 B(  0-C , 10-H ) :   0.9424
B(  0-C , 11-H ) :   0.9424 B(  1-C ,  2-C ) :   0.8727 B(  1-C ,  3-C ) :   0.8727
B(  1-C , 12-H ) :   0.9088 B(  2-C ,  3-C ) :   0.9119 B(  2-C ,  5-C ) :   0.8708
B(  2-C , 13-H ) :   0.9319 B(  3-C ,  4-C ) :   0.8708 B(  3-C , 14-H ) :   0.9319
B(  4-C ,  5-C ) :   0.8911 B(  4-C ,  6-C ) :   0.8808 B(  4-C , 15-H ) :   0.9292
B(  5-C ,  6-C ) :   0.8807 B(  5-C , 16-H ) :   0.9292 B(  6-C ,  7-C ) :   0.8742
B(  6-C ,  8-C ) :   0.8199 B(  7-C , 17-H ) :   0.9323 B(  7-C , 18-H ) :   0.9421
B(  7-C , 19-H ) :   0.9421 B(  8-C , 20-H ) :   0.9432 B(  8-C , 21-H ) :   0.9364
B(  8-C , 22-H ) :   0.9432

MP2 TOTAL ENERGY:     -350.428497852 Eh
FINAL SINGLE POINT ENERGY      -350.428497852063

DIPOLE MOMENT
-------------
                                X             Y             Z
Electronic contribution:      2.54793       0.33527       1.48827
Nuclear contribution   :     -2.52093      -0.34202      -1.47474
                        -----------------------------------------
Total Dipole Moment    :      0.02700      -0.00675       0.01353
                        -----------------------------------------
Magnitude (a.u.)       :      0.03095
Magnitude (Debye)      :      0.07866

                             ****ORCA TERMINATED NORMALLY****
TOTAL RUN TIME: 0 days 0 hours 21 minutes 26 seconds 353 msec
