                         Program Version 3.0.3 - RELEASE   -
|  1> ! RI-MP2 RIJK def2-TZVP def2-TZVP/C def2-TZVP/JK TIGHTSCF
|  2> % maxcore 2000
|  3> % mp2 density relaxed end
|  4> *xyz 0 1
|  5>  C        0.1055794310     1.6814708401     0.1111152862
|  6>  C        1.5790521305     1.9701223441    -0.2356480225
|  7>  C        2.0314188158     0.6954009610    -0.9946270687
|  8>  C        3.2029335710    -0.0135716224    -0.3120260649
|  9>  O        2.9683532832    -0.2693966024     1.0592143987
| 10>  C        1.9123266109    -1.1858729792     1.3189653639
| 11>  C        0.5271050184    -0.5322026645     1.3983818305
| 12>  C        0.0540962757     0.1461444264     0.0784564485
| 13>  O        0.8970754974    -0.1836688051    -1.0265625514
| 14>  H       -0.2033780025     2.1033610762     1.0706782044
| 15>  H       -0.5570393697     2.0796684936    -0.6632021717
| 16>  H        1.6966984892     2.8712815302    -0.8405858059
| 17>  H        2.1751042605     2.0893744882     0.6723736518
| 18>  H        2.3017634447     0.9011158451    -2.0371857628
| 19>  H        3.4130137849    -0.9523709818    -0.8480014598
| 20>  H        4.0993380434     0.6161032024    -0.3558635632
| 21>  H        1.9092536204    -1.9806770602     0.5610397973
| 22>  H        2.1425033990    -1.6412734469     2.2885031163
| 23>  H       -0.1839348774    -1.3158322188     1.6872588359
| 24>  H        0.5308297499     0.1993506788     2.2144110106
| 25>  H       -0.9429007962    -0.2183158747    -0.1837064134
| 26> *
| 27>
| 28>                          ****END OF INPUT****

CARTESIAN COORDINATES (ANGSTROEM)
---------------------------------
  C      0.105579    1.681471    0.111115
  C      1.579052    1.970122   -0.235648
  C      2.031419    0.695401   -0.994627
  C      3.202934   -0.013572   -0.312026
  O      2.968353   -0.269397    1.059214
  C      1.912327   -1.185873    1.318965
  C      0.527105   -0.532203    1.398382
  C      0.054096    0.146144    0.078456
  O      0.897075   -0.183669   -1.026563
  H     -0.203378    2.103361    1.070678
  H     -0.557039    2.079668   -0.663202
  H      1.696698    2.871282   -0.840586
  H      2.175104    2.089374    0.672374
  H      2.301763    0.901116   -2.037186
  H      3.413014   -0.952371   -0.848001
  H      4.099338    0.616103   -0.355864
  H      1.909254   -1.980677    0.561040
  H      2.142503   -1.641273    2.288503
  H     -0.183935   -1.315832    1.687259
  H      0.530830    0.199351    2.214411
  H     -0.942901   -0.218316   -0.183706

 Total Charge           Charge          ....    0
 Multiplicity           Mult            ....    1
 Number of Electrons    NEL             ....   70
 Basis Dimension        Dim             ....  351

ORBITAL ENERGIES
----------------

  NO   OCC          E(Eh)            E(eV)
   0   2.0000     -20.549654      -559.1845
   1   2.0000     -20.546805      -559.1070
   2   2.0000     -11.276093      -306.8381
   3   2.0000     -11.274645      -306.7987
   4   2.0000     -11.270241      -306.6788
   5   2.0000     -11.269077      -306.6472
   6   2.0000     -11.221758      -305.3596
   7   2.0000     -11.220824      -305.3341
   8   2.0000     -11.220356      -305.3214
   9   2.0000      -1.385016       -37.6882
  10   2.0000      -1.357661       -36.9438
  11   2.0000      -1.063852       -28.9489
  12   2.0000      -1.054457       -28.6932
  13   2.0000      -0.970078       -26.3972
  14   2.0000      -0.933039       -25.3893
  15   2.0000      -0.827038       -22.5048
  16   2.0000      -0.783425       -21.3181
  17   2.0000      -0.765165       -20.8212
  18   2.0000      -0.702086       -19.1047
  19   2.0000      -0.668793       -18.1988
  20   2.0000      -0.654818       -17.8185
  21   2.0000      -0.636676       -17.3248
  22   2.0000      -0.613685       -16.6992
  23   2.0000      -0.584299       -15.8996
  24   2.0000      -0.571251       -15.5445
  25   2.0000      -0.543988       -14.8027
  26   2.0000      -0.535657       -14.5760
  27   2.0000      -0.517398       -14.0791
  28   2.0000      -0.497015       -13.5245
  29   2.0000      -0.489314       -13.3149
  30   2.0000      -0.473588       -12.8870
  31   2.0000      -0.453985       -12.3536
  32   2.0000      -0.449901       -12.2424
  33   2.0000      -0.421405       -11.4670
  34   2.0000      -0.398877       -10.8540
  35   0.0000       0.139539         3.7970
  36   0.0000       0.155779         4.2390
  37   0.0000       0.166614         4.5338
  38   0.0000       0.170631         4.6431
  39   0.0000       0.192650         5.2423

MULLIKEN ATOMIC CHARGES
-----------------------
   0 C :   -0.280186
   1 C :   -0.267829
   2 C :    0.076260
   3 C :   -0.081164
   4 O :   -0.327086
   5 C :   -0.076222
   6 C :   -0.241937
   7 C :    0.148198
   8 O :   -0.336103
   9 H :    0.120625
  10 H :    0.118358
  11 H :    0.124738
  12 H :    0.136356
  13 H :    0.104770
  14 H :    0.108271
  15 H :    0.117754
  16 H :    0.106901
  17 H :    0.121116
  18 H :    0.114286
  19 H :    0.104340
  20 H :    0.108552
Sum of atomic charges:    0.0000000

LOEWDIN ATOMIC CHARGES
----------------------
   0 C :   -0.242294
   1 C :   -0.234063
   2 C :   -0.304166
   3 C :   -0.316294
   4 O :    0.151675
   5 C :   -0.316612
   6 C :   -0.250710
   7 C :   -0.304289
   8 O :    0.184829
   9 H :    0.135668
  10 H :    0.138421
  11 H :    0.134526
  12 H :    0.144304
  13 H :    0.141829
  14 H :    0.125071
  15 H :    0.133490
  16 H :    0.125912
  17 H :    0.129012
  18 H :    0.141753
  19 H :    0.140817
  20 H :    0.141120

  Mayer bond orders larger than 0.1
B(  0-C ,  1-C ) :   0.9419 B(  0-C ,  7-C ) :   0.9361 B(  0-C ,  9-H ) :   0.9250
B(  0-C , 10-H ) :   0.9245 B(  1-C ,  2-C ) :   0.9257 B(  1-C , 11-H ) :   0.9289
B(  1-C , 12-H ) :   0.9215 B(  2-C ,  3-C ) :   0.9259 B(  2-C ,  8-O ) :   0.9400
B(  2-C , 13-H ) :   0.9144 B(  3-C ,  4-O ) :   0.9206 B(  3-C , 14-H ) :   0.9436
B(  3-C , 15-H ) :   0.9215 B(  4-O ,  5-C ) :   0.9167 B(  5-C ,  6-C ) :   0.9427
B(  5-C , 16-H ) :   0.9341 B(  5-C , 17-H ) :   0.9304 B(  6-C ,  7-C ) :   0.9047
B(  6-C , 18-H ) :   0.9170 B(  6-C , 19-H ) :   0.9123 B(  7-C ,  8-O ) :   0.9182
B(  7-C , 20-H ) :   0.9327

MP2 TOTAL ENERGY:     -423.537991506 Eh
FINAL SINGLE POINT ENERGY      -423.537991506093

DIPOLE MOMENT
-------------
                                X             Y             Z
Electronic contribution:      1.18899      -1.50279      -1.49498
Nuclear contribution   :     -1.43123       1.74681       1.53975
                        -----------------------------------------
Total Dipole Moment    :     -0.24225       0.24402       0.04477
                        -----------------------------------------
Magnitude (a.u.)       :      0.34675
Magnitude (Debye)      :      0.88136

                             ****ORCA TERMINATED NORMALLY****
TOTAL RUN TIME: 0 days 0 hours 20 minutes 46 seconds 838 msec
