                         Program Version 3.0.3 - RELEASE   -
|  1> ! RI-MP2 RIJK def2-TZVP def2-TZVP/C def2-TZVP/JK TIGHTSCF
|  2> % maxcore 2000
|  3> % mp2 density relaxed end
|  4> *xyz 0 1
|  5>  N       -0.0005999492    -3.7784539277    -0.1287068960
|  6>  C        0.0044392466    -2.6169683901    -0.0882768349
|  7>  C        0.0102730844    -1.2534942757    -0.0398677266
|  8>  C        0.0137072560    -0.0442191351     0.0007561053
|  9>  C        0.0303293965     1.4009903130     0.0694869876
| 10>  C       -0.2120289313     2.0919456795     1.4707036716
| 11>  C        1.1398989952     2.7981113003     1.3321641872
| 12>  C        2.2396973709     1.7855931217     1.1912376167
| 13>  C        1.3999046072     2.1126991871    -0.0093347977
| 14>  H       -0.6672546107     1.8047750658    -0.6699616592
| 15>  H       -1.0720142114     2.7622272022     1.4332219272
| 16>  H       -0.3198993461     1.4178623371     2.3244688121
| 17>  H        1.3341145153     3.8252047737     1.6132457343
| 18>  H        3.2458475099     2.1903692503     1.1640668357
| 19>  H        2.1632655025     0.8128598697     1.6711071397
| 20>  H        1.8201028242     2.5086072283    -0.9249904430
| 21> *
| 22>
| 23>                          ****END OF INPUT****

CARTESIAN COORDINATES (ANGSTROEM)
---------------------------------
  N     -0.000600   -3.778454   -0.128707
  C      0.004439   -2.616968   -0.088277
  C      0.010273   -1.253494   -0.039868
  C      0.013707   -0.044219    0.000756
  C      0.030329    1.400990    0.069487
  C     -0.212029    2.091946    1.470704
  C      1.139899    2.798111    1.332164
  C      2.239697    1.785593    1.191238
  C      1.399905    2.112699   -0.009335
  H     -0.667255    1.804775   -0.669962
  H     -1.072014    2.762227    1.433222
  H     -0.319899    1.417862    2.324469
  H      1.334115    3.825205    1.613246
  H      3.245848    2.190369    1.164067
  H      2.163266    0.812860    1.671107
  H      1.820103    2.508607   -0.924990

 Total Charge           Charge          ....    0
 Multiplicity           Mult            ....    1
 Number of Electrons    NEL             ....   62
 Basis Dimension        Dim             ....  321

ORBITAL ENERGIES
----------------

  NO   OCC          E(Eh)            E(eV)
   0   2.0000     -15.587156      -424.1481
   1   2.0000     -11.296020      -307.3803
   2   2.0000     -11.287726      -307.1546
   3   2.0000     -11.284958      -307.0793
   4   2.0000     -11.270182      -306.6772
   5   2.0000     -11.260568      -306.4156
   6   2.0000     -11.257481      -306.3316
   7   2.0000     -11.255246      -306.2708
   8   2.0000     -11.246362      -306.0291
   9   2.0000      -1.228119       -33.4188
  10   2.0000      -1.218890       -33.1677
  11   2.0000      -1.092328       -29.7238
  12   2.0000      -1.018455       -27.7136
  13   2.0000      -0.943108       -25.6633
  14   2.0000      -0.874189       -23.7879
  15   2.0000      -0.825567       -22.4648
  16   2.0000      -0.771698       -20.9990
  17   2.0000      -0.718549       -19.5527
  18   2.0000      -0.677924       -18.4473
  19   2.0000      -0.631954       -17.1963
  20   2.0000      -0.577507       -15.7148
  21   2.0000      -0.572973       -15.5914
  22   2.0000      -0.567002       -15.4289
  23   2.0000      -0.539704       -14.6861
  24   2.0000      -0.530893       -14.4463
  25   2.0000      -0.505704       -13.7609
  26   2.0000      -0.504068       -13.7164
  27   2.0000      -0.437620       -11.9083
  28   2.0000      -0.412568       -11.2265
  29   2.0000      -0.392380       -10.6772
  30   2.0000      -0.392039       -10.6679
  31   0.0000       0.096649         2.6300
  32   0.0000       0.100605         2.7376
  33   0.0000       0.131418         3.5761
  34   0.0000       0.148015         4.0277
  35   0.0000       0.154536         4.2051

MULLIKEN ATOMIC CHARGES
-----------------------
   0 N :   -0.039373
   1 C :   -0.223341
   2 C :    0.257123
   3 C :   -0.112594
   4 C :   -0.135006
   5 C :   -0.218760
   6 C :   -0.115520
   7 C :   -0.278153
   8 C :   -0.107430
   9 H :    0.143075
  10 H :    0.131645
  11 H :    0.134319
  12 H :    0.138712
  13 H :    0.139055
  14 H :    0.144848
  15 H :    0.141400
Sum of atomic charges:    0.0000000

LOEWDIN ATOMIC CHARGES
----------------------
   0 N :    0.093367
   1 C :   -0.180609
   2 C :   -0.056822
   3 C :    0.023870
   4 C :   -0.187706
   5 C :   -0.167729
   6 C :   -0.180823
   7 C :   -0.199086
   8 C :   -0.148615
   9 H :    0.174252
  10 H :    0.138400
  11 H :    0.135552
  12 H :    0.136742
  13 H :    0.143706
  14 H :    0.137196
  15 H :    0.138304

  Mayer bond orders larger than 0.1
B(  0-N ,  1-C ) :   2.7703 B(  0-N ,  3-C ) :   0.1117 B(  1-C ,  2-C ) :   0.9722
B(  2-C ,  3-C ) :   2.5141 B(  2-C ,  4-C ) :  -0.1069 B(  3-C ,  4-C ) :   1.0594
B(  4-C ,  5-C ) :   0.9287 B(  4-C ,  8-C ) :   0.8951 B(  4-C ,  9-H ) :   0.9120
B(  5-C ,  6-C ) :   0.9405 B(  5-C , 10-H ) :   0.9298 B(  5-C , 11-H ) :   0.9227
B(  6-C ,  7-C ) :   0.8871 B(  6-C ,  8-C ) :   0.8419 B(  6-C , 12-H ) :   0.9259
B(  7-C ,  8-C ) :   0.8964 B(  7-C , 13-H ) :   0.9310 B(  7-C , 14-H ) :   0.9197
B(  8-C , 15-H ) :   0.9210

MP2 TOTAL ENERGY:     -362.892056805 Eh
FINAL SINGLE POINT ENERGY      -362.892056804889

DIPOLE MOMENT
-------------
                                X             Y             Z
Electronic contribution:     -2.49265     -10.08606      -3.11079
Nuclear contribution   :      2.61719      12.22833       3.28276
                        -----------------------------------------
Total Dipole Moment    :      0.12454       2.14228       0.17197
                        -----------------------------------------
Magnitude (a.u.)       :      2.15277
Magnitude (Debye)      :      5.47191

                             ****ORCA TERMINATED NORMALLY****
TOTAL RUN TIME: 0 days 0 hours 14 minutes 18 seconds 298 msec
