                         Program Version 3.0.3 - RELEASE   -
|  1> ! RI-MP2 RIJK def2-TZVP def2-TZVP/C def2-TZVP/JK TIGHTSCF
|  2> % maxcore 2000
|  3> % mp2 density relaxed end
|  4> *xyz 0 1
|  5>  O        0.0193855271    -0.0273637585     0.4782946996
|  6>  C       -0.0199087611     1.1551791905     0.1950304158
|  7>  C       -1.3390349896     1.8646957379    -0.0762574044
|  8>  C       -1.2438446148     3.3179623793    -0.4135738095
|  9>  C       -0.0863045917     3.9874967070    -0.4817425066
| 10>  C        1.2422460857     3.3191321460    -0.2191323857
| 11>  N        1.1114866135     1.9117099580     0.1042761745
| 12>  C       -0.0182182011     5.3708359745    -0.8045774726
| 13>  C        0.0981515371     6.5394528020    -1.0727054795
| 14>  H       -1.8418259939     1.3099071805    -0.8794724620
| 15>  H       -1.9734701590     1.7099035249     0.8065123476
| 16>  H       -2.1716659768     3.8463542584    -0.6115829427
| 17>  H        1.8828192449     3.4457168561    -1.1040504696
| 18>  H        1.7492542297     3.8497323784     0.5999266548
| 19>  H        1.9584419469     1.3947202748     0.2929353663
| 20>  H        0.1791347631     7.5711144503    -1.3111208758
| 21> *
| 22>
| 23>                          ****END OF INPUT****

CARTESIAN COORDINATES (ANGSTROEM)
---------------------------------
  O      0.019386   -0.027364    0.478295
  C     -0.019909    1.155179    0.195030
  C     -1.339035    1.864696   -0.076257
  C     -1.243845    3.317962   -0.413574
  C     -0.086305    3.987497   -0.481743
  C      1.242246    3.319132   -0.219132
  N      1.111487    1.911710    0.104276
  C     -0.018218    5.370836   -0.804577
  C      0.098152    6.539453   -1.072705
  H     -1.841826    1.309907   -0.879472
  H     -1.973470    1.709904    0.806512
  H     -2.171666    3.846354   -0.611583
  H      1.882819    3.445717   -1.104050
  H      1.749254    3.849732    0.599927
  H      1.958442    1.394720    0.292935
  H      0.179135    7.571114   -1.311121

 Total Charge           Charge          ....    0
 Multiplicity           Mult            ....    1
 Number of Electrons    NEL             ....   64
 Basis Dimension        Dim             ....  321

ORBITAL ENERGIES
----------------

  NO   OCC          E(Eh)            E(eV)
   0   2.0000     -20.513918      -558.2121
   1   2.0000     -15.590392      -424.2361
   2   2.0000     -11.354326      -308.9669
   3   2.0000     -11.293956      -307.3242
   4   2.0000     -11.276217      -306.8415
   5   2.0000     -11.264058      -306.5106
   6   2.0000     -11.254935      -306.2624
   7   2.0000     -11.250094      -306.1306
   8   2.0000     -11.241563      -305.8985
   9   2.0000      -1.382797       -37.6278
  10   2.0000      -1.246410       -33.9165
  11   2.0000      -1.127208       -30.6729
  12   2.0000      -1.056722       -28.7549
  13   2.0000      -1.009359       -27.4660
  14   2.0000      -0.928830       -25.2747
  15   2.0000      -0.848368       -23.0853
  16   2.0000      -0.783361       -21.3163
  17   2.0000      -0.713642       -19.4192
  18   2.0000      -0.698657       -19.0114
  19   2.0000      -0.669960       -18.2305
  20   2.0000      -0.660016       -17.9599
  21   2.0000      -0.649384       -17.6706
  22   2.0000      -0.605848       -16.4860
  23   2.0000      -0.591046       -16.0832
  24   2.0000      -0.564604       -15.3637
  25   2.0000      -0.537976       -14.6391
  26   2.0000      -0.533194       -14.5089
  27   2.0000      -0.460038       -12.5183
  28   2.0000      -0.422225       -11.4893
  29   2.0000      -0.409164       -11.1339
  30   2.0000      -0.394967       -10.7476
  31   2.0000      -0.346582        -9.4310
  32   0.0000       0.101588         2.7644
  33   0.0000       0.124939         3.3998
  34   0.0000       0.150346         4.0911
  35   0.0000       0.156753         4.2655
  36   0.0000       0.169538         4.6134

MULLIKEN ATOMIC CHARGES
-----------------------
   0 O :   -0.351087
   1 C :    0.171105
   2 C :   -0.122423
   3 C :   -0.234102
   4 C :   -0.133545
   5 C :   -0.103898
   6 N :   -0.304110
   7 C :    0.036408
   8 C :   -0.107837
   9 H :    0.149121
  10 H :    0.149119
  11 H :    0.140689
  12 H :    0.137000
  13 H :    0.136997
  14 H :    0.240015
  15 H :    0.196547
Sum of atomic charges:    0.0000000

LOEWDIN ATOMIC CHARGES
----------------------
   0 O :    0.075504
   1 C :   -0.452615
   2 C :   -0.211637
   3 C :   -0.099840
   4 C :   -0.169996
   5 C :   -0.221218
   6 N :    0.124939
   7 C :   -0.071352
   8 C :   -0.072621
   9 H :    0.164857
  10 H :    0.164859
  11 H :    0.154138
  12 H :    0.146116
  13 H :    0.146114
  14 H :    0.193429
  15 H :    0.129325

  Mayer bond orders larger than 0.1
B(  0-O ,  1-C ) :   2.0027 B(  1-C ,  2-C ) :   0.9257 B(  1-C ,  6-N ) :   1.1895
B(  2-C ,  3-C ) :   0.8989 B(  2-C ,  9-H ) :   0.9007 B(  2-C , 10-H ) :   0.9006
B(  3-C ,  4-C ) :   1.6903 B(  3-C , 11-H ) :   0.9224 B(  4-C ,  5-C ) :   0.9836
B(  4-C ,  7-C ) :   1.1323 B(  4-C ,  8-C ) :  -0.1522 B(  5-C ,  6-N ) :   0.9123
B(  5-C , 12-H ) :   0.9159 B(  5-C , 13-H ) :   0.9159 B(  6-N , 14-H ) :   0.8607
B(  7-C ,  8-C ) :   2.5742 B(  8-C , 15-H ) :   0.8815

MP2 TOTAL ENERGY:     -400.057348270 Eh
FINAL SINGLE POINT ENERGY      -400.057348270076

DIPOLE MOMENT
-------------
                                X             Y             Z
Electronic contribution:      0.42573      -1.03752       0.27887
Nuclear contribution   :     -0.15623       2.31640      -0.56086
                        -----------------------------------------
Total Dipole Moment    :      0.26950       1.27888      -0.28200
                        -----------------------------------------
Magnitude (a.u.)       :      1.33704
Magnitude (Debye)      :      3.39850

                             ****ORCA TERMINATED NORMALLY****
TOTAL RUN TIME: 0 days 0 hours 15 minutes 16 seconds 910 msec
