                         Program Version 3.0.3 - RELEASE   -
|  1> ! RI-MP2 RIJK def2-TZVP def2-TZVP/C def2-TZVP/JK TIGHTSCF
|  2> % maxcore 2000
|  3> % mp2 density relaxed end
|  4> *xyz 0 1
|  5>  C        0.1088182424     1.5198047735     0.1472774475
|  6>  C       -0.0039870747     0.0028047663    -0.0278071753
|  7>  C       -1.4614665507    -0.5119067463    -0.0119449340
|  8>  C       -2.1627985455    -0.0437871457    -1.2731073786
|  9>  O       -3.0861765961     0.7270440688    -1.3150869547
| 10>  C       -1.5185436439    -2.0505954784     0.0842875274
| 11>  O       -0.7908300686    -2.5443406779     1.2127794107
| 12>  C       -2.9445509115    -2.6065345202     0.1370651550
| 13>  O       -2.9327033187    -4.0113088734     0.2487711240
| 14>  H        1.1552815300     1.8368456096     0.1150199069
| 15>  H       -0.4301984483     2.0616248129    -0.6364333188
| 16>  H       -0.3074832944     1.8378594704     1.1091284998
| 17>  H        0.4676843095    -0.3024197198    -0.9719187883
| 18>  H        0.5434675995    -0.5163508810     0.7639470501
| 19>  H       -2.0022237374    -0.0760195770     0.8388876099
| 20>  H       -1.7259333335    -0.4662256163    -2.2104311053
| 21>  H       -1.0067425402    -2.4924949210    -0.7795699159
| 22>  H       -1.1561035884    -2.1263183297     2.0027446122
| 23>  H       -3.4815545136    -2.1334129117     0.9805126637
| 24>  H       -3.4956060595    -2.3535313122    -0.7755356499
| 25>  H       -2.2293156763    -4.2158771109     0.8783498237
| 26> *
| 27>
| 28>                          ****END OF INPUT****

CARTESIAN COORDINATES (ANGSTROEM)
---------------------------------
  C      0.108818    1.519805    0.147277
  C     -0.003987    0.002805   -0.027807
  C     -1.461467   -0.511907   -0.011945
  C     -2.162799   -0.043787   -1.273107
  O     -3.086177    0.727044   -1.315087
  C     -1.518544   -2.050595    0.084288
  O     -0.790830   -2.544341    1.212779
  C     -2.944551   -2.606535    0.137065
  O     -2.932703   -4.011309    0.248771
  H      1.155282    1.836846    0.115020
  H     -0.430198    2.061625   -0.636433
  H     -0.307483    1.837859    1.109128
  H      0.467684   -0.302420   -0.971919
  H      0.543468   -0.516351    0.763947
  H     -2.002224   -0.076020    0.838888
  H     -1.725933   -0.466226   -2.210431
  H     -1.006743   -2.492495   -0.779570
  H     -1.156104   -2.126318    2.002745
  H     -3.481555   -2.133413    0.980513
  H     -3.495606   -2.353531   -0.775536
  H     -2.229316   -4.215877    0.878350

 Total Charge           Charge          ....    0
 Multiplicity           Mult            ....    1
 Number of Electrons    NEL             ....   72
 Basis Dimension        Dim             ....  351

ORBITAL ENERGIES
----------------

  NO   OCC          E(Eh)            E(eV)
   0   2.0000     -20.584720      -560.1387
   1   2.0000     -20.567658      -559.6744
   2   2.0000     -20.559170      -559.4435
   3   2.0000     -11.341406      -308.6153
   4   2.0000     -11.305163      -307.6291
   5   2.0000     -11.286927      -307.1329
   6   2.0000     -11.257336      -306.3277
   7   2.0000     -11.244576      -305.9805
   8   2.0000     -11.227739      -305.5223
   9   2.0000      -1.406781       -38.2805
  10   2.0000      -1.396806       -38.0090
  11   2.0000      -1.360173       -37.0122
  12   2.0000      -1.112220       -30.2650
  13   2.0000      -1.024302       -27.8727
  14   2.0000      -0.951834       -25.9007
  15   2.0000      -0.861053       -23.4305
  16   2.0000      -0.848498       -23.0888
  17   2.0000      -0.802882       -21.8475
  18   2.0000      -0.714515       -19.4430
  19   2.0000      -0.696961       -18.9653
  20   2.0000      -0.677193       -18.4273
  21   2.0000      -0.659597       -17.9486
  22   2.0000      -0.637231       -17.3399
  23   2.0000      -0.628805       -17.1107
  24   2.0000      -0.603717       -16.4280
  25   2.0000      -0.592851       -16.1323
  26   2.0000      -0.571773       -15.5587
  27   2.0000      -0.546188       -14.8625
  28   2.0000      -0.537681       -14.6310
  29   2.0000      -0.527370       -14.3505
  30   2.0000      -0.514803       -14.0085
  31   2.0000      -0.501217       -13.6388
  32   2.0000      -0.492997       -13.4151
  33   2.0000      -0.470605       -12.8058
  34   2.0000      -0.438760       -11.9393
  35   2.0000      -0.424207       -11.5432
  36   0.0000       0.114523         3.1163
  37   0.0000       0.125051         3.4028
  38   0.0000       0.139616         3.7992
  39   0.0000       0.149640         4.0719
  40   0.0000       0.173434         4.7194

MULLIKEN ATOMIC CHARGES
-----------------------
   0 C :   -0.396956
   1 C :   -0.200312
   2 C :   -0.056033
   3 C :    0.035202
   4 O :   -0.249835
   5 C :    0.012175
   6 O :   -0.482647
   7 C :    0.008106
   8 O :   -0.468804
   9 H :    0.140559
  10 H :    0.140147
  11 H :    0.126740
  12 H :    0.113896
  13 H :    0.137187
  14 H :    0.086443
  15 H :    0.083365
  16 H :    0.106455
  17 H :    0.322514
  18 H :    0.092055
  19 H :    0.122289
  20 H :    0.327453
Sum of atomic charges:   -0.0000000

LOEWDIN ATOMIC CHARGES
----------------------
   0 C :   -0.312505
   1 C :   -0.263799
   2 C :   -0.248887
   3 C :   -0.276988
   4 O :    0.141784
   5 C :   -0.333066
   6 O :   -0.020006
   7 C :   -0.340800
   8 O :   -0.041450
   9 H :    0.124202
  10 H :    0.124985
  11 H :    0.123210
  12 H :    0.141224
  13 H :    0.144070
  14 H :    0.159189
  15 H :    0.116359
  16 H :    0.151820
  17 H :    0.179124
  18 H :    0.119529
  19 H :    0.135258
  20 H :    0.176745

  Mayer bond orders larger than 0.1
B(  0-C ,  1-C ) :   0.9229 B(  0-C ,  9-H ) :   0.9411 B(  0-C , 10-H ) :   0.9338
B(  0-C , 11-H ) :   0.9370 B(  1-C ,  2-C ) :   0.8952 B(  1-C , 12-H ) :   0.9174
B(  1-C , 13-H ) :   0.9273 B(  2-C ,  3-C ) :   0.8424 B(  2-C ,  5-C ) :   0.9228
B(  2-C , 14-H ) :   0.8952 B(  3-C ,  4-O ) :   1.9977 B(  3-C , 15-H ) :   0.9332
B(  5-C ,  6-O ) :   0.8669 B(  5-C ,  7-C ) :   0.9682 B(  5-C , 16-H ) :   0.9053
B(  6-O , 17-H ) :   0.8349 B(  7-C ,  8-O ) :   0.9458 B(  7-C , 18-H ) :   0.8938
B(  7-C , 19-H ) :   0.9243 B(  8-O , 20-H ) :   0.8246

MP2 TOTAL ENERGY:     -460.638564736 Eh
FINAL SINGLE POINT ENERGY      -460.638564735694

DIPOLE MOMENT
-------------
                                X             Y             Z
Electronic contribution:     -4.91656      -3.78421      -1.31028
Nuclear contribution   :      5.77110       4.05747       1.89177
                        -----------------------------------------
Total Dipole Moment    :      0.85454       0.27326       0.58149
                        -----------------------------------------
Magnitude (a.u.)       :      1.06913
Magnitude (Debye)      :      2.71752

                             ****ORCA TERMINATED NORMALLY****
TOTAL RUN TIME: 0 days 0 hours 17 minutes 47 seconds 96 msec
