                         Program Version 3.0.3 - RELEASE   -
|  1> ! RI-MP2 RIJK def2-TZVP def2-TZVP/C def2-TZVP/JK TIGHTSCF
|  2> % maxcore 2000
|  3> % mp2 density relaxed end
|  4> *xyz 0 1
|  5>  O        0.0334435744     0.0051597706     0.2824897054
|  6>  C       -0.0097877102     1.1963066759     0.0929485403
|  7>  C       -1.3201730369     1.9648599142    -0.0360680451
|  8>  C       -1.2734197487     3.1001262326    -1.0722362037
|  9>  C       -0.0725344399     4.0219787290    -0.8289355817
| 10>  C        1.2406732623     3.2319859716    -0.9069701020
| 11>  C        1.2501782241     2.0476296342     0.0435139769
| 12>  C        2.0743149130     2.0545633715     1.2747881653
| 13>  O        2.4739765108     1.3273193430     0.1227250151
| 14>  H       -2.1156910866     1.2426686349    -0.2363904994
| 15>  H       -1.5221541418     2.3972404460     0.9556926282
| 16>  H       -1.2052323047     2.6726507211    -2.0810402361
| 17>  H       -2.2097083040     3.6665940920    -1.0370875084
| 18>  H       -0.0587778504     4.8334427756    -1.5637825375
| 19>  H       -0.1650675106     4.4932844010     0.1587549662
| 20>  H        1.3704394839     2.8466291801    -1.9272232019
| 21>  H        2.1062606574     3.8694982397    -0.7012475760
| 22>  H        2.6622050024     2.9422684638     1.5084596850
| 23>  H        1.7719131352     1.4451749232     2.1251436094
| 24> *
| 25>
| 26>                          ****END OF INPUT****

CARTESIAN COORDINATES (ANGSTROEM)
---------------------------------
  O      0.033444    0.005160    0.282490
  C     -0.009788    1.196307    0.092949
  C     -1.320173    1.964860   -0.036068
  C     -1.273420    3.100126   -1.072236
  C     -0.072534    4.021979   -0.828936
  C      1.240673    3.231986   -0.906970
  C      1.250178    2.047630    0.043514
  C      2.074315    2.054563    1.274788
  O      2.473977    1.327319    0.122725
  H     -2.115691    1.242669   -0.236390
  H     -1.522154    2.397240    0.955693
  H     -1.205232    2.672651   -2.081040
  H     -2.209708    3.666594   -1.037088
  H     -0.058778    4.833443   -1.563783
  H     -0.165068    4.493284    0.158755
  H      1.370439    2.846629   -1.927223
  H      2.106261    3.869498   -0.701248
  H      2.662205    2.942268    1.508460
  H      1.771913    1.445175    2.125144

 Total Charge           Charge          ....    0
 Multiplicity           Mult            ....    1
 Number of Electrons    NEL             ....   68
 Basis Dimension        Dim             ....  339

ORBITAL ENERGIES
----------------

  NO   OCC          E(Eh)            E(eV)
   0   2.0000     -20.577336      -559.9378
   1   2.0000     -20.547263      -559.1194
   2   2.0000     -11.332506      -308.3732
   3   2.0000     -11.302486      -307.5563
   4   2.0000     -11.296058      -307.3814
   5   2.0000     -11.244215      -305.9707
   6   2.0000     -11.243654      -305.9554
   7   2.0000     -11.243339      -305.9468
   8   2.0000     -11.241667      -305.9013
   9   2.0000      -1.430928       -38.9375
  10   2.0000      -1.385577       -37.7035
  11   2.0000      -1.122802       -30.5530
  12   2.0000      -1.022362       -27.8199
  13   2.0000      -0.982830       -26.7442
  14   2.0000      -0.912989       -24.8437
  15   2.0000      -0.855127       -23.2692
  16   2.0000      -0.828196       -22.5363
  17   2.0000      -0.735196       -20.0057
  18   2.0000      -0.689418       -18.7600
  19   2.0000      -0.678213       -18.4551
  20   2.0000      -0.649937       -17.6857
  21   2.0000      -0.619960       -16.8700
  22   2.0000      -0.607874       -16.5411
  23   2.0000      -0.594981       -16.1903
  24   2.0000      -0.586972       -15.9723
  25   2.0000      -0.560936       -15.2638
  26   2.0000      -0.553949       -15.0737
  27   2.0000      -0.505912       -13.7666
  28   2.0000      -0.501689       -13.6517
  29   2.0000      -0.489286       -13.3141
  30   2.0000      -0.485881       -13.2215
  31   2.0000      -0.454664       -12.3720
  32   2.0000      -0.437207       -11.8970
  33   2.0000      -0.403914       -10.9911
  34   0.0000       0.113714         3.0943
  35   0.0000       0.137554         3.7430
  36   0.0000       0.149095         4.0571
  37   0.0000       0.155056         4.2193
  38   0.0000       0.172521         4.6945

MULLIKEN ATOMIC CHARGES
-----------------------
   0 O :   -0.258554
   1 C :    0.089755
   2 C :   -0.205996
   3 C :   -0.232198
   4 C :   -0.232040
   5 C :   -0.228246
   6 C :    0.180544
   7 C :   -0.090529
   8 O :   -0.308087
   9 H :    0.146384
  10 H :    0.125393
  11 H :    0.123499
  12 H :    0.132793
  13 H :    0.133532
  14 H :    0.113924
  15 H :    0.128739
  16 H :    0.136177
  17 H :    0.115595
  18 H :    0.129313
Sum of atomic charges:    0.0000000

LOEWDIN ATOMIC CHARGES
----------------------
   0 O :    0.171286
   1 C :   -0.291841
   2 C :   -0.224135
   3 C :   -0.260021
   4 C :   -0.259231
   5 C :   -0.217824
   6 C :   -0.296723
   7 C :   -0.232655
   8 O :    0.199896
   9 H :    0.149146
  10 H :    0.156322
  11 H :    0.141724
  12 H :    0.139293
  13 H :    0.140100
  14 H :    0.139552
  15 H :    0.150480
  16 H :    0.146158
  17 H :    0.121488
  18 H :    0.126984

  Mayer bond orders larger than 0.1
B(  0-O ,  1-C ) :   2.0741 B(  1-C ,  2-C ) :   0.9280 B(  1-C ,  6-C ) :   0.8587
B(  2-C ,  3-C ) :   0.8942 B(  2-C ,  9-H ) :   0.9186 B(  2-C , 10-H ) :   0.9013
B(  3-C ,  4-C ) :   0.9139 B(  3-C , 11-H ) :   0.9317 B(  3-C , 12-H ) :   0.9274
B(  4-C ,  5-C ) :   0.9121 B(  4-C , 13-H ) :   0.9265 B(  4-C , 14-H ) :   0.9310
B(  5-C ,  6-C ) :   0.8857 B(  5-C , 15-H ) :   0.9291 B(  5-C , 16-H ) :   0.9305
B(  6-C ,  7-C ) :   0.9519 B(  6-C ,  8-O ) :   0.8784 B(  7-C ,  8-O ) :   0.9220
B(  7-C , 17-H ) :   0.9115 B(  7-C , 18-H ) :   0.8990

MP2 TOTAL ENERGY:     -422.332672538 Eh
FINAL SINGLE POINT ENERGY      -422.332672538016

DIPOLE MOMENT
-------------
                                X             Y             Z
Electronic contribution:      3.55997      -7.29826       1.70547
Nuclear contribution   :     -4.10119       8.88612      -1.60890
                        -----------------------------------------
Total Dipole Moment    :     -0.54122       1.58786       0.09657
                        -----------------------------------------
Magnitude (a.u.)       :      1.68034
Magnitude (Debye)      :      4.27110

                             ****ORCA TERMINATED NORMALLY****
TOTAL RUN TIME: 0 days 0 hours 17 minutes 58 seconds 131 msec
