                         Program Version 3.0.3 - RELEASE   -
|  1> ! RI-MP2 RIJK def2-TZVP def2-TZVP/C def2-TZVP/JK TIGHTSCF
|  2> % maxcore 2000
|  3> % mp2 density relaxed end
|  4> *xyz 0 1
|  5>  C       -0.0635080068     1.5610380660    -0.0936133787
|  6>  C       -0.0672421171     0.0351934778     0.0024569676
|  7>  C        0.7290813653    -0.5248900635     1.2101906844
|  8>  C        0.7090297482    -2.0671731152     1.1978634713
|  9>  O        2.0692253233    -0.0089033583     1.2436156947
| 10>  C        2.9379888519    -0.3992511375     0.2012253619
| 11>  C        0.1189341546    -0.0574382011     2.4641389239
| 12>  C       -0.4152864262     0.2942334343     3.4810387107
| 13>  H        0.9554460050     1.9484659568    -0.1748873343
| 14>  H       -0.6282088321     1.8934938278    -0.9697366122
| 15>  H       -0.5179361295     2.0084553293     0.7948531950
| 16>  H       -1.0942918221    -0.3374827691     0.0836716190
| 17>  H        0.3439593806    -0.4040827443    -0.9141549096
| 18>  H        1.0781462383    -2.4596828868     0.2462269595
| 19>  H        1.3279521452    -2.4573651362     2.0095500740
| 20>  H       -0.3132474601    -2.4265034064     1.3380610787
| 21>  H        3.1431251485    -1.4782033784     0.2009824807
| 22>  H        2.5685514668    -0.1146099797    -0.7937277466
| 23>  H        3.8781767723     0.1283065976     0.3807088589
| 24>  H       -0.8751368062     0.6129143069     4.3837757809
| 25> *
| 26>
| 27>                          ****END OF INPUT****

CARTESIAN COORDINATES (ANGSTROEM)
---------------------------------
  C     -0.063508    1.561038   -0.093613
  C     -0.067242    0.035193    0.002457
  C      0.729081   -0.524890    1.210191
  C      0.709030   -2.067173    1.197863
  O      2.069225   -0.008903    1.243616
  C      2.937989   -0.399251    0.201225
  C      0.118934   -0.057438    2.464139
  C     -0.415286    0.294233    3.481039
  H      0.955446    1.948466   -0.174887
  H     -0.628209    1.893494   -0.969737
  H     -0.517936    2.008455    0.794853
  H     -1.094292   -0.337483    0.083672
  H      0.343959   -0.404083   -0.914155
  H      1.078146   -2.459683    0.246227
  H      1.327952   -2.457365    2.009550
  H     -0.313247   -2.426503    1.338061
  H      3.143125   -1.478203    0.200982
  H      2.568551   -0.114610   -0.793728
  H      3.878177    0.128307    0.380709
  H     -0.875137    0.612914    4.383776

 Total Charge           Charge          ....    0
 Multiplicity           Mult            ....    1
 Number of Electrons    NEL             ....   62
 Basis Dimension        Dim             ....  320

ORBITAL ENERGIES
----------------

  NO   OCC          E(Eh)            E(eV)
   0   2.0000     -20.556448      -559.3694
   1   2.0000     -11.313911      -307.8672
   2   2.0000     -11.271915      -306.7244
   3   2.0000     -11.228734      -305.5494
   4   2.0000     -11.227298      -305.5103
   5   2.0000     -11.224134      -305.4242
   6   2.0000     -11.219434      -305.2963
   7   2.0000     -11.209480      -305.0254
   8   2.0000      -1.375635       -37.4329
   9   2.0000      -1.095347       -29.8059
  10   2.0000      -1.015546       -27.6344
  11   2.0000      -0.987625       -26.8746
  12   2.0000      -0.938655       -25.5421
  13   2.0000      -0.867421       -23.6037
  14   2.0000      -0.808863       -22.0103
  15   2.0000      -0.717649       -19.5282
  16   2.0000      -0.681586       -18.5469
  17   2.0000      -0.655650       -17.8411
  18   2.0000      -0.634798       -17.2737
  19   2.0000      -0.603167       -16.4130
  20   2.0000      -0.583237       -15.8707
  21   2.0000      -0.570551       -15.5255
  22   2.0000      -0.553343       -15.0572
  23   2.0000      -0.538725       -14.6594
  24   2.0000      -0.516246       -14.0478
  25   2.0000      -0.494778       -13.4636
  26   2.0000      -0.487462       -13.2645
  27   2.0000      -0.462640       -12.5891
  28   2.0000      -0.427469       -11.6320
  29   2.0000      -0.391648       -10.6573
  30   2.0000      -0.381519       -10.3816
  31   0.0000       0.133736         3.6391
  32   0.0000       0.155603         4.2342
  33   0.0000       0.161599         4.3973
  34   0.0000       0.172353         4.6900
  35   0.0000       0.179252         4.8777

MULLIKEN ATOMIC CHARGES
-----------------------
   0 C :   -0.409353
   1 C :   -0.249140
   2 C :    0.102293
   3 C :   -0.416892
   4 O :   -0.300813
   5 C :   -0.243709
   6 C :   -0.017732
   7 C :   -0.120480
   8 H :    0.135521
   9 H :    0.132039
  10 H :    0.142451
  11 H :    0.122488
  12 H :    0.119286
  13 H :    0.137103
  14 H :    0.149463
  15 H :    0.143550
  16 H :    0.122054
  17 H :    0.114720
  18 H :    0.148216
  19 H :    0.188937
Sum of atomic charges:   -0.0000000

LOEWDIN ATOMIC CHARGES
----------------------
   0 C :   -0.309873
   1 C :   -0.246250
   2 C :   -0.365574
   3 C :   -0.257058
   4 O :    0.180989
   5 C :   -0.357113
   6 C :   -0.058602
   7 C :   -0.087931
   8 H :    0.124975
   9 H :    0.121017
  10 H :    0.128510
  11 H :    0.147021
  12 H :    0.137398
  13 H :    0.124434
  14 H :    0.133428
  15 H :    0.134557
  16 H :    0.103672
  17 H :    0.102434
  18 H :    0.116923
  19 H :    0.127045

  Mayer bond orders larger than 0.1
B(  0-C ,  1-C ) :   0.9394 B(  0-C ,  8-H ) :   0.9356 B(  0-C ,  9-H ) :   0.9391
B(  0-C , 10-H ) :   0.9348 B(  1-C ,  2-C ) :   0.9139 B(  1-C , 11-H ) :   0.9207
B(  1-C , 12-H ) :   0.9246 B(  2-C ,  3-C ) :   0.9175 B(  2-C ,  4-O ) :   1.0408
B(  2-C ,  6-C ) :   1.1092 B(  2-C ,  7-C ) :  -0.1140 B(  3-C , 13-H ) :   0.9311
B(  3-C , 14-H ) :   0.9398 B(  3-C , 15-H ) :   0.9268 B(  4-O ,  5-C ) :   0.9096
B(  5-C , 16-H ) :   0.9342 B(  5-C , 17-H ) :   0.9297 B(  5-C , 18-H ) :   0.9407
B(  6-C ,  7-C ) :   2.6172 B(  7-C , 19-H ) :   0.8869

MP2 TOTAL ENERGY:     -348.349913553 Eh
FINAL SINGLE POINT ENERGY      -348.349913552768

DIPOLE MOMENT
-------------
                                X             Y             Z
Electronic contribution:     -0.30690       0.81659       6.19661
Nuclear contribution   :      0.19398      -1.17053      -6.68580
                        -----------------------------------------
Total Dipole Moment    :     -0.11292      -0.35394      -0.48919
                        -----------------------------------------
Magnitude (a.u.)       :      0.61428
Magnitude (Debye)      :      1.56137

                             ****ORCA TERMINATED NORMALLY****
TOTAL RUN TIME: 0 days 0 hours 15 minutes 22 seconds 473 msec
