                         Program Version 3.0.3 - RELEASE   -
|  1> ! RI-MP2 RIJK def2-TZVP def2-TZVP/C def2-TZVP/JK TIGHTSCF
|  2> % maxcore 2000
|  3> % mp2 density relaxed end
|  4> *xyz 0 1
|  5>  C       -0.6837192817     1.1290354238     0.1085359433
|  6>  C        0.1919089382    -0.0958149258    -0.1345223029
|  7>  C        1.3417496026     0.0930298797    -1.1536043732
|  8>  C        2.3909162248    -0.8756541352    -0.6715729029
|  9>  C        2.1424598330    -1.3113091437     0.5612076197
| 10>  C        0.8983761840    -0.6553939625     1.1432047817
| 11>  O        1.2588604268     0.4616398958     1.9734787261
| 12>  C        0.0538897444    -1.5819561991     1.9027540766
| 13>  C       -0.6171307324    -2.3423286444     2.5495972951
| 14>  H       -0.0955550518     1.9612448357     0.5016868266
| 15>  H       -1.1563479861     1.4485214007    -0.8261739591
| 16>  H       -1.4771755161     0.9077540456     0.8289333867
| 17>  H       -0.4339526337    -0.9148193531    -0.5042983132
| 18>  H        1.0149164287    -0.1026262058    -2.1810104278
| 19>  H        1.7292923971     1.1212452873    -1.1384515969
| 20>  H        3.2585086401    -1.1470141381    -1.2635623744
| 21>  H        2.7537378087    -1.9904908264     1.1441909813
| 22>  H        1.6451398783     0.1097366651     2.7825867005
| 23>  H       -1.2169871549    -3.0129308796     3.1139502330
| 24> *
| 25>
| 26>                          ****END OF INPUT****

CARTESIAN COORDINATES (ANGSTROEM)
---------------------------------
  C     -0.683719    1.129035    0.108536
  C      0.191909   -0.095815   -0.134522
  C      1.341750    0.093030   -1.153604
  C      2.390916   -0.875654   -0.671573
  C      2.142460   -1.311309    0.561208
  C      0.898376   -0.655394    1.143205
  O      1.258860    0.461640    1.973479
  C      0.053890   -1.581956    1.902754
  C     -0.617131   -2.342329    2.549597
  H     -0.095555    1.961245    0.501687
  H     -1.156348    1.448521   -0.826174
  H     -1.477176    0.907754    0.828933
  H     -0.433953   -0.914819   -0.504298
  H      1.014916   -0.102626   -2.181010
  H      1.729292    1.121245   -1.138452
  H      3.258509   -1.147014   -1.263562
  H      2.753738   -1.990491    1.144191
  H      1.645140    0.109737    2.782587
  H     -1.216987   -3.012931    3.113950

 Total Charge           Charge          ....    0
 Multiplicity           Mult            ....    1
 Number of Electrons    NEL             ....   66
 Basis Dimension        Dim             ....  339

ORBITAL ENERGIES
----------------

  NO   OCC          E(Eh)            E(eV)
   0   2.0000     -20.560196      -559.4714
   1   2.0000     -11.314201      -307.8751
   2   2.0000     -11.236349      -305.7566
   3   2.0000     -11.235689      -305.7386
   4   2.0000     -11.234461      -305.7052
   5   2.0000     -11.229540      -305.5713
   6   2.0000     -11.228465      -305.5421
   7   2.0000     -11.227568      -305.5177
   8   2.0000     -11.207062      -304.9597
   9   2.0000      -1.368481       -37.2383
  10   2.0000      -1.141192       -31.0534
  11   2.0000      -1.042145       -28.3582
  12   2.0000      -1.017228       -27.6802
  13   2.0000      -0.953661       -25.9504
  14   2.0000      -0.900863       -24.5137
  15   2.0000      -0.788669       -21.4608
  16   2.0000      -0.757569       -20.6145
  17   2.0000      -0.743231       -20.2243
  18   2.0000      -0.697167       -18.9709
  19   2.0000      -0.670155       -18.2358
  20   2.0000      -0.610426       -16.6105
  21   2.0000      -0.596819       -16.2403
  22   2.0000      -0.586011       -15.9462
  23   2.0000      -0.560170       -15.2430
  24   2.0000      -0.543318       -14.7844
  25   2.0000      -0.523030       -14.2324
  26   2.0000      -0.488913       -13.3040
  27   2.0000      -0.480043       -13.0626
  28   2.0000      -0.466805       -12.7024
  29   2.0000      -0.461866       -12.5680
  30   2.0000      -0.400875       -10.9084
  31   2.0000      -0.388643       -10.5755
  32   2.0000      -0.359893        -9.7932
  33   0.0000       0.123814         3.3691
  34   0.0000       0.143808         3.9132
  35   0.0000       0.157113         4.2753
  36   0.0000       0.167422         4.5558
  37   0.0000       0.172167         4.6849

MULLIKEN ATOMIC CHARGES
-----------------------
   0 C :   -0.430646
   1 C :   -0.099836
   2 C :   -0.187932
   3 C :   -0.133114
   4 C :   -0.259042
   5 C :    0.358203
   6 O :   -0.472224
   7 C :   -0.152510
   8 C :   -0.160510
   9 H :    0.145287
  10 H :    0.130386
  11 H :    0.137219
  12 H :    0.111648
  13 H :    0.125801
  14 H :    0.118524
  15 H :    0.130809
  16 H :    0.128453
  17 H :    0.316119
  18 H :    0.193364
Sum of atomic charges:   -0.0000000

LOEWDIN ATOMIC CHARGES
----------------------
   0 C :   -0.290098
   1 C :   -0.203251
   2 C :   -0.214030
   3 C :   -0.137223
   4 C :   -0.115860
   5 C :   -0.323783
   6 O :    0.023052
   7 C :   -0.069581
   8 C :   -0.087931
   9 H :    0.128708
  10 H :    0.124043
  11 H :    0.128570
  12 H :    0.164912
  13 H :    0.139431
  14 H :    0.148163
  15 H :    0.138142
  16 H :    0.140648
  17 H :    0.178289
  18 H :    0.127797

  Mayer bond orders larger than 0.1
B(  0-C ,  1-C ) :   0.9300 B(  0-C ,  9-H ) :   0.9303 B(  0-C , 10-H ) :   0.9366
B(  0-C , 11-H ) :   0.9359 B(  1-C ,  2-C ) :   0.9613 B(  1-C ,  5-C ) :   0.8132
B(  1-C , 12-H ) :   0.9354 B(  2-C ,  3-C ) :   0.9461 B(  2-C , 13-H ) :   0.9239
B(  2-C , 14-H ) :   0.8942 B(  3-C ,  4-C ) :   1.7944 B(  3-C , 15-H ) :   0.9289
B(  4-C ,  5-C ) :   0.9024 B(  4-C , 16-H ) :   0.9177 B(  5-C ,  6-O ) :   0.7776
B(  5-C ,  7-C ) :   1.2113 B(  6-O ,  7-C ) :   0.1192 B(  6-O , 17-H ) :   0.8374
B(  7-C ,  8-C ) :   2.5590 B(  8-C , 18-H ) :   0.8824

MP2 TOTAL ENERGY:     -385.182743790 Eh
FINAL SINGLE POINT ENERGY      -385.182743789634

DIPOLE MOMENT
-------------
                                X             Y             Z
Electronic contribution:      1.78005      -3.63447       4.21051
Nuclear contribution   :     -1.63096       3.25582      -4.26164
                        -----------------------------------------
Total Dipole Moment    :      0.14909      -0.37865      -0.05114
                        -----------------------------------------
Magnitude (a.u.)       :      0.41015
Magnitude (Debye)      :      1.04251

                             ****ORCA TERMINATED NORMALLY****
TOTAL RUN TIME: 0 days 0 hours 19 minutes 35 seconds 985 msec
