                         Program Version 3.0.3 - RELEASE   -
|  1> ! RI-MP2 RIJK def2-TZVP def2-TZVP/C def2-TZVP/JK TIGHTSCF
|  2> % maxcore 2000
|  3> % mp2 density relaxed end
|  4> *xyz 0 1
|  5>  C       -0.0924527013     1.5082545140     0.0914305928
|  6>  C        0.0080757252     0.0017142062     0.0458106813
|  7>  C        0.8962014653    -0.7401364060    -0.9962696280
|  8>  C        0.8389300683    -1.8891882554     0.0163035548
|  9>  C       -0.6740172576    -2.1432681211     0.4342648525
| 10>  C       -0.2890455978    -1.7558544490     1.8846528517
| 11>  C        0.7499900794    -0.8564261950     1.1930423422
| 12>  C        1.9321022594    -0.2512938894     1.9069434645
| 13>  C       -1.2947772334    -0.8245651483    -0.0671467216
| 14>  H        0.8917722595     1.9786824977     0.1905118724
| 15>  H       -0.5527834793     1.8969168957    -0.8249845238
| 16>  H       -0.7087330593     1.8419247048     0.9346014366
| 17>  H        0.4905130325    -0.8776156665    -2.0046079071
| 18>  H        1.9052164658    -0.3220930028    -1.0662099076
| 19>  H        1.5206527779    -2.7398326446     0.0219364304
| 20>  H       -1.1870249249    -3.0773515548     0.2067667212
| 21>  H       -1.0635493831    -1.3138208567     2.5223458090
| 22>  H        0.2083418495    -2.5692609687     2.4239354843
| 23>  H        2.4672522685    -1.0069577478     2.4928118232
| 24>  H        2.6494141274     0.1953411324     1.2092898076
| 25>  H        1.6148220421     0.5386079799     2.5986644168
| 26>  H       -2.1014187211    -0.4715807949     0.5839339928
| 27>  H       -1.6718789829    -0.8606740896    -1.0942050661
| 28> *
| 29>
| 30>                          ****END OF INPUT****

CARTESIAN COORDINATES (ANGSTROEM)
---------------------------------
  C     -0.092453    1.508255    0.091431
  C      0.008076    0.001714    0.045811
  C      0.896201   -0.740136   -0.996270
  C      0.838930   -1.889188    0.016304
  C     -0.674017   -2.143268    0.434265
  C     -0.289046   -1.755854    1.884653
  C      0.749990   -0.856426    1.193042
  C      1.932102   -0.251294    1.906943
  C     -1.294777   -0.824565   -0.067147
  H      0.891772    1.978682    0.190512
  H     -0.552783    1.896917   -0.824985
  H     -0.708733    1.841925    0.934601
  H      0.490513   -0.877616   -2.004608
  H      1.905216   -0.322093   -1.066210
  H      1.520653   -2.739833    0.021936
  H     -1.187025   -3.077352    0.206767
  H     -1.063549   -1.313821    2.522346
  H      0.208342   -2.569261    2.423935
  H      2.467252   -1.006958    2.492812
  H      2.649414    0.195341    1.209290
  H      1.614822    0.538608    2.598664
  H     -2.101419   -0.471581    0.583934
  H     -1.671879   -0.860674   -1.094205

 Total Charge           Charge          ....    0
 Multiplicity           Mult            ....    1
 Number of Electrons    NEL             ....   68
 Basis Dimension        Dim             ....  363

ORBITAL ENERGIES
----------------

  NO   OCC          E(Eh)            E(eV)
   0   2.0000     -11.230685      -305.6025
   1   2.0000     -11.227802      -305.5240
   2   2.0000     -11.224362      -305.4304
   3   2.0000     -11.220656      -305.3296
   4   2.0000     -11.211841      -305.0897
   5   2.0000     -11.211824      -305.0892
   6   2.0000     -11.211292      -305.0748
   7   2.0000     -11.211227      -305.0730
   8   2.0000     -11.209961      -305.0385
   9   2.0000      -1.208371       -32.8815
  10   2.0000      -1.024823       -27.8868
  11   2.0000      -0.997458       -27.1422
  12   2.0000      -0.971011       -26.4226
  13   2.0000      -0.914726       -24.8910
  14   2.0000      -0.841838       -22.9076
  15   2.0000      -0.816010       -22.2048
  16   2.0000      -0.735295       -20.0084
  17   2.0000      -0.670961       -18.2578
  18   2.0000      -0.647071       -17.6077
  19   2.0000      -0.630465       -17.1558
  20   2.0000      -0.608822       -16.5669
  21   2.0000      -0.593822       -16.1587
  22   2.0000      -0.562029       -15.2936
  23   2.0000      -0.553510       -15.0618
  24   2.0000      -0.541384       -14.7318
  25   2.0000      -0.535773       -14.5791
  26   2.0000      -0.506230       -13.7752
  27   2.0000      -0.488211       -13.2849
  28   2.0000      -0.457415       -12.4469
  29   2.0000      -0.449305       -12.2262
  30   2.0000      -0.421998       -11.4832
  31   2.0000      -0.413804       -11.2602
  32   2.0000      -0.399134       -10.8610
  33   2.0000      -0.379383       -10.3235
  34   0.0000       0.133821         3.6415
  35   0.0000       0.161271         4.3884
  36   0.0000       0.162217         4.4141
  37   0.0000       0.173089         4.7100
  38   0.0000       0.188001         5.1158

MULLIKEN ATOMIC CHARGES
-----------------------
   0 C :   -0.407523
   1 C :    0.064552
   2 C :   -0.268056
   3 C :   -0.106719
   4 C :   -0.078961
   5 C :   -0.247112
   6 C :    0.036239
   7 C :   -0.433512
   8 C :   -0.253456
   9 H :    0.130984
  10 H :    0.134699
  11 H :    0.129789
  12 H :    0.108197
  13 H :    0.111497
  14 H :    0.116166
  15 H :    0.123922
  16 H :    0.106742
  17 H :    0.107528
  18 H :    0.133720
  19 H :    0.130636
  20 H :    0.135164
  21 H :    0.110420
  22 H :    0.115084
Sum of atomic charges:   -0.0000000

LOEWDIN ATOMIC CHARGES
----------------------
   0 C :   -0.277614
   1 C :   -0.213120
   2 C :   -0.187263
   3 C :   -0.134970
   4 C :   -0.175000
   5 C :   -0.186900
   6 C :   -0.187011
   7 C :   -0.277055
   8 C :   -0.185294
   9 H :    0.126011
  10 H :    0.129505
  11 H :    0.127615
  12 H :    0.124452
  13 H :    0.137944
  14 H :    0.131892
  15 H :    0.128869
  16 H :    0.123558
  17 H :    0.138928
  18 H :    0.127695
  19 H :    0.127879
  20 H :    0.129110
  21 H :    0.135842
  22 H :    0.134929

  Mayer bond orders larger than 0.1
B(  0-C ,  1-C ) :   0.8496 B(  0-C ,  9-H ) :   0.9426 B(  0-C , 10-H ) :   0.9403
B(  0-C , 11-H ) :   0.9428 B(  1-C ,  2-C ) :   0.9431 B(  1-C ,  6-C ) :   0.8500
B(  1-C ,  8-C ) :   0.9328 B(  2-C ,  3-C ) :   0.9452 B(  2-C , 12-H ) :   0.9107
B(  2-C , 13-H ) :   0.9178 B(  3-C ,  4-C ) :   0.8851 B(  3-C ,  6-C ) :   0.8756
B(  3-C , 14-H ) :   0.9122 B(  4-C ,  5-C ) :   0.9096 B(  4-C ,  8-C ) :   0.9333
B(  4-C , 15-H ) :   0.9130 B(  5-C ,  6-C ) :   0.9335 B(  5-C , 16-H ) :   0.9188
B(  5-C , 17-H ) :   0.9165 B(  6-C ,  7-C ) :   0.8695 B(  7-C , 18-H ) :   0.9377
B(  7-C , 19-H ) :   0.9393 B(  7-C , 20-H ) :   0.9432 B(  8-C , 21-H ) :   0.9269
B(  8-C , 22-H ) :   0.9222

MP2 TOTAL ENERGY:     -350.498504309 Eh
FINAL SINGLE POINT ENERGY      -350.498504309029

DIPOLE MOMENT
-------------
                                X             Y             Z
Electronic contribution:     -0.98041      -3.28641      -0.94763
Nuclear contribution   :      1.02470       3.33977       0.97983
                        -----------------------------------------
Total Dipole Moment    :      0.04429       0.05336       0.03219
                        -----------------------------------------
Magnitude (a.u.)       :      0.07646
Magnitude (Debye)      :      0.19433

                             ****ORCA TERMINATED NORMALLY****
TOTAL RUN TIME: 0 days 0 hours 23 minutes 25 seconds 483 msec
