                         Program Version 3.0.3 - RELEASE   -
|  1> ! RI-MP2 RIJK def2-TZVP def2-TZVP/C def2-TZVP/JK TIGHTSCF
|  2> % maxcore 2000
|  3> % mp2 density relaxed end
|  4> *xyz 0 1
|  5>  C        0.0765080471     1.5391685758     0.0349763567
|  6>  C        0.0737633025     0.0282234188     0.0209295039
|  7>  C        1.3250103250    -0.7497999312    -0.2484861519
|  8>  C        0.7432791647    -0.7475140074     1.1529792068
|  9>  O        1.4862264684    -0.0537119884     2.1201100774
| 10>  C        0.0783323203    -2.0163124476     1.6020701437
| 11>  O       -0.5801422881    -2.6911109609     0.8446600657
| 12>  C        0.2993105813    -2.3974064432     3.0615214484
| 13>  O       -0.3663731092    -3.6025275900     3.3320522159
| 14>  H        1.0037665839     1.9313228137     0.4620670297
| 15>  H       -0.0155540500     1.9322339959    -0.9826891880
| 16>  H       -0.7632374901     1.9367079347     0.6166485939
| 17>  H       -0.8406763275    -0.4440030788    -0.3263404442
| 18>  H        1.2482298175    -1.6770384074    -0.8039091796
| 19>  H        2.2525993104    -0.1979562868    -0.3562296502
| 20>  H        0.8953229988     0.5454485150     2.5894834012
| 21>  H        1.3867676246    -2.4511492630     3.2311904780
| 22>  H       -0.0604269512    -1.5618839112     3.6879973881
| 23>  H       -0.1610479684    -3.8555762280     4.2365421245
| 24> *
| 25>
| 26>                          ****END OF INPUT****

CARTESIAN COORDINATES (ANGSTROEM)
---------------------------------
  C      0.076508    1.539169    0.034976
  C      0.073763    0.028223    0.020930
  C      1.325010   -0.749800   -0.248486
  C      0.743279   -0.747514    1.152979
  O      1.486226   -0.053712    2.120110
  C      0.078332   -2.016312    1.602070
  O     -0.580142   -2.691111    0.844660
  C      0.299311   -2.397406    3.061521
  O     -0.366373   -3.602528    3.332052
  H      1.003767    1.931323    0.462067
  H     -0.015554    1.932234   -0.982689
  H     -0.763237    1.936708    0.616649
  H     -0.840676   -0.444003   -0.326340
  H      1.248230   -1.677038   -0.803909
  H      2.252599   -0.197956   -0.356230
  H      0.895323    0.545449    2.589483
  H      1.386768   -2.451149    3.231190
  H     -0.060427   -1.561884    3.687997
  H     -0.161048   -3.855576    4.236542

 Total Charge           Charge          ....    0
 Multiplicity           Mult            ....    1
 Number of Electrons    NEL             ....   70
 Basis Dimension        Dim             ....  339

ORBITAL ENERGIES
----------------

  NO   OCC          E(Eh)            E(eV)
   0   2.0000     -20.583568      -560.1074
   1   2.0000     -20.564886      -559.5990
   2   2.0000     -20.539332      -558.9036
   3   2.0000     -11.329061      -308.2794
   4   2.0000     -11.298900      -307.4587
   5   2.0000     -11.294212      -307.3311
   6   2.0000     -11.247857      -306.0697
   7   2.0000     -11.236664      -305.7652
   8   2.0000     -11.230639      -305.6012
   9   2.0000      -1.402171       -38.1550
  10   2.0000      -1.386669       -37.7332
  11   2.0000      -1.363743       -37.1093
  12   2.0000      -1.149768       -31.2868
  13   2.0000      -1.004657       -27.3381
  14   2.0000      -0.974162       -26.5083
  15   2.0000      -0.862530       -23.4706
  16   2.0000      -0.806121       -21.9357
  17   2.0000      -0.756225       -20.5779
  18   2.0000      -0.726233       -19.7618
  19   2.0000      -0.686548       -18.6819
  20   2.0000      -0.667643       -18.1675
  21   2.0000      -0.653567       -17.7845
  22   2.0000      -0.637379       -17.3440
  23   2.0000      -0.610922       -16.6240
  24   2.0000      -0.589385       -16.0380
  25   2.0000      -0.571486       -15.5509
  26   2.0000      -0.553908       -15.0726
  27   2.0000      -0.536216       -14.5912
  28   2.0000      -0.533198       -14.5090
  29   2.0000      -0.529006       -14.3950
  30   2.0000      -0.499829       -13.6010
  31   2.0000      -0.458087       -12.4652
  32   2.0000      -0.451628       -12.2894
  33   2.0000      -0.405232       -11.0269
  34   2.0000      -0.392398       -10.6777
  35   0.0000       0.112531         3.0621
  36   0.0000       0.135357         3.6833
  37   0.0000       0.140400         3.8205
  38   0.0000       0.163791         4.4570
  39   0.0000       0.183993         5.0067

MULLIKEN ATOMIC CHARGES
-----------------------
   0 C :   -0.438359
   1 C :   -0.102413
   2 C :   -0.254689
   3 C :    0.134981
   4 O :   -0.471379
   5 C :    0.178636
   6 O :   -0.294039
   7 C :   -0.070942
   8 O :   -0.431867
   9 H :    0.146485
  10 H :    0.144165
  11 H :    0.137565
  12 H :    0.145813
  13 H :    0.157801
  14 H :    0.139824
  15 H :    0.333425
  16 H :    0.134668
  17 H :    0.092273
  18 H :    0.318052
Sum of atomic charges:   -0.0000000

LOEWDIN ATOMIC CHARGES
----------------------
   0 C :   -0.296893
   1 C :   -0.210088
   2 C :   -0.166528
   3 C :   -0.316359
   4 O :    0.033779
   5 C :   -0.308033
   6 O :    0.165281
   7 C :   -0.336346
   8 O :   -0.019958
   9 H :    0.129073
  10 H :    0.131310
  11 H :    0.125254
  12 H :    0.159425
  13 H :    0.144158
  14 H :    0.143306
  15 H :    0.183612
  16 H :    0.136045
  17 H :    0.126187
  18 H :    0.176774

  Mayer bond orders larger than 0.1
B(  0-C ,  1-C ) :   0.8817 B(  0-C ,  9-H ) :   0.9348 B(  0-C , 10-H ) :   0.9366
B(  0-C , 11-H ) :   0.9403 B(  1-C ,  2-C ) :   0.9291 B(  1-C ,  3-C ) :   0.8499
B(  1-C , 12-H ) :   0.9085 B(  2-C ,  3-C ) :   0.8260 B(  2-C , 13-H ) :   0.9193
B(  2-C , 14-H ) :   0.9254 B(  3-C ,  4-O ) :   0.9733 B(  3-C ,  5-C ) :   0.8930
B(  4-O , 15-H ) :   0.8367 B(  5-C ,  6-O ) :   1.9313 B(  5-C ,  7-C ) :   0.9148
B(  7-C ,  8-O ) :   1.0511 B(  7-C , 16-H ) :   0.9129 B(  7-C , 17-H ) :   0.9142
B(  8-O , 18-H ) :   0.8447

MP2 TOTAL ENERGY:     -459.421748095 Eh
FINAL SINGLE POINT ENERGY      -459.421748095180

DIPOLE MOMENT
-------------
                                X             Y             Z
Electronic contribution:     -1.03640      -6.58795       2.22137
Nuclear contribution   :      1.40291       7.71623      -1.40720
                        -----------------------------------------
Total Dipole Moment    :      0.36651       1.12828       0.81416
                        -----------------------------------------
Magnitude (a.u.)       :      1.43882
Magnitude (Debye)      :      3.65719

                             ****ORCA TERMINATED NORMALLY****
TOTAL RUN TIME: 0 days 0 hours 16 minutes 22 seconds 776 msec
