                         Program Version 3.0.3 - RELEASE   -
|  1> ! RI-MP2 RIJK def2-TZVP def2-TZVP/C def2-TZVP/JK TIGHTSCF
|  2> % maxcore 2000
|  3> % mp2 density relaxed end
|  4> *xyz 0 1
|  5>  O       -0.0254636159     1.2959958830    -0.0031575524
|  6>  C       -0.0008533813    -0.1100732864     0.0414196568
|  7>  C       -0.5043354522    -0.7483019512     1.3156324005
|  8>  O       -0.8769940528     0.0946910189     2.3648508356
|  9>  C       -1.3457100042    -0.7848360324     0.0688860290
| 10>  C       -2.6912375824    -0.0950124489    -0.1802058867
| 11>  C       -2.9474569448    -1.1092694463    -1.3357517334
| 12>  C       -1.7449835577    -1.9635854008    -0.8376987830
| 13>  O       -0.8141714767    -2.4532517283    -1.7717038713
| 14>  H        0.8252488966     1.6148487295     0.3194614780
| 15>  H        0.7993325370    -0.5865039349    -0.5240302274
| 16>  H       -0.0425557889    -1.6641599962     1.6745742200
| 17>  H       -0.8637429843     0.9917087201     2.0034758091
| 18>  H       -3.3784302515    -0.2092528486     0.6622802207
| 19>  H       -2.6512621818     0.9592063159    -0.4604536672
| 20>  H       -3.9233579542    -1.5977110424    -1.3768617294
| 21>  H       -2.7353425946    -0.6737765270    -2.3176625802
| 22>  H       -2.0623429699    -2.8356617136    -0.2570423437
| 23>  H       -0.5540848206    -1.7180595904    -2.3378440548
| 24> *
| 25>
| 26>                          ****END OF INPUT****

CARTESIAN COORDINATES (ANGSTROEM)
---------------------------------
  O     -0.025464    1.295996   -0.003158
  C     -0.000853   -0.110073    0.041420
  C     -0.504335   -0.748302    1.315632
  O     -0.876994    0.094691    2.364851
  C     -1.345710   -0.784836    0.068886
  C     -2.691238   -0.095012   -0.180206
  C     -2.947457   -1.109269   -1.335752
  C     -1.744984   -1.963585   -0.837699
  O     -0.814171   -2.453252   -1.771704
  H      0.825249    1.614849    0.319461
  H      0.799333   -0.586504   -0.524030
  H     -0.042556   -1.664160    1.674574
  H     -0.863743    0.991709    2.003476
  H     -3.378430   -0.209253    0.662280
  H     -2.651262    0.959206   -0.460454
  H     -3.923358   -1.597711   -1.376862
  H     -2.735343   -0.673777   -2.317663
  H     -2.062343   -2.835662   -0.257042
  H     -0.554085   -1.718060   -2.337844

 Total Charge           Charge          ....    0
 Multiplicity           Mult            ....    1
 Number of Electrons    NEL             ....   70
 Basis Dimension        Dim             ....  339

ORBITAL ENERGIES
----------------

  NO   OCC          E(Eh)            E(eV)
   0   2.0000     -20.585391      -560.1570
   1   2.0000     -20.561843      -559.5162
   2   2.0000     -20.560670      -559.4843
   3   2.0000     -11.290913      -307.2414
   4   2.0000     -11.285038      -307.0815
   5   2.0000     -11.283209      -307.0317
   6   2.0000     -11.232960      -305.6644
   7   2.0000     -11.227677      -305.5206
   8   2.0000     -11.226915      -305.4999
   9   2.0000      -1.399618       -38.0855
  10   2.0000      -1.369337       -37.2616
  11   2.0000      -1.362129       -37.0654
  12   2.0000      -1.152994       -31.3746
  13   2.0000      -1.062142       -28.9023
  14   2.0000      -0.896108       -24.3843
  15   2.0000      -0.851489       -23.1702
  16   2.0000      -0.833674       -22.6854
  17   2.0000      -0.757925       -20.6242
  18   2.0000      -0.734049       -19.9745
  19   2.0000      -0.718732       -19.5577
  20   2.0000      -0.658528       -17.9195
  21   2.0000      -0.645135       -17.5550
  22   2.0000      -0.630325       -17.1520
  23   2.0000      -0.598156       -16.2767
  24   2.0000      -0.576384       -15.6842
  25   2.0000      -0.571610       -15.5543
  26   2.0000      -0.562716       -15.3123
  27   2.0000      -0.559045       -15.2124
  28   2.0000      -0.518587       -14.1115
  29   2.0000      -0.500870       -13.6294
  30   2.0000      -0.494449       -13.4547
  31   2.0000      -0.446939       -12.1618
  32   2.0000      -0.443669       -12.0729
  33   2.0000      -0.401774       -10.9328
  34   2.0000      -0.369280       -10.0486
  35   0.0000       0.122749         3.3402
  36   0.0000       0.142152         3.8682
  37   0.0000       0.154442         4.2026
  38   0.0000       0.165434         4.5017
  39   0.0000       0.186619         5.0782

MULLIKEN ATOMIC CHARGES
-----------------------
   0 O :   -0.473843
   1 C :   -0.063259
   2 C :    0.040637
   3 O :   -0.465258
   4 C :   -0.042092
   5 C :   -0.215223
   6 C :   -0.227093
   7 C :    0.080360
   8 O :   -0.457037
   9 H :    0.331784
  10 H :    0.120235
  11 H :    0.126798
  12 H :    0.329883
  13 H :    0.132710
  14 H :    0.128176
  15 H :    0.123497
  16 H :    0.108858
  17 H :    0.105471
  18 H :    0.315397
Sum of atomic charges:   -0.0000000

LOEWDIN ATOMIC CHARGES
----------------------
   0 O :   -0.007343
   1 C :   -0.292805
   2 C :   -0.287117
   3 O :    0.001779
   4 C :   -0.198529
   5 C :   -0.191948
   6 C :   -0.215885
   7 C :   -0.289489
   8 O :   -0.010639
   9 H :    0.184836
  10 H :    0.132659
  11 H :    0.141707
  12 H :    0.179484
  13 H :    0.139932
  14 H :    0.133474
  15 H :    0.126297
  16 H :    0.134082
  17 H :    0.144808
  18 H :    0.174699

  Mayer bond orders larger than 0.1
B(  0-O ,  1-C ) :   1.0412 B(  0-O ,  9-H ) :   0.8360 B(  1-C ,  2-C ) :   0.9495
B(  1-C ,  4-C ) :   0.8212 B(  1-C , 10-H ) :   0.9234 B(  2-C ,  3-O ) :   0.9626
B(  2-C ,  4-C ) :   0.8189 B(  2-C , 11-H ) :   0.9411 B(  3-O , 12-H ) :   0.8201
B(  4-C ,  5-C ) :   0.9047 B(  4-C ,  7-C ) :   0.8504 B(  5-C ,  6-C ) :   0.9520
B(  5-C , 13-H ) :   0.9194 B(  5-C , 14-H ) :   0.9149 B(  6-C ,  7-C ) :   0.9468
B(  6-C , 15-H ) :   0.9286 B(  6-C , 16-H ) :   0.9089 B(  7-C ,  8-O ) :   0.9730
B(  7-C , 17-H ) :   0.9266 B(  8-O , 18-H ) :   0.8387

MP2 TOTAL ENERGY:     -459.389687271 Eh
FINAL SINGLE POINT ENERGY      -459.389687270553

DIPOLE MOMENT
-------------
                                X             Y             Z
Electronic contribution:      3.01619       0.14376       1.72191
Nuclear contribution   :     -2.62240       0.45274      -2.12952
                        -----------------------------------------
Total Dipole Moment    :      0.39379       0.59650      -0.40762
                        -----------------------------------------
Magnitude (a.u.)       :      0.82282
Magnitude (Debye)      :      2.09144

                             ****ORCA TERMINATED NORMALLY****
TOTAL RUN TIME: 0 days 0 hours 15 minutes 30 seconds 589 msec
