                         Program Version 3.0.3 - RELEASE   -
|  1> ! RI-MP2 RIJK def2-TZVP def2-TZVP/C def2-TZVP/JK TIGHTSCF
|  2> % maxcore 2000
|  3> % mp2 density relaxed end
|  4> *xyz 0 1
|  5>  C       -0.0618549183     1.5591230734     0.0530223800
|  6>  C        1.4838749166     1.4422846967    -0.0057439075
|  7>  C        1.8744102084     0.6930727842     1.2783002114
|  8>  C        2.8606046892    -0.4225408367     0.8695702236
|  9>  C        1.7859189280    -1.4477050296     0.8771867936
| 10>  C        0.7210681271    -0.4071191132     1.2864705588
| 11>  C       -0.0184154585     0.0092238976     0.0049005665
| 12>  C        1.2971532668     0.1278782744    -0.8334215917
| 13>  N        2.2797272148    -0.8989762467    -0.4038249814
| 14>  H       -0.5116991740     2.0371972237     0.9279804044
| 15>  H       -0.4827031724     1.9935377394    -0.8574767421
| 16>  H        2.1206116942     2.2614807453    -0.3412168132
| 17>  H        2.0560549151     1.2639647701     2.1868047832
| 18>  H        3.9302015316    -0.4913212645     1.0332810979
| 19>  H        1.8054416812    -2.5181692018     1.0483439388
| 20>  H        0.1490115296    -0.5552000415     2.2003175524
| 21>  H       -0.8691676163    -0.5905200308    -0.3200387239
| 22>  H        1.2089854769     0.2122700301    -1.9149988509
| 23> *
| 24>
| 25>                          ****END OF INPUT****

CARTESIAN COORDINATES (ANGSTROEM)
---------------------------------
  C     -0.061855    1.559123    0.053022
  C      1.483875    1.442285   -0.005744
  C      1.874410    0.693073    1.278300
  C      2.860605   -0.422541    0.869570
  C      1.785919   -1.447705    0.877187
  C      0.721068   -0.407119    1.286471
  C     -0.018415    0.009224    0.004901
  C      1.297153    0.127878   -0.833422
  N      2.279727   -0.898976   -0.403825
  H     -0.511699    2.037197    0.927980
  H     -0.482703    1.993538   -0.857477
  H      2.120612    2.261481   -0.341217
  H      2.056055    1.263965    2.186805
  H      3.930202   -0.491321    1.033281
  H      1.805442   -2.518169    1.048344
  H      0.149012   -0.555200    2.200318
  H     -0.869168   -0.590520   -0.320039
  H      1.208985    0.212270   -1.914999

 Total Charge           Charge          ....    0
 Multiplicity           Mult            ....    1
 Number of Electrons    NEL             ....   64
 Basis Dimension        Dim             ....  333

ORBITAL ENERGIES
----------------

  NO   OCC          E(Eh)            E(eV)
   0   2.0000     -15.551616      -423.1810
   1   2.0000     -11.253131      -306.2133
   2   2.0000     -11.252401      -306.1934
   3   2.0000     -11.250275      -306.1355
   4   2.0000     -11.234171      -305.6973
   5   2.0000     -11.233693      -305.6843
   6   2.0000     -11.229276      -305.5641
   7   2.0000     -11.229238      -305.5631
   8   2.0000     -11.225384      -305.4582
   9   2.0000      -1.312961       -35.7275
  10   2.0000      -1.146493       -31.1976
  11   2.0000      -1.022612       -27.8267
  12   2.0000      -0.963620       -26.2214
  13   2.0000      -0.911040       -24.7906
  14   2.0000      -0.820561       -22.3286
  15   2.0000      -0.790431       -21.5087
  16   2.0000      -0.744043       -20.2464
  17   2.0000      -0.716592       -19.4995
  18   2.0000      -0.712355       -19.3842
  19   2.0000      -0.660553       -17.9746
  20   2.0000      -0.620657       -16.8889
  21   2.0000      -0.575807       -15.6685
  22   2.0000      -0.570665       -15.5286
  23   2.0000      -0.497121       -13.5274
  24   2.0000      -0.494907       -13.4671
  25   2.0000      -0.483715       -13.1626
  26   2.0000      -0.456502       -12.4221
  27   2.0000      -0.449059       -12.2195
  28   2.0000      -0.431138       -11.7319
  29   2.0000      -0.412067       -11.2129
  30   2.0000      -0.411280       -11.1915
  31   2.0000      -0.366635        -9.9766
  32   0.0000       0.143016         3.8917
  33   0.0000       0.162926         4.4334
  34   0.0000       0.170308         4.6343
  35   0.0000       0.175790         4.7835
  36   0.0000       0.196821         5.3558

MULLIKEN ATOMIC CHARGES
-----------------------
   0 C :   -0.278526
   1 C :   -0.092649
   2 C :   -0.080448
   3 C :   -0.130030
   4 C :   -0.130029
   5 C :   -0.080450
   6 C :   -0.092649
   7 C :   -0.061967
   8 N :   -0.203506
   9 H :    0.116961
  10 H :    0.120555
  11 H :    0.127692
  12 H :    0.132521
  13 H :    0.134784
  14 H :    0.134784
  15 H :    0.132521
  16 H :    0.127692
  17 H :    0.122742
Sum of atomic charges:   -0.0000000

LOEWDIN ATOMIC CHARGES
----------------------
   0 C :   -0.196683
   1 C :   -0.168949
   2 C :   -0.143660
   3 C :   -0.182771
   4 C :   -0.182771
   5 C :   -0.143660
   6 C :   -0.168949
   7 C :   -0.186018
   8 N :    0.152585
   9 H :    0.126828
  10 H :    0.137868
  11 H :    0.135032
  12 H :    0.142228
  13 H :    0.129383
  14 H :    0.129383
  15 H :    0.142228
  16 H :    0.135032
  17 H :    0.142892

  Mayer bond orders larger than 0.1
B(  0-C ,  1-C ) :   0.9100 B(  0-C ,  6-C ) :   0.9100 B(  0-C ,  9-H ) :   0.9176
B(  0-C , 10-H ) :   0.9221 B(  1-C ,  2-C ) :   0.9041 B(  1-C ,  7-C ) :   0.9031
B(  1-C , 11-H ) :   0.9112 B(  2-C ,  3-C ) :   0.8913 B(  2-C ,  5-C ) :   0.9473
B(  2-C , 12-H ) :   0.9074 B(  3-C ,  4-C ) :   0.8787 B(  3-C ,  8-N ) :   0.9293
B(  3-C , 13-H ) :   0.9178 B(  4-C ,  5-C ) :   0.8913 B(  4-C ,  8-N ) :   0.9293
B(  4-C , 14-H ) :   0.9178 B(  5-C ,  6-C ) :   0.9041 B(  5-C , 15-H ) :   0.9074
B(  6-C ,  7-C ) :   0.9031 B(  6-C , 16-H ) :   0.9112 B(  7-C ,  8-N ) :   0.9463
B(  7-C , 17-H ) :   0.9330

MP2 TOTAL ENERGY:     -364.113182855 Eh
FINAL SINGLE POINT ENERGY      -364.113182854785

DIPOLE MOMENT
-------------
                                X             Y             Z
Electronic contribution:      2.20242      -2.31165      -0.37957
Nuclear contribution   :     -2.56579       2.69589       0.82721
                        -----------------------------------------
Total Dipole Moment    :     -0.36337       0.38425       0.44763
                        -----------------------------------------
Magnitude (a.u.)       :      0.69286
Magnitude (Debye)      :      1.76112

                             ****ORCA TERMINATED NORMALLY****
TOTAL RUN TIME: 0 days 0 hours 21 minutes 7 seconds 126 msec
