                         Program Version 3.0.3 - RELEASE   -
|  1> ! RI-MP2 RIJK def2-TZVP def2-TZVP/C def2-TZVP/JK TIGHTSCF
|  2> % maxcore 2000
|  3> % mp2 density relaxed end
|  4> *xyz 0 1
|  5>  C        0.0009366393     1.5741747114     0.1316969485
|  6>  C        0.0511338169     0.0638310609     0.1811192499
|  7>  C        1.2622344292    -0.7434298411    -0.1913487010
|  8>  O        2.4698550553    -0.0601532049     0.1502542651
|  9>  C        2.1191874068    -0.1113273183     1.5589131254
| 10>  C        0.7705712416    -0.7561159800     1.2423766365
| 11>  C        0.1133180811    -1.8352383252     2.0668929503
| 12>  C       -0.5524271271    -1.2991766578     3.2592092597
| 13>  N       -1.0645165342    -0.8578386815     4.1962357284
| 14>  H        0.9998737560     2.0021770239     0.2423472695
| 15>  H       -0.3949506206     1.9092888975    -0.8322951293
| 16>  H       -0.6424386388     1.9780918125     0.9196077775
| 17>  H       -0.8695284947    -0.4330164849    -0.1240209509
| 18>  H        1.3142149182    -1.5042525792    -0.9629319154
| 19>  H        2.8002098302    -0.7824635039     2.0957303638
| 20>  H        2.1229350114     0.8756588525     2.0331670665
| 21>  H       -0.6323394495    -2.3697516946     1.4673504852
| 22>  H        0.8496708490    -2.5815031671     2.3906466900
| 23> *
| 24>
| 25>                          ****END OF INPUT****

CARTESIAN COORDINATES (ANGSTROEM)
---------------------------------
  C      0.000937    1.574175    0.131697
  C      0.051134    0.063831    0.181119
  C      1.262234   -0.743430   -0.191349
  O      2.469855   -0.060153    0.150254
  C      2.119187   -0.111327    1.558913
  C      0.770571   -0.756116    1.242377
  C      0.113318   -1.835238    2.066893
  C     -0.552427   -1.299177    3.259209
  N     -1.064517   -0.857839    4.196236
  H      0.999874    2.002177    0.242347
  H     -0.394951    1.909289   -0.832295
  H     -0.642439    1.978092    0.919608
  H     -0.869528   -0.433016   -0.124021
  H      1.314215   -1.504253   -0.962932
  H      2.800210   -0.782464    2.095730
  H      2.122935    0.875659    2.033167
  H     -0.632339   -2.369752    1.467350
  H      0.849671   -2.581503    2.390647

 Total Charge           Charge          ....    0
 Multiplicity           Mult            ....    1
 Number of Electrons    NEL             ....   66
 Basis Dimension        Dim             ....  333

ORBITAL ENERGIES
----------------

  NO   OCC          E(Eh)            E(eV)
   0   2.0000     -20.568934      -559.7091
   1   2.0000     -15.573940      -423.7885
   2   2.0000     -11.304081      -307.5997
   3   2.0000     -11.298920      -307.4593
   4   2.0000     -11.297122      -307.4103
   5   2.0000     -11.278457      -306.9024
   6   2.0000     -11.268210      -306.6236
   7   2.0000     -11.256456      -306.3037
   8   2.0000     -11.225273      -305.4552
   9   2.0000      -1.408228       -38.3198
  10   2.0000      -1.224075       -33.3088
  11   2.0000      -1.155159       -31.4335
  12   2.0000      -1.054033       -28.6817
  13   2.0000      -0.973359       -26.4865
  14   2.0000      -0.954989       -25.9866
  15   2.0000      -0.800174       -21.7738
  16   2.0000      -0.763568       -20.7777
  17   2.0000      -0.731599       -19.9078
  18   2.0000      -0.688774       -18.7425
  19   2.0000      -0.664758       -18.0890
  20   2.0000      -0.651911       -17.7394
  21   2.0000      -0.616856       -16.7855
  22   2.0000      -0.587051       -15.9745
  23   2.0000      -0.580690       -15.8014
  24   2.0000      -0.561421       -15.2770
  25   2.0000      -0.556296       -15.1376
  26   2.0000      -0.520468       -14.1627
  27   2.0000      -0.512056       -13.9338
  28   2.0000      -0.491969       -13.3872
  29   2.0000      -0.465475       -12.6662
  30   2.0000      -0.460845       -12.5402
  31   2.0000      -0.411420       -11.1953
  32   2.0000      -0.392281       -10.6745
  33   0.0000       0.113809         3.0969
  34   0.0000       0.143255         3.8982
  35   0.0000       0.149016         4.0549
  36   0.0000       0.161026         4.3817
  37   0.0000       0.172315         4.6889

MULLIKEN ATOMIC CHARGES
-----------------------
   0 C :   -0.416173
   1 C :   -0.113683
   2 C :    0.048075
   3 O :   -0.334128
   4 C :   -0.025259
   5 C :   -0.034650
   6 C :   -0.148884
   7 C :   -0.174083
   8 N :   -0.059356
   9 H :    0.154818
  10 H :    0.136062
  11 H :    0.145003
  12 H :    0.122071
  13 H :    0.138784
  14 H :    0.111187
  15 H :    0.125649
  16 H :    0.160387
  17 H :    0.164179
Sum of atomic charges:    0.0000000

LOEWDIN ATOMIC CHARGES
----------------------
   0 C :   -0.286203
   1 C :   -0.195153
   2 C :   -0.208712
   3 O :    0.150478
   4 C :   -0.211591
   5 C :   -0.195613
   6 C :   -0.211497
   7 C :   -0.182414
   8 N :    0.059089
   9 H :    0.133615
  10 H :    0.129074
  11 H :    0.129667
  12 H :    0.161725
  13 H :    0.133157
  14 H :    0.129066
  15 H :    0.124652
  16 H :    0.171361
  17 H :    0.169300

  Mayer bond orders larger than 0.1
B(  0-C ,  1-C ) :   0.9115 B(  0-C ,  9-H ) :   0.9307 B(  0-C , 10-H ) :   0.9348
B(  0-C , 11-H ) :   0.9360 B(  1-C ,  2-C ) :   0.8675 B(  1-C ,  5-C ) :   0.8512
B(  1-C , 12-H ) :   0.9222 B(  2-C ,  3-O ) :   0.9559 B(  2-C ,  5-C ) :   0.8908
B(  2-C , 13-H ) :   0.9183 B(  3-O ,  4-C ) :   0.9144 B(  4-C ,  5-C ) :   0.9634
B(  4-C , 14-H ) :   0.9077 B(  4-C , 15-H ) :   0.9191 B(  5-C ,  6-C ) :   0.9009
B(  6-C ,  7-C ) :   0.9359 B(  6-C , 16-H ) :   0.9053 B(  6-C , 17-H ) :   0.9092
B(  7-C ,  8-N ) :   2.8660

MP2 TOTAL ENERGY:     -401.223725640 Eh
FINAL SINGLE POINT ENERGY      -401.223725640500

DIPOLE MOMENT
-------------
                                X             Y             Z
Electronic contribution:      0.10982      -3.32521       3.74639
Nuclear contribution   :      0.05224       2.66423      -4.70664
                        -----------------------------------------
Total Dipole Moment    :      0.16206      -0.66098      -0.96025
                        -----------------------------------------
Magnitude (a.u.)       :      1.17696
Magnitude (Debye)      :      2.99161

                             ****ORCA TERMINATED NORMALLY****
TOTAL RUN TIME: 0 days 0 hours 16 minutes 35 seconds 796 msec
