                         Program Version 3.0.3 - RELEASE   -
|  1> ! RI-MP2 RIJK def2-TZVP def2-TZVP/C def2-TZVP/JK TIGHTSCF
|  2> % maxcore 2000
|  3> % mp2 density relaxed end
|  4> *xyz 0 1
|  5>  C       -0.0287749790     1.5240929081    -0.0118895867
|  6>  C        0.0086459826     0.0176447862    -0.0015700656
|  7>  C       -0.0135916739    -0.7191363952    -1.1816640338
|  8>  C        0.0348855277    -2.1108840818    -1.1952605072
|  9>  C        0.1080643835    -2.7918422651     0.0188052482
| 10>  O        0.1582421923    -4.1545150342     0.0972314151
| 11>  C        0.1267968362    -2.0852208189     1.2175917360
| 12>  C        0.0801491459    -0.6889297203     1.2190236253
| 13>  N        0.1650570333     0.0096319488     2.4262732163
| 14>  H        0.8370222679     1.9568440073     0.5049989435
| 15>  H       -0.0317263992     1.9066112476    -1.0356439607
| 16>  H       -0.9265796941     1.9235619912     0.4822800240
| 17>  H       -0.0689813678    -0.1856700830    -2.1264802475
| 18>  H        0.0181279942    -2.6566222760    -2.1340978901
| 19>  H        0.1374127113    -4.5147460258    -0.7951036373
| 20>  H        0.1817652537    -2.6383050492     2.1496078422
| 21>  H       -0.0782107883    -0.5342128460     3.2414232422
| 22>  H       -0.2941447162     0.9083680261     2.4337997061
| 23> *
| 24>
| 25>                          ****END OF INPUT****

CARTESIAN COORDINATES (ANGSTROEM)
---------------------------------
  C     -0.028775    1.524093   -0.011890
  C      0.008646    0.017645   -0.001570
  C     -0.013592   -0.719136   -1.181664
  C      0.034886   -2.110884   -1.195261
  C      0.108064   -2.791842    0.018805
  O      0.158242   -4.154515    0.097231
  C      0.126797   -2.085221    1.217592
  C      0.080149   -0.688930    1.219024
  N      0.165057    0.009632    2.426273
  H      0.837022    1.956844    0.504999
  H     -0.031726    1.906611   -1.035644
  H     -0.926580    1.923562    0.482280
  H     -0.068981   -0.185670   -2.126480
  H      0.018128   -2.656622   -2.134098
  H      0.137413   -4.514746   -0.795104
  H      0.181765   -2.638305    2.149608
  H     -0.078211   -0.534213    3.241423
  H     -0.294145    0.908368    2.433800

 Total Charge           Charge          ....    0
 Multiplicity           Mult            ....    1
 Number of Electrons    NEL             ....   66
 Basis Dimension        Dim             ....  333

ORBITAL ENERGIES
----------------

  NO   OCC          E(Eh)            E(eV)
   0   2.0000     -20.583059      -560.0935
   1   2.0000     -15.563647      -423.5084
   2   2.0000     -11.296327      -307.3887
   3   2.0000     -11.277144      -306.8667
   4   2.0000     -11.234404      -305.7037
   5   2.0000     -11.223451      -305.4056
   6   2.0000     -11.221408      -305.3500
   7   2.0000     -11.214589      -305.1645
   8   2.0000     -11.212379      -305.1044
   9   2.0000      -1.399962       -38.0949
  10   2.0000      -1.225109       -33.3369
  11   2.0000      -1.123332       -30.5674
  12   2.0000      -1.033560       -28.1246
  13   2.0000      -0.992456       -27.0061
  14   2.0000      -0.922121       -25.0922
  15   2.0000      -0.834545       -22.7091
  16   2.0000      -0.807398       -21.9704
  17   2.0000      -0.728072       -19.8118
  18   2.0000      -0.698874       -19.0173
  19   2.0000      -0.652018       -17.7423
  20   2.0000      -0.642492       -17.4831
  21   2.0000      -0.611043       -16.6273
  22   2.0000      -0.589730       -16.0474
  23   2.0000      -0.580942       -15.8082
  24   2.0000      -0.573302       -15.6003
  25   2.0000      -0.571288       -15.5455
  26   2.0000      -0.532658       -14.4944
  27   2.0000      -0.512442       -13.9443
  28   2.0000      -0.499739       -13.5986
  29   2.0000      -0.488484       -13.2923
  30   2.0000      -0.435572       -11.8525
  31   2.0000      -0.317490        -8.6393
  32   2.0000      -0.288732        -7.8568
  33   0.0000       0.129252         3.5171
  34   0.0000       0.135061         3.6752
  35   0.0000       0.143556         3.9064
  36   0.0000       0.157974         4.2987
  37   0.0000       0.160289         4.3617

MULLIKEN ATOMIC CHARGES
-----------------------
   0 C :   -0.499699
   1 C :    0.041755
   2 C :   -0.182116
   3 C :   -0.238186
   4 C :    0.271306
   5 O :   -0.427315
   6 C :   -0.322419
   7 C :    0.278982
   8 N :   -0.499438
   9 H :    0.159943
  10 H :    0.138501
  11 H :    0.135661
  12 H :    0.109768
  13 H :    0.107815
  14 H :    0.327032
  15 H :    0.110098
  16 H :    0.240206
  17 H :    0.248106
Sum of atomic charges:    0.0000000

LOEWDIN ATOMIC CHARGES
----------------------
   0 C :   -0.275326
   1 C :   -0.163027
   2 C :   -0.135986
   3 C :   -0.165479
   4 C :   -0.283275
   5 O :    0.065486
   6 C :   -0.112849
   7 C :   -0.215528
   8 N :   -0.062965
   9 H :    0.131455
  10 H :    0.130899
  11 H :    0.124784
  12 H :    0.147381
  13 H :    0.142271
  14 H :    0.189130
  15 H :    0.150656
  16 H :    0.166353
  17 H :    0.166020

  Mayer bond orders larger than 0.1
B(  0-C ,  1-C ) :   0.8477 B(  0-C ,  9-H ) :   0.9387 B(  0-C , 10-H ) :   0.9416
B(  0-C , 11-H ) :   0.9355 B(  1-C ,  2-C ) :   1.3816 B(  1-C ,  7-C ) :   1.2639
B(  2-C ,  3-C ) :   1.3260 B(  2-C , 12-H ) :   0.9257 B(  3-C ,  4-C ) :   1.2858
B(  3-C , 13-H ) :   0.9219 B(  4-C ,  5-O ) :   1.0570 B(  4-C ,  6-C ) :   1.3785
B(  5-O , 14-H ) :   0.8365 B(  6-C ,  7-C ) :   1.3072 B(  6-C , 15-H ) :   0.9276
B(  7-C ,  8-N ) :   0.9934 B(  8-N , 16-H ) :   0.8814 B(  8-N , 17-H ) :   0.8713

MP2 TOTAL ENERGY:     -401.324875917 Eh
FINAL SINGLE POINT ENERGY      -401.324875917173

DIPOLE MOMENT
-------------
                                X             Y             Z
Electronic contribution:      0.39603      -6.50411       0.02180
Nuclear contribution   :     -0.78640       6.82381      -0.11733
                        -----------------------------------------
Total Dipole Moment    :     -0.39038       0.31970      -0.09552
                        -----------------------------------------
Magnitude (a.u.)       :      0.51354
Magnitude (Debye)      :      1.30532

                             ****ORCA TERMINATED NORMALLY****
TOTAL RUN TIME: 0 days 0 hours 17 minutes 16 seconds 623 msec
