                         Program Version 3.0.3 - RELEASE   -
|  1> ! RI-MP2 RIJK def2-TZVP def2-TZVP/C def2-TZVP/JK TIGHTSCF
|  2> % maxcore 2000
|  3> % mp2 density relaxed end
|  4> *xyz 0 1
|  5>  C        0.1237515879     1.5494653286    -0.1788732046
|  6>  C        0.2080077623     0.0271995914    -0.0479024315
|  7>  C        0.3567251207    -0.4394588517     1.4085661415
|  8>  C        0.4257133300    -1.9436559148     1.5085023469
|  9>  O        1.6343413812    -2.5875117457     1.0954553408
| 10>  C        1.2474757406    -2.7090753172     2.4806325452
| 11>  C        2.1686292271    -2.0548474948     3.4904160664
| 12>  C        0.7775420102    -4.0233309235     2.8663501589
| 13>  C        0.3964824770    -5.1078919601     3.2180966743
| 14>  H        1.0228134385     2.0320407329     0.2203905745
| 15>  H        0.0208469156     1.8527364230    -1.2252252054
| 16>  H       -0.7364822614     1.9489826877     0.3700307752
| 17>  H       -0.6885171292    -0.4313626235    -0.4849922811
| 18>  H        1.0592119795    -0.3521751463    -0.6252160846
| 19>  H        1.2503848263     0.0152857279     1.8464209363
| 20>  H       -0.5018859270    -0.0912591424     1.9989328830
| 21>  H       -0.4721004443    -2.4546792437     1.1524974653
| 22>  H        2.5280378895    -1.0904766833     3.1300117772
| 23>  H        1.6501940832    -1.9119109347     4.4433630822
| 24>  H        3.0342425263    -2.6988668887     3.6706819212
| 25>  H        0.0566771261    -6.0686487611     3.5170785382
| 26> *
| 27>
| 28>                          ****END OF INPUT****

CARTESIAN COORDINATES (ANGSTROEM)
---------------------------------
  C      0.123752    1.549465   -0.178873
  C      0.208008    0.027200   -0.047902
  C      0.356725   -0.439459    1.408566
  C      0.425713   -1.943656    1.508502
  O      1.634341   -2.587512    1.095455
  C      1.247476   -2.709075    2.480633
  C      2.168629   -2.054847    3.490416
  C      0.777542   -4.023331    2.866350
  C      0.396482   -5.107892    3.218097
  H      1.022813    2.032041    0.220391
  H      0.020847    1.852736   -1.225225
  H     -0.736482    1.948983    0.370031
  H     -0.688517   -0.431363   -0.484992
  H      1.059212   -0.352175   -0.625216
  H      1.250385    0.015286    1.846421
  H     -0.501886   -0.091259    1.998933
  H     -0.472100   -2.454679    1.152497
  H      2.528038   -1.090477    3.130012
  H      1.650194   -1.911911    4.443363
  H      3.034243   -2.698867    3.670682
  H      0.056677   -6.068649    3.517079

 Total Charge           Charge          ....    0
 Multiplicity           Mult            ....    1
 Number of Electrons    NEL             ....   68
 Basis Dimension        Dim             ....  351

ORBITAL ENERGIES
----------------

  NO   OCC          E(Eh)            E(eV)
   0   2.0000     -20.570247      -559.7449
   1   2.0000     -11.316543      -307.9388
   2   2.0000     -11.292648      -307.2886
   3   2.0000     -11.238007      -305.8017
   4   2.0000     -11.232204      -305.6438
   5   2.0000     -11.231501      -305.6247
   6   2.0000     -11.231466      -305.6237
   7   2.0000     -11.225555      -305.4629
   8   2.0000     -11.217347      -305.2395
   9   2.0000      -1.415493       -38.5175
  10   2.0000      -1.075319       -29.2609
  11   2.0000      -1.063725       -28.9454
  12   2.0000      -1.000258       -27.2184
  13   2.0000      -0.973731       -26.4966
  14   2.0000      -0.889820       -24.2132
  15   2.0000      -0.836045       -22.7499
  16   2.0000      -0.792642       -21.5689
  17   2.0000      -0.733221       -19.9519
  18   2.0000      -0.697503       -18.9800
  19   2.0000      -0.645944       -17.5770
  20   2.0000      -0.640048       -17.4166
  21   2.0000      -0.597765       -16.2660
  22   2.0000      -0.584624       -15.9084
  23   2.0000      -0.573212       -15.5979
  24   2.0000      -0.558860       -15.2074
  25   2.0000      -0.535939       -14.5836
  26   2.0000      -0.516986       -14.0679
  27   2.0000      -0.506177       -13.7738
  28   2.0000      -0.489365       -13.3163
  29   2.0000      -0.476618       -12.9694
  30   2.0000      -0.461471       -12.5573
  31   2.0000      -0.442409       -12.0386
  32   2.0000      -0.399799       -10.8791
  33   2.0000      -0.376821       -10.2538
  34   0.0000       0.135252         3.6804
  35   0.0000       0.151858         4.1323
  36   0.0000       0.161047         4.3823
  37   0.0000       0.163119         4.4387
  38   0.0000       0.167006         4.5445

MULLIKEN ATOMIC CHARGES
-----------------------
   0 C :   -0.388168
   1 C :   -0.202579
   2 C :   -0.223901
   3 C :    0.072827
   4 O :   -0.326247
   5 C :   -0.047194
   6 C :   -0.393753
   7 C :    0.024869
   8 C :   -0.102176
   9 H :    0.124786
  10 H :    0.136538
  11 H :    0.120916
  12 H :    0.108529
  13 H :    0.128572
  14 H :    0.112019
  15 H :    0.113443
  16 H :    0.125054
  17 H :    0.134943
  18 H :    0.140284
  19 H :    0.147030
  20 H :    0.194207
Sum of atomic charges:    0.0000000

LOEWDIN ATOMIC CHARGES
----------------------
   0 C :   -0.320490
   1 C :   -0.288115
   2 C :   -0.250673
   3 C :   -0.234448
   4 O :    0.192801
   5 C :   -0.312798
   6 C :   -0.248005
   7 C :   -0.062546
   8 C :   -0.078211
   9 H :    0.120870
  10 H :    0.121968
  11 H :    0.120027
  12 H :    0.135824
  13 H :    0.141009
  14 H :    0.141786
  15 H :    0.146047
  16 H :    0.146091
  17 H :    0.128295
  18 H :    0.135794
  19 H :    0.136432
  20 H :    0.128341

  Mayer bond orders larger than 0.1
B(  0-C ,  1-C ) :   0.9190 B(  0-C ,  9-H ) :   0.9401 B(  0-C , 10-H ) :   0.9435
B(  0-C , 11-H ) :   0.9381 B(  1-C ,  2-C ) :   0.9320 B(  1-C , 12-H ) :   0.9322
B(  1-C , 13-H ) :   0.9335 B(  2-C ,  3-C ) :   0.8929 B(  2-C , 14-H ) :   0.9335
B(  2-C , 15-H ) :   0.9189 B(  3-C ,  4-O ) :   0.8405 B(  3-C ,  5-C ) :   0.9734
B(  3-C , 16-H ) :   0.9116 B(  4-O ,  5-C ) :   0.9567 B(  5-C ,  6-C ) :   0.9341
B(  5-C ,  7-C ) :   1.1288 B(  5-C ,  8-C ) :  -0.1549 B(  6-C , 17-H ) :   0.9362
B(  6-C , 18-H ) :   0.9280 B(  6-C , 19-H ) :   0.9336 B(  7-C ,  8-C ) :   2.5839
B(  8-C , 20-H ) :   0.8897

MP2 TOTAL ENERGY:     -386.358988891 Eh
FINAL SINGLE POINT ENERGY      -386.358988891205

DIPOLE MOMENT
-------------
                                X             Y             Z
Electronic contribution:      1.20098     -11.50118       2.83406
Nuclear contribution   :     -1.60641      11.91706      -2.40040
                        -----------------------------------------
Total Dipole Moment    :     -0.40543       0.41587       0.43366
                        -----------------------------------------
Magnitude (a.u.)       :      0.72484
Magnitude (Debye)      :      1.84239

                             ****ORCA TERMINATED NORMALLY****
TOTAL RUN TIME: 0 days 0 hours 18 minutes 0 seconds 667 msec
