                         Program Version 3.0.3 - RELEASE   -
|  1> ! RI-MP2 RIJK def2-TZVP def2-TZVP/C def2-TZVP/JK TIGHTSCF
|  2> % maxcore 2000
|  3> % mp2 density relaxed end
|  4> *xyz 0 1
|  5>  C        0.0391449396     1.5559752373     0.0114680851
|  6>  C        0.0383744785     0.0190654510     0.0048663001
|  7>  C       -1.4013796367    -0.5611890408     0.0673836404
|  8>  C       -2.1209661256    -0.1719050502     1.2725411140
|  9>  C       -2.6951835466     0.1544067080     2.2768038115
| 10>  C        0.7082093041    -0.4774335888    -1.2620724145
| 11>  O        1.7194480786    -1.1269084624    -1.3060677300
| 12>  H        1.0602891198     1.9466577077     0.0326014070
| 13>  H       -0.4592155550     1.9546671340    -0.8799698718
| 14>  H       -0.4943292668     1.9282237812     0.8895570829
| 15>  H        0.6153513087    -0.3625150316     0.8520882138
| 16>  H       -1.9627669636    -0.2314847187    -0.8177231009
| 17>  H       -1.3529197400    -1.6558485052     0.0114877640
| 18>  H       -3.2149967019     0.4343813767     3.1594583773
| 19>  H        0.1775158670    -0.1763894483    -2.1987469189
| 20> *
| 21>
| 22>                          ****END OF INPUT****

CARTESIAN COORDINATES (ANGSTROEM)
---------------------------------
  C      0.039145    1.555975    0.011468
  C      0.038374    0.019065    0.004866
  C     -1.401380   -0.561189    0.067384
  C     -2.120966   -0.171905    1.272541
  C     -2.695184    0.154407    2.276804
  C      0.708209   -0.477434   -1.262072
  O      1.719448   -1.126908   -1.306068
  H      1.060289    1.946658    0.032601
  H     -0.459216    1.954667   -0.879970
  H     -0.494329    1.928224    0.889557
  H      0.615351   -0.362515    0.852088
  H     -1.962767   -0.231485   -0.817723
  H     -1.352920   -1.655849    0.011488
  H     -3.214997    0.434381    3.159458
  H      0.177516   -0.176389   -2.198747

 Total Charge           Charge          ....    0
 Multiplicity           Mult            ....    1
 Number of Electrons    NEL             ....   52
 Basis Dimension        Dim             ....  265

ORBITAL ENERGIES
----------------

  NO   OCC          E(Eh)            E(eV)
   0   2.0000     -20.563697      -559.5666
   1   2.0000     -11.336053      -308.4697
   2   2.0000     -11.272554      -306.7418
   3   2.0000     -11.258651      -306.3635
   4   2.0000     -11.244810      -305.9868
   5   2.0000     -11.235712      -305.7393
   6   2.0000     -11.231558      -305.6262
   7   2.0000      -1.402490       -38.1637
   8   2.0000      -1.122157       -30.5354
   9   2.0000      -1.039480       -28.2857
  10   2.0000      -0.961539       -26.1648
  11   2.0000      -0.893609       -24.3163
  12   2.0000      -0.792847       -21.5745
  13   2.0000      -0.730452       -19.8766
  14   2.0000      -0.674663       -18.3585
  15   2.0000      -0.665178       -18.1004
  16   2.0000      -0.632462       -17.2102
  17   2.0000      -0.624449       -16.9921
  18   2.0000      -0.589512       -16.0414
  19   2.0000      -0.560181       -15.2433
  20   2.0000      -0.536104       -14.5881
  21   2.0000      -0.511024       -13.9057
  22   2.0000      -0.503439       -13.6993
  23   2.0000      -0.426615       -11.6088
  24   2.0000      -0.396839       -10.7985
  25   2.0000      -0.394064       -10.7230
  26   0.0000       0.125847         3.4245
  27   0.0000       0.131932         3.5900
  28   0.0000       0.156817         4.2672
  29   0.0000       0.161212         4.3868
  30   0.0000       0.166790         4.5386

MULLIKEN ATOMIC CHARGES
-----------------------
   0 C :   -0.427430
   1 C :    0.058642
   2 C :   -0.411604
   3 C :   -0.021155
   4 C :   -0.122921
   5 C :    0.068539
   6 O :   -0.251929
   7 H :    0.147471
   8 H :    0.125749
   9 H :    0.159990
  10 H :    0.104900
  11 H :    0.145348
  12 H :    0.160713
  13 H :    0.193154
  14 H :    0.070533
Sum of atomic charges:    0.0000000

LOEWDIN ATOMIC CHARGES
----------------------
   0 C :   -0.279449
   1 C :   -0.263605
   2 C :   -0.223895
   3 C :   -0.112306
   4 C :   -0.100635
   5 C :   -0.275931
   6 O :    0.140451
   7 H :    0.129228
   8 H :    0.126627
   9 H :    0.135049
  10 H :    0.161188
  11 H :    0.160026
  12 H :    0.163019
  13 H :    0.127577
  14 H :    0.112656

  Mayer bond orders larger than 0.1
B(  0-C ,  1-C ) :   0.9054 B(  0-C ,  7-H ) :   0.9347 B(  0-C ,  8-H ) :   0.9243
B(  0-C ,  9-H ) :   0.9286 B(  1-C ,  2-C ) :   0.9051 B(  1-C ,  5-C ) :   0.8498
B(  1-C , 10-H ) :   0.8992 B(  2-C ,  3-C ) :   1.0926 B(  2-C ,  4-C ) :  -0.1118
B(  2-C , 11-H ) :   0.9190 B(  2-C , 12-H ) :   0.9165 B(  3-C ,  4-C ) :   2.6203
B(  4-C , 13-H ) :   0.8955 B(  5-C ,  6-O ) :   2.0157 B(  5-C , 14-H ) :   0.9306

MP2 TOTAL ENERGY:     -307.951017085 Eh
FINAL SINGLE POINT ENERGY      -307.951017084683

DIPOLE MOMENT
-------------
                                X             Y             Z
Electronic contribution:      1.13565      -3.65732      -0.16768
Nuclear contribution   :     -1.86169       4.20400       0.28874
                        -----------------------------------------
Total Dipole Moment    :     -0.72603       0.54668       0.12107
                        -----------------------------------------
Magnitude (a.u.)       :      0.91686
Magnitude (Debye)      :      2.33048

                             ****ORCA TERMINATED NORMALLY****
TOTAL RUN TIME: 0 days 0 hours 7 minutes 40 seconds 195 msec
