                         Program Version 3.0.3 - RELEASE   -
|  1> ! RI-MP2 RIJK def2-TZVP def2-TZVP/C def2-TZVP/JK TIGHTSCF
|  2> % maxcore 2000
|  3> % mp2 density relaxed end
|  4> *xyz 0 1
|  5>  C       -0.3145181063     1.3918913428    -0.3817622862
|  6>  O       -0.2390110761     0.1140798275    -1.0339387996
|  7>  C        0.9194794906    -0.5409814156    -0.8872787270
|  8>  O        1.8597588928    -0.1509474563    -0.2439913012
|  9>  C        0.8909977022    -1.8808533810    -1.5988411366
| 10>  C       -0.1932224539    -2.8818849060    -1.1372756641
| 11>  C       -0.7173442305    -2.7063214688    -2.5632553740
| 12>  O       -1.6041971254    -3.1132933256    -3.2355039520
| 13>  O        0.2743519031    -1.8206957509    -2.9226220269
| 14>  H       -0.1822015134     1.2789504389     0.6968835457
| 15>  H        0.4595079502     2.0600770238    -0.7659917541
| 16>  H       -1.3058250780     1.7811391666    -0.6104013232
| 17>  H        1.9079937160    -2.2670982940    -1.6584719080
| 18>  H        0.1565282147    -3.8876460689    -0.9024934015
| 19>  H       -0.8751386158    -2.5296025225    -0.3631212414
| 20> *
| 21>
| 22>                          ****END OF INPUT****

CARTESIAN COORDINATES (ANGSTROEM)
---------------------------------
  C     -0.314518    1.391891   -0.381762
  O     -0.239011    0.114080   -1.033939
  C      0.919479   -0.540981   -0.887279
  O      1.859759   -0.150947   -0.243991
  C      0.890998   -1.880853   -1.598841
  C     -0.193222   -2.881885   -1.137276
  C     -0.717344   -2.706321   -2.563255
  O     -1.604197   -3.113293   -3.235504
  O      0.274352   -1.820696   -2.922622
  H     -0.182202    1.278950    0.696884
  H      0.459508    2.060077   -0.765992
  H     -1.305825    1.781139   -0.610401
  H      1.907994   -2.267098   -1.658472
  H      0.156528   -3.887646   -0.902493
  H     -0.875139   -2.529603   -0.363121

 Total Charge           Charge          ....    0
 Multiplicity           Mult            ....    1
 Number of Electrons    NEL             ....   68
 Basis Dimension        Dim             ....  315

ORBITAL ENERGIES
----------------

  NO   OCC          E(Eh)            E(eV)
   0   2.0000     -20.625123      -561.2381
   1   2.0000     -20.619742      -561.0917
   2   2.0000     -20.570030      -559.7390
   3   2.0000     -20.566349      -559.6388
   4   2.0000     -11.403482      -310.3045
   5   2.0000     -11.399456      -310.1950
   6   2.0000     -11.338963      -308.5489
   7   2.0000     -11.301752      -307.5363
   8   2.0000     -11.284155      -307.0575
   9   2.0000      -1.492116       -40.6025
  10   2.0000      -1.474260       -40.1167
  11   2.0000      -1.395889       -37.9841
  12   2.0000      -1.385699       -37.7068
  13   2.0000      -1.080874       -29.4121
  14   2.0000      -1.012194       -27.5432
  15   2.0000      -0.946578       -25.7577
  16   2.0000      -0.807008       -21.9598
  17   2.0000      -0.774076       -21.0637
  18   2.0000      -0.748087       -20.3565
  19   2.0000      -0.730085       -19.8666
  20   2.0000      -0.704670       -19.1750
  21   2.0000      -0.689350       -18.7582
  22   2.0000      -0.682087       -18.5605
  23   2.0000      -0.648589       -17.6490
  24   2.0000      -0.597628       -16.2623
  25   2.0000      -0.588759       -16.0209
  26   2.0000      -0.582798       -15.8587
  27   2.0000      -0.571912       -15.5625
  28   2.0000      -0.549147       -14.9430
  29   2.0000      -0.530366       -14.4320
  30   2.0000      -0.497326       -13.5329
  31   2.0000      -0.483785       -13.1645
  32   2.0000      -0.462563       -12.5870
  33   2.0000      -0.459206       -12.4956
  34   0.0000       0.124169         3.3788
  35   0.0000       0.133208         3.6248
  36   0.0000       0.143476         3.9042
  37   0.0000       0.153690         4.1821
  38   0.0000       0.169701         4.6178

MULLIKEN ATOMIC CHARGES
-----------------------
   0 C :   -0.234159
   1 O :   -0.239388
   2 C :    0.245531
   3 O :   -0.311208
   4 C :    0.164951
   5 C :   -0.311753
   6 C :    0.262817
   7 O :   -0.247301
   8 O :   -0.240175
   9 H :    0.142949
  10 H :    0.147721
  11 H :    0.152574
  12 H :    0.148018
  13 H :    0.159956
  14 H :    0.159466
Sum of atomic charges:    0.0000000

LOEWDIN ATOMIC CHARGES
----------------------
   0 C :   -0.296665
   1 O :    0.247236
   2 C :   -0.480283
   3 O :    0.139414
   4 C :   -0.212520
   5 C :   -0.179462
   6 C :   -0.453165
   7 O :    0.167928
   8 O :    0.259220
   9 H :    0.115413
  10 H :    0.117640
  11 H :    0.118232
  12 H :    0.153510
  13 H :    0.150363
  14 H :    0.153141

  Mayer bond orders larger than 0.1
B(  0-C ,  1-O ) :   0.8342 B(  0-C ,  9-H ) :   0.9369 B(  0-C , 10-H ) :   0.9388
B(  0-C , 11-H ) :   0.9328 B(  1-O ,  2-C ) :   1.1656 B(  2-C ,  3-O ) :   1.9243
B(  2-C ,  4-C ) :   0.9013 B(  4-C ,  5-C ) :   0.8800 B(  4-C ,  8-O ) :   0.8828
B(  4-C , 12-H ) :   0.9219 B(  5-C ,  6-C ) :   0.9424 B(  5-C , 13-H ) :   0.9082
B(  5-C , 14-H ) :   0.9009 B(  6-C ,  7-O ) :   2.0640 B(  6-C ,  8-O ) :   1.0661

MP2 TOTAL ENERGY:     -494.181147052 Eh
FINAL SINGLE POINT ENERGY      -494.181147051838

DIPOLE MOMENT
-------------
                                X             Y             Z
Electronic contribution:      0.44298      -3.42101      -4.21207
Nuclear contribution   :     -0.36278       3.69241       5.31903
                        -----------------------------------------
Total Dipole Moment    :      0.08020       0.27140       1.10696
                        -----------------------------------------
Magnitude (a.u.)       :      1.14256
Magnitude (Debye)      :      2.90416

                             ****ORCA TERMINATED NORMALLY****
TOTAL RUN TIME: 0 days 0 hours 12 minutes 54 seconds 619 msec
