                         Program Version 3.0.3 - RELEASE   -
|  1> ! RI-MP2 RIJK def2-TZVP def2-TZVP/C def2-TZVP/JK TIGHTSCF
|  2> % maxcore 2000
|  3> % mp2 density relaxed end
|  4> *xyz 0 1
|  5>  C        0.0024900190     1.5208099937     0.1691598468
|  6>  C        1.3085286532     0.7816317686     0.0295667908
|  7>  C        0.0013193041     0.0189107325     0.0285720252
|  8>  C       -0.0204184885    -0.6168549702    -1.3852956304
|  9>  O        1.3716682168    -0.8020349732    -1.6875878974
| 10>  C        1.9251155093     0.4778024385    -1.3508536965
| 11>  C        1.5704401991     1.4659875006    -2.4836249863
| 12>  C        0.1528934573     1.2494664048    -2.9640749055
| 13>  C       -0.6103290201     0.2873324512    -2.4459209036
| 14>  H       -0.2224730331     1.9192390765     1.1541817186
| 15>  H       -0.3689002781     2.1245952670    -0.6496232190
| 16>  H        1.9729194722     0.7362979446     0.8848991662
| 17>  H       -0.2949257821    -0.5995730533     0.8677252630
| 18>  H       -0.4941243886    -1.6007989044    -1.3821158048
| 19>  H        3.0085015932     0.3580502633    -1.2746042799
| 20>  H        1.7046044271     2.4998843183    -2.1385761531
| 21>  H        2.2676097987     1.3314052620    -3.3214878435
| 22>  H       -0.2196325105     1.9038780807    -3.7479499152
| 23>  H       -1.6419907490     0.1408884883    -2.7506149556
| 24> *
| 25>
| 26>                          ****END OF INPUT****

CARTESIAN COORDINATES (ANGSTROEM)
---------------------------------
  C      0.002490    1.520810    0.169160
  C      1.308529    0.781632    0.029567
  C      0.001319    0.018911    0.028572
  C     -0.020418   -0.616855   -1.385296
  O      1.371668   -0.802035   -1.687588
  C      1.925116    0.477802   -1.350854
  C      1.570440    1.465988   -2.483625
  C      0.152893    1.249466   -2.964075
  C     -0.610329    0.287332   -2.445921
  H     -0.222473    1.919239    1.154182
  H     -0.368900    2.124595   -0.649623
  H      1.972919    0.736298    0.884899
  H     -0.294926   -0.599573    0.867725
  H     -0.494124   -1.600799   -1.382116
  H      3.008502    0.358050   -1.274604
  H      1.704604    2.499884   -2.138576
  H      2.267610    1.331405   -3.321488
  H     -0.219633    1.903878   -3.747950
  H     -1.641991    0.140888   -2.750615

 Total Charge           Charge          ....    0
 Multiplicity           Mult            ....    1
 Number of Electrons    NEL             ....   66
 Basis Dimension        Dim             ....  339

ORBITAL ENERGIES
----------------

  NO   OCC          E(Eh)            E(eV)
   0   2.0000     -20.542556      -558.9914
   1   2.0000     -11.282607      -307.0153
   2   2.0000     -11.280287      -306.9522
   3   2.0000     -11.231165      -305.6155
   4   2.0000     -11.229918      -305.5816
   5   2.0000     -11.229462      -305.5692
   6   2.0000     -11.228353      -305.5390
   7   2.0000     -11.227420      -305.5136
   8   2.0000     -11.221847      -305.3620
   9   2.0000      -1.376134       -37.4465
  10   2.0000      -1.147527       -31.2258
  11   2.0000      -1.074599       -29.2413
  12   2.0000      -1.027861       -27.9695
  13   2.0000      -0.892979       -24.2992
  14   2.0000      -0.876300       -23.8453
  15   2.0000      -0.809658       -22.0319
  16   2.0000      -0.769109       -20.9285
  17   2.0000      -0.722043       -19.6478
  18   2.0000      -0.701482       -19.0883
  19   2.0000      -0.654975       -17.8228
  20   2.0000      -0.615719       -16.7546
  21   2.0000      -0.604336       -16.4448
  22   2.0000      -0.583599       -15.8805
  23   2.0000      -0.573712       -15.6115
  24   2.0000      -0.547265       -14.8918
  25   2.0000      -0.541909       -14.7461
  26   2.0000      -0.509417       -13.8619
  27   2.0000      -0.483320       -13.1518
  28   2.0000      -0.464275       -12.6336
  29   2.0000      -0.423842       -11.5333
  30   2.0000      -0.412527       -11.2254
  31   2.0000      -0.395455       -10.7609
  32   2.0000      -0.348249        -9.4763
  33   0.0000       0.142207         3.8696
  34   0.0000       0.153019         4.1639
  35   0.0000       0.158078         4.3015
  36   0.0000       0.168147         4.5755
  37   0.0000       0.180034         4.8990

MULLIKEN ATOMIC CHARGES
-----------------------
   0 C :   -0.217724
   1 C :   -0.198476
   2 C :   -0.203684
   3 C :    0.215082
   4 O :   -0.317834
   5 C :    0.120293
   6 C :   -0.197818
   7 C :   -0.220328
   8 C :   -0.249264
   9 H :    0.126702
  10 H :    0.142916
  11 H :    0.131103
  12 H :    0.130543
  13 H :    0.128413
  14 H :    0.117247
  15 H :    0.124286
  16 H :    0.126663
  17 H :    0.122862
  18 H :    0.119019
Sum of atomic charges:   -0.0000000

LOEWDIN ATOMIC CHARGES
----------------------
   0 C :   -0.198129
   1 C :   -0.177070
   2 C :   -0.168808
   3 C :   -0.263830
   4 O :    0.191323
   5 C :   -0.269407
   6 C :   -0.229353
   7 C :   -0.167259
   8 C :   -0.148291
   9 H :    0.134864
  10 H :    0.140089
  11 H :    0.144165
  12 H :    0.141940
  13 H :    0.148229
  14 H :    0.145568
  15 H :    0.148209
  16 H :    0.146254
  17 H :    0.140685
  18 H :    0.140819

  Mayer bond orders larger than 0.1
B(  0-C ,  1-C ) :   0.8933 B(  0-C ,  2-C ) :   0.8915 B(  0-C ,  9-H ) :   0.9253
B(  0-C , 10-H ) :   0.9070 B(  1-C ,  2-C ) :   0.8694 B(  1-C ,  5-C ) :   0.9586
B(  1-C , 11-H ) :   0.9194 B(  2-C ,  3-C ) :   0.9237 B(  2-C , 12-H ) :   0.9173
B(  3-C ,  4-O ) :   0.9410 B(  3-C ,  8-C ) :   0.8939 B(  3-C , 13-H ) :   0.9157
B(  4-O ,  5-C ) :   0.9386 B(  5-C ,  6-C ) :   0.9362 B(  5-C , 14-H ) :   0.9197
B(  6-C ,  7-C ) :   0.9552 B(  6-C , 15-H ) :   0.9074 B(  6-C , 16-H ) :   0.9098
B(  7-C ,  8-C ) :   1.8180 B(  7-C , 17-H ) :   0.9386 B(  8-C , 18-H ) :   0.9252

MP2 TOTAL ENERGY:     -385.203305264 Eh
FINAL SINGLE POINT ENERGY      -385.203305263975

DIPOLE MOMENT
-------------
                                X             Y             Z
Electronic contribution:      0.56154      -3.26392      -0.73015
Nuclear contribution   :     -0.75224       3.77056       1.02590
                        -----------------------------------------
Total Dipole Moment    :     -0.19070       0.50664       0.29575
                        -----------------------------------------
Magnitude (a.u.)       :      0.61686
Magnitude (Debye)      :      1.56793

                             ****ORCA TERMINATED NORMALLY****
TOTAL RUN TIME: 0 days 0 hours 19 minutes 4 seconds 358 msec
