                         Program Version 3.0.3 - RELEASE   -
|  1> ! RI-MP2 RIJK def2-TZVP def2-TZVP/C def2-TZVP/JK TIGHTSCF
|  2> % maxcore 2000
|  3> % mp2 density relaxed end
|  4> *xyz 0 1
|  5>  C        0.0072002086     1.6061648104    -0.0075204141
|  6>  C        0.0050821254     0.0745941864    -0.0197747660
|  7>  C        0.9730363069    -0.5020667028    -1.1258917060
|  8>  C        2.3047522309    -0.7104636988    -0.4037314812
|  9>  C        2.0722481016    -0.7403683357     0.9021244800
| 10>  C        2.5008802306    -0.3272637960     2.2914599667
| 11>  O        2.0828460268     1.0550782280     2.3724874128
| 12>  C        1.0965663336     0.0481568494     2.6044861312
| 13>  C        0.6120274405    -0.5614603674     1.2515632534
| 14>  H        1.0115734698     1.9967516297     0.1734267582
| 15>  H       -0.3546931755     2.0000471590    -0.9632320458
| 16>  H       -0.6450629816     1.9919351456     0.7828053078
| 17>  H       -1.0165747822    -0.2784185651    -0.1951806991
| 18>  H        0.5830407826    -1.4411424812    -1.5434340409
| 19>  H        1.0770157924     0.1898785839    -1.9704296784
| 20>  H        3.2586889011    -0.7466163390    -0.9165943705
| 21>  H        3.3209399111    -0.6314639848     2.9291950560
| 22>  H        0.5827074533     0.0755141567     3.5587177501
| 23>  H        0.1448550440    -1.5292439282     1.4828236959
| 24> *
| 25>
| 26>                          ****END OF INPUT****

CARTESIAN COORDINATES (ANGSTROEM)
---------------------------------
  C      0.007200    1.606165   -0.007520
  C      0.005082    0.074594   -0.019775
  C      0.973036   -0.502067   -1.125892
  C      2.304752   -0.710464   -0.403731
  C      2.072248   -0.740368    0.902124
  C      2.500880   -0.327264    2.291460
  O      2.082846    1.055078    2.372487
  C      1.096566    0.048157    2.604486
  C      0.612027   -0.561460    1.251563
  H      1.011573    1.996752    0.173427
  H     -0.354693    2.000047   -0.963232
  H     -0.645063    1.991935    0.782805
  H     -1.016575   -0.278419   -0.195181
  H      0.583041   -1.441142   -1.543434
  H      1.077016    0.189879   -1.970430
  H      3.258689   -0.746616   -0.916594
  H      3.320940   -0.631464    2.929195
  H      0.582707    0.075514    3.558718
  H      0.144855   -1.529244    1.482824

 Total Charge           Charge          ....    0
 Multiplicity           Mult            ....    1
 Number of Electrons    NEL             ....   66
 Basis Dimension        Dim             ....  339

ORBITAL ENERGIES
----------------

  NO   OCC          E(Eh)            E(eV)
   0   2.0000     -20.571755      -559.7859
   1   2.0000     -11.298392      -307.4449
   2   2.0000     -11.293742      -307.3183
   3   2.0000     -11.232992      -305.6652
   4   2.0000     -11.231888      -305.6352
   5   2.0000     -11.231395      -305.6218
   6   2.0000     -11.229660      -305.5746
   7   2.0000     -11.228243      -305.5360
   8   2.0000     -11.204639      -304.8937
   9   2.0000      -1.419000       -38.6130
  10   2.0000      -1.150289       -31.3009
  11   2.0000      -1.031243       -28.0616
  12   2.0000      -0.999097       -27.1868
  13   2.0000      -0.907644       -24.6982
  14   2.0000      -0.876620       -23.8541
  15   2.0000      -0.843421       -22.9506
  16   2.0000      -0.767388       -20.8817
  17   2.0000      -0.714769       -19.4499
  18   2.0000      -0.683418       -18.5968
  19   2.0000      -0.653932       -17.7944
  20   2.0000      -0.629031       -17.1168
  21   2.0000      -0.589460       -16.0400
  22   2.0000      -0.555132       -15.1059
  23   2.0000      -0.546001       -14.8574
  24   2.0000      -0.539670       -14.6852
  25   2.0000      -0.530270       -14.4294
  26   2.0000      -0.505040       -13.7428
  27   2.0000      -0.496326       -13.5057
  28   2.0000      -0.468199       -12.7403
  29   2.0000      -0.457812       -12.4577
  30   2.0000      -0.422369       -11.4932
  31   2.0000      -0.396576       -10.7914
  32   2.0000      -0.341325        -9.2879
  33   0.0000       0.137217         3.7339
  34   0.0000       0.140508         3.8234
  35   0.0000       0.162649         4.4259
  36   0.0000       0.169873         4.6225
  37   0.0000       0.177101         4.8192

MULLIKEN ATOMIC CHARGES
-----------------------
   0 C :   -0.450947
   1 C :   -0.008876
   2 C :   -0.187618
   3 C :   -0.200468
   4 C :   -0.079556
   5 C :   -0.016643
   6 O :   -0.307607
   7 C :   -0.037637
   8 C :    0.017046
   9 H :    0.156627
  10 H :    0.127488
  11 H :    0.125320
  12 H :    0.098664
  13 H :    0.118943
  14 H :    0.119528
  15 H :    0.133295
  16 H :    0.145269
  17 H :    0.138066
  18 H :    0.109106
Sum of atomic charges:    0.0000000

LOEWDIN ATOMIC CHARGES
----------------------
   0 C :   -0.291333
   1 C :   -0.230478
   2 C :   -0.205332
   3 C :   -0.121697
   4 C :   -0.125301
   5 C :   -0.193919
   6 O :    0.179106
   7 C :   -0.217767
   8 C :   -0.149544
   9 H :    0.131063
  10 H :    0.120804
  11 H :    0.124007
  12 H :    0.143717
  13 H :    0.137936
  14 H :    0.138477
  15 H :    0.136448
  16 H :    0.132419
  17 H :    0.128729
  18 H :    0.162663

  Mayer bond orders larger than 0.1
B(  0-C ,  1-C ) :   0.8941 B(  0-C ,  9-H ) :   0.9336 B(  0-C , 10-H ) :   0.9314
B(  0-C , 11-H ) :   0.9411 B(  1-C ,  2-C ) :   0.9149 B(  1-C ,  8-C ) :   0.8866
B(  1-C , 12-H ) :   0.9313 B(  2-C ,  3-C ) :   0.9342 B(  2-C , 13-H ) :   0.9070
B(  2-C , 14-H ) :   0.9239 B(  3-C ,  4-C ) :   1.7356 B(  3-C , 15-H ) :   0.9222
B(  4-C ,  5-C ) :   0.8728 B(  4-C ,  8-C ) :   0.9453 B(  5-C ,  6-O ) :   0.9038
B(  5-C ,  7-C ) :   0.9336 B(  5-C , 16-H ) :   0.9254 B(  6-O ,  7-C ) :   0.9199
B(  7-C ,  8-C ) :   0.8741 B(  7-C , 17-H ) :   0.9319 B(  8-C , 18-H ) :   0.8885

MP2 TOTAL ENERGY:     -385.147169784 Eh
FINAL SINGLE POINT ENERGY      -385.147169783831

DIPOLE MOMENT
-------------
                                X             Y             Z
Electronic contribution:      4.29095      -1.69504       5.04305
Nuclear contribution   :     -4.52216       1.14569      -5.08587
                        -----------------------------------------
Total Dipole Moment    :     -0.23121      -0.54935      -0.04282
                        -----------------------------------------
Magnitude (a.u.)       :      0.59756
Magnitude (Debye)      :      1.51888

                             ****ORCA TERMINATED NORMALLY****
TOTAL RUN TIME: 0 days 0 hours 19 minutes 22 seconds 814 msec
