                         Program Version 3.0.3 - RELEASE   -
|  1> ! RI-MP2 RIJK def2-TZVP def2-TZVP/C def2-TZVP/JK TIGHTSCF
|  2> % maxcore 2000
|  3> % mp2 density relaxed end
|  4> *xyz 0 1
|  5>  N       -0.4535425328    -1.1120389414     0.4992561469
|  6>  C       -0.2473159839    -0.0016049248     0.2482360599
|  7>  C        0.0014951144     1.3764232786    -0.1027090339
|  8>  C        0.7114303175     2.2591652479     0.8826919682
|  9>  N        1.3654413870     1.8621030175    -0.3481037363
| 10>  C        2.4770549569     0.9090869433    -0.2463727947
| 11>  C        3.7723424870     1.6435606537    -0.0013617640
| 12>  C        5.0163905586     1.1819137679    -0.6664245429
| 13>  N        4.3828930101     2.4478421625    -1.0667726063
| 14>  H       -0.7540549117     1.8039707518    -0.7556700557
| 15>  H        0.4201478350     3.3022875613     0.9611537141
| 16>  H        1.0280122736     1.7907030014     1.8131748144
| 17>  H        2.3151958012     0.1633225354     0.5490452926
| 18>  H        2.5285207301     0.3644891379    -1.1964430018
| 19>  H        3.8538737333     2.1015935506     0.9831175053
| 20>  H        5.9732615248     1.2861203268    -0.1633541980
| 21>  H        4.9480188008     0.3242906058    -1.3314467380
| 22>  H        3.8583381883     2.3261136339    -1.9301773497
| 23> *
| 24>
| 25>                          ****END OF INPUT****

CARTESIAN COORDINATES (ANGSTROEM)
---------------------------------
  N     -0.453543   -1.112039    0.499256
  C     -0.247316   -0.001605    0.248236
  C      0.001495    1.376423   -0.102709
  C      0.711430    2.259165    0.882692
  N      1.365441    1.862103   -0.348104
  C      2.477055    0.909087   -0.246373
  C      3.772342    1.643561   -0.001362
  C      5.016391    1.181914   -0.666425
  N      4.382893    2.447842   -1.066773
  H     -0.754055    1.803971   -0.755670
  H      0.420148    3.302288    0.961154
  H      1.028012    1.790703    1.813175
  H      2.315196    0.163323    0.549045
  H      2.528521    0.364489   -1.196443
  H      3.853874    2.101594    0.983118
  H      5.973262    1.286120   -0.163354
  H      4.948019    0.324291   -1.331447
  H      3.858338    2.326114   -1.930177

 Total Charge           Charge          ....    0
 Multiplicity           Mult            ....    1
 Number of Electrons    NEL             ....   66
 Basis Dimension        Dim             ....  333

ORBITAL ENERGIES
----------------

  NO   OCC          E(Eh)            E(eV)
   0   2.0000     -15.600301      -424.5058
   1   2.0000     -15.581784      -424.0019
   2   2.0000     -15.562534      -423.4781
   3   2.0000     -11.319067      -308.0075
   4   2.0000     -11.294778      -307.3465
   5   2.0000     -11.284881      -307.0772
   6   2.0000     -11.279531      -306.9316
   7   2.0000     -11.269094      -306.6476
   8   2.0000     -11.262369      -306.4646
   9   2.0000      -1.319332       -35.9008
  10   2.0000      -1.267546       -34.4917
  11   2.0000      -1.224786       -33.3281
  12   2.0000      -1.047368       -28.5003
  13   2.0000      -0.940807       -25.6007
  14   2.0000      -0.905174       -24.6310
  15   2.0000      -0.870023       -23.6745
  16   2.0000      -0.812013       -22.0960
  17   2.0000      -0.749415       -20.3926
  18   2.0000      -0.697678       -18.9848
  19   2.0000      -0.674987       -18.3673
  20   2.0000      -0.663195       -18.0465
  21   2.0000      -0.607612       -16.5340
  22   2.0000      -0.592241       -16.1157
  23   2.0000      -0.569290       -15.4912
  24   2.0000      -0.563260       -15.3271
  25   2.0000      -0.528095       -14.3702
  26   2.0000      -0.507171       -13.8008
  27   2.0000      -0.489300       -13.3145
  28   2.0000      -0.479795       -13.0559
  29   2.0000      -0.475833       -12.9481
  30   2.0000      -0.455034       -12.3821
  31   2.0000      -0.403421       -10.9776
  32   2.0000      -0.395761       -10.7692
  33   0.0000       0.132631         3.6091
  34   0.0000       0.135225         3.6797
  35   0.0000       0.150120         4.0850
  36   0.0000       0.157180         4.2771
  37   0.0000       0.160882         4.3778

MULLIKEN ATOMIC CHARGES
-----------------------
   0 N :   -0.053488
   1 C :   -0.188596
   2 C :    0.025599
   3 C :   -0.161587
   4 N :   -0.181314
   5 C :   -0.215619
   6 C :   -0.012586
   7 C :   -0.188116
   8 N :   -0.356660
   9 H :    0.162954
  10 H :    0.148834
  11 H :    0.143283
  12 H :    0.134659
  13 H :    0.138639
  14 H :    0.123796
  15 H :    0.126879
  16 H :    0.128961
  17 H :    0.224363
Sum of atomic charges:    0.0000000

LOEWDIN ATOMIC CHARGES
----------------------
   0 N :    0.069547
   1 C :   -0.187081
   2 C :   -0.242771
   3 C :   -0.212310
   4 N :    0.134236
   5 C :   -0.276141
   6 C :   -0.283281
   7 C :   -0.264096
   8 N :   -0.011353
   9 H :    0.164825
  10 H :    0.132919
  11 H :    0.134680
  12 H :    0.140118
  13 H :    0.143330
  14 H :    0.142445
  15 H :    0.125518
  16 H :    0.122008
  17 H :    0.167409

  Mayer bond orders larger than 0.1
B(  0-N ,  1-C ) :   2.8231 B(  1-C ,  2-C ) :   0.9612 B(  2-C ,  3-C ) :   0.8936
B(  2-C ,  4-N ) :   0.9266 B(  2-C ,  9-H ) :   0.9029 B(  3-C ,  4-N ) :   0.8904
B(  3-C , 10-H ) :   0.9233 B(  3-C , 11-H ) :   0.9152 B(  4-N ,  5-C ) :   0.8576
B(  5-C ,  6-C ) :   0.9418 B(  5-C , 12-H ) :   0.9154 B(  5-C , 13-H ) :   0.9266
B(  6-C ,  7-C ) :   0.9543 B(  6-C ,  8-N ) :   0.9364 B(  6-C , 14-H ) :   0.9079
B(  7-C ,  8-N ) :   0.9305 B(  7-C , 15-H ) :   0.9216 B(  7-C , 16-H ) :   0.9164
B(  8-N , 17-H ) :   0.8743

MP2 TOTAL ENERGY:     -397.381412971 Eh
FINAL SINGLE POINT ENERGY      -397.381412971294

DIPOLE MOMENT
-------------
                                X             Y             Z
Electronic contribution:     -6.10701      -2.03742       0.15888
Nuclear contribution   :      6.25873       2.55949      -0.14844
                        -----------------------------------------
Total Dipole Moment    :      0.15172       0.52207       0.01044
                        -----------------------------------------
Magnitude (a.u.)       :      0.54377
Magnitude (Debye)      :      1.38214

                             ****ORCA TERMINATED NORMALLY****
TOTAL RUN TIME: 0 days 0 hours 16 minutes 53 seconds 395 msec
