                         Program Version 3.0.3 - RELEASE   -
|  1> ! RI-MP2 RIJK def2-TZVP def2-TZVP/C def2-TZVP/JK TIGHTSCF
|  2> % maxcore 2000
|  3> % mp2 density relaxed end
|  4> *xyz 0 1
|  5>  C        0.0477902680     1.3558344204     0.1169921980
|  6>  C        0.0518053541    -0.1487421785     0.0606045534
|  7>  C        0.6483300862    -1.0541448843    -1.0642828316
|  8>  C        0.0602938460    -2.0390599156    -0.0158059635
|  9>  C        0.7172608309    -1.1403618032     1.0697565761
| 10>  C       -1.1905713347    -1.1093293911     0.0220571444
| 11>  C       -2.1989279733    -1.1810449445     1.1766687051
| 12>  C       -3.1119660326    -0.0419692640     1.1870456514
| 13>  C       -3.8536407110     0.9043417795     1.1719230711
| 14>  H        1.0704551056     1.7491976971     0.1303514621
| 15>  H       -0.4655631658     1.7791341271    -0.7531204431
| 16>  H       -0.4677093136     1.7169953541     1.0125942659
| 17>  H        0.1535603805    -1.0159021879    -2.0395064977
| 18>  H        1.7372590625    -1.0458748584    -1.1657069021
| 19>  H        0.0667245104    -3.1290280693    -0.0629700047
| 20>  H        1.8110414281    -1.1353472919     1.0924117574
| 21>  H        0.3176323613    -1.1810069542     2.0848925012
| 22>  H       -1.7413330992    -1.0658188620    -0.9244607581
| 23>  H       -2.7814181753    -2.1068697593     1.0754773704
| 24>  H       -1.6964784765    -1.2490644941     2.1473222585
| 25>  H       -4.5138414916     1.7356927200     1.1685604260
| 26> *
| 27>
| 28>                          ****END OF INPUT****

CARTESIAN COORDINATES (ANGSTROEM)
---------------------------------
  C      0.047790    1.355834    0.116992
  C      0.051805   -0.148742    0.060605
  C      0.648330   -1.054145   -1.064283
  C      0.060294   -2.039060   -0.015806
  C      0.717261   -1.140362    1.069757
  C     -1.190571   -1.109329    0.022057
  C     -2.198928   -1.181045    1.176669
  C     -3.111966   -0.041969    1.187046
  C     -3.853641    0.904342    1.171923
  H      1.070455    1.749198    0.130351
  H     -0.465563    1.779134   -0.753120
  H     -0.467709    1.716995    1.012594
  H      0.153560   -1.015902   -2.039506
  H      1.737259   -1.045875   -1.165707
  H      0.066725   -3.129028   -0.062970
  H      1.811041   -1.135347    1.092412
  H      0.317632   -1.181007    2.084893
  H     -1.741333   -1.065819   -0.924461
  H     -2.781418   -2.106870    1.075477
  H     -1.696478   -1.249064    2.147322
  H     -4.513841    1.735693    1.168560

 Total Charge           Charge          ....    0
 Multiplicity           Mult            ....    1
 Number of Electrons    NEL             ....   66
 Basis Dimension        Dim             ....  351

ORBITAL ENERGIES
----------------

  NO   OCC          E(Eh)            E(eV)
   0   2.0000     -11.248170      -306.0783
   1   2.0000     -11.247381      -306.0568
   2   2.0000     -11.241948      -305.9090
   3   2.0000     -11.238165      -305.8060
   4   2.0000     -11.230542      -305.5986
   5   2.0000     -11.225135      -305.4515
   6   2.0000     -11.224998      -305.4477
   7   2.0000     -11.215829      -305.1982
   8   2.0000     -11.210724      -305.0593
   9   2.0000      -1.212061       -32.9819
  10   2.0000      -1.065618       -28.9969
  11   2.0000      -0.982690       -26.7404
  12   2.0000      -0.974716       -26.5234
  13   2.0000      -0.906266       -24.6607
  14   2.0000      -0.861759       -23.4497
  15   2.0000      -0.808825       -22.0093
  16   2.0000      -0.725263       -19.7354
  17   2.0000      -0.710311       -19.3285
  18   2.0000      -0.647195       -17.6111
  19   2.0000      -0.630484       -17.1564
  20   2.0000      -0.623213       -16.9585
  21   2.0000      -0.608144       -16.5484
  22   2.0000      -0.567084       -15.4311
  23   2.0000      -0.558126       -15.1874
  24   2.0000      -0.552804       -15.0426
  25   2.0000      -0.501359       -13.6427
  26   2.0000      -0.457970       -12.4620
  27   2.0000      -0.448774       -12.2118
  28   2.0000      -0.432941       -11.7809
  29   2.0000      -0.431969       -11.7545
  30   2.0000      -0.424946       -11.5634
  31   2.0000      -0.380858       -10.3637
  32   2.0000      -0.378246       -10.2926
  33   0.0000       0.138669         3.7734
  34   0.0000       0.154266         4.1978
  35   0.0000       0.166229         4.5233
  36   0.0000       0.168361         4.5813
  37   0.0000       0.172187         4.6854

MULLIKEN ATOMIC CHARGES
-----------------------
   0 C :   -0.398611
   1 C :   -0.031148
   2 C :   -0.186646
   3 C :   -0.132597
   4 C :   -0.218958
   5 C :   -0.035426
   6 C :   -0.363616
   7 C :   -0.019488
   8 C :   -0.162698
   9 H :    0.131766
  10 H :    0.132851
  11 H :    0.142375
  12 H :    0.109071
  13 H :    0.110745
  14 H :    0.132295
  15 H :    0.107983
  16 H :    0.109381
  17 H :    0.099209
  18 H :    0.145861
  19 H :    0.140944
  20 H :    0.186707
Sum of atomic charges:   -0.0000000

LOEWDIN ATOMIC CHARGES
----------------------
   0 C :   -0.278421
   1 C :   -0.214809
   2 C :   -0.176933
   3 C :   -0.166544
   4 C :   -0.177873
   5 C :   -0.153959
   6 C :   -0.228037
   7 C :   -0.108015
   8 C :   -0.112016
   9 H :    0.127996
  10 H :    0.130597
  11 H :    0.131427
  12 H :    0.127998
  13 H :    0.128343
  14 H :    0.123375
  15 H :    0.128781
  16 H :    0.122760
  17 H :    0.151608
  18 H :    0.161029
  19 H :    0.157277
  20 H :    0.125415

  Mayer bond orders larger than 0.1
B(  0-C ,  1-C ) :   0.8438 B(  0-C ,  9-H ) :   0.9382 B(  0-C , 10-H ) :   0.9419
B(  0-C , 11-H ) :   0.9379 B(  1-C ,  2-C ) :   0.8896 B(  1-C ,  4-C ) :   0.8866
B(  1-C ,  5-C ) :   0.8840 B(  2-C ,  3-C ) :   0.9068 B(  2-C , 12-H ) :   0.9299
B(  2-C , 13-H ) :   0.9250 B(  3-C ,  4-C ) :   0.9078 B(  3-C ,  5-C ) :   0.8938
B(  3-C , 14-H ) :   0.8959 B(  4-C , 15-H ) :   0.9256 B(  4-C , 16-H ) :   0.9299
B(  5-C ,  6-C ) :   0.8950 B(  5-C , 17-H ) :   0.9263 B(  6-C ,  7-C ) :   1.0857
B(  6-C , 18-H ) :   0.9252 B(  6-C , 19-H ) :   0.9271 B(  7-C ,  8-C ) :   2.6117
B(  8-C , 20-H ) :   0.9050

MP2 TOTAL ENERGY:     -349.224009537 Eh
FINAL SINGLE POINT ENERGY      -349.224009536853

DIPOLE MOMENT
-------------
                                X             Y             Z
Electronic contribution:     -4.24572      -0.91878       0.97790
Nuclear contribution   :      4.44086       0.83651      -1.01316
                        -----------------------------------------
Total Dipole Moment    :      0.19513      -0.08227      -0.03526
                        -----------------------------------------
Magnitude (a.u.)       :      0.21468
Magnitude (Debye)      :      0.54568

                             ****ORCA TERMINATED NORMALLY****
TOTAL RUN TIME: 0 days 0 hours 19 minutes 51 seconds 647 msec
