                         Program Version 3.0.3 - RELEASE   -
|  1> ! RI-MP2 RIJK def2-TZVP def2-TZVP/C def2-TZVP/JK TIGHTSCF
|  2> % maxcore 2000
|  3> % mp2 density relaxed end
|  4> *xyz 0 1
|  5>  O        0.0094263583     0.0100331984     0.1218753650
|  6>  C       -0.0401555022     1.1992486900    -0.0348751511
|  7>  C       -1.2714241405     2.0937993386    -0.0818588475
|  8>  C       -0.8158731750     3.3852772115    -0.8021520391
|  9>  C        0.6850886499     3.4822292584    -0.5342381581
| 10>  C        1.6071742635     4.4772257849    -1.2025079275
| 11>  C        1.3171891761     4.6345575075     0.2508583102
| 12>  C        1.2007349368     2.1213898374    -0.2267646168
| 13>  O        2.3482846675     1.7689519455    -0.1125402611
| 14>  H       -2.1186450782     1.5864092077    -0.5471567326
| 15>  H       -1.5521977359     2.3100230174     0.9576925757
| 16>  H       -1.0002950183     3.2925813828    -1.8784442505
| 17>  H       -1.3610209713     4.2673724420    -0.4572818915
| 18>  H        2.5836959190     4.0984614431    -1.4854397284
| 19>  H        1.1523010031     5.1719116227    -1.9006130251
| 20>  H        0.6469337307     5.4264854375     0.5680275636
| 21>  H        2.0938387464     4.3667079846     0.9587656449
| 22> *
| 23>
| 24>                          ****END OF INPUT****

CARTESIAN COORDINATES (ANGSTROEM)
---------------------------------
  O      0.009426    0.010033    0.121875
  C     -0.040156    1.199249   -0.034875
  C     -1.271424    2.093799   -0.081859
  C     -0.815873    3.385277   -0.802152
  C      0.685089    3.482229   -0.534238
  C      1.607174    4.477226   -1.202508
  C      1.317189    4.634558    0.250858
  C      1.200735    2.121390   -0.226765
  O      2.348285    1.768952   -0.112540
  H     -2.118645    1.586409   -0.547157
  H     -1.552198    2.310023    0.957693
  H     -1.000295    3.292581   -1.878444
  H     -1.361021    4.267372   -0.457282
  H      2.583696    4.098461   -1.485440
  H      1.152301    5.171912   -1.900613
  H      0.646934    5.426485    0.568028
  H      2.093839    4.366708    0.958766

 Total Charge           Charge          ....    0
 Multiplicity           Mult            ....    1
 Number of Electrons    NEL             ....   66
 Basis Dimension        Dim             ....  327

ORBITAL ENERGIES
----------------

  NO   OCC          E(Eh)            E(eV)
   0   2.0000     -20.572533      -559.8071
   1   2.0000     -20.565861      -559.6255
   2   2.0000     -11.345109      -308.7161
   3   2.0000     -11.341959      -308.6304
   4   2.0000     -11.263906      -306.5065
   5   2.0000     -11.258893      -306.3701
   6   2.0000     -11.258253      -306.3526
   7   2.0000     -11.257036      -306.3195
   8   2.0000     -11.253413      -306.2209
   9   2.0000      -1.419640       -38.6304
  10   2.0000      -1.394614       -37.9494
  11   2.0000      -1.188311       -32.3356
  12   2.0000      -1.096498       -29.8372
  13   2.0000      -0.939452       -25.5638
  14   2.0000      -0.926282       -25.2054
  15   2.0000      -0.849034       -23.1034
  16   2.0000      -0.793441       -21.5906
  17   2.0000      -0.722942       -19.6722
  18   2.0000      -0.688930       -18.7467
  19   2.0000      -0.684288       -18.6204
  20   2.0000      -0.655980       -17.8501
  21   2.0000      -0.647987       -17.6326
  22   2.0000      -0.616436       -16.7741
  23   2.0000      -0.575504       -15.6602
  24   2.0000      -0.566801       -15.4235
  25   2.0000      -0.560172       -15.2431
  26   2.0000      -0.551731       -15.0134
  27   2.0000      -0.535669       -14.5763
  28   2.0000      -0.498049       -13.5526
  29   2.0000      -0.490225       -13.3397
  30   2.0000      -0.458250       -12.4696
  31   2.0000      -0.420393       -11.4395
  32   2.0000      -0.387859       -10.5542
  33   0.0000       0.056652         1.5416
  34   0.0000       0.123717         3.3665
  35   0.0000       0.146175         3.9776
  36   0.0000       0.156275         4.2524
  37   0.0000       0.176418         4.8006

MULLIKEN ATOMIC CHARGES
-----------------------
   0 O :   -0.229390
   1 C :    0.146934
   2 C :   -0.231520
   3 C :   -0.222769
   4 C :    0.075778
   5 C :   -0.262727
   6 C :   -0.285963
   7 C :    0.134032
   8 O :   -0.268055
   9 H :    0.150550
  10 H :    0.143329
  11 H :    0.131112
  12 H :    0.129752
  13 H :    0.155073
  14 H :    0.142019
  15 H :    0.138422
  16 H :    0.153424
Sum of atomic charges:    0.0000000

LOEWDIN ATOMIC CHARGES
----------------------
   0 O :    0.192088
   1 C :   -0.280177
   2 C :   -0.215056
   3 C :   -0.200144
   4 C :   -0.213861
   5 C :   -0.184115
   6 C :   -0.176548
   7 C :   -0.263927
   8 O :    0.183008
   9 H :    0.148211
  10 H :    0.159788
  11 H :    0.144776
  12 H :    0.140268
  13 H :    0.146132
  14 H :    0.139528
  15 H :    0.136886
  16 H :    0.143141

  Mayer bond orders larger than 0.1
B(  0-O ,  1-C ) :   2.0376 B(  1-C ,  2-C ) :   0.9194 B(  1-C ,  7-C ) :   0.8546
B(  2-C ,  3-C ) :   0.9185 B(  2-C ,  9-H ) :   0.9136 B(  2-C , 10-H ) :   0.9035
B(  3-C ,  4-C ) :   0.8761 B(  3-C , 11-H ) :   0.9206 B(  3-C , 12-H ) :   0.9194
B(  4-C ,  5-C ) :   0.7982 B(  4-C ,  6-C ) :   0.7984 B(  4-C ,  7-C ) :   0.9089
B(  5-C ,  6-C ) :   0.9645 B(  5-C , 13-H ) :   0.9184 B(  5-C , 14-H ) :   0.9265
B(  6-C , 15-H ) :   0.9253 B(  6-C , 16-H ) :   0.9207 B(  7-C ,  8-O ) :   1.9566

MP2 TOTAL ENERGY:     -421.140190511 Eh
FINAL SINGLE POINT ENERGY      -421.140190511273

DIPOLE MOMENT
-------------
                                X             Y             Z
Electronic contribution:      2.79988      -7.83606       1.16829
Nuclear contribution   :     -3.82063       9.46754      -1.40936
                        -----------------------------------------
Total Dipole Moment    :     -1.02075       1.63148      -0.24106
                        -----------------------------------------
Magnitude (a.u.)       :      1.93953
Magnitude (Debye)      :      4.92990

                             ****ORCA TERMINATED NORMALLY****
TOTAL RUN TIME: 0 days 0 hours 17 minutes 55 seconds 451 msec
