                         Program Version 3.0.3 - RELEASE   -
|  1> ! RI-MP2 RIJK def2-TZVP def2-TZVP/C def2-TZVP/JK TIGHTSCF
|  2> % maxcore 2000
|  3> % mp2 density relaxed end
|  4> *xyz 0 1
|  5>  N        0.5760559793     0.5950608752     0.4887524462
|  6>  C       -0.3828868773     0.1729788509    -0.3876311333
|  7>  O       -0.4160846454     0.5103723472    -1.5563024390
|  8>  C       -1.4242111325    -0.7831012616     0.1947300551
|  9>  C       -0.9037569330    -2.2226010098     0.1475260319
| 10>  C       -1.7702590269    -3.2741478218    -0.4714288331
| 11>  N       -0.5850627511    -2.7935517420    -1.1816683024
| 12>  C        0.0048755234    -2.5695332691     1.2154625393
| 13>  C        0.7378251779    -2.8145092690     2.1377118065
| 14>  H        1.3759831916     1.0612238453     0.0879249830
| 15>  H        0.7251681486     0.0832288205     1.3445144196
| 16>  H       -1.6896347365    -0.5172698884     1.2221520625
| 17>  H       -2.3132957576    -0.6928651960    -0.4324946229
| 18>  H       -1.7030266633    -4.2965644853    -0.1123711882
| 19>  H       -2.7582070871    -2.9656897721    -0.8042609321
| 20>  H       -0.8310058088    -2.1070571513    -1.8936497126
| 21>  H        1.3892706387    -3.0671308027     2.9377757297
| 22> *
| 23>
| 24>                          ****END OF INPUT****

CARTESIAN COORDINATES (ANGSTROEM)
---------------------------------
  N      0.576056    0.595061    0.488752
  C     -0.382887    0.172979   -0.387631
  O     -0.416085    0.510372   -1.556302
  C     -1.424211   -0.783101    0.194730
  C     -0.903757   -2.222601    0.147526
  C     -1.770259   -3.274148   -0.471429
  N     -0.585063   -2.793552   -1.181668
  C      0.004876   -2.569533    1.215463
  C      0.737825   -2.814509    2.137712
  H      1.375983    1.061224    0.087925
  H      0.725168    0.083229    1.344514
  H     -1.689635   -0.517270    1.222152
  H     -2.313296   -0.692865   -0.432495
  H     -1.703027   -4.296564   -0.112371
  H     -2.758207   -2.965690   -0.804261
  H     -0.831006   -2.107057   -1.893650
  H      1.389271   -3.067131    2.937776

 Total Charge           Charge          ....    0
 Multiplicity           Mult            ....    1
 Number of Electrons    NEL             ....   66
 Basis Dimension        Dim             ....  327

ORBITAL ENERGIES
----------------

  NO   OCC          E(Eh)            E(eV)
   0   2.0000     -20.525777      -558.5348
   1   2.0000     -15.585019      -424.0899
   2   2.0000     -15.575022      -423.8179
   3   2.0000     -11.357822      -309.0620
   4   2.0000     -11.308887      -307.7305
   5   2.0000     -11.277101      -306.8655
   6   2.0000     -11.259333      -306.3820
   7   2.0000     -11.249991      -306.1278
   8   2.0000     -11.239791      -305.8503
   9   2.0000      -1.389086       -37.7990
  10   2.0000      -1.287513       -35.0350
  11   2.0000      -1.215644       -33.0794
  12   2.0000      -1.065059       -28.9817
  13   2.0000      -1.023276       -27.8447
  14   2.0000      -0.913272       -24.8514
  15   2.0000      -0.869128       -23.6502
  16   2.0000      -0.803370       -21.8608
  17   2.0000      -0.736506       -20.0413
  18   2.0000      -0.724416       -19.7124
  19   2.0000      -0.694630       -18.9018
  20   2.0000      -0.681265       -18.5382
  21   2.0000      -0.671532       -18.2733
  22   2.0000      -0.605929       -16.4882
  23   2.0000      -0.588933       -16.0257
  24   2.0000      -0.568926       -15.4813
  25   2.0000      -0.540001       -14.6942
  26   2.0000      -0.522307       -14.2127
  27   2.0000      -0.505189       -13.7469
  28   2.0000      -0.436624       -11.8811
  29   2.0000      -0.427834       -11.6420
  30   2.0000      -0.423622       -11.5273
  31   2.0000      -0.405327       -11.0295
  32   2.0000      -0.378459       -10.2984
  33   0.0000       0.126767         3.4495
  34   0.0000       0.148835         4.0500
  35   0.0000       0.154122         4.1939
  36   0.0000       0.158156         4.3037
  37   0.0000       0.160583         4.3697

MULLIKEN ATOMIC CHARGES
-----------------------
   0 N :   -0.468650
   1 C :    0.266865
   2 O :   -0.353071
   3 C :   -0.224467
   4 C :   -0.077863
   5 C :   -0.160588
   6 N :   -0.357041
   7 C :   -0.038180
   8 C :   -0.098876
   9 H :    0.259854
  10 H :    0.268815
  11 H :    0.152771
  12 H :    0.129732
  13 H :    0.132712
  14 H :    0.131142
  15 H :    0.239836
  16 H :    0.197010
Sum of atomic charges:   -0.0000000

LOEWDIN ATOMIC CHARGES
----------------------
   0 N :   -0.011105
   1 C :   -0.475052
   2 O :    0.081641
   3 C :   -0.182381
   4 C :   -0.294283
   5 C :   -0.220612
   6 N :    0.033100
   7 C :   -0.068839
   8 C :   -0.089768
   9 H :    0.175807
  10 H :    0.175842
  11 H :    0.154298
  12 H :    0.157942
  13 H :    0.132132
  14 H :    0.125270
  15 H :    0.176922
  16 H :    0.129084

  Mayer bond orders larger than 0.1
B(  0-N ,  1-C ) :   1.1747 B(  0-N ,  9-H ) :   0.8603 B(  0-N , 10-H ) :   0.8619
B(  1-C ,  2-O ) :   1.9635 B(  1-C ,  3-C ) :   0.8909 B(  3-C ,  4-C ) :   0.9449
B(  3-C , 11-H ) :   0.9120 B(  3-C , 12-H ) :   0.9095 B(  4-C ,  5-C ) :   0.9210
B(  4-C ,  6-N ) :   0.8478 B(  4-C ,  7-C ) :   1.2280 B(  4-C ,  8-C ) :  -0.1717
B(  5-C ,  6-N ) :   0.9522 B(  5-C , 13-H ) :   0.9188 B(  5-C , 14-H ) :   0.9045
B(  6-N , 15-H ) :   0.8573 B(  7-C ,  8-C ) :   2.5791 B(  8-C , 16-H ) :   0.8759

MP2 TOTAL ENERGY:     -417.268669901 Eh
FINAL SINGLE POINT ENERGY      -417.268669901277

DIPOLE MOMENT
-------------
                                X             Y             Z
Electronic contribution:      1.78830       1.11549      -0.82613
Nuclear contribution   :     -1.96160      -1.22354       2.06641
                        -----------------------------------------
Total Dipole Moment    :     -0.17330      -0.10805       1.24028
                        -----------------------------------------
Magnitude (a.u.)       :      1.25698
Magnitude (Debye)      :      3.19500

                             ****ORCA TERMINATED NORMALLY****
TOTAL RUN TIME: 0 days 0 hours 18 minutes 22 seconds 897 msec
