                         Program Version 3.0.3 - RELEASE   -
|  1> ! RI-MP2 RIJK def2-TZVP def2-TZVP/C def2-TZVP/JK TIGHTSCF
|  2> % maxcore 2000
|  3> % mp2 density relaxed end
|  4> *xyz 0 1
|  5>  C        0.3472171943     1.5237660710     0.0954240335
|  6>  C        0.4361231402    -0.0051275013     0.1205716445
|  7>  C        0.5241299414    -0.6125777088    -1.2799313270
|  8>  O        1.6777477592    -0.0733813626    -1.9691462426
|  9>  C        2.7054543143    -0.9666562442    -2.0012351298
| 10>  O        3.7717111013    -0.6970008360    -2.4719012674
| 11>  C        2.2456123676    -2.2727447253    -1.3657680103
| 12>  C        0.7176852077    -2.1505847520    -1.3569231806
| 13>  C       -0.0067717538    -2.9781212544    -0.2979039312
| 14>  H        1.2200446746     1.9556724098    -0.4000742282
| 15>  H       -0.5443688214     1.8568281963    -0.4475509727
| 16>  H        0.2911028370     1.9287802918     1.1098448628
| 17>  H        1.3063033399    -0.3181816684     0.7115521286
| 18>  H       -0.4469512536    -0.4207406566     0.6196537114
| 19>  H       -0.3481383963    -0.2963592874    -1.8620073505
| 20>  H        2.6358535502    -3.1244899605    -1.9247208474
| 21>  H        2.6597304503    -2.3287114158    -0.3514514103
| 22>  H        0.3546905970    -2.4604481873    -2.3446015932
| 23>  H        0.3537535817    -2.7530372902     0.7104572615
| 24>  H       -1.0869218897    -2.7984256040    -0.3189552794
| 25>  H        0.1523172381    -4.0463054940    -0.4748163318
| 26> *
| 27>
| 28>                          ****END OF INPUT****

CARTESIAN COORDINATES (ANGSTROEM)
---------------------------------
  C      0.347217    1.523766    0.095424
  C      0.436123   -0.005128    0.120572
  C      0.524130   -0.612578   -1.279931
  O      1.677748   -0.073381   -1.969146
  C      2.705454   -0.966656   -2.001235
  O      3.771711   -0.697001   -2.471901
  C      2.245612   -2.272745   -1.365768
  C      0.717685   -2.150585   -1.356923
  C     -0.006772   -2.978121   -0.297904
  H      1.220045    1.955672   -0.400074
  H     -0.544369    1.856828   -0.447551
  H      0.291103    1.928780    1.109845
  H      1.306303   -0.318182    0.711552
  H     -0.446951   -0.420741    0.619654
  H     -0.348138   -0.296359   -1.862007
  H      2.635854   -3.124490   -1.924721
  H      2.659730   -2.328711   -0.351451
  H      0.354691   -2.460448   -2.344602
  H      0.353754   -2.753037    0.710457
  H     -1.086922   -2.798426   -0.318955
  H      0.152317   -4.046305   -0.474816

 Total Charge           Charge          ....    0
 Multiplicity           Mult            ....    1
 Number of Electrons    NEL             ....   70
 Basis Dimension        Dim             ....  351

ORBITAL ENERGIES
----------------

  NO   OCC          E(Eh)            E(eV)
   0   2.0000     -20.593489      -560.3773
   1   2.0000     -20.534942      -558.7842
   2   2.0000     -11.373071      -309.4770
   3   2.0000     -11.301331      -307.5249
   4   2.0000     -11.255653      -306.2819
   5   2.0000     -11.250706      -306.1473
   6   2.0000     -11.237577      -305.7900
   7   2.0000     -11.236756      -305.7677
   8   2.0000     -11.219623      -305.3015
   9   2.0000      -1.451602       -39.5001
  10   2.0000      -1.361175       -37.0394
  11   2.0000      -1.113913       -30.3111
  12   2.0000      -1.059965       -28.8431
  13   2.0000      -0.985855       -26.8265
  14   2.0000      -0.942106       -25.6360
  15   2.0000      -0.854316       -23.2471
  16   2.0000      -0.810777       -22.0624
  17   2.0000      -0.754949       -20.5432
  18   2.0000      -0.703207       -19.1352
  19   2.0000      -0.676567       -18.4103
  20   2.0000      -0.656410       -17.8618
  21   2.0000      -0.624300       -16.9881
  22   2.0000      -0.606772       -16.5111
  23   2.0000      -0.597656       -16.2630
  24   2.0000      -0.585173       -15.9234
  25   2.0000      -0.563263       -15.3272
  26   2.0000      -0.549338       -14.9483
  27   2.0000      -0.540875       -14.7180
  28   2.0000      -0.525082       -14.2882
  29   2.0000      -0.516910       -14.0658
  30   2.0000      -0.496111       -13.4999
  31   2.0000      -0.478296       -13.0151
  32   2.0000      -0.472623       -12.8607
  33   2.0000      -0.441673       -12.0185
  34   2.0000      -0.429921       -11.6987
  35   0.0000       0.118716         3.2304
  36   0.0000       0.140607         3.8261
  37   0.0000       0.150099         4.0844
  38   0.0000       0.158158         4.3037
  39   0.0000       0.168753         4.5920

MULLIKEN ATOMIC CHARGES
-----------------------
   0 C :   -0.394746
   1 C :   -0.251638
   2 C :    0.075371
   3 O :   -0.229089
   4 C :    0.253292
   5 O :   -0.284975
   6 C :   -0.279031
   7 C :   -0.048569
   8 C :   -0.421901
   9 H :    0.154873
  10 H :    0.120580
  11 H :    0.135822
  12 H :    0.119642
  13 H :    0.118190
  14 H :    0.113134
  15 H :    0.148788
  16 H :    0.136882
  17 H :    0.109727
  18 H :    0.136176
  19 H :    0.140914
  20 H :    0.146560
Sum of atomic charges:    0.0000000

LOEWDIN ATOMIC CHARGES
----------------------
   0 C :   -0.313323
   1 C :   -0.274420
   2 C :   -0.255316
   3 O :    0.274292
   4 C :   -0.464993
   5 O :    0.135277
   6 C :   -0.206761
   7 C :   -0.254708
   8 C :   -0.291310
   9 H :    0.128469
  10 H :    0.122234
  11 H :    0.121985
  12 H :    0.140655
  13 H :    0.143321
  14 H :    0.146667
  15 H :    0.151664
  16 H :    0.156009
  17 H :    0.159112
  18 H :    0.125633
  19 H :    0.126974
  20 H :    0.128540

  Mayer bond orders larger than 0.1
B(  0-C ,  1-C ) :   0.9282 B(  0-C ,  9-H ) :   0.9368 B(  0-C , 10-H ) :   0.9358
B(  0-C , 11-H ) :   0.9400 B(  1-C ,  2-C ) :   0.9275 B(  1-C , 12-H ) :   0.9209
B(  1-C , 13-H ) :   0.9275 B(  2-C ,  3-O ) :   0.8396 B(  2-C ,  7-C ) :   0.9027
B(  2-C , 14-H ) :   0.9213 B(  3-O ,  4-C ) :   1.1090 B(  4-C ,  5-O ) :   2.0479
B(  4-C ,  6-C ) :   0.9258 B(  6-C ,  7-C ) :   0.9275 B(  6-C , 15-H ) :   0.9144
B(  6-C , 16-H ) :   0.9021 B(  7-C ,  8-C ) :   0.9015 B(  7-C , 17-H ) :   0.9282
B(  8-C , 18-H ) :   0.9305 B(  8-C , 19-H ) :   0.9419 B(  8-C , 20-H ) :   0.9359

MP2 TOTAL ENERGY:     -423.582538099 Eh
FINAL SINGLE POINT ENERGY      -423.582538099451

DIPOLE MOMENT
-------------
                                X             Y             Z
Electronic contribution:      8.03513       1.09203      -7.53436
Nuclear contribution   :     -9.40838      -1.90972       8.40530
                        -----------------------------------------
Total Dipole Moment    :     -1.37325      -0.81769       0.87094
                        -----------------------------------------
Magnitude (a.u.)       :      1.82015
Magnitude (Debye)      :      4.62646

                             ****ORCA TERMINATED NORMALLY****
TOTAL RUN TIME: 0 days 0 hours 31 minutes 3 seconds 60 msec
