                         Program Version 3.0.3 - RELEASE   -
|  1> ! RI-MP2 RIJK def2-TZVP def2-TZVP/C def2-TZVP/JK TIGHTSCF
|  2> % maxcore 2000
|  3> % mp2 density relaxed end
|  4> *xyz 0 1
|  5>  C        0.1564643509     1.5616495956     0.1184744742
|  6>  N       -0.2202877796     0.1764774474    -0.1461373564
|  7>  C        0.5227516409    -0.4675274208    -1.1724554206
|  8>  C        1.8535361515    -1.3082179508    -0.9979089325
|  9>  C        1.0596351954    -2.4333823533    -0.2954609943
| 10>  C        0.2665952886    -1.9656707662    -1.5471152904
| 11>  O        1.5349696565    -1.9444227523    -2.2992622619
| 12>  C       -0.8989844396    -2.5616557266    -2.1533729971
| 13>  N       -1.8560603858    -3.0224554168    -2.6085969442
| 14>  H        1.1940188644     1.6942203022     0.4666349801
| 15>  H        0.0321075870     2.1506119604    -0.7960499073
| 16>  H       -0.5140884049     1.9776686621     0.8749296090
| 17>  H       -0.2552432570    -0.3604442726     0.7111713667
| 18>  H        0.5679383825     0.1615700967    -2.0642499609
| 19>  H        2.8834761008    -0.9924044227    -0.8426833059
| 20>  H        1.4918632863    -3.4296964918    -0.3868068895
| 21>  H        0.6316058322    -2.2530930506     0.6931339510
| 22> *
| 23>
| 24>                          ****END OF INPUT****

CARTESIAN COORDINATES (ANGSTROEM)
---------------------------------
  C      0.156464    1.561650    0.118474
  N     -0.220288    0.176477   -0.146137
  C      0.522752   -0.467527   -1.172455
  C      1.853536   -1.308218   -0.997909
  C      1.059635   -2.433382   -0.295461
  C      0.266595   -1.965671   -1.547115
  O      1.534970   -1.944423   -2.299262
  C     -0.898984   -2.561656   -2.153373
  N     -1.856060   -3.022455   -2.608597
  H      1.194019    1.694220    0.466635
  H      0.032108    2.150612   -0.796050
  H     -0.514088    1.977669    0.874930
  H     -0.255243   -0.360444    0.711171
  H      0.567938    0.161570   -2.064250
  H      2.883476   -0.992404   -0.842683
  H      1.491863   -3.429696   -0.386807
  H      0.631606   -2.253093    0.693134

 Total Charge           Charge          ....    0
 Multiplicity           Mult            ....    1
 Number of Electrons    NEL             ....   66
 Basis Dimension        Dim             ....  327

ORBITAL ENERGIES
----------------

  NO   OCC          E(Eh)            E(eV)
   0   2.0000     -20.582807      -560.0867
   1   2.0000     -15.584245      -424.0689
   2   2.0000     -15.572128      -423.7392
   3   2.0000     -11.353065      -308.9326
   4   2.0000     -11.322956      -308.1133
   5   2.0000     -11.301786      -307.5372
   6   2.0000     -11.280442      -306.9564
   7   2.0000     -11.270581      -306.6881
   8   2.0000     -11.267117      -306.5938
   9   2.0000      -1.430484       -38.9254
  10   2.0000      -1.238299       -33.6958
  11   2.0000      -1.225681       -33.3525
  12   2.0000      -1.087379       -29.5891
  13   2.0000      -0.967545       -26.3282
  14   2.0000      -0.961702       -26.1692
  15   2.0000      -0.905224       -24.6324
  16   2.0000      -0.797134       -21.6911
  17   2.0000      -0.772229       -21.0134
  18   2.0000      -0.698631       -19.0107
  19   2.0000      -0.656688       -17.8694
  20   2.0000      -0.622373       -16.9356
  21   2.0000      -0.612087       -16.6557
  22   2.0000      -0.593802       -16.1582
  23   2.0000      -0.575093       -15.6491
  24   2.0000      -0.564013       -15.3476
  25   2.0000      -0.544228       -14.8092
  26   2.0000      -0.528409       -14.3787
  27   2.0000      -0.516643       -14.0586
  28   2.0000      -0.514697       -14.0056
  29   2.0000      -0.471211       -12.8223
  30   2.0000      -0.467624       -12.7247
  31   2.0000      -0.436485       -11.8773
  32   2.0000      -0.385037       -10.4774
  33   0.0000       0.119114         3.2413
  34   0.0000       0.137061         3.7296
  35   0.0000       0.145949         3.9715
  36   0.0000       0.152074         4.1381
  37   0.0000       0.165208         4.4955

MULLIKEN ATOMIC CHARGES
-----------------------
   0 C :   -0.302522
   1 N :   -0.305815
   2 C :    0.004802
   3 C :   -0.015168
   4 C :   -0.169314
   5 C :    0.211938
   6 O :   -0.279108
   7 C :   -0.275465
   8 N :   -0.020581
   9 H :    0.118133
  10 H :    0.140139
  11 H :    0.145571
  12 H :    0.205553
  13 H :    0.125630
  14 H :    0.154113
  15 H :    0.139438
  16 H :    0.122657
Sum of atomic charges:   -0.0000000

LOEWDIN ATOMIC CHARGES
----------------------
   0 C :   -0.337495
   1 N :   -0.006812
   2 C :   -0.224015
   3 C :   -0.201556
   4 C :   -0.161264
   5 C :   -0.265430
   6 O :    0.176867
   7 C :   -0.137132
   8 N :    0.093815
   9 H :    0.101614
  10 H :    0.120310
  11 H :    0.119246
  12 H :    0.169855
  13 H :    0.155989
  14 H :    0.126196
  15 H :    0.141882
  16 H :    0.127929

  Mayer bond orders larger than 0.1
B(  0-C ,  1-N ) :   0.9147 B(  0-C ,  9-H ) :   0.9298 B(  0-C , 10-H ) :   0.9377
B(  0-C , 11-H ) :   0.9377 B(  1-N ,  2-C ) :   1.0336 B(  1-N , 12-H ) :   0.8763
B(  2-C ,  3-C ) :   0.8820 B(  2-C ,  5-C ) :   0.8625 B(  2-C , 13-H ) :   0.9050
B(  3-C ,  4-C ) :   0.9022 B(  3-C ,  6-O ) :   0.8783 B(  3-C , 14-H ) :   0.8851
B(  4-C ,  5-C ) :   0.8625 B(  4-C , 15-H ) :   0.9128 B(  4-C , 16-H ) :   0.9244
B(  5-C ,  6-O ) :   0.9273 B(  5-C ,  7-C ) :   0.8572 B(  7-C ,  8-N ) :   2.8650

MP2 TOTAL ENERGY:     -417.224526660 Eh
FINAL SINGLE POINT ENERGY      -417.224526660328

DIPOLE MOMENT
-------------
                                X             Y             Z
Electronic contribution:     -2.29453      -7.56702      -6.15089
Nuclear contribution   :      3.41892       8.56686       7.75142
                        -----------------------------------------
Total Dipole Moment    :      1.12439       0.99984       1.60053
                        -----------------------------------------
Magnitude (a.u.)       :      2.19673
Magnitude (Debye)      :      5.58365

                             ****ORCA TERMINATED NORMALLY****
TOTAL RUN TIME: 0 days 0 hours 26 minutes 44 seconds 564 msec
