                         Program Version 3.0.3 - RELEASE   -
|  1> ! RI-MP2 RIJK def2-TZVP def2-TZVP/C def2-TZVP/JK TIGHTSCF
|  2> % maxcore 2000
|  3> % mp2 density relaxed end
|  4> *xyz 0 1
|  5>  O       -0.3471343943     1.3766963398     0.7750792952
|  6>  C       -0.0712654403     0.1304740150     0.1773292238
|  7>  C        0.5110008725    -0.9814197409     1.1071475397
|  8>  C       -0.8271765253    -1.7733003962     1.0100038145
|  9>  C       -1.8294641093    -1.6882302555     2.1513681291
| 10>  C       -2.0493017266    -0.3529446398     2.8526984498
| 11>  C       -2.9115650769    -0.7484118217     1.6907224832
| 12>  O       -2.5976297011    -0.2217483988     0.4224577866
| 13>  C       -1.3625070581    -0.7364458715    -0.0259234821
| 14>  H        0.4946387793     1.8072384157     0.9567980484
| 15>  H        0.4939858499     0.2635318277    -0.7555209184
| 16>  H        1.3696410943    -1.5061466199     0.6801256143
| 17>  H        0.7718643523    -0.6369199275     2.1106723090
| 18>  H       -0.7325143404    -2.8031211692     0.6602163435
| 19>  H       -2.0699707005    -2.5968293519     2.6904290206
| 20>  H       -2.4914512537    -0.3939583837     3.8430316027
| 21>  H       -1.3467886136     0.4554882048     2.6899471224
| 22>  H       -3.9727565540    -0.9399674022     1.8041670059
| 23>  H       -1.4795846140    -1.0724513741    -1.0613557480
| 24> *
| 25>
| 26>                          ****END OF INPUT****

CARTESIAN COORDINATES (ANGSTROEM)
---------------------------------
  O     -0.347134    1.376696    0.775079
  C     -0.071265    0.130474    0.177329
  C      0.511001   -0.981420    1.107148
  C     -0.827177   -1.773300    1.010004
  C     -1.829464   -1.688230    2.151368
  C     -2.049302   -0.352945    2.852698
  C     -2.911565   -0.748412    1.690722
  O     -2.597630   -0.221748    0.422458
  C     -1.362507   -0.736446   -0.025923
  H      0.494639    1.807238    0.956798
  H      0.493986    0.263532   -0.755521
  H      1.369641   -1.506147    0.680126
  H      0.771864   -0.636920    2.110672
  H     -0.732514   -2.803121    0.660216
  H     -2.069971   -2.596829    2.690429
  H     -2.491451   -0.393958    3.843032
  H     -1.346789    0.455488    2.689947
  H     -3.972757   -0.939967    1.804167
  H     -1.479585   -1.072451   -1.061356

 Total Charge           Charge          ....    0
 Multiplicity           Mult            ....    1
 Number of Electrons    NEL             ....   68
 Basis Dimension        Dim             ....  339

ORBITAL ENERGIES
----------------

  NO   OCC          E(Eh)            E(eV)
   0   2.0000     -20.558638      -559.4290
   1   2.0000     -20.550588      -559.2099
   2   2.0000     -11.280378      -306.9547
   3   2.0000     -11.274212      -306.7869
   4   2.0000     -11.273043      -306.7551
   5   2.0000     -11.232653      -305.6560
   6   2.0000     -11.227793      -305.5238
   7   2.0000     -11.223407      -305.4044
   8   2.0000     -11.216279      -305.2105
   9   2.0000      -1.385766       -37.7086
  10   2.0000      -1.360900       -37.0320
  11   2.0000      -1.133519       -30.8446
  12   2.0000      -1.099147       -29.9093
  13   2.0000      -0.918424       -24.9916
  14   2.0000      -0.898726       -24.4556
  15   2.0000      -0.820442       -22.3254
  16   2.0000      -0.778557       -21.1856
  17   2.0000      -0.744697       -20.2642
  18   2.0000      -0.716653       -19.5011
  19   2.0000      -0.683706       -18.6046
  20   2.0000      -0.645361       -17.5612
  21   2.0000      -0.625118       -17.0103
  22   2.0000      -0.601138       -16.3578
  23   2.0000      -0.582780       -15.8583
  24   2.0000      -0.568244       -15.4627
  25   2.0000      -0.553497       -15.0614
  26   2.0000      -0.537373       -14.6227
  27   2.0000      -0.505704       -13.7609
  28   2.0000      -0.481831       -13.1113
  29   2.0000      -0.458153       -12.4670
  30   2.0000      -0.434630       -11.8269
  31   2.0000      -0.413660       -11.2563
  32   2.0000      -0.397685       -10.8215
  33   2.0000      -0.368796       -10.0354
  34   0.0000       0.133919         3.6441
  35   0.0000       0.148331         4.0363
  36   0.0000       0.166857         4.5404
  37   0.0000       0.169639         4.6161
  38   0.0000       0.191400         5.2083

MULLIKEN ATOMIC CHARGES
-----------------------
   0 O :   -0.440560
   1 C :   -0.049377
   2 C :   -0.251716
   3 C :    0.007858
   4 C :   -0.235973
   5 C :   -0.247451
   6 C :    0.053307
   7 O :   -0.313434
   8 C :    0.097316
   9 H :    0.317892
  10 H :    0.089160
  11 H :    0.119713
  12 H :    0.116078
  13 H :    0.114038
  14 H :    0.123428
  15 H :    0.123944
  16 H :    0.149051
  17 H :    0.120631
  18 H :    0.106093
Sum of atomic charges:   -0.0000000

LOEWDIN ATOMIC CHARGES
----------------------
   0 O :   -0.007187
   1 C :   -0.311648
   2 C :   -0.210205
   3 C :   -0.186020
   4 C :   -0.189710
   5 C :   -0.205950
   6 C :   -0.267793
   7 O :    0.216870
   8 C :   -0.234967
   9 H :    0.176783
  10 H :    0.123876
  11 H :    0.130352
  12 H :    0.134172
  13 H :    0.146073
  14 H :    0.144082
  15 H :    0.133435
  16 H :    0.138964
  17 H :    0.134583
  18 H :    0.134289

  Mayer bond orders larger than 0.1
B(  0-O ,  1-C ) :   1.1008 B(  0-O ,  9-H ) :   0.8397 B(  1-C ,  2-C ) :   0.9085
B(  1-C ,  8-C ) :   0.8594 B(  1-C , 10-H ) :   0.9482 B(  2-C ,  3-C ) :   0.8962
B(  2-C , 11-H ) :   0.9069 B(  2-C , 12-H ) :   0.9061 B(  3-C ,  4-C ) :   0.9288
B(  3-C ,  8-C ) :   0.9471 B(  3-C , 13-H ) :   0.9165 B(  4-C ,  5-C ) :   0.8698
B(  4-C ,  6-C ) :   0.9101 B(  4-C , 14-H ) :   0.9254 B(  5-C ,  6-C ) :   0.8514
B(  5-C , 15-H ) :   0.9165 B(  5-C , 16-H ) :   0.9107 B(  6-C ,  7-O ) :   0.9689
B(  6-C , 17-H ) :   0.9454 B(  7-O ,  8-C ) :   0.9455 B(  8-C , 18-H ) :   0.9400

MP2 TOTAL ENERGY:     -422.284810469 Eh
FINAL SINGLE POINT ENERGY      -422.284810468732

DIPOLE MOMENT
-------------
                                X             Y             Z
Electronic contribution:     -2.50781       1.74996      -2.11626
Nuclear contribution   :      3.38876      -2.25653       2.30937
                        -----------------------------------------
Total Dipole Moment    :      0.88095      -0.50657       0.19311
                        -----------------------------------------
Magnitude (a.u.)       :      1.03440
Magnitude (Debye)      :      2.62924

                             ****ORCA TERMINATED NORMALLY****
TOTAL RUN TIME: 0 days 0 hours 17 minutes 46 seconds 52 msec
