                         Program Version 3.0.3 - RELEASE   -
|  1> ! RI-MP2 RIJK def2-TZVP def2-TZVP/C def2-TZVP/JK TIGHTSCF
|  2> % maxcore 2000
|  3> % mp2 density relaxed end
|  4> *xyz 0 1
|  5>  O        0.1629621877     1.4073502585    -0.1944356917
|  6>  C        0.0720860478    -0.0114249354    -0.0210219110
|  7>  C        0.8196346649    -0.4711558713     1.2012377128
|  8>  C        0.1660421802    -1.1757302530     2.1241189406
|  9>  C       -1.2817002104    -1.5011282947     1.9124173741
| 10>  C       -1.7148573679    -1.9327758542     0.4675017825
| 11>  C       -3.1439846369    -1.4356587690     0.8084593856
| 12>  C       -2.1870781604    -0.3475598520     1.3590661165
| 13>  C       -1.3838085767    -0.4711395097     0.0187563443
| 14>  H       -0.1516710190     1.8098278223     0.6228972019
| 15>  H        0.5463953999    -0.4160625208    -0.9253758166
| 16>  H        1.8640609163    -0.1899530506     1.2955455349
| 17>  H        0.6541898926    -1.5240174165     3.0299838724
| 18>  H       -1.7201642726    -2.0882332559     2.7233236203
| 19>  H       -1.4323095901    -2.8574686468    -0.0394489148
| 20>  H       -3.7763690679    -1.1502142656    -0.0363772175
| 21>  H       -3.7001023191    -2.0167171655     1.5497142191
| 22>  H       -2.4555731201     0.5698365807     1.8879712975
| 23>  H       -1.9181363281    -0.1211847004    -0.8699472209
| 24> *
| 25>
| 26>                          ****END OF INPUT****

CARTESIAN COORDINATES (ANGSTROEM)
---------------------------------
  O      0.162962    1.407350   -0.194436
  C      0.072086   -0.011425   -0.021022
  C      0.819635   -0.471156    1.201238
  C      0.166042   -1.175730    2.124119
  C     -1.281700   -1.501128    1.912417
  C     -1.714857   -1.932776    0.467502
  C     -3.143985   -1.435659    0.808459
  C     -2.187078   -0.347560    1.359066
  C     -1.383809   -0.471140    0.018756
  H     -0.151671    1.809828    0.622897
  H      0.546395   -0.416063   -0.925376
  H      1.864061   -0.189953    1.295546
  H      0.654190   -1.524017    3.029984
  H     -1.720164   -2.088233    2.723324
  H     -1.432310   -2.857469   -0.039449
  H     -3.776369   -1.150214   -0.036377
  H     -3.700102   -2.016717    1.549714
  H     -2.455573    0.569837    1.887971
  H     -1.918136   -0.121185   -0.869947

 Total Charge           Charge          ....    0
 Multiplicity           Mult            ....    1
 Number of Electrons    NEL             ....   66
 Basis Dimension        Dim             ....  339

ORBITAL ENERGIES
----------------

  NO   OCC          E(Eh)            E(eV)
   0   2.0000     -20.551326      -559.2300
   1   2.0000     -11.279214      -306.9230
   2   2.0000     -11.248228      -306.0798
   3   2.0000     -11.247783      -306.0677
   4   2.0000     -11.241117      -305.8864
   5   2.0000     -11.235483      -305.7330
   6   2.0000     -11.232187      -305.6433
   7   2.0000     -11.231240      -305.6176
   8   2.0000     -11.223584      -305.4092
   9   2.0000      -1.355722       -36.8911
  10   2.0000      -1.221208       -33.2307
  11   2.0000      -1.071326       -29.1523
  12   2.0000      -0.980263       -26.6743
  13   2.0000      -0.901944       -24.5431
  14   2.0000      -0.860133       -23.4054
  15   2.0000      -0.839171       -22.8350
  16   2.0000      -0.789042       -21.4709
  17   2.0000      -0.703430       -19.1413
  18   2.0000      -0.679406       -18.4876
  19   2.0000      -0.668370       -18.1873
  20   2.0000      -0.628336       -17.0979
  21   2.0000      -0.610057       -16.6005
  22   2.0000      -0.608021       -16.5451
  23   2.0000      -0.558392       -15.1946
  24   2.0000      -0.533043       -14.5048
  25   2.0000      -0.505026       -13.7424
  26   2.0000      -0.489017       -13.3068
  27   2.0000      -0.482185       -13.1209
  28   2.0000      -0.453021       -12.3273
  29   2.0000      -0.440600       -11.9893
  30   2.0000      -0.432834       -11.7780
  31   2.0000      -0.415868       -11.3163
  32   2.0000      -0.347625        -9.4594
  33   0.0000       0.130938         3.5630
  34   0.0000       0.146068         3.9747
  35   0.0000       0.154308         4.1989
  36   0.0000       0.167553         4.5594
  37   0.0000       0.168301         4.5797

MULLIKEN ATOMIC CHARGES
-----------------------
   0 O :   -0.469427
   1 C :    0.131022
   2 C :   -0.199339
   3 C :   -0.259390
   4 C :    0.039053
   5 C :   -0.133181
   6 C :   -0.197375
   7 C :   -0.161349
   8 C :   -0.113158
   9 H :    0.310607
  10 H :    0.102072
  11 H :    0.125208
  12 H :    0.124092
  13 H :    0.110198
  14 H :    0.130885
  15 H :    0.115266
  16 H :    0.114094
  17 H :    0.126729
  18 H :    0.103992
Sum of atomic charges:   -0.0000000

LOEWDIN ATOMIC CHARGES
----------------------
   0 O :   -0.022619
   1 C :   -0.310105
   2 C :   -0.151171
   3 C :   -0.138555
   4 C :   -0.163913
   5 C :   -0.132528
   6 C :   -0.197118
   7 C :   -0.141916
   8 C :   -0.156372
   9 H :    0.173451
  10 H :    0.153223
  11 H :    0.142738
  12 H :    0.142205
  13 H :    0.146046
  14 H :    0.126613
  15 H :    0.129056
  16 H :    0.128004
  17 H :    0.124115
  18 H :    0.148845

  Mayer bond orders larger than 0.1
B(  0-O ,  1-C ) :   0.8787 B(  0-O ,  9-H ) :   0.8428 B(  1-C ,  2-C ) :   0.9732
B(  1-C ,  8-C ) :   0.9563 B(  1-C , 10-H ) :   0.9112 B(  2-C ,  3-C ) :   1.7514
B(  2-C , 11-H ) :   0.9449 B(  3-C ,  4-C ) :   0.9120 B(  3-C , 12-H ) :   0.9317
B(  4-C ,  5-C ) :   0.8725 B(  4-C ,  7-C ) :   0.8563 B(  4-C , 13-H ) :   0.9287
B(  5-C ,  6-C ) :   0.9077 B(  5-C ,  8-C ) :   0.8461 B(  5-C , 14-H ) :   0.8907
B(  6-C ,  7-C ) :   0.9129 B(  6-C , 15-H ) :   0.9245 B(  6-C , 16-H ) :   0.9280
B(  7-C ,  8-C ) :   0.8530 B(  7-C , 17-H ) :   0.8942 B(  8-C , 18-H ) :   0.9410

MP2 TOTAL ENERGY:     -385.175940540 Eh
FINAL SINGLE POINT ENERGY      -385.175940539514

DIPOLE MOMENT
-------------
                                X             Y             Z
Electronic contribution:      2.30894       1.41163      -0.40039
Nuclear contribution   :     -2.60851      -1.79558       0.91621
                        -----------------------------------------
Total Dipole Moment    :     -0.29956      -0.38394       0.51582
                        -----------------------------------------
Magnitude (a.u.)       :      0.70938
Magnitude (Debye)      :      1.80310

                             ****ORCA TERMINATED NORMALLY****
TOTAL RUN TIME: 0 days 0 hours 18 minutes 38 seconds 322 msec
