                         Program Version 3.0.3 - RELEASE   -
|  1> ! RI-MP2 RIJK def2-TZVP def2-TZVP/C def2-TZVP/JK TIGHTSCF
|  2> % maxcore 2000
|  3> % mp2 density relaxed end
|  4> *xyz 0 1
|  5>  C       -0.3250253582     1.5909753560    -0.0920524253
|  6>  O       -0.2550066364     0.3166424133     0.5057439759
|  7>  C       -1.2565183800    -0.5640376279     0.0777238355
|  8>  C       -1.0946741296    -1.1516388419    -1.3398225404
|  9>  C       -1.8751235449    -2.4737654325    -1.2352487508
| 10>  O       -2.0684260183    -2.7361768961     0.1685549900
| 11>  C       -1.2812176264    -1.8447730017     0.9231015699
| 12>  O        0.0333694252    -2.2894133483     1.0918251567
| 13>  C        0.1375910176    -3.4479356871     1.8972688029
| 14>  H        0.4505877288     2.2059628616     0.3703957219
| 15>  H       -0.1440479055     1.5540742037    -1.1764844158
| 16>  H       -1.3041128490     2.0672492793     0.0777364009
| 17>  H       -2.2476587519    -0.0900777282     0.1727935404
| 18>  H       -1.4814773685    -0.5033711096    -2.1283939688
| 19>  H       -0.0305298264    -1.3274518452    -1.5160656607
| 20>  H       -2.8675418137    -2.4089674196    -1.6943481796
| 21>  H       -1.3404511513    -3.3101553465    -1.6986303495
| 22>  H       -1.7780941662    -1.7337577340     1.8969979029
| 23>  H        1.1997827927    -3.6903206881     1.9728438941
| 24>  H       -0.2597575120    -3.2683398339     2.9080405566
| 25>  H       -0.4000342560    -4.2963484531     1.4568667332
| 26> *
| 27>
| 28>                          ****END OF INPUT****

CARTESIAN COORDINATES (ANGSTROEM)
---------------------------------
  C     -0.325025    1.590975   -0.092052
  O     -0.255007    0.316642    0.505744
  C     -1.256518   -0.564038    0.077724
  C     -1.094674   -1.151639   -1.339823
  C     -1.875124   -2.473765   -1.235249
  O     -2.068426   -2.736177    0.168555
  C     -1.281218   -1.844773    0.923102
  O      0.033369   -2.289413    1.091825
  C      0.137591   -3.447936    1.897269
  H      0.450588    2.205963    0.370396
  H     -0.144048    1.554074   -1.176484
  H     -1.304113    2.067249    0.077736
  H     -2.247659   -0.090078    0.172794
  H     -1.481477   -0.503371   -2.128394
  H     -0.030530   -1.327452   -1.516066
  H     -2.867542   -2.408967   -1.694348
  H     -1.340451   -3.310155   -1.698630
  H     -1.778094   -1.733758    1.896998
  H      1.199783   -3.690321    1.972844
  H     -0.259758   -3.268340    2.908041
  H     -0.400034   -4.296348    1.456867

 Total Charge           Charge          ....    0
 Multiplicity           Mult            ....    1
 Number of Electrons    NEL             ....   72
 Basis Dimension        Dim             ....  351

ORBITAL ENERGIES
----------------

  NO   OCC          E(Eh)            E(eV)
   0   2.0000     -20.556478      -559.3702
   1   2.0000     -20.554971      -559.3292
   2   2.0000     -20.552234      -559.2547
   3   2.0000     -11.324665      -308.1598
   4   2.0000     -11.282637      -307.0162
   5   2.0000     -11.276833      -306.8582
   6   2.0000     -11.272652      -306.7445
   7   2.0000     -11.264005      -306.5092
   8   2.0000     -11.225153      -305.4519
   9   2.0000      -1.418329       -38.5947
  10   2.0000      -1.376809       -37.4649
  11   2.0000      -1.342355       -36.5273
  12   2.0000      -1.054285       -28.6886
  13   2.0000      -0.999276       -27.1917
  14   2.0000      -0.929049       -25.2807
  15   2.0000      -0.905099       -24.6290
  16   2.0000      -0.813010       -22.1231
  17   2.0000      -0.794847       -21.6289
  18   2.0000      -0.714383       -19.4393
  19   2.0000      -0.694304       -18.8930
  20   2.0000      -0.667280       -18.1576
  21   2.0000      -0.642705       -17.4889
  22   2.0000      -0.633469       -17.2376
  23   2.0000      -0.616459       -16.7747
  24   2.0000      -0.598565       -16.2878
  25   2.0000      -0.593445       -16.1485
  26   2.0000      -0.565986       -15.4013
  27   2.0000      -0.546921       -14.8825
  28   2.0000      -0.522807       -14.2263
  29   2.0000      -0.502969       -13.6865
  30   2.0000      -0.497703       -13.5432
  31   2.0000      -0.478178       -13.0119
  32   2.0000      -0.455478       -12.3942
  33   2.0000      -0.439150       -11.9499
  34   2.0000      -0.429525       -11.6880
  35   2.0000      -0.412987       -11.2379
  36   0.0000       0.137671         3.7462
  37   0.0000       0.156242         4.2515
  38   0.0000       0.168479         4.5846
  39   0.0000       0.172455         4.6927
  40   0.0000       0.195780         5.3274

MULLIKEN ATOMIC CHARGES
-----------------------
   0 C :   -0.224759
   1 O :   -0.278878
   2 C :    0.068710
   3 C :   -0.281614
   4 C :   -0.037650
   5 O :   -0.324394
   6 C :    0.220654
   7 O :   -0.285076
   8 C :   -0.236005
   9 H :    0.144311
  10 H :    0.116195
  11 H :    0.109667
  12 H :    0.074780
  13 H :    0.131446
  14 H :    0.129783
  15 H :    0.106606
  16 H :    0.103162
  17 H :    0.080700
  18 H :    0.138989
  19 H :    0.109959
  20 H :    0.133413
Sum of atomic charges:   -0.0000000

LOEWDIN ATOMIC CHARGES
----------------------
   0 C :   -0.353716
   1 O :    0.172997
   2 C :   -0.314948
   3 C :   -0.247278
   4 C :   -0.282248
   5 O :    0.166451
   6 C :   -0.400235
   7 O :    0.172500
   8 C :   -0.350787
   9 H :    0.114892
  10 H :    0.102064
  11 H :    0.101694
  12 H :    0.141221
  13 H :    0.134336
  14 H :    0.146284
  15 H :    0.122533
  16 H :    0.122245
  17 H :    0.130526
  18 H :    0.112959
  19 H :    0.102855
  20 H :    0.105655

  Mayer bond orders larger than 0.1
B(  0-C ,  1-O ) :   0.9137 B(  0-C ,  9-H ) :   0.9412 B(  0-C , 10-H ) :   0.9359
B(  0-C , 11-H ) :   0.9330 B(  1-O ,  2-C ) :   1.0021 B(  2-C ,  3-C ) :   0.9068
B(  2-C ,  6-C ) :   0.9308 B(  2-C , 12-H ) :   0.9291 B(  3-C ,  4-C ) :   0.9621
B(  3-C , 13-H ) :   0.9283 B(  3-C , 14-H ) :   0.9192 B(  4-C ,  5-O ) :   0.9111
B(  4-C , 15-H ) :   0.9257 B(  4-C , 16-H ) :   0.9293 B(  5-O ,  6-C ) :   0.9816
B(  6-C ,  7-O ) :   1.0489 B(  6-C , 17-H ) :   0.9143 B(  7-O ,  8-C ) :   0.8978
B(  8-C , 18-H ) :   0.9391 B(  8-C , 19-H ) :   0.9362 B(  8-C , 20-H ) :   0.9365

MP2 TOTAL ENERGY:     -460.613954132 Eh
FINAL SINGLE POINT ENERGY      -460.613954132157

DIPOLE MOMENT
-------------
                                X             Y             Z
Electronic contribution:     -0.50349      -1.53992       1.66384
Nuclear contribution   :      0.25649       1.86884      -2.08090
                        -----------------------------------------
Total Dipole Moment    :     -0.24700       0.32892      -0.41707
                        -----------------------------------------
Magnitude (a.u.)       :      0.58578
Magnitude (Debye)      :      1.48894

                             ****ORCA TERMINATED NORMALLY****
TOTAL RUN TIME: 0 days 0 hours 16 minutes 34 seconds 62 msec
