                         Program Version 3.0.3 - RELEASE   -
|  1> ! RI-MP2 RIJK def2-TZVP def2-TZVP/C def2-TZVP/JK TIGHTSCF
|  2> % maxcore 2000
|  3> % mp2 density relaxed end
|  4> *xyz 0 1
|  5>  N        0.5030505241     1.0529670180    -0.6490164952
|  6>  C       -0.2093447663     0.1538164649     0.2512372269
|  7>  C        0.7368962177    -0.4648401429     1.2306085819
|  8>  C        2.0921543113    -0.6437265242     1.2029424402
|  9>  O        2.4614029693    -1.2704468383     2.3359023836
| 10>  N        1.2820112328    -1.4781655201     3.0761101479
| 11>  N        0.3134790159    -1.0060670485     2.4228944423
| 12>  C        3.1051827687    -0.3190653365     0.2721378384
| 13>  N        3.9674286440    -0.0752435646    -0.4596588225
| 14>  H       -0.0631454047     1.2644004468    -1.4620482017
| 15>  H        0.7117465983     1.9338852890    -0.1907747744
| 16>  H       -1.0353194388     0.6056115934     0.8227829130
| 17>  H       -0.6591440023    -0.6459873569    -0.3506926205
| 18> *
| 19>
| 20>                          ****END OF INPUT****

CARTESIAN COORDINATES (ANGSTROEM)
---------------------------------
  N      0.503051    1.052967   -0.649016
  C     -0.209345    0.153816    0.251237
  C      0.736896   -0.464840    1.230609
  C      2.092154   -0.643727    1.202942
  O      2.461403   -1.270447    2.335902
  N      1.282011   -1.478166    3.076110
  N      0.313479   -1.006067    2.422894
  C      3.105183   -0.319065    0.272138
  N      3.967429   -0.075244   -0.459659
  H     -0.063145    1.264400   -1.462048
  H      0.711747    1.933885   -0.190775
  H     -1.035319    0.605612    0.822783
  H     -0.659144   -0.645987   -0.350693

 Total Charge           Charge          ....    0
 Multiplicity           Mult            ....    1
 Number of Electrons    NEL             ....   64
 Basis Dimension        Dim             ....  303

ORBITAL ENERGIES
----------------

  NO   OCC          E(Eh)            E(eV)
   0   2.0000     -20.692747      -563.0783
   1   2.0000     -15.725068      -427.9008
   2   2.0000     -15.661185      -426.1625
   3   2.0000     -15.603689      -424.5980
   4   2.0000     -15.574830      -423.8127
   5   2.0000     -11.371770      -309.4416
   6   2.0000     -11.318003      -307.9785
   7   2.0000     -11.303813      -307.5924
   8   2.0000     -11.301625      -307.5329
   9   2.0000      -1.564016       -42.5590
  10   2.0000      -1.343028       -36.5457
  11   2.0000      -1.245431       -33.8899
  12   2.0000      -1.222208       -33.2580
  13   2.0000      -1.139995       -31.0209
  14   2.0000      -0.984848       -26.7991
  15   2.0000      -0.929197       -25.2847
  16   2.0000      -0.883474       -24.0406
  17   2.0000      -0.794001       -21.6059
  18   2.0000      -0.725105       -19.7311
  19   2.0000      -0.710416       -19.3314
  20   2.0000      -0.684901       -18.6371
  21   2.0000      -0.637979       -17.3603
  22   2.0000      -0.612831       -16.6760
  23   2.0000      -0.590044       -16.0559
  24   2.0000      -0.584009       -15.8917
  25   2.0000      -0.564913       -15.3721
  26   2.0000      -0.534975       -14.5574
  27   2.0000      -0.522131       -14.2079
  28   2.0000      -0.504300       -13.7227
  29   2.0000      -0.479866       -13.0578
  30   2.0000      -0.432171       -11.7600
  31   2.0000      -0.388123       -10.5614
  32   0.0000       0.046766         1.2726
  33   0.0000       0.109353         2.9756
  34   0.0000       0.139399         3.7933
  35   0.0000       0.151445         4.1210
  36   0.0000       0.159684         4.3452

MULLIKEN ATOMIC CHARGES
-----------------------
   0 N :   -0.553513
   1 C :   -0.158202
   2 C :   -0.001399
   3 C :    0.235852
   4 O :   -0.077711
   5 N :   -0.018482
   6 N :   -0.080376
   7 C :   -0.103444
   8 N :   -0.027946
   9 H :    0.248322
  10 H :    0.242417
  11 H :    0.147712
  12 H :    0.146769
Sum of atomic charges:   -0.0000000

LOEWDIN ATOMIC CHARGES
----------------------
   0 N :   -0.153088
   1 C :   -0.293646
   2 C :   -0.226534
   3 C :   -0.259406
   4 O :    0.301136
   5 N :   -0.005878
   6 N :    0.064540
   7 C :   -0.146889
   8 N :    0.112133
   9 H :    0.159344
  10 H :    0.160532
  11 H :    0.137183
  12 H :    0.150573

  Mayer bond orders larger than 0.1
B(  0-N ,  1-C ) :   1.0166 B(  0-N ,  9-H ) :   0.8870 B(  0-N , 10-H ) :   0.8846
B(  1-C ,  2-C ) :   0.8699 B(  1-C , 11-H ) :   0.9630 B(  1-C , 12-H ) :   0.9085
B(  2-C ,  3-C ) :   1.4437 B(  2-C ,  6-N ) :   1.2955 B(  3-C ,  4-O ) :   1.1253
B(  3-C ,  7-C ) :   0.9453 B(  4-O ,  5-N ) :   0.8848 B(  5-N ,  6-N ) :   1.4076
B(  7-C ,  8-N ) :   2.8039

MP2 TOTAL ENERGY:     -448.162191871 Eh
FINAL SINGLE POINT ENERGY      -448.162191871388

DIPOLE MOMENT
-------------
                                X             Y             Z
Electronic contribution:      5.43523      -3.86142       4.63389
Nuclear contribution   :     -6.77581       4.57058      -5.11610
                        -----------------------------------------
Total Dipole Moment    :     -1.34057       0.70916      -0.48221
                        -----------------------------------------
Magnitude (a.u.)       :      1.59140
Magnitude (Debye)      :      4.04503

                             ****ORCA TERMINATED NORMALLY****
TOTAL RUN TIME: 0 days 0 hours 14 minutes 9 seconds 125 msec
