                         Program Version 3.0.3 - RELEASE   -
|  1> ! RI-MP2 RIJK def2-TZVP def2-TZVP/C def2-TZVP/JK TIGHTSCF
|  2> % maxcore 2000
|  3> % mp2 density relaxed end
|  4> *xyz 0 1
|  5>  C        0.3460742420     1.3231029369     0.2442842847
|  6>  C       -0.0886833930    -0.1307222461    -0.0113124178
|  7>  C       -1.6138148617    -0.2180201479    -0.1078217644
|  8>  C        0.6195475876    -0.7007080110    -1.2677567480
|  9>  C        2.0257006834    -1.1001746060    -0.7882195100
| 10>  N        1.8470028458    -1.3192050743     0.6502278505
| 11>  C        0.4795548141    -1.0582398175     1.0877997480
| 12>  C        2.8891245102    -1.6236967363     1.4583498973
| 13>  O        4.0300661314    -1.7976082995     1.0758863465
| 14>  H        1.4305804136     1.4078749436     0.3633295702
| 15>  H        0.0477638102     1.9696299412    -0.5876202742
| 16>  H       -0.1199603601     1.7150204303     1.1548261833
| 17>  H       -1.9887933900     0.4026219316    -0.9284623445
| 18>  H       -1.9436367159    -1.2467590200    -0.2878579217
| 19>  H       -2.0912244300     0.1326612950     0.8139272068
| 20>  H        0.0788133785    -1.5852668648    -1.6220785714
| 21>  H        0.6502443147     0.0160483666    -2.0925259542
| 22>  H        2.4045472503    -2.0029192515    -1.2769431916
| 23>  H        2.7704481034    -0.3136228616    -0.9519562764
| 24>  H        0.4679298180    -0.5991770225     2.0812973375
| 25>  H       -0.1066863236    -1.9875542927     1.1397390608
| 26>  H        2.5888461412    -1.6970171732     2.5235347386
| 27> *
| 28>
| 29>                          ****END OF INPUT****

CARTESIAN COORDINATES (ANGSTROEM)
---------------------------------
  C      0.346074    1.323103    0.244284
  C     -0.088683   -0.130722   -0.011312
  C     -1.613815   -0.218020   -0.107822
  C      0.619548   -0.700708   -1.267757
  C      2.025701   -1.100175   -0.788220
  N      1.847003   -1.319205    0.650228
  C      0.479555   -1.058240    1.087800
  C      2.889125   -1.623697    1.458350
  O      4.030066   -1.797608    1.075886
  H      1.430580    1.407875    0.363330
  H      0.047764    1.969630   -0.587620
  H     -0.119960    1.715020    1.154826
  H     -1.988793    0.402622   -0.928462
  H     -1.943637   -1.246759   -0.287858
  H     -2.091224    0.132661    0.813927
  H      0.078813   -1.585267   -1.622079
  H      0.650244    0.016048   -2.092526
  H      2.404547   -2.002919   -1.276943
  H      2.770448   -0.313623   -0.951956
  H      0.467930   -0.599177    2.081297
  H     -0.106686   -1.987554    1.139739
  H      2.588846   -1.697017    2.523535

 Total Charge           Charge          ....    0
 Multiplicity           Mult            ....    1
 Number of Electrons    NEL             ....   70
 Basis Dimension        Dim             ....  357

ORBITAL ENERGIES
----------------

  NO   OCC          E(Eh)            E(eV)
   0   2.0000     -20.512901      -558.1844
   1   2.0000     -15.581308      -423.9890
   2   2.0000     -11.337867      -308.5191
   3   2.0000     -11.272017      -306.7272
   4   2.0000     -11.261614      -306.4441
   5   2.0000     -11.251969      -306.1816
   6   2.0000     -11.233403      -305.6764
   7   2.0000     -11.226855      -305.4983
   8   2.0000     -11.224483      -305.4337
   9   2.0000      -1.373561       -37.3765
  10   2.0000      -1.258932       -34.2573
  11   2.0000      -1.108120       -30.1535
  12   2.0000      -1.016743       -27.6670
  13   2.0000      -0.949133       -25.8272
  14   2.0000      -0.945294       -25.7227
  15   2.0000      -0.874707       -23.8020
  16   2.0000      -0.774749       -21.0820
  17   2.0000      -0.752435       -20.4748
  18   2.0000      -0.702611       -19.1190
  19   2.0000      -0.674957       -18.3665
  20   2.0000      -0.637423       -17.3452
  21   2.0000      -0.621332       -16.9073
  22   2.0000      -0.610247       -16.6057
  23   2.0000      -0.581014       -15.8102
  24   2.0000      -0.576594       -15.6899
  25   2.0000      -0.547788       -14.9061
  26   2.0000      -0.543029       -14.7766
  27   2.0000      -0.540068       -14.6960
  28   2.0000      -0.526307       -14.3216
  29   2.0000      -0.505421       -13.7532
  30   2.0000      -0.481780       -13.1099
  31   2.0000      -0.470471       -12.8022
  32   2.0000      -0.461327       -12.5534
  33   2.0000      -0.420800       -11.4506
  34   2.0000      -0.369221       -10.0470
  35   0.0000       0.117273         3.1912
  36   0.0000       0.150145         4.0857
  37   0.0000       0.159510         4.3405
  38   0.0000       0.165127         4.4933
  39   0.0000       0.179045         4.8721

MULLIKEN ATOMIC CHARGES
-----------------------
   0 C :   -0.454642
   1 C :    0.130800
   2 C :   -0.406494
   3 C :   -0.241557
   4 C :   -0.186652
   5 N :   -0.068945
   6 C :   -0.208222
   7 C :    0.126438
   8 O :   -0.368039
   9 H :    0.151272
  10 H :    0.135163
  11 H :    0.133248
  12 H :    0.138137
  13 H :    0.131644
  14 H :    0.135195
  15 H :    0.119072
  16 H :    0.131372
  17 H :    0.136982
  18 H :    0.136778
  19 H :    0.133055
  20 H :    0.118974
  21 H :    0.076424
Sum of atomic charges:    0.0000000

LOEWDIN ATOMIC CHARGES
----------------------
   0 C :   -0.264795
   1 C :   -0.319490
   2 C :   -0.270837
   3 C :   -0.209128
   4 C :   -0.232660
   5 N :    0.174246
   6 C :   -0.209502
   7 C :   -0.425821
   8 O :    0.051233
   9 H :    0.131208
  10 H :    0.127402
  11 H :    0.126594
  12 H :    0.129153
  13 H :    0.125589
  14 H :    0.127600
  15 H :    0.142536
  16 H :    0.141301
  17 H :    0.136202
  18 H :    0.135325
  19 H :    0.138681
  20 H :    0.133929
  21 H :    0.111235

  Mayer bond orders larger than 0.1
B(  0-C ,  1-C ) :   0.9155 B(  0-C ,  9-H ) :   0.9283 B(  0-C , 10-H ) :   0.9349
B(  0-C , 11-H ) :   0.9368 B(  1-C ,  2-C ) :   0.9063 B(  1-C ,  3-C ) :   0.8928
B(  1-C ,  6-C ) :   0.9030 B(  2-C , 12-H ) :   0.9396 B(  2-C , 13-H ) :   0.9303
B(  2-C , 14-H ) :   0.9374 B(  3-C ,  4-C ) :   0.9318 B(  3-C , 15-H ) :   0.9222
B(  3-C , 16-H ) :   0.9299 B(  4-C ,  5-N ) :   0.8706 B(  4-C , 17-H ) :   0.9284
B(  4-C , 18-H ) :   0.9340 B(  5-N ,  6-C ) :   0.9314 B(  5-N ,  7-C ) :   1.1465
B(  6-C , 19-H ) :   0.9169 B(  6-C , 20-H ) :   0.9165 B(  7-C ,  8-O ) :   1.8952
B(  7-C , 21-H ) :   0.9352

MP2 TOTAL ENERGY:     -403.708311024 Eh
FINAL SINGLE POINT ENERGY      -403.708311024269

DIPOLE MOMENT
-------------
                                X             Y             Z
Electronic contribution:      8.77318      -4.87852       2.71415
Nuclear contribution   :    -10.45730       5.36367      -2.94159
                        -----------------------------------------
Total Dipole Moment    :     -1.68412       0.48515      -0.22743
                        -----------------------------------------
Magnitude (a.u.)       :      1.76730
Magnitude (Debye)      :      4.49213

                             ****ORCA TERMINATED NORMALLY****
TOTAL RUN TIME: 0 days 0 hours 21 minutes 21 seconds 660 msec
