                         Program Version 3.0.3 - RELEASE   -
|  1> ! RI-MP2 RIJK def2-TZVP def2-TZVP/C def2-TZVP/JK TIGHTSCF
|  2> % maxcore 2000
|  3> % mp2 density relaxed end
|  4> *xyz 0 1
|  5>  N       -0.1587359408     1.2759749533    -0.3809752426
|  6>  C       -0.0204684614     0.0575867280    -0.1139526139
|  7>  N        1.0275208399    -0.8358368392     0.1447195600
|  8>  C        0.1386683505    -1.9148918495     0.5793364765
|  9>  C        0.1639926153    -2.1852914051     2.0724332856
| 10>  O        0.9731675762    -1.6776755391     2.8039385333
| 11>  C       -1.0754973850    -1.0622365238     0.0455867285
| 12>  C       -2.1805612355    -0.8189076406     0.9534156709
| 13>  N       -3.0545804508    -0.6512396697     1.6905773618
| 14>  H        0.7312401273     1.7759759884    -0.3966105584
| 15>  H        1.8385968380    -0.5885278611     0.6998698450
| 16>  H        0.2771694967    -2.8649944023     0.0477500907
| 17>  H       -0.5950903523    -2.9067491560     2.4384057130
| 18>  H       -1.4516767482    -1.4216660634    -0.9148936605
| 19> *
| 20>
| 21>                          ****END OF INPUT****

CARTESIAN COORDINATES (ANGSTROEM)
---------------------------------
  N     -0.158736    1.275975   -0.380975
  C     -0.020468    0.057587   -0.113953
  N      1.027521   -0.835837    0.144720
  C      0.138668   -1.914892    0.579336
  C      0.163993   -2.185291    2.072433
  O      0.973168   -1.677676    2.803939
  C     -1.075497   -1.062237    0.045587
  C     -2.180561   -0.818908    0.953416
  N     -3.054580   -0.651240    1.690577
  H      0.731240    1.775976   -0.396611
  H      1.838597   -0.588528    0.699870
  H      0.277169   -2.864994    0.047750
  H     -0.595090   -2.906749    2.438406
  H     -1.451677   -1.421666   -0.914894

 Total Charge           Charge          ....    0
 Multiplicity           Mult            ....    1
 Number of Electrons    NEL             ....   64
 Basis Dimension        Dim             ....  309

ORBITAL ENERGIES
----------------

  NO   OCC          E(Eh)            E(eV)
   0   2.0000     -20.593914      -560.3889
   1   2.0000     -15.609583      -424.7584
   2   2.0000     -15.591681      -424.2712
   3   2.0000     -15.560302      -423.4173
   4   2.0000     -11.365845      -309.2804
   5   2.0000     -11.354339      -308.9673
   6   2.0000     -11.330048      -308.3063
   7   2.0000     -11.323571      -308.1300
   8   2.0000     -11.293946      -307.3239
   9   2.0000      -1.434057       -39.0227
  10   2.0000      -1.332044       -36.2468
  11   2.0000      -1.237114       -33.6636
  12   2.0000      -1.205900       -32.8142
  13   2.0000      -1.075723       -29.2719
  14   2.0000      -0.988410       -26.8960
  15   2.0000      -0.849683       -23.1211
  16   2.0000      -0.829460       -22.5708
  17   2.0000      -0.747976       -20.3534
  18   2.0000      -0.734671       -19.9914
  19   2.0000      -0.697312       -18.9748
  20   2.0000      -0.669485       -18.2176
  21   2.0000      -0.656834       -17.8734
  22   2.0000      -0.609852       -16.5949
  23   2.0000      -0.587851       -15.9962
  24   2.0000      -0.571334       -15.5468
  25   2.0000      -0.549054       -14.9405
  26   2.0000      -0.534202       -14.5364
  27   2.0000      -0.485222       -13.2036
  28   2.0000      -0.477356       -12.9895
  29   2.0000      -0.460273       -12.5247
  30   2.0000      -0.447386       -12.1740
  31   2.0000      -0.402551       -10.9540
  32   0.0000       0.090683         2.4676
  33   0.0000       0.116049         3.1579
  34   0.0000       0.133348         3.6286
  35   0.0000       0.141530         3.8512
  36   0.0000       0.152391         4.1468

MULLIKEN ATOMIC CHARGES
-----------------------
   0 N :   -0.336692
   1 C :    0.026611
   2 N :   -0.322182
   3 C :    0.049502
   4 C :    0.080424
   5 O :   -0.259904
   6 C :    0.126215
   7 C :   -0.224527
   8 N :   -0.042910
   9 H :    0.226253
  10 H :    0.255489
  11 H :    0.140034
  12 H :    0.111795
  13 H :    0.169892
Sum of atomic charges:    0.0000000

LOEWDIN ATOMIC CHARGES
----------------------
   0 N :   -0.035495
   1 C :   -0.340692
   2 N :    0.115350
   3 C :   -0.220567
   4 C :   -0.265789
   5 O :    0.151980
   6 C :   -0.142703
   7 C :   -0.164506
   8 N :    0.083595
   9 H :    0.173156
  10 H :    0.181827
  11 H :    0.155173
  12 H :    0.125315
  13 H :    0.183358

  Mayer bond orders larger than 0.1
B(  0-N ,  1-C ) :   2.1184 B(  0-N ,  9-H ) :   0.8450 B(  1-C ,  2-N ) :   1.0887
B(  1-C ,  6-C ) :   0.8036 B(  2-N ,  3-C ) :   0.9685 B(  2-N , 10-H ) :   0.8517
B(  3-C ,  4-C ) :   0.8883 B(  3-C ,  6-C ) :   0.8984 B(  3-C , 11-H ) :   0.8883
B(  4-C ,  5-O ) :   1.9695 B(  4-C , 12-H ) :   0.9331 B(  6-C ,  7-C ) :   0.9269
B(  6-C , 13-H ) :   0.8903 B(  7-C ,  8-N ) :   2.8306

MP2 TOTAL ENERGY:     -432.142776125 Eh
FINAL SINGLE POINT ENERGY      -432.142776124906

DIPOLE MOMENT
-------------
                                X             Y             Z
Electronic contribution:     -1.44681       0.41200       1.50791
Nuclear contribution   :      2.66935      -1.55646      -2.39575
                        -----------------------------------------
Total Dipole Moment    :      1.22254      -1.14446      -0.88783
                        -----------------------------------------
Magnitude (a.u.)       :      1.89543
Magnitude (Debye)      :      4.81780

                             ****ORCA TERMINATED NORMALLY****
TOTAL RUN TIME: 0 days 0 hours 13 minutes 27 seconds 478 msec
