                         Program Version 3.0.3 - RELEASE   -
|  1> ! RI-MP2 RIJK def2-TZVP def2-TZVP/C def2-TZVP/JK TIGHTSCF
|  2> % maxcore 2000
|  3> % mp2 density relaxed end
|  4> *xyz 0 1
|  5>  C        0.9694223615     1.4321885800    -0.3260477014
|  6>  C        0.0030696561     0.2449418886    -0.4137206358
|  7>  C        0.5160214059    -0.8253100976    -1.3518266031
|  8>  N        1.5565869823    -1.7434680373    -0.8329145287
|  9>  C        0.2453440233    -2.2842309254    -1.2304462972
| 10>  C       -0.6025525126    -2.8720985051    -0.1218504270
| 11>  C        0.1809302844    -3.1067587645    -2.5087904296
| 12>  O        1.0800781425    -2.5910699851    -3.4653286615
| 13>  C        1.0963482975    -3.3242512209    -4.6668071173
| 14>  H        1.9484945291     1.0999051118     0.0325470770
| 15>  H        1.1125930790     1.9010619054    -1.3061647042
| 16>  H        0.5969055061     2.1996878660     0.3594775583
| 17>  H       -0.1461223866    -0.1741120573     0.5856555445
| 18>  H       -0.9793286429     0.5884500644    -0.7644021367
| 19>  H        0.6679544307    -0.4809048607    -2.3735497852
| 20>  H        2.2245249171    -1.9327833458    -1.5775311245
| 21>  H       -0.4748565852    -2.3164261765     0.8075429194
| 22>  H       -1.6658189455    -2.8645288791    -0.3885716379
| 23>  H       -0.3123749983    -3.9111625597     0.0732860443
| 24>  H        0.4359775297    -4.1575389588    -2.2813526632
| 25>  H       -0.8493333768    -3.1049907520    -2.9055222768
| 26>  H        1.3914841793    -4.3719503295    -4.5002307854
| 27>  H        0.1117518315    -3.3192908228    -5.1595568709
| 28>  H        1.8257829820    -2.8514541683    -5.3286648870
| 29> *
| 30>
| 31>                          ****END OF INPUT****

CARTESIAN COORDINATES (ANGSTROEM)
---------------------------------
  C      0.969422    1.432189   -0.326048
  C      0.003070    0.244942   -0.413721
  C      0.516021   -0.825310   -1.351827
  N      1.556587   -1.743468   -0.832915
  C      0.245344   -2.284231   -1.230446
  C     -0.602553   -2.872099   -0.121850
  C      0.180930   -3.106759   -2.508790
  O      1.080078   -2.591070   -3.465329
  C      1.096348   -3.324251   -4.666807
  H      1.948495    1.099905    0.032547
  H      1.112593    1.901062   -1.306165
  H      0.596906    2.199688    0.359478
  H     -0.146122   -0.174112    0.585656
  H     -0.979329    0.588450   -0.764402
  H      0.667954   -0.480905   -2.373550
  H      2.224525   -1.932783   -1.577531
  H     -0.474857   -2.316426    0.807543
  H     -1.665819   -2.864529   -0.388572
  H     -0.312375   -3.911163    0.073286
  H      0.435978   -4.157539   -2.281353
  H     -0.849333   -3.104991   -2.905522
  H      1.391484   -4.371950   -4.500231
  H      0.111752   -3.319291   -5.159557
  H      1.825783   -2.851454   -5.328665

 Total Charge           Charge          ....    0
 Multiplicity           Mult            ....    1
 Number of Electrons    NEL             ....   72
 Basis Dimension        Dim             ....  369

ORBITAL ENERGIES
----------------

  NO   OCC          E(Eh)            E(eV)
   0   2.0000     -20.564537      -559.5895
   1   2.0000     -15.537802      -422.8051
   2   2.0000     -11.281428      -306.9833
   3   2.0000     -11.278480      -306.9030
   4   2.0000     -11.257234      -306.3249
   5   2.0000     -11.242432      -305.9221
   6   2.0000     -11.214548      -305.1634
   7   2.0000     -11.214050      -305.1498
   8   2.0000     -11.204763      -304.8971
   9   2.0000      -1.387758       -37.7628
  10   2.0000      -1.250116       -34.0174
  11   2.0000      -1.032351       -28.0917
  12   2.0000      -1.012664       -27.5560
  13   2.0000      -0.961740       -26.1703
  14   2.0000      -0.885716       -24.1016
  15   2.0000      -0.884431       -24.0666
  16   2.0000      -0.799711       -21.7612
  17   2.0000      -0.740857       -20.1597
  18   2.0000      -0.699349       -19.0303
  19   2.0000      -0.670887       -18.2558
  20   2.0000      -0.661421       -17.9982
  21   2.0000      -0.611227       -16.6323
  22   2.0000      -0.598613       -16.2891
  23   2.0000      -0.583969       -15.8906
  24   2.0000      -0.573069       -15.5940
  25   2.0000      -0.550176       -14.9710
  26   2.0000      -0.546112       -14.8605
  27   2.0000      -0.525738       -14.3061
  28   2.0000      -0.510489       -13.8911
  29   2.0000      -0.499099       -13.5812
  30   2.0000      -0.484646       -13.1879
  31   2.0000      -0.465905       -12.6779
  32   2.0000      -0.448693       -12.2096
  33   2.0000      -0.436150       -11.8682
  34   2.0000      -0.422967       -11.5095
  35   2.0000      -0.369846       -10.0640
  36   0.0000       0.133713         3.6385
  37   0.0000       0.154016         4.1910
  38   0.0000       0.157814         4.2943
  39   0.0000       0.182616         4.9692
  40   0.0000       0.186348         5.0708

MULLIKEN ATOMIC CHARGES
-----------------------
   0 C :   -0.401505
   1 C :   -0.183920
   2 C :   -0.053371
   3 N :   -0.422072
   4 C :    0.149054
   5 C :   -0.434475
   6 C :   -0.032956
   7 O :   -0.313673
   8 C :   -0.223933
   9 H :    0.139166
  10 H :    0.117327
  11 H :    0.129898
  12 H :    0.104965
  13 H :    0.102122
  14 H :    0.135188
  15 H :    0.224540
  16 H :    0.144251
  17 H :    0.126587
  18 H :    0.130149
  19 H :    0.096347
  20 H :    0.096163
  21 H :    0.114640
  22 H :    0.114759
  23 H :    0.140748
Sum of atomic charges:   -0.0000000

LOEWDIN ATOMIC CHARGES
----------------------
   0 C :   -0.316239
   1 C :   -0.276569
   2 C :   -0.241781
   3 N :    0.023725
   4 C :   -0.318882
   5 C :   -0.265866
   6 C :   -0.292237
   7 O :    0.135470
   8 C :   -0.357761
   9 H :    0.125328
  10 H :    0.118998
  11 H :    0.118880
  12 H :    0.138646
  13 H :    0.137467
  14 H :    0.144669
  15 H :    0.166906
  16 H :    0.130424
  17 H :    0.127282
  18 H :    0.128140
  19 H :    0.125827
  20 H :    0.127089
  21 H :    0.103109
  22 H :    0.103136
  23 H :    0.114239

  Mayer bond orders larger than 0.1
B(  0-C ,  1-C ) :   0.9220 B(  0-C ,  9-H ) :   0.9385 B(  0-C , 10-H ) :   0.9388
B(  0-C , 11-H ) :   0.9413 B(  1-C ,  2-C ) :   0.9045 B(  1-C , 12-H ) :   0.9367
B(  1-C , 13-H ) :   0.9342 B(  2-C ,  3-N ) :   0.8473 B(  2-C ,  4-C ) :   0.9325
B(  2-C , 14-H ) :   0.8980 B(  3-N ,  4-C ) :   0.9446 B(  3-N , 15-H ) :   0.8668
B(  4-C ,  5-C ) :   0.8794 B(  4-C ,  6-C ) :   0.9427 B(  5-C , 16-H ) :   0.9395
B(  5-C , 17-H ) :   0.9377 B(  5-C , 18-H ) :   0.9369 B(  6-C ,  7-O ) :   0.9165
B(  6-C , 19-H ) :   0.9184 B(  6-C , 20-H ) :   0.9111 B(  7-O ,  8-C ) :   0.9185
B(  8-C , 21-H ) :   0.9353 B(  8-C , 22-H ) :   0.9371 B(  8-C , 23-H ) :   0.9393

MP2 TOTAL ENERGY:     -404.831243795 Eh
FINAL SINGLE POINT ENERGY      -404.831243795326

DIPOLE MOMENT
-------------
                                X             Y             Z
Electronic contribution:      2.03553      -1.99936      -1.45537
Nuclear contribution   :     -2.51771       1.57650       0.69717
                        -----------------------------------------
Total Dipole Moment    :     -0.48219      -0.42286      -0.75820
                        -----------------------------------------
Magnitude (a.u.)       :      0.99307
Magnitude (Debye)      :      2.52417

                             ****ORCA TERMINATED NORMALLY****
TOTAL RUN TIME: 0 days 0 hours 19 minutes 25 seconds 687 msec
