                         Program Version 3.0.3 - RELEASE   -
|  1> ! RI-MP2 RIJK def2-TZVP def2-TZVP/C def2-TZVP/JK TIGHTSCF
|  2> % maxcore 2000
|  3> % mp2 density relaxed end
|  4> *xyz 0 1
|  5>  C       -0.0290097590     1.5069630160     0.0069077999
|  6>  C       -0.0063658029     0.0084441932    -0.0113974778
|  7>  C       -0.0399352291    -0.6999769189    -1.1546851818
|  8>  O       -0.0214188768    -2.0556925337    -1.2224858931
|  9>  C        0.0346349517    -2.7439502259    -0.0624701965
| 10>  C        0.0726722608    -2.1595428293     1.1457265727
| 11>  C        0.0551554645    -0.7026461133     1.2808850216
| 12>  O        0.0879487766    -0.1155154800     2.3546162225
| 13>  H        0.8614787999     1.8937025692     0.5126333977
| 14>  H       -0.0761124739     1.9265298358    -1.0013798186
| 15>  H       -0.8875899652     1.8663374559     0.5830632450
| 16>  H       -0.0854771726    -0.2671751497    -2.1468975416
| 17>  H        0.0443444812    -3.8119050093    -0.2420502554
| 18>  H        0.1171714349    -2.7657453099     2.0420694654
| 19> *
| 20>
| 21>                          ****END OF INPUT****

CARTESIAN COORDINATES (ANGSTROEM)
---------------------------------
  C     -0.029010    1.506963    0.006908
  C     -0.006366    0.008444   -0.011397
  C     -0.039935   -0.699977   -1.154685
  O     -0.021419   -2.055693   -1.222486
  C      0.034635   -2.743950   -0.062470
  C      0.072672   -2.159543    1.145727
  C      0.055155   -0.702646    1.280885
  O      0.087949   -0.115515    2.354616
  H      0.861479    1.893703    0.512633
  H     -0.076112    1.926530   -1.001380
  H     -0.887590    1.866337    0.583063
  H     -0.085477   -0.267175   -2.146898
  H      0.044344   -3.811905   -0.242050
  H      0.117171   -2.765745    2.042069

 Total Charge           Charge          ....    0
 Multiplicity           Mult            ....    1
 Number of Electrons    NEL             ....   58
 Basis Dimension        Dim             ....  284

ORBITAL ENERGIES
----------------

  NO   OCC          E(Eh)            E(eV)
   0   2.0000     -20.648601      -561.8770
   1   2.0000     -20.524903      -558.5110
   2   2.0000     -11.336410      -308.4794
   3   2.0000     -11.329043      -308.2789
   4   2.0000     -11.327248      -308.2301
   5   2.0000     -11.252167      -306.1870
   6   2.0000     -11.244701      -305.9839
   7   2.0000     -11.229738      -305.5767
   8   2.0000      -1.483231       -40.3608
   9   2.0000      -1.367500       -37.2116
  10   2.0000      -1.109250       -30.1842
  11   2.0000      -1.086207       -29.5572
  12   2.0000      -0.971238       -26.4287
  13   2.0000      -0.872767       -23.7492
  14   2.0000      -0.860518       -23.4159
  15   2.0000      -0.742227       -20.1970
  16   2.0000      -0.728686       -19.8286
  17   2.0000      -0.664893       -18.0927
  18   2.0000      -0.661945       -18.0124
  19   2.0000      -0.629168       -17.1205
  20   2.0000      -0.614106       -16.7107
  21   2.0000      -0.580028       -15.7834
  22   2.0000      -0.574547       -15.6342
  23   2.0000      -0.546074       -14.8594
  24   2.0000      -0.532538       -14.4911
  25   2.0000      -0.526734       -14.3332
  26   2.0000      -0.416353       -11.3295
  27   2.0000      -0.394115       -10.7244
  28   2.0000      -0.357391        -9.7251
  29   0.0000       0.095348         2.5946
  30   0.0000       0.126096         3.4313
  31   0.0000       0.146810         3.9949
  32   0.0000       0.158145         4.3034
  33   0.0000       0.172381         4.6907

MULLIKEN ATOMIC CHARGES
-----------------------
   0 C :   -0.378411
   1 C :   -0.021712
   2 C :    0.026944
   3 O :   -0.205697
   4 C :    0.069525
   5 C :   -0.234183
   6 C :    0.202240
   7 O :   -0.343382
   8 H :    0.151523
   9 H :    0.128400
  10 H :    0.151592
  11 H :    0.149521
  12 H :    0.156238
  13 H :    0.147403
Sum of atomic charges:   -0.0000000

LOEWDIN ATOMIC CHARGES
----------------------
   0 C :   -0.256843
   1 C :   -0.167053
   2 C :   -0.186984
   3 O :    0.331367
   4 C :   -0.212419
   5 C :   -0.136292
   6 C :   -0.333188
   7 O :    0.105556
   8 H :    0.139956
   9 H :    0.127984
  10 H :    0.139970
  11 H :    0.144729
  12 H :    0.143559
  13 H :    0.159658

  Mayer bond orders larger than 0.1
B(  0-C ,  1-C ) :   0.9009 B(  0-C ,  8-H ) :   0.9213 B(  0-C ,  9-H ) :   0.9451
B(  0-C , 10-H ) :   0.9213 B(  1-C ,  2-C ) :   1.5802 B(  1-C ,  6-C ) :   0.9722
B(  2-C ,  3-O ) :   1.0277 B(  2-C , 11-H ) :   0.9362 B(  3-O ,  4-C ) :   1.0345
B(  4-C ,  5-C ) :   1.5997 B(  4-C , 12-H ) :   0.9295 B(  5-C ,  6-C ) :   1.1014
B(  5-C , 13-H ) :   0.9028 B(  6-C ,  7-O ) :   1.9356

MP2 TOTAL ENERGY:     -381.938975885 Eh
FINAL SINGLE POINT ENERGY      -381.938975885305

DIPOLE MOMENT
-------------
                                X             Y             Z
Electronic contribution:      0.09105      -4.21134       0.65347
Nuclear contribution   :     -0.13072       3.68341      -1.88170
                        -----------------------------------------
Total Dipole Moment    :     -0.03967      -0.52793      -1.22823
                        -----------------------------------------
Magnitude (a.u.)       :      1.33747
Magnitude (Debye)      :      3.39958

                             ****ORCA TERMINATED NORMALLY****
TOTAL RUN TIME: 0 days 0 hours 10 minutes 59 seconds 379 msec
