                         Program Version 3.0.3 - RELEASE   -
|  1> ! RI-MP2 RIJK def2-TZVP def2-TZVP/C def2-TZVP/JK TIGHTSCF
|  2> % maxcore 2000
|  3> % mp2 density relaxed end
|  4> *xyz 0 1
|  5>  O       -0.0184749621    -0.0175853846    -0.2675239067
|  6>  C        0.0133927951     1.1467193965     0.0355222438
|  7>  C        1.2688865130     1.9877261964     0.0244023672
|  8>  N        2.4705587722     1.3039681312    -0.4601046141
|  9>  C        2.5613115906     2.0446521554    -1.6349192297
| 10>  O        3.2700085711     1.9693618784    -2.5993274691
| 11>  C        1.4150329234     2.9374664758    -1.1942307081
| 12>  C        0.3862452277     3.5631879710    -2.0958055583
| 13>  C        1.3271084512     4.4309772256    -1.3057921807
| 14>  H       -0.9021014987     1.6908883709     0.3602168579
| 15>  H        1.3876627878     2.4758739652     1.0012061223
| 16>  H        2.6759464525     0.3212136642    -0.3422448275
| 17>  H        0.5537414775     3.4542839140    -3.1619248722
| 18>  H       -0.6542012359     3.5270332548    -1.7922767751
| 19>  H        0.9285404201     4.9781177772    -0.4580710505
| 20>  H        2.1363411245     4.9272025681    -1.8308778592
| 21> *
| 22>
| 23>                          ****END OF INPUT****

CARTESIAN COORDINATES (ANGSTROEM)
---------------------------------
  O     -0.018475   -0.017585   -0.267524
  C      0.013393    1.146719    0.035522
  C      1.268887    1.987726    0.024402
  N      2.470559    1.303968   -0.460105
  C      2.561312    2.044652   -1.634919
  O      3.270009    1.969362   -2.599327
  C      1.415033    2.937466   -1.194231
  C      0.386245    3.563188   -2.095806
  C      1.327108    4.430977   -1.305792
  H     -0.902101    1.690888    0.360217
  H      1.387663    2.475874    1.001206
  H      2.675946    0.321214   -0.342245
  H      0.553741    3.454284   -3.161925
  H     -0.654201    3.527033   -1.792277
  H      0.928540    4.978118   -0.458071
  H      2.136341    4.927203   -1.830878

 Total Charge           Charge          ....    0
 Multiplicity           Mult            ....    1
 Number of Electrons    NEL             ....   66
 Basis Dimension        Dim             ....  321

ORBITAL ENERGIES
----------------

  NO   OCC          E(Eh)            E(eV)
   0   2.0000     -20.579495      -559.9965
   1   2.0000     -20.537697      -558.8592
   2   2.0000     -15.591661      -424.2707
   3   2.0000     -11.361025      -309.1492
   4   2.0000     -11.352323      -308.9124
   5   2.0000     -11.306273      -307.6593
   6   2.0000     -11.277135      -306.8665
   7   2.0000     -11.260499      -306.4137
   8   2.0000     -11.259585      -306.3889
   9   2.0000      -1.419618       -38.6298
  10   2.0000      -1.398623       -38.0585
  11   2.0000      -1.283017       -34.9127
  12   2.0000      -1.164966       -31.7003
  13   2.0000      -1.001549       -27.2535
  14   2.0000      -0.924372       -25.1534
  15   2.0000      -0.856739       -23.3130
  16   2.0000      -0.812863       -22.1191
  17   2.0000      -0.743687       -20.2367
  18   2.0000      -0.714883       -19.4529
  19   2.0000      -0.694774       -18.9058
  20   2.0000      -0.689794       -18.7702
  21   2.0000      -0.660217       -17.9654
  22   2.0000      -0.644913       -17.5490
  23   2.0000      -0.599082       -16.3018
  24   2.0000      -0.580187       -15.7877
  25   2.0000      -0.568521       -15.4702
  26   2.0000      -0.542275       -14.7560
  27   2.0000      -0.524458       -14.2712
  28   2.0000      -0.473581       -12.8868
  29   2.0000      -0.459679       -12.5085
  30   2.0000      -0.440917       -11.9980
  31   2.0000      -0.426038       -11.5931
  32   2.0000      -0.406305       -11.0561
  33   0.0000       0.107773         2.9327
  34   0.0000       0.129046         3.5115
  35   0.0000       0.149759         4.0751
  36   0.0000       0.152752         4.1566
  37   0.0000       0.156935         4.2704

MULLIKEN ATOMIC CHARGES
-----------------------
   0 O :   -0.258947
   1 C :    0.052108
   2 C :    0.147478
   3 N :   -0.329552
   4 C :    0.211208
   5 O :   -0.298867
   6 C :   -0.050644
   7 C :   -0.260069
   8 C :   -0.269504
   9 H :    0.081823
  10 H :    0.131759
  11 H :    0.252673
  12 H :    0.154716
  13 H :    0.141550
  14 H :    0.138822
  15 H :    0.155447
Sum of atomic charges:   -0.0000000

LOEWDIN ATOMIC CHARGES
----------------------
   0 O :    0.144349
   1 C :   -0.273417
   2 C :   -0.219102
   3 N :    0.145569
   4 C :   -0.396922
   5 O :    0.122206
   6 C :   -0.167303
   7 C :   -0.185675
   8 C :   -0.187065
   9 H :    0.115411
  10 H :    0.153186
  11 H :    0.180034
  12 H :    0.146501
  13 H :    0.137806
  14 H :    0.138803
  15 H :    0.145619

  Mayer bond orders larger than 0.1
B(  0-O ,  1-C ) :   2.0085 B(  1-C ,  2-C ) :   0.8566 B(  1-C ,  9-H ) :   0.9433
B(  2-C ,  3-N ) :   0.9491 B(  2-C ,  6-C ) :   0.8418 B(  2-C , 10-H ) :   0.8865
B(  3-N ,  4-C ) :   1.1331 B(  3-N , 11-H ) :   0.8480 B(  4-C ,  5-O ) :   2.0459
B(  4-C ,  6-C ) :   0.8734 B(  6-C ,  7-C ) :   0.8240 B(  6-C ,  8-C ) :   0.8296
B(  7-C ,  8-C ) :   0.9397 B(  7-C , 12-H ) :   0.9168 B(  7-C , 13-H ) :   0.9239
B(  8-C , 14-H ) :   0.9262 B(  8-C , 15-H ) :   0.9174

MP2 TOTAL ENERGY:     -437.165822946 Eh
FINAL SINGLE POINT ENERGY      -437.165822945630

DIPOLE MOMENT
-------------
                                X             Y             Z
Electronic contribution:      2.66422      -5.22860      -0.05026
Nuclear contribution   :     -3.50632       6.13062       1.11795
                        -----------------------------------------
Total Dipole Moment    :     -0.84210       0.90202       1.06769
                        -----------------------------------------
Magnitude (a.u.)       :      1.63179
Magnitude (Debye)      :      4.14768

                             ****ORCA TERMINATED NORMALLY****
TOTAL RUN TIME: 0 days 0 hours 16 minutes 24 seconds 138 msec
