                         Program Version 3.0.3 - RELEASE   -
|  1> ! RI-MP2 RIJK def2-TZVP def2-TZVP/C def2-TZVP/JK TIGHTSCF
|  2> % maxcore 2000
|  3> % mp2 density relaxed end
|  4> *xyz 0 1
|  5>  N       -0.0428954138    -1.1700266589    -0.0651881536
|  6>  C       -0.0150839348    -0.0170637452    -0.0028958758
|  7>  C        0.0352139436     1.4435990182     0.0722656358
|  8>  O       -0.1438365189     1.9564215759     1.4152521235
|  9>  C        1.0825432316     2.6808233805     1.3379039371
| 10>  C        2.2437728574     1.7697524564     1.1811947320
| 11>  C        1.4134697202     2.1215033067    -0.0489124701
| 12>  C        1.9247664633     2.7337924821    -1.2244869622
| 13>  N        2.3309172154     3.2340984479    -2.1857656233
| 14>  H       -0.7038703615     1.8831256743    -0.6042100122
| 15>  H        1.0997669800     3.6950523150     1.7155730057
| 16>  H        3.2188400659     2.2447327286     1.1916979142
| 17>  H        2.2026609616     0.7602449584     1.5785373589
| 18> *
| 19>
| 20>                          ****END OF INPUT****

CARTESIAN COORDINATES (ANGSTROEM)
---------------------------------
  N     -0.042895   -1.170027   -0.065188
  C     -0.015084   -0.017064   -0.002896
  C      0.035214    1.443599    0.072266
  O     -0.143837    1.956422    1.415252
  C      1.082543    2.680823    1.337904
  C      2.243773    1.769752    1.181195
  C      1.413470    2.121503   -0.048912
  C      1.924766    2.733792   -1.224487
  N      2.330917    3.234098   -2.185766
  H     -0.703870    1.883126   -0.604210
  H      1.099767    3.695052    1.715573
  H      3.218840    2.244733    1.191698
  H      2.202661    0.760245    1.578537

 Total Charge           Charge          ....    0
 Multiplicity           Mult            ....    1
 Number of Electrons    NEL             ....   62
 Basis Dimension        Dim             ....  303

ORBITAL ENERGIES
----------------

  NO   OCC          E(Eh)            E(eV)
   0   2.0000     -20.622305      -561.1614
   1   2.0000     -15.602423      -424.5635
   2   2.0000     -15.597788      -424.4374
   3   2.0000     -11.384139      -309.7782
   4   2.0000     -11.357571      -309.0552
   5   2.0000     -11.329865      -308.3013
   6   2.0000     -11.301623      -307.5328
   7   2.0000     -11.297577      -307.4227
   8   2.0000     -11.295922      -307.3777
   9   2.0000      -1.464990       -39.8644
  10   2.0000      -1.246717       -33.9249
  11   2.0000      -1.244555       -33.8661
  12   2.0000      -1.186026       -32.2734
  13   2.0000      -1.055937       -28.7335
  14   2.0000      -0.932330       -25.3700
  15   2.0000      -0.869972       -23.6731
  16   2.0000      -0.808531       -22.0012
  17   2.0000      -0.759669       -20.6716
  18   2.0000      -0.718883       -19.5618
  19   2.0000      -0.645711       -17.5707
  20   2.0000      -0.621382       -16.9087
  21   2.0000      -0.606269       -16.4974
  22   2.0000      -0.594210       -16.1693
  23   2.0000      -0.578218       -15.7341
  24   2.0000      -0.571418       -15.5491
  25   2.0000      -0.540983       -14.7209
  26   2.0000      -0.503219       -13.6933
  27   2.0000      -0.495590       -13.4857
  28   2.0000      -0.492399       -13.3989
  29   2.0000      -0.453605       -12.3432
  30   2.0000      -0.426492       -11.6054
  31   0.0000       0.107592         2.9277
  32   0.0000       0.117383         3.1941
  33   0.0000       0.121709         3.3119
  34   0.0000       0.137246         3.7346
  35   0.0000       0.151480         4.1220

MULLIKEN ATOMIC CHARGES
-----------------------
   0 N :   -0.034783
   1 C :   -0.191492
   2 C :    0.211237
   3 O :   -0.295289
   4 C :    0.074071
   5 C :   -0.237526
   6 C :    0.099829
   7 C :   -0.257047
   8 N :   -0.036602
   9 H :    0.163828
  10 H :    0.162591
  11 H :    0.166808
  12 H :    0.174375
Sum of atomic charges:   -0.0000000

LOEWDIN ATOMIC CHARGES
----------------------
   0 N :    0.095794
   1 C :   -0.153263
   2 C :   -0.202830
   3 O :    0.203697
   4 C :   -0.188074
   5 C :   -0.139398
   6 C :   -0.173913
   7 C :   -0.158984
   8 N :    0.087287
   9 H :    0.173976
  10 H :    0.145022
  11 H :    0.158911
  12 H :    0.151775

  Mayer bond orders larger than 0.1
B(  0-N ,  1-C ) :   2.8124 B(  1-C ,  2-C ) :   0.9332 B(  2-C ,  3-O ) :   0.9565
B(  2-C ,  6-C ) :   0.8993 B(  2-C ,  9-H ) :   0.8925 B(  3-O ,  4-C ) :   0.9525
B(  4-C ,  5-C ) :   0.9053 B(  4-C ,  6-C ) :   0.8584 B(  4-C , 10-H ) :   0.9093
B(  5-C ,  6-C ) :   0.8453 B(  5-C , 11-H ) :   0.9153 B(  5-C , 12-H ) :   0.8967
B(  6-C ,  7-C ) :   0.9281 B(  7-C ,  8-N ) :   2.8490

MP2 TOTAL ENERGY:     -414.866341385 Eh
FINAL SINGLE POINT ENERGY      -414.866341385204

DIPOLE MOMENT
-------------
                                X             Y             Z
Electronic contribution:     -1.67652      -1.00770      -2.27356
Nuclear contribution   :      1.82216       1.87124       3.30973
                        -----------------------------------------
Total Dipole Moment    :      0.14564       0.86354       1.03617
                        -----------------------------------------
Magnitude (a.u.)       :      1.35668
Magnitude (Debye)      :      3.44840

                             ****ORCA TERMINATED NORMALLY****
TOTAL RUN TIME: 0 days 0 hours 12 minutes 51 seconds 975 msec
