                         Program Version 3.0.3 - RELEASE   -
|  1> ! RI-MP2 RIJK def2-TZVP def2-TZVP/C def2-TZVP/JK TIGHTSCF
|  2> % maxcore 2000
|  3> % mp2 density relaxed end
|  4> *xyz 0 1
|  5>  C        0.0492500261     1.5013899902     0.0183777570
|  6>  C        0.0349523034     0.0089282782     0.0004072424
|  7>  C        0.0196151616    -0.8135166111    -1.0574304978
|  8>  C       -0.0021073367    -2.2937610385    -0.6824810785
|  9>  C        0.3353400515    -2.1813196553     0.7772633944
| 10>  C        1.1822777176    -2.7299472345     1.6373665275
| 11>  C        1.4027276372    -1.7620335029     2.7818559318
| 12>  O        0.8314856414    -0.5226897741     2.3439164101
| 13>  C       -0.0636033002    -0.8139575234     1.2738313493
| 14>  H        0.8937714531     1.8672426525     0.6137366726
| 15>  H        0.1244028524     1.9206906362    -0.9886707251
| 16>  H       -0.8585105064     1.8988543056     0.4906593082
| 17>  H        0.0021929705    -0.4847977059    -2.0919298502
| 18>  H       -0.9941806232    -2.7338166156    -0.8626732591
| 19>  H        0.7172054130    -2.8972899735    -1.2468045199
| 20>  H        1.7279875240    -3.6594349308     1.5346905777
| 21>  H        0.9287473451    -2.0907771595     3.7226720232
| 22>  H        2.4692503616    -1.6054903790     2.9912181874
| 23>  H       -1.1010568220    -0.7685246287     1.6592142191
| 24> *
| 25>
| 26>                          ****END OF INPUT****

CARTESIAN COORDINATES (ANGSTROEM)
---------------------------------
  C      0.049250    1.501390    0.018378
  C      0.034952    0.008928    0.000407
  C      0.019615   -0.813517   -1.057430
  C     -0.002107   -2.293761   -0.682481
  C      0.335340   -2.181320    0.777263
  C      1.182278   -2.729947    1.637367
  C      1.402728   -1.762034    2.781856
  O      0.831486   -0.522690    2.343916
  C     -0.063603   -0.813958    1.273831
  H      0.893771    1.867243    0.613737
  H      0.124403    1.920691   -0.988671
  H     -0.858511    1.898854    0.490659
  H      0.002193   -0.484798   -2.091930
  H     -0.994181   -2.733817   -0.862673
  H      0.717205   -2.897290   -1.246805
  H      1.727988   -3.659435    1.534691
  H      0.928747   -2.090777    3.722672
  H      2.469250   -1.605490    2.991218
  H     -1.101057   -0.768525    1.659214

 Total Charge           Charge          ....    0
 Multiplicity           Mult            ....    1
 Number of Electrons    NEL             ....   66
 Basis Dimension        Dim             ....  339

ORBITAL ENERGIES
----------------

  NO   OCC          E(Eh)            E(eV)
   0   2.0000     -20.548569      -559.1550
   1   2.0000     -11.276924      -306.8607
   2   2.0000     -11.276888      -306.8597
   3   2.0000     -11.239246      -305.8354
   4   2.0000     -11.234066      -305.6945
   5   2.0000     -11.232141      -305.6421
   6   2.0000     -11.226604      -305.4914
   7   2.0000     -11.225000      -305.4478
   8   2.0000     -11.220431      -305.3234
   9   2.0000      -1.372972       -37.3605
  10   2.0000      -1.144251       -31.1367
  11   2.0000      -1.058834       -28.8123
  12   2.0000      -0.989505       -26.9258
  13   2.0000      -0.958676       -26.0869
  14   2.0000      -0.899143       -24.4669
  15   2.0000      -0.818408       -22.2700
  16   2.0000      -0.741813       -20.1858
  17   2.0000      -0.726105       -19.7583
  18   2.0000      -0.663002       -18.0412
  19   2.0000      -0.645187       -17.5564
  20   2.0000      -0.610825       -16.6214
  21   2.0000      -0.604578       -16.4514
  22   2.0000      -0.585326       -15.9275
  23   2.0000      -0.573842       -15.6150
  24   2.0000      -0.557750       -15.1772
  25   2.0000      -0.539756       -14.6875
  26   2.0000      -0.518508       -14.1093
  27   2.0000      -0.507290       -13.8041
  28   2.0000      -0.485068       -13.1994
  29   2.0000      -0.458745       -12.4831
  30   2.0000      -0.424317       -11.5463
  31   2.0000      -0.344959        -9.3868
  32   2.0000      -0.343938        -9.3590
  33   0.0000       0.141057         3.8383
  34   0.0000       0.147827         4.0226
  35   0.0000       0.160237         4.3603
  36   0.0000       0.164490         4.4760
  37   0.0000       0.167889         4.5685

MULLIKEN ATOMIC CHARGES
-----------------------
   0 C :   -0.427748
   1 C :   -0.011721
   2 C :   -0.197464
   3 C :   -0.127686
   4 C :   -0.080882
   5 C :   -0.237709
   6 C :    0.014823
   7 O :   -0.342701
   8 C :    0.177693
   9 H :    0.154212
  10 H :    0.133686
  11 H :    0.137986
  12 H :    0.123647
  13 H :    0.126689
  14 H :    0.125612
  15 H :    0.134580
  16 H :    0.097903
  17 H :    0.114389
  18 H :    0.084692
Sum of atomic charges:    0.0000000

LOEWDIN ATOMIC CHARGES
----------------------
   0 C :   -0.271236
   1 C :   -0.162761
   2 C :   -0.121749
   3 C :   -0.199239
   4 C :   -0.136331
   5 C :   -0.138944
   6 C :   -0.276088
   7 O :    0.164442
   8 C :   -0.222167
   9 H :    0.137554
  10 H :    0.129331
  11 H :    0.133314
  12 H :    0.136278
  13 H :    0.148163
  14 H :    0.144177
  15 H :    0.139416
  16 H :    0.122629
  17 H :    0.126950
  18 H :    0.146263

  Mayer bond orders larger than 0.1
B(  0-C ,  1-C ) :   0.8988 B(  0-C ,  9-H ) :   0.9330 B(  0-C , 10-H ) :   0.9473
B(  0-C , 11-H ) :   0.9263 B(  1-C ,  2-C ) :   1.7176 B(  1-C ,  8-C ) :   0.9194
B(  2-C ,  3-C ) :   0.9423 B(  2-C , 12-H ) :   0.9196 B(  3-C ,  4-C ) :   0.9672
B(  3-C , 13-H ) :   0.8952 B(  3-C , 14-H ) :   0.9162 B(  4-C ,  5-C ) :   1.7684
B(  4-C ,  8-C ) :   0.9516 B(  5-C ,  6-C ) :   0.9708 B(  5-C , 15-H ) :   0.9118
B(  6-C ,  7-O ) :   0.9382 B(  6-C , 16-H ) :   0.9104 B(  6-C , 17-H ) :   0.9212
B(  7-O ,  8-C ) :   0.9321 B(  8-C , 18-H ) :   0.8935

MP2 TOTAL ENERGY:     -385.211096363 Eh
FINAL SINGLE POINT ENERGY      -385.211096362664

DIPOLE MOMENT
-------------
                                X             Y             Z
Electronic contribution:      0.33426      -2.06659       1.85447
Nuclear contribution   :     -0.37907       1.66639      -2.22638
                        -----------------------------------------
Total Dipole Moment    :     -0.04481      -0.40020      -0.37191
                        -----------------------------------------
Magnitude (a.u.)       :      0.54817
Magnitude (Debye)      :      1.39333

                             ****ORCA TERMINATED NORMALLY****
TOTAL RUN TIME: 0 days 0 hours 18 minutes 13 seconds 180 msec
