                         Program Version 3.0.3 - RELEASE   -
|  1> ! RI-MP2 RIJK def2-TZVP def2-TZVP/C def2-TZVP/JK TIGHTSCF
|  2> % maxcore 2000
|  3> % mp2 density relaxed end
|  4> *xyz 0 1
|  5>  C       -0.3087916460     1.4427412456    -0.0174875943
|  6>  C       -0.0739177776    -0.0681793567    -0.1177179979
|  7>  C        0.8194772106    -0.4904861708    -1.3066509404
|  8>  C        2.2024959769     0.1574384058    -1.2740852459
|  9>  C        0.7880413811    -2.0415696361    -1.5553681631
| 10>  O        0.3656752451    -2.7863007381    -0.4379181507
| 11>  C       -0.2228054064    -1.8541144135    -2.7296040915
| 12>  C        0.0641336986    -0.3486295387    -2.6431814086
| 13>  O       -0.1464493556     0.5796750134    -3.3722891536
| 14>  H        0.6130870149     1.9848827251     0.2120498773
| 15>  H       -0.7083892409     1.8456055817    -0.9530971248
| 16>  H       -1.0250170310     1.6620198604     0.7803094085
| 17>  H        0.3890514433    -0.4472484626     0.8004376329
| 18>  H       -1.0376933050    -0.5828577698    -0.1936602730
| 19>  H        2.7017085842    -0.0397127983    -0.3188081408
| 20>  H        2.8396449174    -0.2302249059    -2.0755293060
| 21>  H        2.1312326656     1.2397048614    -1.4087181021
| 22>  H        1.7621471325    -2.3944961605    -1.9207717233
| 23>  H        0.3331328799    -3.7149781792    -0.6873065231
| 24>  H       -0.0176789813    -2.3392865129    -3.6868938188
| 25>  H       -1.2471722463    -2.0880104504    -2.4194614609
| 26> *
| 27>
| 28>                          ****END OF INPUT****

CARTESIAN COORDINATES (ANGSTROEM)
---------------------------------
  C     -0.308792    1.442741   -0.017488
  C     -0.073918   -0.068179   -0.117718
  C      0.819477   -0.490486   -1.306651
  C      2.202496    0.157438   -1.274085
  C      0.788041   -2.041570   -1.555368
  O      0.365675   -2.786301   -0.437918
  C     -0.222805   -1.854114   -2.729604
  C      0.064134   -0.348630   -2.643181
  O     -0.146449    0.579675   -3.372289
  H      0.613087    1.984883    0.212050
  H     -0.708389    1.845606   -0.953097
  H     -1.025017    1.662020    0.780309
  H      0.389051   -0.447248    0.800438
  H     -1.037693   -0.582858   -0.193660
  H      2.701709   -0.039713   -0.318808
  H      2.839645   -0.230225   -2.075529
  H      2.131233    1.239705   -1.408718
  H      1.762147   -2.394496   -1.920772
  H      0.333133   -3.714978   -0.687307
  H     -0.017679   -2.339287   -3.686894
  H     -1.247172   -2.088010   -2.419461

 Total Charge           Charge          ....    0
 Multiplicity           Mult            ....    1
 Number of Electrons    NEL             ....   70
 Basis Dimension        Dim             ....  351

ORBITAL ENERGIES
----------------

  NO   OCC          E(Eh)            E(eV)
   0   2.0000     -20.571475      -559.7783
   1   2.0000     -20.550788      -559.2154
   2   2.0000     -11.327421      -308.2348
   3   2.0000     -11.296759      -307.4004
   4   2.0000     -11.246521      -306.0334
   5   2.0000     -11.239521      -305.8429
   6   2.0000     -11.227906      -305.5269
   7   2.0000     -11.223611      -305.4100
   8   2.0000     -11.210793      -305.0612
   9   2.0000      -1.393232       -37.9118
  10   2.0000      -1.379407       -37.5356
  11   2.0000      -1.143989       -31.1295
  12   2.0000      -1.038919       -28.2704
  13   2.0000      -0.979959       -26.6660
  14   2.0000      -0.889134       -24.1946
  15   2.0000      -0.854928       -23.2638
  16   2.0000      -0.820355       -22.3230
  17   2.0000      -0.712195       -19.3798
  18   2.0000      -0.695185       -18.9170
  19   2.0000      -0.664433       -18.0801
  20   2.0000      -0.653393       -17.7797
  21   2.0000      -0.617434       -16.8012
  22   2.0000      -0.601446       -16.3662
  23   2.0000      -0.593606       -16.1529
  24   2.0000      -0.570578       -15.5262
  25   2.0000      -0.560217       -15.2443
  26   2.0000      -0.543763       -14.7965
  27   2.0000      -0.534185       -14.5359
  28   2.0000      -0.521471       -14.1900
  29   2.0000      -0.507045       -13.7974
  30   2.0000      -0.493249       -13.4220
  31   2.0000      -0.474706       -12.9174
  32   2.0000      -0.447701       -12.1826
  33   2.0000      -0.432857       -11.7786
  34   2.0000      -0.385799       -10.4981
  35   0.0000       0.122955         3.3458
  36   0.0000       0.132188         3.5970
  37   0.0000       0.146886         3.9970
  38   0.0000       0.158554         4.3145
  39   0.0000       0.166574         4.5327

MULLIKEN ATOMIC CHARGES
-----------------------
   0 C :   -0.416704
   1 C :   -0.224001
   2 C :    0.205935
   3 C :   -0.448163
   4 C :   -0.036510
   5 O :   -0.448942
   6 C :   -0.194168
   7 C :    0.041021
   8 O :   -0.259002
   9 H :    0.128572
  10 H :    0.149932
  11 H :    0.136223
  12 H :    0.129323
  13 H :    0.119984
  14 H :    0.142441
  15 H :    0.129732
  16 H :    0.156341
  17 H :    0.094777
  18 H :    0.318817
  19 H :    0.139103
  20 H :    0.135288
Sum of atomic charges:   -0.0000000

LOEWDIN ATOMIC CHARGES
----------------------
   0 C :   -0.311228
   1 C :   -0.237464
   2 C :   -0.235895
   3 C :   -0.262616
   4 C :   -0.283511
   5 O :   -0.008594
   6 C :   -0.199947
   7 C :   -0.277926
   8 O :    0.162858
   9 H :    0.120696
  10 H :    0.127857
  11 H :    0.122605
  12 H :    0.145355
  13 H :    0.144997
  14 H :    0.131385
  15 H :    0.127017
  16 H :    0.133517
  17 H :    0.132552
  18 H :    0.178258
  19 H :    0.137316
  20 H :    0.152769

  Mayer bond orders larger than 0.1
B(  0-C ,  1-C ) :   0.9068 B(  0-C ,  9-H ) :   0.9399 B(  0-C , 10-H ) :   0.9331
B(  0-C , 11-H ) :   0.9409 B(  1-C ,  2-C ) :   0.9144 B(  1-C , 12-H ) :   0.9328
B(  1-C , 13-H ) :   0.9186 B(  2-C ,  3-C ) :   0.8812 B(  2-C ,  4-C ) :   0.8622
B(  2-C ,  6-C ) :  -0.1032 B(  2-C ,  7-C ) :   0.8007 B(  3-C , 14-H ) :   0.9373
B(  3-C , 15-H ) :   0.9269 B(  3-C , 16-H ) :   0.9394 B(  4-C ,  5-O ) :   1.0965
B(  4-C ,  6-C ) :   0.9146 B(  4-C , 17-H ) :   0.9579 B(  5-O , 18-H ) :   0.8420
B(  6-C ,  7-C ) :   0.9087 B(  6-C , 19-H ) :   0.9009 B(  6-C , 20-H ) :   0.8788
B(  7-C ,  8-O ) :   2.0278

MP2 TOTAL ENERGY:     -423.532421431 Eh
FINAL SINGLE POINT ENERGY      -423.532421431469

DIPOLE MOMENT
-------------
                                X             Y             Z
Electronic contribution:     -1.65757      -3.17032      -5.15567
Nuclear contribution   :      1.95680       2.12846       5.42985
                        -----------------------------------------
Total Dipole Moment    :      0.29923      -1.04186       0.27418
                        -----------------------------------------
Magnitude (a.u.)       :      1.11811
Magnitude (Debye)      :      2.84202

                             ****ORCA TERMINATED NORMALLY****
TOTAL RUN TIME: 0 days 0 hours 20 minutes 7 seconds 637 msec
