                         Program Version 3.0.3 - RELEASE   -
|  1> ! RI-MP2 RIJK def2-TZVP def2-TZVP/C def2-TZVP/JK TIGHTSCF
|  2> % maxcore 2000
|  3> % mp2 density relaxed end
|  4> *xyz 0 1
|  5>  C        0.0361666839     1.5310173648     0.0353855403
|  6>  C        0.0319775764     0.0135677210     0.0484044746
|  7>  C       -0.9040734110    -0.5823127956    -0.9898300690
|  8>  C       -0.9584106878    -2.0627045982    -1.2607629461
|  9>  C       -0.4812861480    -3.1128437744    -0.5948241206
| 10>  C        0.2859580806    -3.1652212428     0.6970377790
| 11>  C       -0.0122115503    -2.0569009706     1.7127763120
| 12>  C        0.4315895034    -0.6715456115     1.2867596708
| 13>  O        1.3419958466    -0.5664686001     0.1803908363
| 14>  H        0.7379162947     1.9204754879     0.7765024588
| 15>  H        0.3377746985     1.9064382822    -0.9487524637
| 16>  H       -0.9605581891     1.9295099235     0.2544871898
| 17>  H       -1.9203924255    -0.2291644950    -0.7524866221
| 18>  H       -0.6697610230    -0.0910621638    -1.9461941388
| 19>  H       -1.4912584043    -2.2813400746    -2.1855689769
| 20>  H       -0.6530552318    -4.0867469519    -1.0505855068
| 21>  H        0.0829833187    -4.1292127927     1.1783666052
| 22>  H        1.3615360847    -3.1590031761     0.4763817534
| 23>  H       -1.0847684532    -2.0359390739     1.9455176289
| 24>  H        0.4999812453    -2.3039231247     2.6504950736
| 25>  H        0.6946886110    -0.0180568334     2.1219770711
| 26> *
| 27>
| 28>                          ****END OF INPUT****

CARTESIAN COORDINATES (ANGSTROEM)
---------------------------------
  C      0.036167    1.531017    0.035386
  C      0.031978    0.013568    0.048404
  C     -0.904073   -0.582313   -0.989830
  C     -0.958411   -2.062705   -1.260763
  C     -0.481286   -3.112844   -0.594824
  C      0.285958   -3.165221    0.697038
  C     -0.012212   -2.056901    1.712776
  C      0.431590   -0.671546    1.286760
  O      1.341996   -0.566469    0.180391
  H      0.737916    1.920475    0.776502
  H      0.337775    1.906438   -0.948752
  H     -0.960558    1.929510    0.254487
  H     -1.920392   -0.229164   -0.752487
  H     -0.669761   -0.091062   -1.946194
  H     -1.491258   -2.281340   -2.185569
  H     -0.653055   -4.086747   -1.050586
  H      0.082983   -4.129213    1.178367
  H      1.361536   -3.159003    0.476382
  H     -1.084768   -2.035939    1.945518
  H      0.499981   -2.303923    2.650495
  H      0.694689   -0.018057    2.121977

 Total Charge           Charge          ....    0
 Multiplicity           Mult            ....    1
 Number of Electrons    NEL             ....   68
 Basis Dimension        Dim             ....  351

ORBITAL ENERGIES
----------------

  NO   OCC          E(Eh)            E(eV)
   0   2.0000     -20.554259      -559.3098
   1   2.0000     -11.287011      -307.1352
   2   2.0000     -11.277710      -306.8821
   3   2.0000     -11.234466      -305.7054
   4   2.0000     -11.227929      -305.5275
   5   2.0000     -11.224739      -305.4407
   6   2.0000     -11.223110      -305.3963
   7   2.0000     -11.221500      -305.3525
   8   2.0000     -11.220969      -305.3381
   9   2.0000      -1.400603       -38.1123
  10   2.0000      -1.093906       -29.7667
  11   2.0000      -1.051263       -28.6063
  12   2.0000      -1.010542       -27.4982
  13   2.0000      -0.951640       -25.8954
  14   2.0000      -0.897028       -24.4094
  15   2.0000      -0.836832       -22.7714
  16   2.0000      -0.757260       -20.6061
  17   2.0000      -0.713042       -19.4029
  18   2.0000      -0.683428       -18.5970
  19   2.0000      -0.634952       -17.2779
  20   2.0000      -0.624964       -17.0061
  21   2.0000      -0.607760       -16.5380
  22   2.0000      -0.577386       -15.7115
  23   2.0000      -0.569555       -15.4984
  24   2.0000      -0.561913       -15.2904
  25   2.0000      -0.548791       -14.9334
  26   2.0000      -0.526442       -14.3252
  27   2.0000      -0.512314       -13.9408
  28   2.0000      -0.494683       -13.4610
  29   2.0000      -0.471723       -12.8362
  30   2.0000      -0.463860       -12.6223
  31   2.0000      -0.430602       -11.7173
  32   2.0000      -0.408040       -11.1033
  33   2.0000      -0.343862        -9.3570
  34   0.0000       0.129390         3.5209
  35   0.0000       0.154581         4.2064
  36   0.0000       0.162642         4.4257
  37   0.0000       0.165146         4.4939
  38   0.0000       0.181814         4.9474

MULLIKEN ATOMIC CHARGES
-----------------------
   0 C :   -0.411213
   1 C :    0.152036
   2 C :   -0.138696
   3 C :   -0.202239
   4 C :   -0.199007
   5 C :   -0.129034
   6 C :   -0.196051
   7 C :    0.000976
   8 O :   -0.349837
   9 H :    0.140535
  10 H :    0.135298
  11 H :    0.128713
  12 H :    0.125485
  13 H :    0.120851
  14 H :    0.115412
  15 H :    0.112894
  16 H :    0.124708
  17 H :    0.124169
  18 H :    0.114680
  19 H :    0.124593
  20 H :    0.105727
Sum of atomic charges:    0.0000000

LOEWDIN ATOMIC CHARGES
----------------------
   0 C :   -0.267321
   1 C :   -0.323418
   2 C :   -0.216182
   3 C :   -0.175839
   4 C :   -0.179658
   5 C :   -0.254059
   6 C :   -0.244482
   7 C :   -0.246109
   8 O :    0.180573
   9 H :    0.130988
  10 H :    0.129011
  11 H :    0.128922
  12 H :    0.158642
  13 H :    0.157470
  14 H :    0.147985
  15 H :    0.145715
  16 H :    0.143717
  17 H :    0.154029
  18 H :    0.147903
  19 H :    0.143646
  20 H :    0.138467

  Mayer bond orders larger than 0.1
B(  0-C ,  1-C ) :   0.8911 B(  0-C ,  9-H ) :   0.9376 B(  0-C , 10-H ) :   0.9386
B(  0-C , 11-H ) :   0.9309 B(  1-C ,  2-C ) :   0.9261 B(  1-C ,  7-C ) :   0.9686
B(  1-C ,  8-O ) :   0.8986 B(  2-C ,  3-C ) :   0.9414 B(  2-C , 12-H ) :   0.8977
B(  2-C , 13-H ) :   0.9168 B(  3-C ,  4-C ) :   1.8326 B(  3-C , 14-H ) :   0.9263
B(  4-C ,  5-C ) :   0.9417 B(  4-C , 15-H ) :   0.9260 B(  5-C ,  6-C ) :   0.9304
B(  5-C , 16-H ) :   0.9303 B(  5-C , 17-H ) :   0.9039 B(  6-C ,  7-C ) :   0.9251
B(  6-C , 18-H ) :   0.9140 B(  6-C , 19-H ) :   0.9279 B(  7-C ,  8-O ) :   0.8851
B(  7-C , 20-H ) :   0.9187

MP2 TOTAL ENERGY:     -386.405462125 Eh
FINAL SINGLE POINT ENERGY      -386.405462125185

DIPOLE MOMENT
-------------
                                X             Y             Z
Electronic contribution:      2.19521      -1.04481      -0.56374
Nuclear contribution   :     -2.81205       1.18462       0.85503
                        -----------------------------------------
Total Dipole Moment    :     -0.61684       0.13981       0.29129
                        -----------------------------------------
Magnitude (a.u.)       :      0.69633
Magnitude (Debye)      :      1.76994

                             ****ORCA TERMINATED NORMALLY****
TOTAL RUN TIME: 0 days 0 hours 19 minutes 27 seconds 536 msec
