                         Program Version 3.0.3 - RELEASE   -
|  1> ! RI-MP2 RIJK def2-TZVP def2-TZVP/C def2-TZVP/JK TIGHTSCF
|  2> % maxcore 2000
|  3> % mp2 density relaxed end
|  4> *xyz 0 1
|  5>  C       -0.2450547677     1.5364610728    -0.0109319906
|  6>  C        0.1223517564     0.0420928892     0.0230407536
|  7>  C        0.8423187804    -0.4214342070    -1.2058922337
|  8>  C        2.0869922825    -0.9009973052    -1.2996513081
|  9>  C        2.3835200722    -1.3698006256    -2.6863801343
| 10>  N        1.4843657935    -2.4920339138    -3.1113659121
| 11>  C        1.1748323862    -1.0928175952    -3.4898968879
| 12>  C        0.1144238013    -0.5019029739    -2.5559163114
| 13>  O       -1.0553505629    -1.3025373914    -2.4816525082
| 14>  H        0.6503149476     2.1597765383    -0.1011603883
| 15>  H       -0.9020686817     1.7671169507    -0.8551777129
| 16>  H       -0.7694835356     1.8255682113     0.9048372386
| 17>  H        0.7323889301    -0.1681824957     0.9084298088
| 18>  H       -0.7991541512    -0.5458567235     0.1199742897
| 19>  H        2.7852296454    -1.0040256821    -0.4762557897
| 20>  H        3.3844423084    -1.3304672565    -3.1018999853
| 21>  H        1.8934113605    -2.9609317529    -3.9181095335
| 22>  H        1.2069802872    -0.8098911948    -4.5356055567
| 23>  H       -0.2206029932     0.4825005021    -2.9020378196
| 24>  H       -0.7237000793    -2.2089563867    -2.4026440187
| 25> *
| 26>
| 27>                          ****END OF INPUT****

CARTESIAN COORDINATES (ANGSTROEM)
---------------------------------
  C     -0.245055    1.536461   -0.010932
  C      0.122352    0.042093    0.023041
  C      0.842319   -0.421434   -1.205892
  C      2.086992   -0.900997   -1.299651
  C      2.383520   -1.369801   -2.686380
  N      1.484366   -2.492034   -3.111366
  C      1.174832   -1.092818   -3.489897
  C      0.114424   -0.501903   -2.555916
  O     -1.055351   -1.302537   -2.481653
  H      0.650315    2.159777   -0.101160
  H     -0.902069    1.767117   -0.855178
  H     -0.769484    1.825568    0.904837
  H      0.732389   -0.168182    0.908430
  H     -0.799154   -0.545857    0.119974
  H      2.785230   -1.004026   -0.476256
  H      3.384442   -1.330467   -3.101900
  H      1.893411   -2.960932   -3.918110
  H      1.206980   -0.809891   -4.535606
  H     -0.220603    0.482501   -2.902038
  H     -0.723700   -2.208956   -2.402644

 Total Charge           Charge          ....    0
 Multiplicity           Mult            ....    1
 Number of Electrons    NEL             ....   68
 Basis Dimension        Dim             ....  345

ORBITAL ENERGIES
----------------

  NO   OCC          E(Eh)            E(eV)
   0   2.0000     -20.545987      -559.0847
   1   2.0000     -15.567716      -423.6191
   2   2.0000     -11.282904      -307.0234
   3   2.0000     -11.268110      -306.6209
   4   2.0000     -11.260702      -306.4193
   5   2.0000     -11.231159      -305.6154
   6   2.0000     -11.224418      -305.4319
   7   2.0000     -11.223523      -305.4076
   8   2.0000     -11.214499      -305.1620
   9   2.0000      -1.357393       -36.9365
  10   2.0000      -1.269802       -34.5531
  11   2.0000      -1.098713       -29.8975
  12   2.0000      -1.015263       -27.6267
  13   2.0000      -0.948473       -25.8093
  14   2.0000      -0.899833       -24.4857
  15   2.0000      -0.833833       -22.6898
  16   2.0000      -0.792968       -21.5777
  17   2.0000      -0.743299       -20.2262
  18   2.0000      -0.707435       -19.2503
  19   2.0000      -0.661322       -17.9955
  20   2.0000      -0.619892       -16.8681
  21   2.0000      -0.612970       -16.6798
  22   2.0000      -0.604203       -16.4412
  23   2.0000      -0.563756       -15.3406
  24   2.0000      -0.560533       -15.2529
  25   2.0000      -0.528218       -14.3735
  26   2.0000      -0.511036       -13.9060
  27   2.0000      -0.504792       -13.7361
  28   2.0000      -0.484652       -13.1880
  29   2.0000      -0.479633       -13.0515
  30   2.0000      -0.475363       -12.9353
  31   2.0000      -0.434614       -11.8264
  32   2.0000      -0.394646       -10.7389
  33   2.0000      -0.339791        -9.2462
  34   0.0000       0.133288         3.6270
  35   0.0000       0.140200         3.8150
  36   0.0000       0.151536         4.1235
  37   0.0000       0.170232         4.6322
  38   0.0000       0.173911         4.7324

MULLIKEN ATOMIC CHARGES
-----------------------
   0 C :   -0.411465
   1 C :   -0.216962
   2 C :   -0.013699
   3 C :   -0.193138
   4 C :    0.024003
   5 N :   -0.422613
   6 C :   -0.109051
   7 C :    0.122383
   8 O :   -0.476324
   9 H :    0.126748
  10 H :    0.132159
  11 H :    0.132536
  12 H :    0.115989
  13 H :    0.131357
  14 H :    0.133042
  15 H :    0.136924
  16 H :    0.217663
  17 H :    0.137100
  18 H :    0.104317
  19 H :    0.329030
Sum of atomic charges:    0.0000000

LOEWDIN ATOMIC CHARGES
----------------------
   0 C :   -0.308457
   1 C :   -0.253102
   2 C :   -0.135462
   3 C :   -0.115137
   4 C :   -0.227336
   5 N :   -0.006450
   6 C :   -0.224731
   7 C :   -0.276293
   8 O :   -0.015698
   9 H :    0.120822
  10 H :    0.121789
  11 H :    0.121193
  12 H :    0.141982
  13 H :    0.150211
  14 H :    0.140059
  15 H :    0.137068
  16 H :    0.167536
  17 H :    0.135174
  18 H :    0.146057
  19 H :    0.180775

  Mayer bond orders larger than 0.1
B(  0-C ,  1-C ) :   0.9052 B(  0-C ,  9-H ) :   0.9384 B(  0-C , 10-H ) :   0.9394
B(  0-C , 11-H ) :   0.9371 B(  1-C ,  2-C ) :   0.9135 B(  1-C , 12-H ) :   0.9403
B(  1-C , 13-H ) :   0.9194 B(  2-C ,  3-C ) :   1.7474 B(  2-C ,  7-C ) :   0.9465
B(  3-C ,  4-C ) :   0.9324 B(  3-C , 14-H ) :   0.9201 B(  4-C ,  5-N ) :   0.8560
B(  4-C ,  6-C ) :   0.9425 B(  4-C , 15-H ) :   0.9195 B(  5-N ,  6-C ) :   0.9585
B(  5-N , 16-H ) :   0.8698 B(  6-C ,  7-C ) :   0.9253 B(  6-C , 17-H ) :   0.9249
B(  7-C ,  8-O ) :   0.9448 B(  7-C , 18-H ) :   0.9330 B(  8-O , 19-H ) :   0.8195

MP2 TOTAL ENERGY:     -402.443378782 Eh
FINAL SINGLE POINT ENERGY      -402.443378781774

DIPOLE MOMENT
-------------
                                X             Y             Z
Electronic contribution:      1.47020      -4.73054      -4.29613
Nuclear contribution   :     -0.57152       4.87133       3.97850
                        -----------------------------------------
Total Dipole Moment    :      0.89868       0.14079      -0.31763
                        -----------------------------------------
Magnitude (a.u.)       :      0.96350
Magnitude (Debye)      :      2.44902

                             ****ORCA TERMINATED NORMALLY****
TOTAL RUN TIME: 0 days 0 hours 18 minutes 41 seconds 594 msec
