                         Program Version 3.0.3 - RELEASE   -
|  1> ! RI-MP2 RIJK def2-TZVP def2-TZVP/C def2-TZVP/JK TIGHTSCF
|  2> % maxcore 2000
|  3> % mp2 density relaxed end
|  4> *xyz 0 1
|  5>  O       -0.0902668860     1.4546747814     0.0889823161
|  6>  C        0.0293004115     0.0458404061    -0.0036671196
|  7>  C       -1.3903184429    -0.5310045496    -0.0382526772
|  8>  C       -1.4074676168    -2.0239404448    -0.1175617841
|  9>  C       -1.3730994978    -2.8974685283    -1.1895748894
| 10>  C       -1.3648619113    -4.1849628076    -0.6134146523
| 11>  N       -1.3922706202    -4.1351193584     0.7152535158
| 12>  N       -1.4132856868    -2.8156945581     0.9882515282
| 13>  H        0.7928845605     1.8349189352     0.0818000808
| 14>  H        0.5681969321    -0.2599918426    -0.9131534456
| 15>  H        0.5764213344    -0.3723254671     0.8562962281
| 16>  H       -1.9247931288    -0.1847032622     0.8541551104
| 17>  H       -1.9140098069    -0.1079554091    -0.9005895748
| 18>  H       -1.3625323204    -2.6337306023    -2.2350872849
| 19>  H       -1.3458333566    -5.1437005952    -1.1109116620
| 20>  H       -1.4527106240    -2.5185295573     1.9490818404
| 21> *
| 22>
| 23>                          ****END OF INPUT****

CARTESIAN COORDINATES (ANGSTROEM)
---------------------------------
  O     -0.090267    1.454675    0.088982
  C      0.029300    0.045840   -0.003667
  C     -1.390318   -0.531005   -0.038253
  C     -1.407468   -2.023940   -0.117562
  C     -1.373099   -2.897469   -1.189575
  C     -1.364862   -4.184963   -0.613415
  N     -1.392271   -4.135119    0.715254
  N     -1.413286   -2.815695    0.988252
  H      0.792885    1.834919    0.081800
  H      0.568197   -0.259992   -0.913153
  H      0.576421   -0.372325    0.856296
  H     -1.924793   -0.184703    0.854155
  H     -1.914010   -0.107955   -0.900590
  H     -1.362532   -2.633731   -2.235087
  H     -1.345833   -5.143701   -1.110912
  H     -1.452711   -2.518530    1.949082

 Total Charge           Charge          ....    0
 Multiplicity           Mult            ....    1
 Number of Electrons    NEL             ....   60
 Basis Dimension        Dim             ....  296

ORBITAL ENERGIES
----------------

  NO   OCC          E(Eh)            E(eV)
   0   2.0000     -20.567512      -559.6705
   1   2.0000     -15.631591      -425.3572
   2   2.0000     -15.579909      -423.9509
   3   2.0000     -11.290777      -307.2377
   4   2.0000     -11.279543      -306.9320
   5   2.0000     -11.248290      -306.0815
   6   2.0000     -11.246732      -306.0391
   7   2.0000     -11.214395      -305.1592
   8   2.0000      -1.372914       -37.3589
   9   2.0000      -1.368939       -37.2507
  10   2.0000      -1.111537       -30.2464
  11   2.0000      -1.066280       -29.0150
  12   2.0000      -1.005240       -27.3540
  13   2.0000      -0.866802       -23.5869
  14   2.0000      -0.811609       -22.0850
  15   2.0000      -0.795209       -21.6387
  16   2.0000      -0.728546       -19.8247
  17   2.0000      -0.674445       -18.3526
  18   2.0000      -0.660094       -17.9621
  19   2.0000      -0.618846       -16.8397
  20   2.0000      -0.601492       -16.3674
  21   2.0000      -0.587757       -15.9937
  22   2.0000      -0.579313       -15.7639
  23   2.0000      -0.550968       -14.9926
  24   2.0000      -0.529329       -14.4038
  25   2.0000      -0.506240       -13.7755
  26   2.0000      -0.458261       -12.4699
  27   2.0000      -0.451705       -12.2915
  28   2.0000      -0.361947        -9.8491
  29   2.0000      -0.335580        -9.1316
  30   0.0000       0.124314         3.3828
  31   0.0000       0.136558         3.7159
  32   0.0000       0.156688         4.2637
  33   0.0000       0.166635         4.5344
  34   0.0000       0.183919         5.0047

MULLIKEN ATOMIC CHARGES
-----------------------
   0 O :   -0.462776
   1 C :   -0.058592
   2 C :   -0.229804
   3 C :    0.072192
   4 C :   -0.188592
   5 C :   -0.104581
   6 N :   -0.225984
   7 N :   -0.111117
   8 H :    0.319341
   9 H :    0.106616
  10 H :    0.094121
  11 H :    0.126867
  12 H :    0.137736
  13 H :    0.139807
  14 H :    0.131555
  15 H :    0.253210
Sum of atomic charges:    0.0000000

LOEWDIN ATOMIC CHARGES
----------------------
   0 O :   -0.048750
   1 C :   -0.345494
   2 C :   -0.234646
   3 C :   -0.243724
   4 C :   -0.186157
   5 C :   -0.279572
   6 N :    0.017112
   7 N :    0.146973
   8 H :    0.174538
   9 H :    0.118192
  10 H :    0.114516
  11 H :    0.148411
  12 H :    0.154458
  13 H :    0.142218
  14 H :    0.132642
  15 H :    0.189281

  Mayer bond orders larger than 0.1
B(  0-O ,  1-C ) :   1.0118 B(  0-O ,  8-H ) :   0.8464 B(  1-C ,  2-C ) :   0.9170
B(  1-C ,  9-H ) :   0.9319 B(  1-C , 10-H ) :   0.9275 B(  2-C ,  3-C ) :   0.8614
B(  2-C , 11-H ) :   0.9393 B(  2-C , 12-H ) :   0.9326 B(  3-C ,  4-C ) :   1.4115
B(  3-C ,  6-N ) :   0.1089 B(  3-C ,  7-N ) :   1.1789 B(  4-C ,  5-C ) :   1.3033
B(  4-C , 13-H ) :   0.9256 B(  5-C ,  6-N ) :   1.5319 B(  5-C , 14-H ) :   0.9406
B(  6-N ,  7-N ) :   1.0642 B(  7-N , 15-H ) :   0.8709

MP2 TOTAL ENERGY:     -379.306783278 Eh
FINAL SINGLE POINT ENERGY      -379.306783278285

DIPOLE MOMENT
-------------
                                X             Y             Z
Electronic contribution:     -1.31818      -3.74105       1.31944
Nuclear contribution   :      1.88451       4.52643      -1.33907
                        -----------------------------------------
Total Dipole Moment    :      0.56632       0.78537      -0.01963
                        -----------------------------------------
Magnitude (a.u.)       :      0.96846
Magnitude (Debye)      :      2.46163

                             ****ORCA TERMINATED NORMALLY****
TOTAL RUN TIME: 0 days 0 hours 11 minutes 4 seconds 59 msec
