                         Program Version 3.0.3 - RELEASE   -
|  1> ! RI-MP2 RIJK def2-TZVP def2-TZVP/C def2-TZVP/JK TIGHTSCF
|  2> % maxcore 2000
|  3> % mp2 density relaxed end
|  4> *xyz 0 1
|  5>  C       -0.2050662634     1.6570655302    -0.1372892076
|  6>  C        0.0292898784     0.1558766312    -0.0319424746
|  7>  C        1.1063037503    -0.6006047073    -0.8706523022
|  8>  C        2.4103139239     0.1256744313    -0.4802158524
|  9>  C        2.3413211340    -0.2762015680     1.0087887566
| 10>  C        2.4991028511    -1.8239169761     0.8919218602
| 11>  C        2.5529542924    -2.6062193849     2.2000918107
| 12>  C        1.0991424616    -1.7262508144     0.2588764793
| 13>  C        0.7643656758    -0.4894271081     1.1535542258
| 14>  H        0.6938159181     2.2413360607     0.0778079280
| 15>  H       -0.5544938532     1.9352111561    -1.1384790763
| 16>  H       -0.9737063071     1.9722559386     0.5773841940
| 17>  H       -0.9288185628    -0.3667257846    -0.1502576981
| 18>  H        0.9412512140    -0.8371105505    -1.9223447430
| 19>  H        3.3008842244    -0.2770688533    -0.9715648182
| 20>  H        2.3768622771     1.1999450096    -0.6731889945
| 21>  H        2.9165894298     0.3003317042     1.7339999889
| 22>  H        3.3169105116    -2.1529245349     0.2379489293
| 23>  H        1.7529484586    -2.3176056268     2.8888916428
| 24>  H        2.4561228492    -3.6820305409     2.0150972554
| 25>  H        3.5079801745    -2.4440278669     2.7120343086
| 26>  H        0.4244554190    -2.5732376244     0.1285660414
| 27>  H        0.3449357728    -0.5543218008     2.1564661760
| 28> *
| 29>
| 30>                          ****END OF INPUT****

CARTESIAN COORDINATES (ANGSTROEM)
---------------------------------
  C     -0.205066    1.657066   -0.137289
  C      0.029290    0.155877   -0.031942
  C      1.106304   -0.600605   -0.870652
  C      2.410314    0.125674   -0.480216
  C      2.341321   -0.276202    1.008789
  C      2.499103   -1.823917    0.891922
  C      2.552954   -2.606219    2.200092
  C      1.099142   -1.726251    0.258876
  C      0.764366   -0.489427    1.153554
  H      0.693816    2.241336    0.077808
  H     -0.554494    1.935211   -1.138479
  H     -0.973706    1.972256    0.577384
  H     -0.928819   -0.366726   -0.150258
  H      0.941251   -0.837111   -1.922345
  H      3.300884   -0.277069   -0.971565
  H      2.376862    1.199945   -0.673189
  H      2.916589    0.300332    1.734000
  H      3.316911   -2.152925    0.237949
  H      1.752948   -2.317606    2.888892
  H      2.456123   -3.682031    2.015097
  H      3.507980   -2.444028    2.712034
  H      0.424455   -2.573238    0.128566
  H      0.344936   -0.554322    2.156466

 Total Charge           Charge          ....    0
 Multiplicity           Mult            ....    1
 Number of Electrons    NEL             ....   68
 Basis Dimension        Dim             ....  363

ORBITAL ENERGIES
----------------

  NO   OCC          E(Eh)            E(eV)
   0   2.0000     -11.225418      -305.4591
   1   2.0000     -11.224718      -305.4401
   2   2.0000     -11.222241      -305.3727
   3   2.0000     -11.221516      -305.3530
   4   2.0000     -11.220666      -305.3298
   5   2.0000     -11.219987      -305.3114
   6   2.0000     -11.212054      -305.0955
   7   2.0000     -11.209062      -305.0141
   8   2.0000     -11.207321      -304.9667
   9   2.0000      -1.207917       -32.8691
  10   2.0000      -1.045922       -28.4610
  11   2.0000      -0.983003       -26.7489
  12   2.0000      -0.950866       -25.8744
  13   2.0000      -0.913701       -24.8631
  14   2.0000      -0.864241       -23.5172
  15   2.0000      -0.774055       -21.0631
  16   2.0000      -0.738860       -20.1054
  17   2.0000      -0.697558       -18.9815
  18   2.0000      -0.679866       -18.5001
  19   2.0000      -0.627501       -17.0752
  20   2.0000      -0.620018       -16.8715
  21   2.0000      -0.576527       -15.6881
  22   2.0000      -0.558164       -15.1884
  23   2.0000      -0.545677       -14.8486
  24   2.0000      -0.535851       -14.5813
  25   2.0000      -0.518988       -14.1224
  26   2.0000      -0.502652       -13.6779
  27   2.0000      -0.476670       -12.9708
  28   2.0000      -0.463143       -12.6028
  29   2.0000      -0.443099       -12.0573
  30   2.0000      -0.420907       -11.4534
  31   2.0000      -0.412979       -11.2377
  32   2.0000      -0.404399       -11.0042
  33   2.0000      -0.389456       -10.5976
  34   0.0000       0.138762         3.7759
  35   0.0000       0.149970         4.0809
  36   0.0000       0.165303         4.4981
  37   0.0000       0.168825         4.5940
  38   0.0000       0.189473         5.1558

MULLIKEN ATOMIC CHARGES
-----------------------
   0 C :   -0.420207
   1 C :   -0.075336
   2 C :   -0.025532
   3 C :   -0.282265
   4 C :   -0.071240
   5 C :   -0.062954
   6 C :   -0.433635
   7 C :   -0.143123
   8 C :   -0.164482
   9 H :    0.125663
  10 H :    0.131198
  11 H :    0.131153
  12 H :    0.094130
  13 H :    0.122282
  14 H :    0.113925
  15 H :    0.121890
  16 H :    0.120513
  17 H :    0.091439
  18 H :    0.130295
  19 H :    0.130334
  20 H :    0.130982
  21 H :    0.113864
  22 H :    0.121106
Sum of atomic charges:   -0.0000000

LOEWDIN ATOMIC CHARGES
----------------------
   0 C :   -0.300017
   1 C :   -0.227736
   2 C :   -0.156900
   3 C :   -0.207195
   4 C :   -0.155817
   5 C :   -0.221844
   6 C :   -0.291432
   7 C :   -0.134087
   8 C :   -0.137238
   9 H :    0.121263
  10 H :    0.124807
  11 H :    0.125303
  12 H :    0.157340
  13 H :    0.130075
  14 H :    0.134697
  15 H :    0.131458
  16 H :    0.131202
  17 H :    0.138950
  18 H :    0.125352
  19 H :    0.124045
  20 H :    0.123460
  21 H :    0.133478
  22 H :    0.130836

  Mayer bond orders larger than 0.1
B(  0-C ,  1-C ) :   0.8879 B(  0-C ,  9-H ) :   0.9395 B(  0-C , 10-H ) :   0.9377
B(  0-C , 11-H ) :   0.9389 B(  1-C ,  2-C ) :   0.9005 B(  1-C ,  8-C ) :   0.9408
B(  1-C , 12-H ) :   0.9226 B(  2-C ,  3-C ) :   0.9195 B(  2-C ,  7-C ) :   0.8807
B(  2-C , 13-H ) :   0.9087 B(  3-C ,  4-C ) :   0.9233 B(  3-C , 14-H ) :   0.9242
B(  3-C , 15-H ) :   0.9393 B(  4-C ,  5-C ) :   0.8874 B(  4-C ,  8-C ) :   0.8705
B(  4-C , 16-H ) :   0.9110 B(  5-C ,  6-C ) :   0.8952 B(  5-C ,  7-C ) :   0.9085
B(  5-C , 17-H ) :   0.9161 B(  6-C , 18-H ) :   0.9363 B(  6-C , 19-H ) :   0.9406
B(  6-C , 20-H ) :   0.9411 B(  7-C ,  8-C ) :   0.9129 B(  7-C , 21-H ) :   0.9194
B(  8-C , 22-H ) :   0.9141

MP2 TOTAL ENERGY:     -350.488486580 Eh
FINAL SINGLE POINT ENERGY      -350.488486579624

DIPOLE MOMENT
-------------
                                X             Y             Z
Electronic contribution:     -0.01440      -0.94574      -1.20626
Nuclear contribution   :     -0.01720       0.93793       1.21225
                        -----------------------------------------
Total Dipole Moment    :     -0.03160      -0.00780       0.00599
                        -----------------------------------------
Magnitude (a.u.)       :      0.03310
Magnitude (Debye)      :      0.08413

                             ****ORCA TERMINATED NORMALLY****
TOTAL RUN TIME: 0 days 0 hours 22 minutes 47 seconds 439 msec
