                         Program Version 3.0.3 - RELEASE   -
|  1> ! RI-MP2 RIJK def2-TZVP def2-TZVP/C def2-TZVP/JK TIGHTSCF
|  2> % maxcore 2000
|  3> % mp2 density relaxed end
|  4> *xyz 0 1
|  5>  O       -0.0497180188     1.3534121796     0.0238512849
|  6>  C        0.0150403531    -0.0520991777     0.0038252580
|  7>  C        0.6504831254    -0.6609083725    -1.2737179970
|  8>  C        0.0912341899    -2.1142167221    -1.2841688978
|  9>  C       -0.7946235015    -2.1559397777    -0.0113358336
| 10>  O       -1.7849953060    -3.1555453548    -0.0086605968
| 11>  C        0.1322552599    -2.1481475359     1.2326061360
| 12>  C        0.6916035469    -0.6948790029     1.2430551909
| 13>  C       -1.3654701940    -0.7286787099     0.0172286350
| 14>  H        0.8507570000     1.6948760052     0.0136566418
| 15>  H        0.3158694287    -0.0933957413    -2.1465348500
| 16>  H        1.7447295590    -0.6200356946    -1.2494736886
| 17>  H       -0.5331865223    -2.3001118552    -2.1624510536
| 18>  H        0.8757178429    -2.8783371017    -1.2655894419
| 19>  H       -1.3457044564    -4.0124104731    -0.0277032987
| 20>  H       -0.4633623614    -2.3578118459     2.1254247490
| 21>  H        0.9153166369    -2.9112150178     1.1679862013
| 22>  H        1.7844929266    -0.6529728629     1.1840960449
| 23>  H        0.3860490104    -0.1512184944     2.1413346422
| 24>  H       -1.9399075731    -0.5141335167     0.9222366116
| 25>  H       -1.9690251061    -0.4900607077    -0.8624468178
| 26> *
| 27>
| 28>                          ****END OF INPUT****

CARTESIAN COORDINATES (ANGSTROEM)
---------------------------------
  O     -0.049718    1.353412    0.023851
  C      0.015040   -0.052099    0.003825
  C      0.650483   -0.660908   -1.273718
  C      0.091234   -2.114217   -1.284169
  C     -0.794624   -2.155940   -0.011336
  O     -1.784995   -3.155545   -0.008661
  C      0.132255   -2.148148    1.232606
  C      0.691604   -0.694879    1.243055
  C     -1.365470   -0.728679    0.017229
  H      0.850757    1.694876    0.013657
  H      0.315869   -0.093396   -2.146535
  H      1.744730   -0.620036   -1.249474
  H     -0.533187   -2.300112   -2.162451
  H      0.875718   -2.878337   -1.265589
  H     -1.345704   -4.012410   -0.027703
  H     -0.463362   -2.357812    2.125425
  H      0.915317   -2.911215    1.167986
  H      1.784493   -0.652973    1.184096
  H      0.386049   -0.151218    2.141335
  H     -1.939908   -0.514134    0.922237
  H     -1.969025   -0.490061   -0.862447

 Total Charge           Charge          ....    0
 Multiplicity           Mult            ....    1
 Number of Electrons    NEL             ....   70
 Basis Dimension        Dim             ....  351

ORBITAL ENERGIES
----------------

  NO   OCC          E(Eh)            E(eV)
   0   2.0000     -20.555805      -559.3519
   1   2.0000     -20.555804      -559.3519
   2   2.0000     -11.282272      -307.0062
   3   2.0000     -11.282263      -307.0060
   4   2.0000     -11.222884      -305.3902
   5   2.0000     -11.222866      -305.3897
   6   2.0000     -11.222338      -305.3754
   7   2.0000     -11.222323      -305.3749
   8   2.0000     -11.211840      -305.0897
   9   2.0000      -1.368058       -37.2268
  10   2.0000      -1.363519       -37.1032
  11   2.0000      -1.153297       -31.3828
  12   2.0000      -1.011350       -27.5202
  13   2.0000      -0.956378       -26.0244
  14   2.0000      -0.954472       -25.9725
  15   2.0000      -0.840822       -22.8799
  16   2.0000      -0.771234       -20.9864
  17   2.0000      -0.760839       -20.7035
  18   2.0000      -0.710713       -19.3395
  19   2.0000      -0.660472       -17.9724
  20   2.0000      -0.640580       -17.4311
  21   2.0000      -0.627817       -17.0838
  22   2.0000      -0.612282       -16.6610
  23   2.0000      -0.563876       -15.3439
  24   2.0000      -0.557067       -15.1586
  25   2.0000      -0.551335       -15.0026
  26   2.0000      -0.550888       -14.9904
  27   2.0000      -0.532210       -14.4822
  28   2.0000      -0.507651       -13.8139
  29   2.0000      -0.489457       -13.3188
  30   2.0000      -0.475178       -12.9302
  31   2.0000      -0.464206       -12.6317
  32   2.0000      -0.427685       -11.6379
  33   2.0000      -0.426120       -11.5953
  34   2.0000      -0.401042       -10.9129
  35   0.0000       0.126192         3.4339
  36   0.0000       0.133864         3.6426
  37   0.0000       0.159018         4.3271
  38   0.0000       0.175572         4.7776
  39   0.0000       0.178843         4.8666

MULLIKEN ATOMIC CHARGES
-----------------------
   0 O :   -0.453529
   1 C :    0.238796
   2 C :   -0.283156
   3 C :   -0.283169
   4 C :    0.238796
   5 O :   -0.453529
   6 C :   -0.283115
   7 C :   -0.283128
   8 C :   -0.235664
   9 H :    0.315008
  10 H :    0.122112
  11 H :    0.109447
  12 H :    0.122116
  13 H :    0.109444
  14 H :    0.315008
  15 H :    0.122105
  16 H :    0.109438
  17 H :    0.109435
  18 H :    0.122109
  19 H :    0.120741
  20 H :    0.120734
Sum of atomic charges:   -0.0000000

LOEWDIN ATOMIC CHARGES
----------------------
   0 O :    0.014889
   1 C :   -0.374455
   2 C :   -0.213010
   3 C :   -0.213006
   4 C :   -0.374455
   5 O :    0.014890
   6 C :   -0.213008
   7 C :   -0.213004
   8 C :   -0.158172
   9 H :    0.178187
  10 H :    0.139290
  11 H :    0.131114
  12 H :    0.139285
  13 H :    0.131117
  14 H :    0.178188
  15 H :    0.139290
  16 H :    0.131113
  17 H :    0.131116
  18 H :    0.139285
  19 H :    0.145674
  20 H :    0.145672

  Mayer bond orders larger than 0.1
B(  0-O ,  1-C ) :   1.0282 B(  0-O ,  9-H ) :   0.8420 B(  1-C ,  2-C ) :   0.9119
B(  1-C ,  7-C ) :   0.9119 B(  1-C ,  8-C ) :   0.9211 B(  2-C ,  3-C ) :   0.9393
B(  2-C , 10-H ) :   0.9223 B(  2-C , 11-H ) :   0.9080 B(  3-C ,  4-C ) :   0.9119
B(  3-C , 12-H ) :   0.9223 B(  3-C , 13-H ) :   0.9080 B(  4-C ,  5-O ) :   1.0282
B(  4-C ,  6-C ) :   0.9119 B(  4-C ,  8-C ) :   0.9211 B(  5-O , 14-H ) :   0.8420
B(  6-C ,  7-C ) :   0.9393 B(  6-C , 15-H ) :   0.9223 B(  6-C , 16-H ) :   0.9080
B(  7-C , 17-H ) :   0.9080 B(  7-C , 18-H ) :   0.9223 B(  8-C , 19-H ) :   0.9141
B(  8-C , 20-H ) :   0.9141

MP2 TOTAL ENERGY:     -423.561641337 Eh
FINAL SINGLE POINT ENERGY      -423.561641337135

DIPOLE MOMENT
-------------
                                X             Y             Z
Electronic contribution:     -2.63438       1.01344       0.05677
Nuclear contribution   :      3.69903      -1.42300      -0.07993
                        -----------------------------------------
Total Dipole Moment    :      1.06465      -0.40957      -0.02316
                        -----------------------------------------
Magnitude (a.u.)       :      1.14095
Magnitude (Debye)      :      2.90006

                             ****ORCA TERMINATED NORMALLY****
TOTAL RUN TIME: 0 days 0 hours 20 minutes 3 seconds 683 msec
