                         Program Version 3.0.3 - RELEASE   -
|  1> ! RI-MP2 RIJK def2-TZVP def2-TZVP/C def2-TZVP/JK TIGHTSCF
|  2> % maxcore 2000
|  3> % mp2 density relaxed end
|  4> *xyz 0 1
|  5>  C        0.0969128170    -1.1522397768    -0.0049016027
|  6>  C        0.0045850253     0.0466975801     0.0027807309
|  7>  C       -0.0982484074     1.4530590548     0.0117214826
|  8>  N       -1.1736909658     2.1883332131     0.0303090127
|  9>  C       -0.7043695486     3.4879706600     0.0309516946
| 10>  C        0.6519457636     3.4723513155     0.0125589221
| 11>  O        1.0598778029     2.1758242674     0.0000784343
| 12>  H        0.1718832490    -2.2117179091    -0.0115996499
| 13>  H       -1.3728989773     4.3337530902     0.0445529313
| 14>  H        1.4244525512     4.2217993746     0.0061844341
| 15> *
| 16>
| 17>                          ****END OF INPUT****

CARTESIAN COORDINATES (ANGSTROEM)
---------------------------------
  C      0.096913   -1.152240   -0.004902
  C      0.004585    0.046698    0.002781
  C     -0.098248    1.453059    0.011721
  N     -1.173691    2.188333    0.030309
  C     -0.704370    3.487971    0.030952
  C      0.651946    3.472351    0.012559
  O      1.059878    2.175824    0.000078
  H      0.171883   -2.211718   -0.011600
  H     -1.372899    4.333753    0.044553
  H      1.424453    4.221799    0.006184

 Total Charge           Charge          ....    0
 Multiplicity           Mult            ....    1
 Number of Electrons    NEL             ....   48
 Basis Dimension        Dim             ....  235

ORBITAL ENERGIES
----------------

  NO   OCC          E(Eh)            E(eV)
   0   2.0000     -20.650619      -561.9319
   1   2.0000     -15.581194      -423.9858
   2   2.0000     -11.363098      -309.2056
   3   2.0000     -11.305797      -307.6464
   4   2.0000     -11.270605      -306.6888
   5   2.0000     -11.261952      -306.4533
   6   2.0000     -11.258039      -306.3468
   7   2.0000      -1.499104       -40.7927
   8   2.0000      -1.247124       -33.9360
   9   2.0000      -1.090989       -29.6873
  10   2.0000      -1.020706       -27.7748
  11   2.0000      -0.874966       -23.8090
  12   2.0000      -0.849276       -23.1100
  13   2.0000      -0.779015       -21.1981
  14   2.0000      -0.729882       -19.8611
  15   2.0000      -0.675116       -18.3708
  16   2.0000      -0.658325       -17.9139
  17   2.0000      -0.620831       -16.8937
  18   2.0000      -0.587855       -15.9964
  19   2.0000      -0.480136       -13.0652
  20   2.0000      -0.475357       -12.9351
  21   2.0000      -0.439579       -11.9615
  22   2.0000      -0.426357       -11.6018
  23   2.0000      -0.335059        -9.1174
  24   0.0000       0.086105         2.3430
  25   0.0000       0.153301         4.1715
  26   0.0000       0.155685         4.2364
  27   0.0000       0.172519         4.6945
  28   0.0000       0.173583         4.7234

MULLIKEN ATOMIC CHARGES
-----------------------
   0 C :   -0.075203
   1 C :    0.085781
   2 C :    0.076059
   3 N :   -0.271054
   4 C :   -0.113002
   5 C :   -0.020334
   6 O :   -0.195609
   7 H :    0.204453
   8 H :    0.146590
   9 H :    0.162320
Sum of atomic charges:    0.0000000

LOEWDIN ATOMIC CHARGES
----------------------
   0 C :   -0.038998
   1 C :   -0.065385
   2 C :   -0.333768
   3 N :    0.145045
   4 C :   -0.244213
   5 C :   -0.240951
   6 O :    0.368849
   7 H :    0.132321
   8 H :    0.139815
   9 H :    0.137285

  Mayer bond orders larger than 0.1
B(  0-C ,  1-C ) :   2.6341 B(  0-C ,  2-C ) :  -0.1600 B(  0-C ,  7-H ) :   0.8678
B(  1-C ,  2-C ) :   1.1757 B(  2-C ,  3-N ) :   1.5765 B(  2-C ,  6-O ) :   1.0684
B(  3-N ,  4-C ) :   1.2233 B(  4-C ,  5-C ) :   1.5790 B(  4-C ,  8-H ) :   0.9302
B(  5-C ,  6-O ) :   1.0546 B(  5-C ,  9-H ) :   0.9189

MP2 TOTAL ENERGY:     -321.605067609 Eh
FINAL SINGLE POINT ENERGY      -321.605067609161

DIPOLE MOMENT
-------------
                                X             Y             Z
Electronic contribution:      0.34269      -0.85574      -0.00932
Nuclear contribution   :      0.21422       1.13441       0.00329
                        -----------------------------------------
Total Dipole Moment    :      0.55690       0.27867      -0.00603
                        -----------------------------------------
Magnitude (a.u.)       :      0.62276
Magnitude (Debye)      :      1.58294

                             ****ORCA TERMINATED NORMALLY****
TOTAL RUN TIME: 0 days 0 hours 6 minutes 2 seconds 585 msec
