                         Program Version 3.0.3 - RELEASE   -
|  1> ! RI-MP2 RIJK def2-TZVP def2-TZVP/C def2-TZVP/JK TIGHTSCF
|  2> % maxcore 2000
|  3> % mp2 density relaxed end
|  4> *xyz 0 1
|  5>  C       -0.0369386481     1.5087213833     0.0797150337
|  6>  C       -0.1606150721    -0.0019718091     0.1647728068
|  7>  O        0.8860486141    -0.4863675666     1.0075371481
|  8>  C        0.8933668741    -1.8556657989     1.1441657280
|  9>  C       -0.0780326036    -2.5852784551     2.0342160550
| 10>  C        1.4033824621    -2.6786357831     2.3202290169
| 11>  C        2.0287696247    -3.6995121952     1.3634663894
| 12>  C        1.5626211588    -2.8038950800     0.1581695109
| 13>  O        0.6902037211    -3.3435924344    -0.8128070889
| 14>  H        0.9303830519     1.7932155341    -0.3442828385
| 15>  H       -0.8283441910     1.9201015557    -0.5540712937
| 16>  H       -0.1192341623     1.9576752463     1.0738768200
| 17>  H       -1.1352855385    -0.2949914003     0.5826499013
| 18>  H       -0.0817765383    -0.4612147242    -0.8306163349
| 19>  H       -0.6266308177    -1.9269154320     2.7001604675
| 20>  H       -0.6307887150    -3.4525925135     1.6834064135
| 21>  H        1.8335840178    -2.3281659559     3.2493484058
| 22>  H        3.1153349775    -3.7849246386     1.4357965902
| 23>  H        1.5824694814    -4.6987723728     1.3891497373
| 24>  H        2.4239401282    -2.3080889737    -0.3094499494
| 25>  H        1.1996512851    -3.9198826360    -1.3915501992
| 26> *
| 27>
| 28>                          ****END OF INPUT****

CARTESIAN COORDINATES (ANGSTROEM)
---------------------------------
  C     -0.036939    1.508721    0.079715
  C     -0.160615   -0.001972    0.164773
  O      0.886049   -0.486368    1.007537
  C      0.893367   -1.855666    1.144166
  C     -0.078033   -2.585278    2.034216
  C      1.403382   -2.678636    2.320229
  C      2.028770   -3.699512    1.363466
  C      1.562621   -2.803895    0.158170
  O      0.690204   -3.343592   -0.812807
  H      0.930383    1.793216   -0.344283
  H     -0.828344    1.920102   -0.554071
  H     -0.119234    1.957675    1.073877
  H     -1.135286   -0.294991    0.582650
  H     -0.081777   -0.461215   -0.830616
  H     -0.626631   -1.926915    2.700160
  H     -0.630789   -3.452593    1.683406
  H      1.833584   -2.328166    3.249348
  H      3.115335   -3.784925    1.435797
  H      1.582469   -4.698772    1.389150
  H      2.423940   -2.308089   -0.309450
  H      1.199651   -3.919883   -1.391550

 Total Charge           Charge          ....    0
 Multiplicity           Mult            ....    1
 Number of Electrons    NEL             ....   70
 Basis Dimension        Dim             ....  351

ORBITAL ENERGIES
----------------

  NO   OCC          E(Eh)            E(eV)
   0   2.0000     -20.557399      -559.3953
   1   2.0000     -20.556175      -559.3619
   2   2.0000     -11.282438      -307.0107
   3   2.0000     -11.278811      -306.9120
   4   2.0000     -11.269624      -306.6621
   5   2.0000     -11.230562      -305.5991
   6   2.0000     -11.226354      -305.4846
   7   2.0000     -11.222403      -305.3771
   8   2.0000     -11.211364      -305.0767
   9   2.0000      -1.383914       -37.6582
  10   2.0000      -1.361483       -37.0478
  11   2.0000      -1.176942       -32.0262
  12   2.0000      -1.013331       -27.5741
  13   2.0000      -0.977637       -26.6028
  14   2.0000      -0.885271       -24.0895
  15   2.0000      -0.842664       -22.9300
  16   2.0000      -0.790637       -21.5143
  17   2.0000      -0.736315       -20.0361
  18   2.0000      -0.708148       -19.2697
  19   2.0000      -0.690470       -18.7886
  20   2.0000      -0.661194       -17.9920
  21   2.0000      -0.614312       -16.7163
  22   2.0000      -0.602353       -16.3908
  23   2.0000      -0.590774       -16.0758
  24   2.0000      -0.572675       -15.5833
  25   2.0000      -0.544311       -14.8115
  26   2.0000      -0.532707       -14.4957
  27   2.0000      -0.523470       -14.2444
  28   2.0000      -0.510169       -13.8824
  29   2.0000      -0.505424       -13.7533
  30   2.0000      -0.472608       -12.8603
  31   2.0000      -0.456376       -12.4186
  32   2.0000      -0.422018       -11.4837
  33   2.0000      -0.386823       -10.5260
  34   2.0000      -0.375467       -10.2170
  35   0.0000       0.133345         3.6285
  36   0.0000       0.150807         4.1037
  37   0.0000       0.165023         4.4905
  38   0.0000       0.173913         4.7324
  39   0.0000       0.184803         5.0287

MULLIKEN ATOMIC CHARGES
-----------------------
   0 C :   -0.355815
   1 C :   -0.057172
   2 O :   -0.293336
   3 C :    0.209796
   4 C :   -0.302567
   5 C :   -0.146396
   6 C :   -0.206904
   7 C :   -0.003623
   8 O :   -0.459308
   9 H :    0.127681
  10 H :    0.122536
  11 H :    0.127098
  12 H :    0.097623
  13 H :    0.115385
  14 H :    0.132882
  15 H :    0.132505
  16 H :    0.135067
  17 H :    0.119228
  18 H :    0.105326
  19 H :    0.084495
  20 H :    0.315499
Sum of atomic charges:   -0.0000000

LOEWDIN ATOMIC CHARGES
----------------------
   0 C :   -0.318412
   1 C :   -0.325836
   2 O :    0.213650
   3 C :   -0.311390
   4 C :   -0.187853
   5 C :   -0.160032
   6 C :   -0.202948
   7 C :   -0.289328
   8 O :   -0.021060
   9 H :    0.123360
  10 H :    0.124595
  11 H :    0.123334
  12 H :    0.119501
  13 H :    0.123404
  14 H :    0.144648
  15 H :    0.133972
  16 H :    0.137368
  17 H :    0.131792
  18 H :    0.129694
  19 H :    0.136956
  20 H :    0.174587

  Mayer bond orders larger than 0.1
B(  0-C ,  1-C ) :   0.9448 B(  0-C ,  9-H ) :   0.9357 B(  0-C , 10-H ) :   0.9323
B(  0-C , 11-H ) :   0.9351 B(  1-C ,  2-O ) :   0.8714 B(  1-C , 12-H ) :   0.9246
B(  1-C , 13-H ) :   0.9268 B(  2-O ,  3-C ) :   1.0408 B(  3-C ,  4-C ) :   0.9054
B(  3-C ,  5-C ) :   0.8299 B(  3-C ,  7-C ) :   0.9329 B(  3-C ,  8-O ) :  -0.1179
B(  4-C ,  5-C ) :   0.8832 B(  4-C , 14-H ) :   0.9286 B(  4-C , 15-H ) :   0.8968
B(  5-C ,  6-C ) :   0.9483 B(  5-C , 16-H ) :   0.9029 B(  6-C ,  7-C ) :   0.9396
B(  6-C , 17-H ) :   0.9223 B(  6-C , 18-H ) :   0.9003 B(  7-C ,  8-O ) :   1.1025
B(  7-C , 19-H ) :   0.9427 B(  8-O , 20-H ) :   0.8446

MP2 TOTAL ENERGY:     -423.480539398 Eh
FINAL SINGLE POINT ENERGY      -423.480539397557

DIPOLE MOMENT
-------------
                                X             Y             Z
Electronic contribution:      1.87953      -3.57821       0.33045
Nuclear contribution   :     -1.62521       3.28759      -0.57939
                        -----------------------------------------
Total Dipole Moment    :      0.25432      -0.29063      -0.24894
                        -----------------------------------------
Magnitude (a.u.)       :      0.45947
Magnitude (Debye)      :      1.16789

                             ****ORCA TERMINATED NORMALLY****
TOTAL RUN TIME: 0 days 0 hours 16 minutes 28 seconds 955 msec
