                         Program Version 3.0.3 - RELEASE   -
|  1> ! RI-MP2 RIJK def2-TZVP def2-TZVP/C def2-TZVP/JK TIGHTSCF
|  2> % maxcore 2000
|  3> % mp2 density relaxed end
|  4> *xyz 0 1
|  5>  C       -0.1554198601     1.5465052023     0.0149914661
|  6>  C        0.0407544585     0.0199997864     0.0115428790
|  7>  C        0.7645208566    -0.4550660463    -1.2675563103
|  8>  C        1.0975426337    -1.9713284225    -1.1771877590
|  9>  C        2.3414943193    -1.5305501968    -0.3449554622
| 10>  C        2.2993850608    -0.2063466211    -1.1652240688
| 11>  C        1.8744721435    -1.2327919416     1.0624162141
| 12>  C        0.7768955132    -0.4920029970     1.2473805621
| 13>  C        0.2161100830    -0.1711384693     2.6044589203
| 14>  H        0.8053282064     2.0714152315     0.0340752595
| 15>  H       -0.6945714008     1.8639986365    -0.8840008789
| 16>  H       -0.7342627615     1.8788032452     0.8815044614
| 17>  H       -0.9646127981    -0.4321402409     0.0133178223
| 18>  H        0.2445768504    -0.0950971077    -2.1599730458
| 19>  H        0.3753575497    -2.6337288843    -0.6921141766
| 20>  H        1.3779297797    -2.3773628529    -2.1534690411
| 21>  H        3.2434902271    -2.1438882030    -0.3751639777
| 22>  H        2.7819076797    -0.3115913988    -2.1410437356
| 23>  H        2.6562029721     0.7015287226    -0.6730246639
| 24>  H        2.4268923735    -1.6394758617     1.9055693335
| 25>  H        0.7788125751    -0.6771384146     3.3940447486
| 26>  H        0.2385058555     0.9049449185     2.8160908782
| 27>  H       -0.8343299774    -0.4811131944     2.6848810849
| 28> *
| 29>
| 30>                          ****END OF INPUT****

CARTESIAN COORDINATES (ANGSTROEM)
---------------------------------
  C     -0.155420    1.546505    0.014991
  C      0.040754    0.020000    0.011543
  C      0.764521   -0.455066   -1.267556
  C      1.097543   -1.971328   -1.177188
  C      2.341494   -1.530550   -0.344955
  C      2.299385   -0.206347   -1.165224
  C      1.874472   -1.232792    1.062416
  C      0.776896   -0.492003    1.247381
  C      0.216110   -0.171138    2.604459
  H      0.805328    2.071415    0.034075
  H     -0.694571    1.863999   -0.884001
  H     -0.734263    1.878803    0.881504
  H     -0.964613   -0.432140    0.013318
  H      0.244577   -0.095097   -2.159973
  H      0.375358   -2.633729   -0.692114
  H      1.377930   -2.377363   -2.153469
  H      3.243490   -2.143888   -0.375164
  H      2.781908   -0.311591   -2.141044
  H      2.656203    0.701529   -0.673025
  H      2.426892   -1.639476    1.905569
  H      0.778813   -0.677138    3.394045
  H      0.238506    0.904945    2.816091
  H     -0.834330   -0.481113    2.684881

 Total Charge           Charge          ....    0
 Multiplicity           Mult            ....    1
 Number of Electrons    NEL             ....   68
 Basis Dimension        Dim             ....  363

ORBITAL ENERGIES
----------------

  NO   OCC          E(Eh)            E(eV)
   0   2.0000     -11.227445      -305.5143
   1   2.0000     -11.224730      -305.4404
   2   2.0000     -11.223829      -305.4159
   3   2.0000     -11.221723      -305.3586
   4   2.0000     -11.215520      -305.1898
   5   2.0000     -11.214697      -305.1674
   6   2.0000     -11.214601      -305.1648
   7   2.0000     -11.211251      -305.0736
   8   2.0000     -11.209828      -305.0349
   9   2.0000      -1.166934       -31.7539
  10   2.0000      -1.061218       -28.8772
  11   2.0000      -1.015204       -27.6251
  12   2.0000      -0.935193       -25.4479
  13   2.0000      -0.897713       -24.4280
  14   2.0000      -0.885425       -24.0937
  15   2.0000      -0.796353       -21.6699
  16   2.0000      -0.766022       -20.8445
  17   2.0000      -0.687376       -18.7044
  18   2.0000      -0.652963       -17.7680
  19   2.0000      -0.617938       -16.8150
  20   2.0000      -0.596005       -16.2181
  21   2.0000      -0.585913       -15.9435
  22   2.0000      -0.561353       -15.2752
  23   2.0000      -0.550678       -14.9847
  24   2.0000      -0.541538       -14.7360
  25   2.0000      -0.531408       -14.4603
  26   2.0000      -0.516650       -14.0588
  27   2.0000      -0.496726       -13.5166
  28   2.0000      -0.483982       -13.1698
  29   2.0000      -0.471219       -12.8225
  30   2.0000      -0.429254       -11.6806
  31   2.0000      -0.425154       -11.5690
  32   2.0000      -0.410572       -11.1722
  33   2.0000      -0.323443        -8.8013
  34   0.0000       0.134202         3.6518
  35   0.0000       0.150495         4.0952
  36   0.0000       0.155143         4.2217
  37   0.0000       0.166613         4.5338
  38   0.0000       0.181571         4.9408

MULLIKEN ATOMIC CHARGES
-----------------------
   0 C :   -0.423938
   1 C :   -0.082102
   2 C :    0.044715
   3 C :   -0.295306
   4 C :    0.128243
   5 C :   -0.323650
   6 C :   -0.353948
   7 C :    0.069905
   8 C :   -0.450401
   9 H :    0.128511
  10 H :    0.130255
  11 H :    0.136377
  12 H :    0.093053
  13 H :    0.107066
  14 H :    0.111023
  15 H :    0.116631
  16 H :    0.116817
  17 H :    0.116276
  18 H :    0.113101
  19 H :    0.107531
  20 H :    0.134357
  21 H :    0.142000
  22 H :    0.133484
Sum of atomic charges:   -0.0000000

LOEWDIN ATOMIC CHARGES
----------------------
   0 C :   -0.284087
   1 C :   -0.216913
   2 C :   -0.192551
   3 C :   -0.191220
   4 C :   -0.206242
   5 C :   -0.192312
   6 C :   -0.123985
   7 C :   -0.168030
   8 C :   -0.274539
   9 H :    0.124144
  10 H :    0.123818
  11 H :    0.122315
  12 H :    0.159705
  13 H :    0.136433
  14 H :    0.127635
  15 H :    0.134328
  16 H :    0.135462
  17 H :    0.134689
  18 H :    0.125803
  19 H :    0.139908
  20 H :    0.128972
  21 H :    0.127736
  22 H :    0.128931

  Mayer bond orders larger than 0.1
B(  0-C ,  1-C ) :   0.8592 B(  0-C ,  9-H ) :   0.9345 B(  0-C , 10-H ) :   0.9376
B(  0-C , 11-H ) :   0.9426 B(  1-C ,  2-C ) :   0.8968 B(  1-C ,  7-C ) :   0.9735
B(  1-C , 12-H ) :   0.9033 B(  2-C ,  3-C ) :   0.8971 B(  2-C ,  5-C ) :   0.8924
B(  2-C , 13-H ) :   0.9300 B(  3-C ,  4-C ) :   0.8870 B(  3-C , 14-H ) :   0.9242
B(  3-C , 15-H ) :   0.9237 B(  4-C ,  5-C ) :   0.8794 B(  4-C ,  6-C ) :   0.8785
B(  4-C , 16-H ) :   0.9267 B(  5-C , 17-H ) :   0.9214 B(  5-C , 18-H ) :   0.9257
B(  6-C ,  7-C ) :   1.7631 B(  6-C , 19-H ) :   0.9313 B(  7-C ,  8-C ) :   0.8894
B(  8-C , 20-H ) :   0.9442 B(  8-C , 21-H ) :   0.9331 B(  8-C , 22-H ) :   0.9324

MP2 TOTAL ENERGY:     -350.514205799 Eh
FINAL SINGLE POINT ENERGY      -350.514205798959

DIPOLE MOMENT
-------------
                                X             Y             Z
Electronic contribution:      2.14827      -2.97038      -0.96842
Nuclear contribution   :     -2.23777       3.00223       0.92704
                        -----------------------------------------
Total Dipole Moment    :     -0.08950       0.03185      -0.04138
                        -----------------------------------------
Magnitude (a.u.)       :      0.10361
Magnitude (Debye)      :      0.26337

                             ****ORCA TERMINATED NORMALLY****
TOTAL RUN TIME: 0 days 0 hours 24 minutes 12 seconds 654 msec
