                         Program Version 3.0.3 - RELEASE   -
|  1> ! RI-MP2 RIJK def2-TZVP def2-TZVP/C def2-TZVP/JK TIGHTSCF
|  2> % maxcore 2000
|  3> % mp2 density relaxed end
|  4> *xyz 0 1
|  5>  C       -0.0038688395     1.4820877713     0.0482773653
|  6>  C       -0.0037052525    -0.0316673800     0.0036485217
|  7>  C        0.6042757875    -0.6977190732    -1.2410799254
|  8>  O        0.1552820589    -2.0722120077    -1.1463342982
|  9>  C       -0.6806935204    -2.1231854236    -0.0157493601
| 10>  O        0.0802259156    -2.0777915346     1.1893237054
| 11>  C        0.6397613865    -0.7409079909     1.2189814367
| 12>  C       -1.3816551301    -0.7600607877     0.0017050896
| 13>  O       -2.2050266824    -0.5211606196     1.1138578146
| 14>  H        1.0092127680     1.8854179947     0.1554306985
| 15>  H       -0.4350375918     1.9037610712    -0.8656965731
| 16>  H       -0.6019015303     1.8318489982     0.8953665597
| 17>  H        0.2339809023    -0.2531208324    -2.1744129990
| 18>  H        1.7000399776    -0.6760134949    -1.2529926853
| 19>  H       -1.2642078431    -3.0421654728    -0.0278809209
| 20>  H        1.7316059042    -0.7951494468     1.1433981017
| 21>  H        0.3767602346    -0.2611131070     2.1684111513
| 22>  H       -1.9630455502    -0.5597254230    -0.9018354128
| 23>  H       -1.8559374652    -1.0553863212     1.8385104803
| 24> *
| 25>
| 26>                          ****END OF INPUT****

CARTESIAN COORDINATES (ANGSTROEM)
---------------------------------
  C     -0.003869    1.482088    0.048277
  C     -0.003705   -0.031667    0.003649
  C      0.604276   -0.697719   -1.241080
  O      0.155282   -2.072212   -1.146334
  C     -0.680694   -2.123185   -0.015749
  O      0.080226   -2.077792    1.189324
  C      0.639761   -0.740908    1.218981
  C     -1.381655   -0.760061    0.001705
  O     -2.205027   -0.521161    1.113858
  H      1.009213    1.885418    0.155431
  H     -0.435038    1.903761   -0.865697
  H     -0.601902    1.831849    0.895367
  H      0.233981   -0.253121   -2.174413
  H      1.700040   -0.676013   -1.252993
  H     -1.264208   -3.042165   -0.027881
  H      1.731606   -0.795149    1.143398
  H      0.376760   -0.261113    2.168411
  H     -1.963046   -0.559725   -0.901835
  H     -1.855937   -1.055386    1.838510

 Total Charge           Charge          ....    0
 Multiplicity           Mult            ....    1
 Number of Electrons    NEL             ....   70
 Basis Dimension        Dim             ....  339

ORBITAL ENERGIES
----------------

  NO   OCC          E(Eh)            E(eV)
   0   2.0000     -20.568362      -559.6936
   1   2.0000     -20.567166      -559.6610
   2   2.0000     -20.567091      -559.6590
   3   2.0000     -11.336048      -308.4695
   4   2.0000     -11.288642      -307.1796
   5   2.0000     -11.287156      -307.1391
   6   2.0000     -11.286625      -307.1247
   7   2.0000     -11.251686      -306.1739
   8   2.0000     -11.231716      -305.6305
   9   2.0000      -1.439441       -39.1692
  10   2.0000      -1.373953       -37.3872
  11   2.0000      -1.344664       -36.5902
  12   2.0000      -1.106163       -30.1002
  13   2.0000      -0.998334       -27.1661
  14   2.0000      -0.951551       -25.8930
  15   2.0000      -0.919167       -25.0118
  16   2.0000      -0.825442       -22.4614
  17   2.0000      -0.768329       -20.9073
  18   2.0000      -0.729967       -19.8634
  19   2.0000      -0.702038       -19.1034
  20   2.0000      -0.695037       -18.9129
  21   2.0000      -0.622000       -16.9255
  22   2.0000      -0.611929       -16.6514
  23   2.0000      -0.599188       -16.3047
  24   2.0000      -0.587276       -15.9806
  25   2.0000      -0.577067       -15.7028
  26   2.0000      -0.571636       -15.5550
  27   2.0000      -0.567726       -15.4486
  28   2.0000      -0.541848       -14.7444
  29   2.0000      -0.506820       -13.7913
  30   2.0000      -0.501512       -13.6468
  31   2.0000      -0.476319       -12.9613
  32   2.0000      -0.470385       -12.7998
  33   2.0000      -0.429243       -11.6803
  34   2.0000      -0.403631       -10.9833
  35   0.0000       0.128222         3.4891
  36   0.0000       0.156608         4.2615
  37   0.0000       0.166253         4.5240
  38   0.0000       0.171313         4.6617
  39   0.0000       0.189970         5.1693

MULLIKEN ATOMIC CHARGES
-----------------------
   0 C :   -0.411270
   1 C :    0.089196
   2 C :   -0.063832
   3 O :   -0.310816
   4 C :    0.175424
   5 O :   -0.323749
   6 C :   -0.142250
   7 C :   -0.010990
   8 O :   -0.470091
   9 H :    0.139632
  10 H :    0.136019
  11 H :    0.152767
  12 H :    0.107748
  13 H :    0.109627
  14 H :    0.127660
  15 H :    0.112691
  16 H :    0.126034
  17 H :    0.122620
  18 H :    0.333581
Sum of atomic charges:    0.0000000

LOEWDIN ATOMIC CHARGES
----------------------
   0 C :   -0.264707
   1 C :   -0.296634
   2 C :   -0.232449
   3 O :    0.173666
   4 C :   -0.384783
   5 O :    0.150524
   6 C :   -0.239569
   7 C :   -0.290001
   8 O :    0.003813
   9 H :    0.129693
  10 H :    0.131134
  11 H :    0.135871
  12 H :    0.126304
  13 H :    0.127694
  14 H :    0.139297
  15 H :    0.129341
  16 H :    0.125943
  17 H :    0.151065
  18 H :    0.183798

  Mayer bond orders larger than 0.1
B(  0-C ,  1-C ) :   0.8884 B(  0-C ,  9-H ) :   0.9382 B(  0-C , 10-H ) :   0.9335
B(  0-C , 11-H ) :   0.9349 B(  1-C ,  2-C ) :   0.9547 B(  1-C ,  6-C ) :   0.9010
B(  1-C ,  7-C ) :   0.8086 B(  2-C ,  3-O ) :   0.9124 B(  2-C , 12-H ) :   0.9193
B(  2-C , 13-H ) :   0.9142 B(  3-O ,  4-C ) :   1.0137 B(  4-C ,  5-O ) :   0.9483
B(  4-C ,  7-C ) :   0.9830 B(  4-C , 14-H ) :   0.9251 B(  5-O ,  6-C ) :   0.9059
B(  6-C , 15-H ) :   0.9079 B(  6-C , 16-H ) :   0.9362 B(  7-C ,  8-O ) :   0.9898
B(  7-C , 17-H ) :   0.9380 B(  8-O , 18-H ) :   0.8207

MP2 TOTAL ENERGY:     -459.447669410 Eh
FINAL SINGLE POINT ENERGY      -459.447669410042

DIPOLE MOMENT
-------------
                                X             Y             Z
Electronic contribution:     -1.74116      -6.25467       0.44675
Nuclear contribution   :      2.04715       6.95794      -0.49077
                        -----------------------------------------
Total Dipole Moment    :      0.30599       0.70327      -0.04403
                        -----------------------------------------
Magnitude (a.u.)       :      0.76822
Magnitude (Debye)      :      1.95266

                             ****ORCA TERMINATED NORMALLY****
TOTAL RUN TIME: 0 days 0 hours 18 minutes 6 seconds 265 msec
