                         Program Version 3.0.3 - RELEASE   -
|  1> ! RI-MP2 RIJK def2-TZVP def2-TZVP/C def2-TZVP/JK TIGHTSCF
|  2> % maxcore 2000
|  3> % mp2 density relaxed end
|  4> *xyz 0 1
|  5>  C       -0.0568586681     1.6518051612     0.1589833511
|  6>  C        0.0378706426     0.1372335825     0.0478502215
|  7>  C        1.1334254046    -0.4569844954    -0.8708916750
|  8>  O        1.6245844944    -1.2988575483     0.1916114588
|  9>  C        0.8085644169    -0.6099846227     1.1628745936
| 10>  C       -1.3335092722    -0.5317887179    -0.2020730051
| 11>  O       -2.2273044581    -0.3203915301     0.8879473981
| 12>  C       -1.9230241601    -0.1187994929    -1.4790129296
| 13>  C       -2.4142745137     0.2560389614    -2.5107239316
| 14>  H        0.9301266717     2.0909967213     0.3308555258
| 15>  H       -0.4713366000     2.0917582581    -0.7537595897
| 16>  H       -0.6960129763     1.9417200485     1.0001601312
| 17>  H        0.7950660693    -1.0351436446    -1.7387985143
| 18>  H        1.8855462851     0.2732961158    -1.1995281381
| 19>  H        1.4081265575     0.0459468003     1.8086631746
| 20>  H        0.2278753751    -1.2967601438     1.7878013158
| 21>  H       -1.1686844622    -1.6162365056    -0.2265872047
| 22>  H       -2.6359836417     0.5435867749     0.7706348327
| 23>  H       -2.8532093246     0.5678159871    -3.4265907551
| 24> *
| 25>
| 26>                          ****END OF INPUT****

CARTESIAN COORDINATES (ANGSTROEM)
---------------------------------
  C     -0.056859    1.651805    0.158983
  C      0.037871    0.137234    0.047850
  C      1.133425   -0.456984   -0.870892
  O      1.624584   -1.298858    0.191611
  C      0.808564   -0.609985    1.162875
  C     -1.333509   -0.531789   -0.202073
  O     -2.227304   -0.320392    0.887947
  C     -1.923024   -0.118799   -1.479013
  C     -2.414275    0.256039   -2.510724
  H      0.930127    2.090997    0.330856
  H     -0.471337    2.091758   -0.753760
  H     -0.696013    1.941720    1.000160
  H      0.795066   -1.035144   -1.738799
  H      1.885546    0.273296   -1.199528
  H      1.408127    0.045947    1.808663
  H      0.227875   -1.296760    1.787801
  H     -1.168684   -1.616237   -0.226587
  H     -2.635984    0.543587    0.770635
  H     -2.853209    0.567816   -3.426591

 Total Charge           Charge          ....    0
 Multiplicity           Mult            ....    1
 Number of Electrons    NEL             ....   68
 Basis Dimension        Dim             ....  339

ORBITAL ENERGIES
----------------

  NO   OCC          E(Eh)            E(eV)
   0   2.0000     -20.573279      -559.8274
   1   2.0000     -20.550238      -559.2004
   2   2.0000     -11.317998      -307.9784
   3   2.0000     -11.281159      -306.9759
   4   2.0000     -11.278304      -306.8983
   5   2.0000     -11.251930      -306.1806
   6   2.0000     -11.246592      -306.0353
   7   2.0000     -11.240969      -305.8823
   8   2.0000     -11.228491      -305.5428
   9   2.0000      -1.385208       -37.6934
  10   2.0000      -1.376279       -37.4505
  11   2.0000      -1.097816       -29.8731
  12   2.0000      -1.041453       -28.3394
  13   2.0000      -0.953519       -25.9466
  14   2.0000      -0.937495       -25.5105
  15   2.0000      -0.906361       -24.6633
  16   2.0000      -0.763925       -20.7874
  17   2.0000      -0.751879       -20.4597
  18   2.0000      -0.705348       -19.1935
  19   2.0000      -0.689812       -18.7707
  20   2.0000      -0.671088       -18.2612
  21   2.0000      -0.623528       -16.9671
  22   2.0000      -0.612314       -16.6619
  23   2.0000      -0.585880       -15.9426
  24   2.0000      -0.568687       -15.4748
  25   2.0000      -0.561956       -15.2916
  26   2.0000      -0.551133       -14.9971
  27   2.0000      -0.537651       -14.6302
  28   2.0000      -0.477545       -12.9947
  29   2.0000      -0.454353       -12.3636
  30   2.0000      -0.450781       -12.2664
  31   2.0000      -0.422193       -11.4885
  32   2.0000      -0.410349       -11.1662
  33   2.0000      -0.396434       -10.7875
  34   0.0000       0.124480         3.3873
  35   0.0000       0.153257         4.1703
  36   0.0000       0.155030         4.2186
  37   0.0000       0.158605         4.3159
  38   0.0000       0.168744         4.5917

MULLIKEN ATOMIC CHARGES
-----------------------
   0 C :   -0.490217
   1 C :    0.174065
   2 C :   -0.063248
   3 O :   -0.330025
   4 C :   -0.062650
   5 C :   -0.035817
   6 O :   -0.461008
   7 C :   -0.108864
   8 C :   -0.141168
   9 H :    0.141954
  10 H :    0.155735
  11 H :    0.136052
  12 H :    0.110394
  13 H :    0.093683
  14 H :    0.092642
  15 H :    0.118366
  16 H :    0.148327
  17 H :    0.325792
  18 H :    0.195986
Sum of atomic charges:    0.0000000

LOEWDIN ATOMIC CHARGES
----------------------
   0 C :   -0.274498
   1 C :   -0.271417
   2 C :   -0.227945
   3 O :    0.113547
   4 C :   -0.228332
   5 C :   -0.300763
   6 O :    0.003642
   7 C :   -0.092334
   8 C :   -0.084110
   9 H :    0.130258
  10 H :    0.133249
  11 H :    0.127491
  12 H :    0.123886
  13 H :    0.120975
  14 H :    0.120283
  15 H :    0.124338
  16 H :    0.173175
  17 H :    0.179139
  18 H :    0.129419

  Mayer bond orders larger than 0.1
B(  0-C ,  1-C ) :   0.8702 B(  0-C ,  9-H ) :   0.9333 B(  0-C , 10-H ) :   0.9342
B(  0-C , 11-H ) :   0.9395 B(  1-C ,  2-C ) :   0.9406 B(  1-C ,  4-C ) :   0.9275
B(  1-C ,  5-C ) :   0.8372 B(  2-C ,  3-O ) :   0.9514 B(  2-C , 12-H ) :   0.9108
B(  2-C , 13-H ) :   0.8990 B(  3-O ,  4-C ) :   0.9445 B(  4-C , 14-H ) :   0.9086
B(  4-C , 15-H ) :   0.9071 B(  5-C ,  6-O ) :   0.9190 B(  5-C ,  7-C ) :   1.1297
B(  5-C , 16-H ) :   0.9292 B(  6-O , 17-H ) :   0.8364 B(  7-C ,  8-C ) :   2.5748
B(  8-C , 18-H ) :   0.8970

MP2 TOTAL ENERGY:     -422.255429485 Eh
FINAL SINGLE POINT ENERGY      -422.255429484822

DIPOLE MOMENT
-------------
                                X             Y             Z
Electronic contribution:     -2.19170      -3.73924      -1.03430
Nuclear contribution   :      1.84346       4.72798       0.61507
                        -----------------------------------------
Total Dipole Moment    :     -0.34824       0.98874      -0.41923
                        -----------------------------------------
Magnitude (a.u.)       :      1.12899
Magnitude (Debye)      :      2.86967

                             ****ORCA TERMINATED NORMALLY****
TOTAL RUN TIME: 0 days 0 hours 21 minutes 5 seconds 443 msec
