                         Program Version 3.0.3 - RELEASE   -
|  1> ! RI-MP2 RIJK def2-TZVP def2-TZVP/C def2-TZVP/JK TIGHTSCF
|  2> % maxcore 2000
|  3> % mp2 density relaxed end
|  4> *xyz 0 1
|  5>  O        0.0764577072    -0.0187871049     0.0662731763
|  6>  C        0.0144614372     1.1804890813    -0.0136820334
|  7>  C       -1.2648149176     2.0249434829    -0.1456973391
|  8>  C       -0.8154431860     3.2594634116    -0.9267442177
|  9>  C       -1.3987301753     3.6029510400    -2.2470722225
| 10>  N       -1.6269679125     4.4674786881    -1.0708788761
| 11>  C        0.6586865537     3.4164309239    -0.6540295971
| 12>  N        0.9684969611     3.3183726813     0.7758889899
| 13>  C        1.1785378734     2.1282317528    -0.1045373188
| 14>  H       -2.0626266975     1.4512115627    -0.6202587211
| 15>  H       -1.5884968498     2.3064544341     0.8634688185
| 16>  H       -0.7815319140     4.0468450511    -3.0243757157
| 17>  H       -2.2143209815     2.9862977680    -2.6160548947
| 18>  H       -2.5594094055     4.3118210234    -0.6949509347
| 19>  H        1.2617089735     4.0499430880    -1.2954770689
| 20>  H        1.8790970374     3.7375088483     0.9525582887
| 21>  H        2.1775555964     1.7485348773    -0.2806098435
| 22> *
| 23>
| 24>                          ****END OF INPUT****

CARTESIAN COORDINATES (ANGSTROEM)
---------------------------------
  O      0.076458   -0.018787    0.066273
  C      0.014461    1.180489   -0.013682
  C     -1.264815    2.024943   -0.145697
  C     -0.815443    3.259463   -0.926744
  C     -1.398730    3.602951   -2.247072
  N     -1.626968    4.467479   -1.070879
  C      0.658687    3.416431   -0.654030
  N      0.968497    3.318373    0.775889
  C      1.178538    2.128232   -0.104537
  H     -2.062627    1.451212   -0.620259
  H     -1.588497    2.306454    0.863469
  H     -0.781532    4.046845   -3.024376
  H     -2.214321    2.986298   -2.616055
  H     -2.559409    4.311821   -0.694951
  H      1.261709    4.049943   -1.295477
  H      1.879097    3.737509    0.952558
  H      2.177556    1.748535   -0.280610

 Total Charge           Charge          ....    0
 Multiplicity           Mult            ....    1
 Number of Electrons    NEL             ....   66
 Basis Dimension        Dim             ....  327

ORBITAL ENERGIES
----------------

  NO   OCC          E(Eh)            E(eV)
   0   2.0000     -20.552324      -559.2572
   1   2.0000     -15.585918      -424.1144
   2   2.0000     -15.569806      -423.6760
   3   2.0000     -11.338127      -308.5261
   4   2.0000     -11.285573      -307.0960
   5   2.0000     -11.284895      -307.0776
   6   2.0000     -11.279005      -306.9173
   7   2.0000     -11.267915      -306.6155
   8   2.0000     -11.246481      -306.0323
   9   2.0000      -1.396827       -38.0096
  10   2.0000      -1.303692       -35.4753
  11   2.0000      -1.266476       -34.4626
  12   2.0000      -1.057981       -28.7891
  13   2.0000      -0.933274       -25.3957
  14   2.0000      -0.928014       -25.2525
  15   2.0000      -0.886940       -24.1349
  16   2.0000      -0.774839       -21.0844
  17   2.0000      -0.754660       -20.5353
  18   2.0000      -0.732579       -19.9345
  19   2.0000      -0.682023       -18.5588
  20   2.0000      -0.658354       -17.9147
  21   2.0000      -0.636818       -17.3287
  22   2.0000      -0.610334       -16.6080
  23   2.0000      -0.590334       -16.0638
  24   2.0000      -0.547989       -14.9115
  25   2.0000      -0.544124       -14.8064
  26   2.0000      -0.509117       -13.8538
  27   2.0000      -0.498304       -13.5595
  28   2.0000      -0.489558       -13.3215
  29   2.0000      -0.474642       -12.9157
  30   2.0000      -0.430520       -11.7150
  31   2.0000      -0.402145       -10.9429
  32   2.0000      -0.384480       -10.4622
  33   0.0000       0.122137         3.3235
  34   0.0000       0.131565         3.5801
  35   0.0000       0.146948         3.9986
  36   0.0000       0.161175         4.3858
  37   0.0000       0.171750         4.6736

MULLIKEN ATOMIC CHARGES
-----------------------
   0 O :   -0.262170
   1 C :    0.094129
   2 C :   -0.121590
   3 C :    0.066650
   4 C :   -0.231120
   5 N :   -0.389646
   6 C :    0.001377
   7 N :   -0.386950
   8 C :   -0.046256
   9 H :    0.138035
  10 H :    0.140975
  11 H :    0.121012
  12 H :    0.131155
  13 H :    0.222341
  14 H :    0.146185
  15 H :    0.226546
  16 H :    0.149325
Sum of atomic charges:    0.0000000

LOEWDIN ATOMIC CHARGES
----------------------
   0 O :    0.160051
   1 C :   -0.296621
   2 C :   -0.176875
   3 C :   -0.290176
   4 C :   -0.235146
   5 N :    0.013123
   6 C :   -0.199982
   7 N :    0.026827
   8 C :   -0.196365
   9 H :    0.149266
  10 H :    0.162886
  11 H :    0.126425
  12 H :    0.124085
  13 H :    0.169037
  14 H :    0.144902
  15 H :    0.175673
  16 H :    0.142890

  Mayer bond orders larger than 0.1
B(  0-O ,  1-C ) :   2.0407 B(  1-C ,  2-C ) :   0.9208 B(  1-C ,  8-C ) :   0.9344
B(  2-C ,  3-C ) :   0.9103 B(  2-C ,  8-C ) :  -0.1379 B(  2-C ,  9-H ) :   0.9048
B(  2-C , 10-H ) :   0.8814 B(  3-C ,  4-C ) :   0.9377 B(  3-C ,  5-N ) :   0.8551
B(  3-C ,  6-C ) :   0.9013 B(  4-C ,  5-N ) :   0.9686 B(  4-C , 11-H ) :   0.9080
B(  4-C , 12-H ) :   0.9175 B(  5-N , 13-H ) :   0.8688 B(  6-C ,  7-N ) :   0.9768
B(  6-C ,  8-C ) :   0.8242 B(  6-C , 14-H ) :   0.9196 B(  7-N ,  8-C ) :   0.8685
B(  7-N , 15-H ) :   0.8665 B(  8-C , 16-H ) :   0.9158

MP2 TOTAL ENERGY:     -417.272053430 Eh
FINAL SINGLE POINT ENERGY      -417.272053429603

DIPOLE MOMENT
-------------
                                X             Y             Z
Electronic contribution:      1.90352      -3.10841       2.14477
Nuclear contribution   :     -1.74133       3.67742      -2.72266
                        -----------------------------------------
Total Dipole Moment    :      0.16219       0.56901      -0.57789
                        -----------------------------------------
Magnitude (a.u.)       :      0.82706
Magnitude (Debye)      :      2.10222

                             ****ORCA TERMINATED NORMALLY****
TOTAL RUN TIME: 0 days 0 hours 16 minutes 8 seconds 157 msec
