                         Program Version 3.0.3 - RELEASE   -
|  1> ! RI-MP2 RIJK def2-TZVP def2-TZVP/C def2-TZVP/JK TIGHTSCF
|  2> % maxcore 2000
|  3> % mp2 density relaxed end
|  4> *xyz 0 1
|  5>  C       -0.0410345780     1.5676490339    -0.1735587159
|  6>  C        0.0173776318     0.0683269009     0.0004285911
|  7>  C        1.3184093566    -0.6860218727    -0.1349599485
|  8>  O        2.4759593717     0.0701154080    -0.3462694483
|  9>  C        3.3680869316     0.1170903586     0.7621854907
| 10>  C        2.6808963436     0.4711484238     2.0566006794
| 11>  C        1.3975351675     0.1699938250     2.2671050657
| 12>  C        0.6514300096     0.5242689684     3.5225741210
| 13>  C        0.6656104875    -0.5953102678     1.2183401354
| 14>  H        0.8521649759     2.0480492540     0.2290141603
| 15>  H       -0.1107650197     1.8303497820    -1.2345437518
| 16>  H       -0.9169061792     1.9873425029     0.3330444190
| 17>  H       -0.8527552381    -0.4632135337    -0.3777618668
| 18>  H        1.3219456072    -1.6399961053    -0.6606048816
| 19>  H        3.9073918152    -0.8413966824     0.8617122737
| 20>  H        4.1138461055     0.8755790580     0.5022136223
| 21>  H        3.2698558264     0.9867464635     2.8108105678
| 22>  H        1.2928204648     1.0443085231     4.2394433494
| 23>  H       -0.2090644094     1.1676830090     3.3007203610
| 24>  H        0.2504131831    -0.3734995880     4.0103419246
| 25>  H        0.1613073866    -1.4870421913     1.5844366914
| 26> *
| 27>
| 28>                          ****END OF INPUT****

CARTESIAN COORDINATES (ANGSTROEM)
---------------------------------
  C     -0.041035    1.567649   -0.173559
  C      0.017378    0.068327    0.000429
  C      1.318409   -0.686022   -0.134960
  O      2.475959    0.070115   -0.346269
  C      3.368087    0.117090    0.762185
  C      2.680896    0.471148    2.056601
  C      1.397535    0.169994    2.267105
  C      0.651430    0.524269    3.522574
  C      0.665610   -0.595310    1.218340
  H      0.852165    2.048049    0.229014
  H     -0.110765    1.830350   -1.234544
  H     -0.916906    1.987343    0.333044
  H     -0.852755   -0.463214   -0.377762
  H      1.321946   -1.639996   -0.660605
  H      3.907392   -0.841397    0.861712
  H      4.113846    0.875579    0.502214
  H      3.269856    0.986746    2.810811
  H      1.292820    1.044309    4.239443
  H     -0.209064    1.167683    3.300720
  H      0.250413   -0.373500    4.010342
  H      0.161307   -1.487042    1.584437

 Total Charge           Charge          ....    0
 Multiplicity           Mult            ....    1
 Number of Electrons    NEL             ....   68
 Basis Dimension        Dim             ....  351

ORBITAL ENERGIES
----------------

  NO   OCC          E(Eh)            E(eV)
   0   2.0000     -20.552681      -559.2669
   1   2.0000     -11.276241      -306.8421
   2   2.0000     -11.274046      -306.7824
   3   2.0000     -11.236881      -305.7711
   4   2.0000     -11.231090      -305.6135
   5   2.0000     -11.230115      -305.5870
   6   2.0000     -11.222375      -305.3763
   7   2.0000     -11.218806      -305.2792
   8   2.0000     -11.209500      -305.0260
   9   2.0000      -1.377222       -37.4761
  10   2.0000      -1.144923       -31.1550
  11   2.0000      -1.079818       -29.3834
  12   2.0000      -0.977859       -26.6089
  13   2.0000      -0.958376       -26.0787
  14   2.0000      -0.880287       -23.9538
  15   2.0000      -0.840846       -22.8806
  16   2.0000      -0.764593       -20.8056
  17   2.0000      -0.699241       -19.0273
  18   2.0000      -0.679551       -18.4915
  19   2.0000      -0.652821       -17.7642
  20   2.0000      -0.641793       -17.4641
  21   2.0000      -0.606869       -16.5137
  22   2.0000      -0.580767       -15.8035
  23   2.0000      -0.557842       -15.1797
  24   2.0000      -0.553456       -15.0603
  25   2.0000      -0.550423       -14.9778
  26   2.0000      -0.537249       -14.6193
  27   2.0000      -0.530531       -14.4365
  28   2.0000      -0.492874       -13.4118
  29   2.0000      -0.485171       -13.2022
  30   2.0000      -0.454012       -12.3543
  31   2.0000      -0.404392       -11.0041
  32   2.0000      -0.387251       -10.5376
  33   2.0000      -0.331218        -9.0129
  34   0.0000       0.136822         3.7231
  35   0.0000       0.146310         3.9813
  36   0.0000       0.162103         4.4110
  37   0.0000       0.162633         4.4255
  38   0.0000       0.177989         4.8433

MULLIKEN ATOMIC CHARGES
-----------------------
   0 C :   -0.403179
   1 C :   -0.097770
   2 C :    0.047777
   3 O :   -0.323188
   4 C :   -0.005402
   5 C :   -0.199978
   6 C :    0.005110
   7 C :   -0.438723
   8 C :   -0.103745
   9 H :    0.146451
  10 H :    0.134009
  11 H :    0.126040
  12 H :    0.113947
  13 H :    0.112374
  14 H :    0.103351
  15 H :    0.126494
  16 H :    0.120459
  17 H :    0.133295
  18 H :    0.140703
  19 H :    0.136541
  20 H :    0.125434
Sum of atomic charges:    0.0000000

LOEWDIN ATOMIC CHARGES
----------------------
   0 C :   -0.290795
   1 C :   -0.203539
   2 C :   -0.261765
   3 O :    0.191662
   4 C :   -0.291646
   5 C :   -0.154314
   6 C :   -0.183539
   7 C :   -0.265563
   8 C :   -0.155292
   9 H :    0.131888
  10 H :    0.128060
  11 H :    0.123899
  12 H :    0.148113
  13 H :    0.132701
  14 H :    0.128093
  15 H :    0.134123
  16 H :    0.142925
  17 H :    0.128335
  18 H :    0.131419
  19 H :    0.129797
  20 H :    0.155438

  Mayer bond orders larger than 0.1
B(  0-C ,  1-C ) :   0.9052 B(  0-C ,  9-H ) :   0.9329 B(  0-C , 10-H ) :   0.9358
B(  0-C , 11-H ) :   0.9385 B(  1-C ,  2-C ) :   0.8662 B(  1-C ,  8-C ) :   0.8725
B(  1-C , 12-H ) :   0.9247 B(  2-C ,  3-O ) :   0.9804 B(  2-C ,  8-C ) :   0.8687
B(  2-C , 13-H ) :   0.9517 B(  3-O ,  4-C ) :   0.9234 B(  4-C ,  5-C ) :   0.9277
B(  4-C , 14-H ) :   0.9218 B(  4-C , 15-H ) :   0.9354 B(  5-C ,  6-C ) :   1.7613
B(  5-C , 16-H ) :   0.9140 B(  6-C ,  7-C ) :   0.8995 B(  6-C ,  8-C ) :   0.9020
B(  7-C , 17-H ) :   0.9466 B(  7-C , 18-H ) :   0.9294 B(  7-C , 19-H ) :   0.9348
B(  8-C , 20-H ) :   0.9157

MP2 TOTAL ENERGY:     -386.398871807 Eh
FINAL SINGLE POINT ENERGY      -386.398871806840

DIPOLE MOMENT
-------------
                                X             Y             Z
Electronic contribution:      3.28505      -2.63698      -2.84416
Nuclear contribution   :     -3.45135       2.46179       3.32647
                        -----------------------------------------
Total Dipole Moment    :     -0.16630      -0.17519       0.48231
                        -----------------------------------------
Magnitude (a.u.)       :      0.53941
Magnitude (Debye)      :      1.37108

                             ****ORCA TERMINATED NORMALLY****
TOTAL RUN TIME: 0 days 0 hours 21 minutes 56 seconds 840 msec
