                         Program Version 3.0.3 - RELEASE   -
|  1> ! RI-MP2 RIJK def2-TZVP def2-TZVP/C def2-TZVP/JK TIGHTSCF
|  2> % maxcore 2000
|  3> % mp2 density relaxed end
|  4> *xyz 0 1
|  5>  C       -0.0023481900     1.5513668415     0.0090215283
|  6>  C        0.0192114717     0.0200215749    -0.0180235850
|  7>  C        0.6710272368    -0.5175424238    -1.3011019890
|  8>  C        0.6786428046    -2.0435838069    -1.3472950907
|  9>  O        1.3238247273    -2.4270867791    -2.5526767304
| 10>  C        1.3910872419    -2.6282144471    -0.1123125725
| 11>  C        0.8263802513    -2.0666787078     1.1868097217
| 12>  O        0.4702255035    -2.7731726654     2.1006889885
| 13>  C        0.7305060828    -0.5486894350     1.2295502935
| 14>  H        1.0156656211     1.9572651381    -0.0187223407
| 15>  H       -0.5457092753     1.9537972895    -0.8521000408
| 16>  H       -0.4859505973     1.9252231491     0.9172086259
| 17>  H       -1.0218656722    -0.3337743597     0.0058455020
| 18>  H        0.1465601123    -0.1379712773    -2.1842589453
| 19>  H        1.7083405902    -0.1624629284    -1.3723437481
| 20>  H       -0.3656932018    -2.3992371560    -1.3480511188
| 21>  H        1.3085536316    -3.3880352820    -2.6093663994
| 22>  H        1.3219918571    -3.7196084226    -0.0821732133
| 23>  H        2.4518398302    -2.3514366407    -0.1828983877
| 24>  H        1.7531952533    -0.1444828318     1.2664536665
| 25>  H        0.2234878607    -0.2582972494     2.1531853753
| 26> *
| 27>
| 28>                          ****END OF INPUT****

CARTESIAN COORDINATES (ANGSTROEM)
---------------------------------
  C     -0.002348    1.551367    0.009022
  C      0.019211    0.020022   -0.018024
  C      0.671027   -0.517542   -1.301102
  C      0.678643   -2.043584   -1.347295
  O      1.323825   -2.427087   -2.552677
  C      1.391087   -2.628214   -0.112313
  C      0.826380   -2.066679    1.186810
  O      0.470226   -2.773173    2.100689
  C      0.730506   -0.548689    1.229550
  H      1.015666    1.957265   -0.018722
  H     -0.545709    1.953797   -0.852100
  H     -0.485951    1.925223    0.917209
  H     -1.021866   -0.333774    0.005846
  H      0.146560   -0.137971   -2.184259
  H      1.708341   -0.162463   -1.372344
  H     -0.365693   -2.399237   -1.348051
  H      1.308554   -3.388035   -2.609366
  H      1.321992   -3.719608   -0.082173
  H      2.451840   -2.351437   -0.182898
  H      1.753195   -0.144483    1.266454
  H      0.223488   -0.258297    2.153185

 Total Charge           Charge          ....    0
 Multiplicity           Mult            ....    1
 Number of Electrons    NEL             ....   70
 Basis Dimension        Dim             ....  351

ORBITAL ENERGIES
----------------

  NO   OCC          E(Eh)            E(eV)
   0   2.0000     -20.566363      -559.6392
   1   2.0000     -20.546429      -559.0967
   2   2.0000     -11.329949      -308.3036
   3   2.0000     -11.295964      -307.3788
   4   2.0000     -11.246770      -306.0402
   5   2.0000     -11.238264      -305.8087
   6   2.0000     -11.236814      -305.7692
   7   2.0000     -11.229304      -305.5649
   8   2.0000     -11.225234      -305.4541
   9   2.0000      -1.389274       -37.8041
  10   2.0000      -1.373278       -37.3688
  11   2.0000      -1.127630       -30.6844
  12   2.0000      -1.040215       -28.3057
  13   2.0000      -0.994535       -27.0627
  14   2.0000      -0.943734       -25.6803
  15   2.0000      -0.835897       -22.7459
  16   2.0000      -0.800016       -21.7695
  17   2.0000      -0.743692       -20.2369
  18   2.0000      -0.700898       -19.0724
  19   2.0000      -0.664901       -18.0929
  20   2.0000      -0.657160       -17.8822
  21   2.0000      -0.637015       -17.3341
  22   2.0000      -0.616425       -16.7738
  23   2.0000      -0.589344       -16.0369
  24   2.0000      -0.570490       -15.5238
  25   2.0000      -0.567028       -15.4296
  26   2.0000      -0.540274       -14.7016
  27   2.0000      -0.535594       -14.5742
  28   2.0000      -0.532482       -14.4896
  29   2.0000      -0.506488       -13.7822
  30   2.0000      -0.477893       -13.0041
  31   2.0000      -0.473304       -12.8792
  32   2.0000      -0.465756       -12.6739
  33   2.0000      -0.449118       -12.2211
  34   2.0000      -0.404167       -10.9979
  35   0.0000       0.122926         3.3450
  36   0.0000       0.135012         3.6739
  37   0.0000       0.144414         3.9297
  38   0.0000       0.150485         4.0949
  39   0.0000       0.173331         4.7166

MULLIKEN ATOMIC CHARGES
-----------------------
   0 C :   -0.388137
   1 C :   -0.087042
   2 C :   -0.221942
   3 C :    0.071337
   4 O :   -0.451356
   5 C :   -0.237090
   6 C :    0.141003
   7 O :   -0.269245
   8 C :   -0.226172
   9 H :    0.125365
  10 H :    0.136451
  11 H :    0.138160
  12 H :    0.100495
  13 H :    0.132249
  14 H :    0.113026
  15 H :    0.090732
  16 H :    0.315729
  17 H :    0.127220
  18 H :    0.131436
  19 H :    0.121986
  20 H :    0.135797
Sum of atomic charges:    0.0000000

LOEWDIN ATOMIC CHARGES
----------------------
   0 C :   -0.290037
   1 C :   -0.273049
   2 C :   -0.219861
   3 C :   -0.347085
   4 O :   -0.015129
   5 C :   -0.216928
   6 C :   -0.322299
   7 O :    0.150688
   8 C :   -0.205389
   9 H :    0.124533
  10 H :    0.125266
  11 H :    0.125256
  12 H :    0.155591
  13 H :    0.146497
  14 H :    0.146488
  15 H :    0.137421
  16 H :    0.174821
  17 H :    0.143774
  18 H :    0.156320
  19 H :    0.154509
  20 H :    0.148612

  Mayer bond orders larger than 0.1
B(  0-C ,  1-C ) :   0.9139 B(  0-C ,  9-H ) :   0.9318 B(  0-C , 10-H ) :   0.9396
B(  0-C , 11-H ) :   0.9412 B(  1-C ,  2-C ) :   0.9107 B(  1-C ,  8-C ) :   0.8874
B(  1-C , 12-H ) :   0.9257 B(  2-C ,  3-C ) :   0.9105 B(  2-C , 13-H ) :   0.9186
B(  2-C , 14-H ) :   0.9197 B(  3-C ,  4-O ) :   1.0163 B(  3-C ,  5-C ) :   0.8874
B(  3-C , 15-H ) :   0.9440 B(  4-O , 16-H ) :   0.8450 B(  5-C ,  6-C ) :   0.9007
B(  5-C , 17-H ) :   0.9099 B(  5-C , 18-H ) :   0.9027 B(  6-C ,  7-O ) :   2.0451
B(  6-C ,  8-C ) :   0.9304 B(  8-C , 19-H ) :   0.9004 B(  8-C , 20-H ) :   0.9115

MP2 TOTAL ENERGY:     -423.567988486 Eh
FINAL SINGLE POINT ENERGY      -423.567988485722

DIPOLE MOMENT
-------------
                                X             Y             Z
Electronic contribution:      0.69470      -7.48976       2.15126
Nuclear contribution   :     -0.68568       7.84772      -2.65464
                        -----------------------------------------
Total Dipole Moment    :      0.00902       0.35796      -0.50338
                        -----------------------------------------
Magnitude (a.u.)       :      0.61775
Magnitude (Debye)      :      1.57018

                             ****ORCA TERMINATED NORMALLY****
TOTAL RUN TIME: 0 days 0 hours 19 minutes 15 seconds 528 msec
