                         Program Version 3.0.3 - RELEASE   -
|  1> ! RI-MP2 RIJK def2-TZVP def2-TZVP/C def2-TZVP/JK TIGHTSCF
|  2> % maxcore 2000
|  3> % mp2 density relaxed end
|  4> *xyz 0 1
|  5>  O       -0.0727214892     1.3984118766     0.0347098709
|  6>  C        0.0081947393     0.0208380613     0.0105130409
|  7>  C       -1.3145261511    -0.7825752318     0.0697892165
|  8>  C       -0.7326217012    -1.7730881850    -0.8993660424
|  9>  C        0.5067855609    -0.8644460872    -1.1690772550
| 10>  N        1.7556328277    -1.1645676740    -0.4456536187
| 11>  C        1.0868575585    -0.7992065324     0.8375519958
| 12>  C        0.2721106732    -1.9641667765     1.3985872606
| 13>  N       -0.9139858685    -2.1003633316     0.5283499833
| 14>  H        0.7915115257     1.7590373715    -0.1928676346
| 15>  H       -2.3183608038    -0.4024338415     0.2163374722
| 16>  H       -1.2245421594    -2.4190429232    -1.6186925068
| 17>  H        0.5906286724    -0.5073209245    -2.1985073616
| 18>  H        2.0669702353    -2.1333817374    -0.4915309607
| 19>  H        1.7241031477    -0.2792359818     1.5590036275
| 20>  H        0.8398906556    -2.9008405577     1.4204574506
| 21>  H       -0.0892251633    -1.7606857249     2.4131803515
| 22> *
| 23>
| 24>                          ****END OF INPUT****

CARTESIAN COORDINATES (ANGSTROEM)
---------------------------------
  O     -0.072721    1.398412    0.034710
  C      0.008195    0.020838    0.010513
  C     -1.314526   -0.782575    0.069789
  C     -0.732622   -1.773088   -0.899366
  C      0.506786   -0.864446   -1.169077
  N      1.755633   -1.164568   -0.445654
  C      1.086858   -0.799207    0.837552
  C      0.272111   -1.964167    1.398587
  N     -0.913986   -2.100363    0.528350
  H      0.791512    1.759037   -0.192868
  H     -2.318361   -0.402434    0.216337
  H     -1.224542   -2.419043   -1.618693
  H      0.590629   -0.507321   -2.198507
  H      2.066970   -2.133382   -0.491531
  H      1.724103   -0.279236    1.559004
  H      0.839891   -2.900841    1.420457
  H     -0.089225   -1.760686    2.413180

 Total Charge           Charge          ....    0
 Multiplicity           Mult            ....    1
 Number of Electrons    NEL             ....   66
 Basis Dimension        Dim             ....  327

ORBITAL ENERGIES
----------------

  NO   OCC          E(Eh)            E(eV)
   0   2.0000     -20.576148      -559.9055
   1   2.0000     -15.568152      -423.6310
   2   2.0000     -15.549709      -423.1291
   3   2.0000     -11.297495      -307.4205
   4   2.0000     -11.265493      -306.5496
   5   2.0000     -11.264955      -306.5350
   6   2.0000     -11.261621      -306.4443
   7   2.0000     -11.260386      -306.4107
   8   2.0000     -11.255396      -306.2749
   9   2.0000      -1.391194       -37.8563
  10   2.0000      -1.317847       -35.8604
  11   2.0000      -1.212760       -33.0009
  12   2.0000      -1.047098       -28.4930
  13   2.0000      -0.979283       -26.6476
  14   2.0000      -0.890952       -24.2440
  15   2.0000      -0.835631       -22.7387
  16   2.0000      -0.804964       -21.9042
  17   2.0000      -0.753303       -20.4984
  18   2.0000      -0.720077       -19.5943
  19   2.0000      -0.665496       -18.1091
  20   2.0000      -0.639222       -17.3941
  21   2.0000      -0.630321       -17.1519
  22   2.0000      -0.607610       -16.5339
  23   2.0000      -0.590350       -16.0643
  24   2.0000      -0.565599       -15.3907
  25   2.0000      -0.535314       -14.5666
  26   2.0000      -0.521558       -14.1923
  27   2.0000      -0.490559       -13.3488
  28   2.0000      -0.456971       -12.4348
  29   2.0000      -0.433251       -11.7894
  30   2.0000      -0.417836       -11.3699
  31   2.0000      -0.376558       -10.2467
  32   2.0000      -0.359629        -9.7860
  33   0.0000       0.141605         3.8533
  34   0.0000       0.147890         4.0243
  35   0.0000       0.161384         4.3915
  36   0.0000       0.169549         4.6137
  37   0.0000       0.192679         5.2431

MULLIKEN ATOMIC CHARGES
-----------------------
   0 O :   -0.449572
   1 C :    0.269919
   2 C :   -0.129984
   3 C :   -0.125823
   4 C :   -0.105430
   5 N :   -0.306421
   6 C :   -0.084050
   7 C :   -0.157852
   8 N :   -0.193528
   9 H :    0.334746
  10 H :    0.141246
  11 H :    0.138136
  12 H :    0.114521
  13 H :    0.197413
  14 H :    0.116194
  15 H :    0.117136
  16 H :    0.123350
Sum of atomic charges:    0.0000000

LOEWDIN ATOMIC CHARGES
----------------------
   0 O :    0.039307
   1 C :   -0.292952
   2 C :   -0.167088
   3 C :   -0.184397
   4 C :   -0.216861
   5 N :    0.014396
   6 C :   -0.228725
   7 C :   -0.258688
   8 N :    0.141848
   9 H :    0.190785
  10 H :    0.136592
  11 H :    0.131881
  12 H :    0.136184
  13 H :    0.153843
  14 H :    0.133445
  15 H :    0.132414
  16 H :    0.138018

  Mayer bond orders larger than 0.1
B(  0-O ,  1-C ) :   0.9870 B(  0-O ,  9-H ) :   0.8313 B(  1-C ,  2-C ) :   0.9160
B(  1-C ,  4-C ) :   0.8982 B(  1-C ,  6-C ) :   0.8762 B(  2-C ,  3-C ) :   0.8275
B(  2-C ,  8-N ) :   0.8916 B(  2-C , 10-H ) :   0.9225 B(  3-C ,  4-C ) :   0.8661
B(  3-C ,  8-N ) :   0.9504 B(  3-C , 11-H ) :   0.9243 B(  4-C ,  5-N ) :   1.0112
B(  4-C , 12-H ) :   0.9154 B(  5-N ,  6-C ) :   0.9739 B(  5-N , 13-H ) :   0.8742
B(  6-C ,  7-C ) :   0.9567 B(  6-C , 14-H ) :   0.9050 B(  7-C ,  8-N ) :   0.9116
B(  7-C , 15-H ) :   0.9134 B(  7-C , 16-H ) :   0.9336

MP2 TOTAL ENERGY:     -417.232961352 Eh
FINAL SINGLE POINT ENERGY      -417.232961352083

DIPOLE MOMENT
-------------
                                X             Y             Z
Electronic contribution:     -1.12851       1.60557      -0.80796
Nuclear contribution   :      1.57334      -1.67071       0.68750
                        -----------------------------------------
Total Dipole Moment    :      0.44483      -0.06514      -0.12045
                        -----------------------------------------
Magnitude (a.u.)       :      0.46543
Magnitude (Debye)      :      1.18303

                             ****ORCA TERMINATED NORMALLY****
TOTAL RUN TIME: 0 days 0 hours 19 minutes 18 seconds 124 msec
