                         Program Version 3.0.3 - RELEASE   -
|  1> ! RI-MP2 RIJK def2-TZVP def2-TZVP/C def2-TZVP/JK TIGHTSCF
|  2> % maxcore 2000
|  3> % mp2 density relaxed end
|  4> *xyz 0 1
|  5>  C       -0.9188814084    -1.7149295635     0.5203275318
|  6>  C        0.5704661558    -1.5683387529    -0.0247076217
|  7>  C        0.7549167741    -0.4413460175     1.0277150704
|  8>  C        1.5274841368     0.8668577989     0.7781802523
|  9>  C        0.5721855104     1.5442159992    -0.2195256836
| 10>  C       -0.8814113823     1.3154216165     0.3764243728
| 11>  C       -0.6585613070    -0.1846977264     0.3935047777
| 12>  C       -0.0220765181    -0.4902921077    -0.9793133455
| 13>  O        0.6371214943     0.6953580097    -1.3822490670
| 14>  H       -1.0129207809    -2.1200943975     1.5301340079
| 15>  H       -1.6483634599    -2.1608434743    -0.1614930679
| 16>  H        1.2466602329    -2.3954753901    -0.2555924926
| 17>  H        0.7554700663    -0.7761789824     2.0680772390
| 18>  H        2.5208297687     0.7500203601     0.3375622951
| 19>  H        1.6270545237     1.4289171157     1.7131583396
| 20>  H        0.8117392603     2.5653738690    -0.5193945830
| 21>  H       -1.6557330759     1.6667031602    -0.3099076551
| 22>  H       -0.9992960273     1.7911629541     1.3533516468
| 23>  H       -0.6539601034    -0.8514351010    -1.7957319268
| 24> *
| 25>
| 26>                          ****END OF INPUT****

CARTESIAN COORDINATES (ANGSTROEM)
---------------------------------
  C     -0.918881   -1.714930    0.520328
  C      0.570466   -1.568339   -0.024708
  C      0.754917   -0.441346    1.027715
  C      1.527484    0.866858    0.778180
  C      0.572186    1.544216   -0.219526
  C     -0.881411    1.315422    0.376424
  C     -0.658561   -0.184698    0.393505
  C     -0.022077   -0.490292   -0.979313
  O      0.637121    0.695358   -1.382249
  H     -1.012921   -2.120094    1.530134
  H     -1.648363   -2.160843   -0.161493
  H      1.246660   -2.395475   -0.255592
  H      0.755470   -0.776179    2.068077
  H      2.520830    0.750020    0.337562
  H      1.627055    1.428917    1.713158
  H      0.811739    2.565374   -0.519395
  H     -1.655733    1.666703   -0.309908
  H     -0.999296    1.791163    1.353352
  H     -0.653960   -0.851435   -1.795732

 Total Charge           Charge          ....    0
 Multiplicity           Mult            ....    1
 Number of Electrons    NEL             ....   66
 Basis Dimension        Dim             ....  339

ORBITAL ENERGIES
----------------

  NO   OCC          E(Eh)            E(eV)
   0   2.0000     -20.548435      -559.1513
   1   2.0000     -11.281799      -306.9933
   2   2.0000     -11.271312      -306.7080
   3   2.0000     -11.247646      -306.0640
   4   2.0000     -11.246141      -306.0230
   5   2.0000     -11.240885      -305.8800
   6   2.0000     -11.233128      -305.6690
   7   2.0000     -11.228392      -305.5401
   8   2.0000     -11.218983      -305.2841
   9   2.0000      -1.383485       -37.6465
  10   2.0000      -1.203255       -32.7422
  11   2.0000      -1.063782       -28.9470
  12   2.0000      -0.978256       -26.6197
  13   2.0000      -0.903255       -24.5788
  14   2.0000      -0.852767       -23.2050
  15   2.0000      -0.832274       -22.6473
  16   2.0000      -0.792114       -21.5545
  17   2.0000      -0.699646       -19.0383
  18   2.0000      -0.678856       -18.4726
  19   2.0000      -0.644281       -17.5318
  20   2.0000      -0.627364       -17.0714
  21   2.0000      -0.608615       -16.5613
  22   2.0000      -0.582955       -15.8630
  23   2.0000      -0.547542       -14.8994
  24   2.0000      -0.533659       -14.5216
  25   2.0000      -0.522495       -14.2178
  26   2.0000      -0.508122       -13.8267
  27   2.0000      -0.483144       -13.1470
  28   2.0000      -0.452300       -12.3077
  29   2.0000      -0.434645       -11.8273
  30   2.0000      -0.422045       -11.4844
  31   2.0000      -0.398314       -10.8387
  32   2.0000      -0.373491       -10.1632
  33   0.0000       0.141844         3.8598
  34   0.0000       0.159065         4.3284
  35   0.0000       0.167349         4.5538
  36   0.0000       0.176620         4.8061
  37   0.0000       0.194877         5.3029

MULLIKEN ATOMIC CHARGES
-----------------------
   0 C :   -0.174007
   1 C :   -0.108834
   2 C :   -0.110537
   3 C :   -0.252046
   4 C :    0.118035
   5 C :   -0.304850
   6 C :   -0.034551
   7 C :    0.021918
   8 O :   -0.325651
   9 H :    0.119124
  10 H :    0.120024
  11 H :    0.132859
  12 H :    0.100791
  13 H :    0.119407
  14 H :    0.112718
  15 H :    0.121352
  16 H :    0.123421
  17 H :    0.125148
  18 H :    0.095678
Sum of atomic charges:    0.0000000

LOEWDIN ATOMIC CHARGES
----------------------
   0 C :   -0.164800
   1 C :   -0.144563
   2 C :   -0.148468
   3 C :   -0.218711
   4 C :   -0.258889
   5 C :   -0.194752
   6 C :   -0.185991
   7 C :   -0.229257
   8 O :    0.190909
   9 H :    0.130633
  10 H :    0.129405
  11 H :    0.121981
  12 H :    0.141561
  13 H :    0.141246
  14 H :    0.138760
  15 H :    0.134367
  16 H :    0.140454
  17 H :    0.140225
  18 H :    0.135889

  Mayer bond orders larger than 0.1
B(  0-C ,  1-C ) :   0.8937 B(  0-C ,  6-C ) :   0.8704 B(  0-C ,  9-H ) :   0.9222
B(  0-C , 10-H ) :   0.9223 B(  1-C ,  2-C ) :   0.8699 B(  1-C ,  7-C ) :   0.8458
B(  1-C , 11-H ) :   0.8814 B(  2-C ,  3-C ) :   0.9783 B(  2-C ,  6-C ) :   0.8320
B(  2-C , 12-H ) :   0.9271 B(  3-C ,  4-C ) :   0.9471 B(  3-C , 13-H ) :   0.9079
B(  3-C , 14-H ) :   0.9191 B(  4-C ,  5-C ) :   0.9304 B(  4-C ,  8-O ) :   0.8917
B(  4-C , 15-H ) :   0.9180 B(  5-C ,  6-C ) :   0.9683 B(  5-C , 16-H ) :   0.9045
B(  5-C , 17-H ) :   0.9249 B(  6-C ,  7-C ) :   0.8730 B(  7-C ,  8-O ) :   0.9919
B(  7-C , 18-H ) :   0.9567

MP2 TOTAL ENERGY:     -385.157501910 Eh
FINAL SINGLE POINT ENERGY      -385.157501909755

DIPOLE MOMENT
-------------
                                X             Y             Z
Electronic contribution:      0.57656       0.29743      -2.78438
Nuclear contribution   :     -0.79350      -0.31122       3.35884
                        -----------------------------------------
Total Dipole Moment    :     -0.21694      -0.01379       0.57446
                        -----------------------------------------
Magnitude (a.u.)       :      0.61421
Magnitude (Debye)      :      1.56120

                             ****ORCA TERMINATED NORMALLY****
TOTAL RUN TIME: 0 days 0 hours 21 minutes 51 seconds 347 msec
