                         Program Version 3.0.3 - RELEASE   -
|  1> ! RI-MP2 RIJK def2-TZVP def2-TZVP/C def2-TZVP/JK TIGHTSCF
|  2> % maxcore 2000
|  3> % mp2 density relaxed end
|  4> *xyz 0 1
|  5>  C        0.0490698438     1.5732969588     0.1740372638
|  6>  C       -0.0410888452     0.0695081062    -0.0184169363
|  7>  C       -1.3086166725    -0.4358149454    -0.6912949523
|  8>  C       -1.4492519448     0.0236355397    -2.1416357871
|  9>  O       -2.5739065706    -0.6191276784    -2.7596357956
| 10>  C       -3.6766356749     0.1143934871    -2.9896194686
| 11>  O       -4.6730305021    -0.3415873362    -3.4642485295
| 12>  C        1.2406216320    -0.6874386690    -0.2906717828
| 13>  C        0.5631151654    -0.8051544986     1.0539951836
| 14>  H        0.9635704855     1.8448971681     0.7097783359
| 15>  H        0.0612194047     2.1118123525    -0.7805036931
| 16>  H       -0.8008906790     1.9481364380     0.7568172599
| 17>  H       -1.3218415462    -1.5311410140    -0.6847871399
| 18>  H       -2.1916049361    -0.1080554231    -0.1263094093
| 19>  H       -1.5629028268     1.1124548616    -2.2121971855
| 20>  H       -0.5702932328    -0.2620778275    -2.7265606645
| 21>  H       -3.5523245745     1.1772174269    -2.6991701222
| 22>  H        1.2012684086    -1.5446302414    -0.9551339263
| 23>  H        2.1657191234    -0.1240811761    -0.3506127071
| 24>  H        1.0282143618    -0.3176362313     1.9042764402
| 25>  H        0.0675850405    -1.7393141081     1.2962845468
| 26> *
| 27>
| 28>                          ****END OF INPUT****

CARTESIAN COORDINATES (ANGSTROEM)
---------------------------------
  C      0.049070    1.573297    0.174037
  C     -0.041089    0.069508   -0.018417
  C     -1.308617   -0.435815   -0.691295
  C     -1.449252    0.023636   -2.141636
  O     -2.573907   -0.619128   -2.759636
  C     -3.676636    0.114393   -2.989619
  O     -4.673031   -0.341587   -3.464249
  C      1.240622   -0.687439   -0.290672
  C      0.563115   -0.805154    1.053995
  H      0.963570    1.844897    0.709778
  H      0.061219    2.111812   -0.780504
  H     -0.800891    1.948136    0.756817
  H     -1.321842   -1.531141   -0.684787
  H     -2.191605   -0.108055   -0.126309
  H     -1.562903    1.112455   -2.212197
  H     -0.570293   -0.262078   -2.726561
  H     -3.552325    1.177217   -2.699170
  H      1.201268   -1.544630   -0.955134
  H      2.165719   -0.124081   -0.350613
  H      1.028214   -0.317636    1.904276
  H      0.067585   -1.739314    1.296285

 Total Charge           Charge          ....    0
 Multiplicity           Mult            ....    1
 Number of Electrons    NEL             ....   70
 Basis Dimension        Dim             ....  351

ORBITAL ENERGIES
----------------

  NO   OCC          E(Eh)            E(eV)
   0   2.0000     -20.606801      -560.7396
   1   2.0000     -20.547804      -559.1342
   2   2.0000     -11.381540      -309.7075
   3   2.0000     -11.304159      -307.6018
   4   2.0000     -11.251857      -306.1786
   5   2.0000     -11.240888      -305.8801
   6   2.0000     -11.233649      -305.6831
   7   2.0000     -11.232578      -305.6540
   8   2.0000     -11.231280      -305.6187
   9   2.0000      -1.460367       -39.7386
  10   2.0000      -1.370886       -37.3037
  11   2.0000      -1.168991       -31.8099
  12   2.0000      -1.044810       -28.4307
  13   2.0000      -0.973684       -26.4953
  14   2.0000      -0.902354       -24.5543
  15   2.0000      -0.843833       -22.9619
  16   2.0000      -0.833302       -22.6753
  17   2.0000      -0.755577       -20.5603
  18   2.0000      -0.725233       -19.7346
  19   2.0000      -0.687378       -18.7045
  20   2.0000      -0.672667       -18.3042
  21   2.0000      -0.642547       -17.4846
  22   2.0000      -0.631968       -17.1967
  23   2.0000      -0.616000       -16.7622
  24   2.0000      -0.582038       -15.8381
  25   2.0000      -0.563499       -15.3336
  26   2.0000      -0.548484       -14.9250
  27   2.0000      -0.546780       -14.8786
  28   2.0000      -0.521042       -14.1783
  29   2.0000      -0.514529       -14.0010
  30   2.0000      -0.495107       -13.4726
  31   2.0000      -0.461349       -12.5539
  32   2.0000      -0.455828       -12.4037
  33   2.0000      -0.421116       -11.4592
  34   2.0000      -0.405077       -11.0227
  35   0.0000       0.124401         3.3851
  36   0.0000       0.139740         3.8025
  37   0.0000       0.153658         4.1812
  38   0.0000       0.158602         4.3158
  39   0.0000       0.167156         4.5485

MULLIKEN ATOMIC CHARGES
-----------------------
   0 C :   -0.431845
   1 C :    0.107393
   2 C :   -0.199266
   3 C :   -0.132128
   4 O :   -0.202568
   5 C :    0.199783
   6 O :   -0.273136
   7 C :   -0.304942
   8 C :   -0.284753
   9 H :    0.133946
  10 H :    0.131795
  11 H :    0.135518
  12 H :    0.131899
  13 H :    0.125731
  14 H :    0.119952
  15 H :    0.143916
  16 H :    0.069253
  17 H :    0.133768
  18 H :    0.131970
  19 H :    0.131309
  20 H :    0.132404
Sum of atomic charges:    0.0000000

LOEWDIN ATOMIC CHARGES
----------------------
   0 C :   -0.266168
   1 C :   -0.279223
   2 C :   -0.227677
   3 C :   -0.284790
   4 O :    0.246258
   5 C :   -0.457778
   6 O :    0.117124
   7 C :   -0.211545
   8 C :   -0.207961
   9 H :    0.130648
  10 H :    0.123520
  11 H :    0.128351
  12 H :    0.151811
  13 H :    0.144775
  14 H :    0.122663
  15 H :    0.134586
  16 H :    0.099916
  17 H :    0.134387
  18 H :    0.133537
  19 H :    0.133671
  20 H :    0.133894

  Mayer bond orders larger than 0.1
B(  0-C ,  1-C ) :   0.9115 B(  0-C ,  9-H ) :   0.9308 B(  0-C , 10-H ) :   0.9398
B(  0-C , 11-H ) :   0.9370 B(  1-C ,  2-C ) :   0.8937 B(  1-C ,  7-C ) :   0.8737
B(  1-C ,  8-C ) :   0.8669 B(  2-C ,  3-C ) :   0.9161 B(  2-C , 12-H ) :   0.9253
B(  2-C , 13-H ) :   0.9278 B(  3-C ,  4-O ) :   0.8539 B(  3-C , 14-H ) :   0.9507
B(  3-C , 15-H ) :   0.9306 B(  4-O ,  5-C ) :   1.0779 B(  5-C ,  6-O ) :   2.0210
B(  5-C , 16-H ) :   0.9133 B(  7-C ,  8-C ) :   0.9051 B(  7-C , 17-H ) :   0.9259
B(  7-C , 18-H ) :   0.9287 B(  8-C , 19-H ) :   0.9309 B(  8-C , 20-H ) :   0.9255

MP2 TOTAL ENERGY:     -423.529150946 Eh
FINAL SINGLE POINT ENERGY      -423.529150945700

DIPOLE MOMENT
-------------
                                X             Y             Z
Electronic contribution:     -9.83335      -2.90356      -8.04582
Nuclear contribution   :     11.16083       3.67645       8.87988
                        -----------------------------------------
Total Dipole Moment    :      1.32748       0.77288       0.83406
                        -----------------------------------------
Magnitude (a.u.)       :      1.74791
Magnitude (Debye)      :      4.44284

                             ****ORCA TERMINATED NORMALLY****
TOTAL RUN TIME: 0 days 0 hours 15 minutes 59 seconds 385 msec
