                         Program Version 3.0.3 - RELEASE   -
|  1> ! RI-MP2 RIJK def2-TZVP def2-TZVP/C def2-TZVP/JK TIGHTSCF
|  2> % maxcore 2000
|  3> % mp2 density relaxed end
|  4> *xyz 0 1
|  5>  C       -0.1777864290     1.4364554435    -0.0349138454
|  6>  N       -0.0469782479    -0.0224253060     0.0099734344
|  7>  C        0.1173742258    -0.6801140053    -1.2232875704
|  8>  N        0.2085275616     0.0367011095    -2.2787168890
|  9>  N        0.2008383673    -2.0625275784    -1.1591200782
| 10>  C       -0.3674541299    -2.7794942853    -0.0275236161
| 11>  C        0.1915657343    -2.1495487714     1.2386049898
| 12>  C       -0.0052252244    -0.6436023301     1.2536649773
| 13>  O       -0.1044297384    -0.0222515309     2.2914826429
| 14>  H        0.7297688914     1.8849306133    -0.4443651558
| 15>  H       -1.0114208724     1.7124641103    -0.6821044615
| 16>  H       -0.3458026753     1.7760737386     0.9842435935
| 17>  H        0.2993037022    -0.5452806240    -3.1093702047
| 18>  H        0.0906455926    -2.5020172088    -2.0599273437
| 19>  H       -1.4684498771    -2.7386516007    -0.0178170620
| 20>  H       -0.0773312184    -3.8310774086    -0.1011412006
| 21>  H       -0.2753984793    -2.5473990241     2.1409392700
| 22>  H        1.2687897270    -2.3441415916     1.3036995495
| 23> *
| 24>
| 25>                          ****END OF INPUT****

CARTESIAN COORDINATES (ANGSTROEM)
---------------------------------
  C     -0.177786    1.436455   -0.034914
  N     -0.046978   -0.022425    0.009973
  C      0.117374   -0.680114   -1.223288
  N      0.208528    0.036701   -2.278717
  N      0.200838   -2.062528   -1.159120
  C     -0.367454   -2.779494   -0.027524
  C      0.191566   -2.149549    1.238605
  C     -0.005225   -0.643602    1.253665
  O     -0.104430   -0.022252    2.291483
  H      0.729769    1.884931   -0.444365
  H     -1.011421    1.712464   -0.682104
  H     -0.345803    1.776074    0.984244
  H      0.299304   -0.545281   -3.109370
  H      0.090646   -2.502017   -2.059927
  H     -1.468450   -2.738652   -0.017817
  H     -0.077331   -3.831077   -0.101141
  H     -0.275398   -2.547399    2.140939
  H      1.268790   -2.344142    1.303700

 Total Charge           Charge          ....    0
 Multiplicity           Mult            ....    1
 Number of Electrons    NEL             ....   68
 Basis Dimension        Dim             ....  333

ORBITAL ENERGIES
----------------

  NO   OCC          E(Eh)            E(eV)
   0   2.0000     -20.531254      -558.6838
   1   2.0000     -15.607743      -424.7083
   2   2.0000     -15.594228      -424.3405
   3   2.0000     -15.522857      -422.3984
   4   2.0000     -11.364329      -309.2391
   5   2.0000     -11.360392      -309.1320
   6   2.0000     -11.291857      -307.2671
   7   2.0000     -11.254761      -306.2576
   8   2.0000     -11.245678      -306.0105
   9   2.0000      -1.400329       -38.1049
  10   2.0000      -1.324287       -36.0357
  11   2.0000      -1.224213       -33.3125
  12   2.0000      -1.171422       -31.8760
  13   2.0000      -1.053732       -28.6735
  14   2.0000      -0.964137       -26.2355
  15   2.0000      -0.887618       -24.1533
  16   2.0000      -0.868370       -23.6295
  17   2.0000      -0.750211       -20.4143
  18   2.0000      -0.707842       -19.2614
  19   2.0000      -0.701845       -19.0982
  20   2.0000      -0.672408       -18.2972
  21   2.0000      -0.637960       -17.3598
  22   2.0000      -0.636885       -17.3305
  23   2.0000      -0.613442       -16.6926
  24   2.0000      -0.587842       -15.9960
  25   2.0000      -0.571740       -15.5578
  26   2.0000      -0.558733       -15.2039
  27   2.0000      -0.535497       -14.5716
  28   2.0000      -0.528111       -14.3706
  29   2.0000      -0.499515       -13.5925
  30   2.0000      -0.440365       -11.9829
  31   2.0000      -0.430390       -11.7115
  32   2.0000      -0.404485       -11.0066
  33   2.0000      -0.364296        -9.9130
  34   0.0000       0.114598         3.1184
  35   0.0000       0.142296         3.8721
  36   0.0000       0.148537         4.0419
  37   0.0000       0.161417         4.3924
  38   0.0000       0.171794         4.6748

MULLIKEN ATOMIC CHARGES
-----------------------
   0 C :   -0.294949
   1 N :   -0.073155
   2 C :    0.181857
   3 N :   -0.424879
   4 N :   -0.337851
   5 C :   -0.139153
   6 C :   -0.200997
   7 C :    0.199103
   8 O :   -0.342886
   9 H :    0.147077
  10 H :    0.145390
  11 H :    0.176647
  12 H :    0.195158
  13 H :    0.224689
  14 H :    0.124313
  15 H :    0.136372
  16 H :    0.149073
  17 H :    0.134192
Sum of atomic charges:   -0.0000000

LOEWDIN ATOMIC CHARGES
----------------------
   0 C :   -0.266652
   1 N :    0.216082
   2 C :   -0.419324
   3 N :   -0.097863
   4 N :    0.071334
   5 C :   -0.282987
   6 C :   -0.221781
   7 C :   -0.405455
   8 O :    0.105233
   9 H :    0.124646
  10 H :    0.124426
  11 H :    0.131013
  12 H :    0.156341
  13 H :    0.184088
  14 H :    0.130030
  15 H :    0.136380
  16 H :    0.155821
  17 H :    0.158667

  Mayer bond orders larger than 0.1
B(  0-C ,  1-N ) :   0.8513 B(  0-C ,  9-H ) :   0.9335 B(  0-C , 10-H ) :   0.9308
B(  0-C , 11-H ) :   0.9150 B(  1-N ,  2-C ) :   1.0223 B(  1-N ,  7-C ) :   1.0921
B(  2-C ,  3-N ) :   1.9186 B(  2-C ,  4-N ) :   1.1291 B(  3-N , 12-H ) :   0.8611
B(  4-N ,  5-C ) :   0.8798 B(  4-N , 13-H ) :   0.8758 B(  5-C ,  6-C ) :   0.9173
B(  5-C , 14-H ) :   0.9313 B(  5-C , 15-H ) :   0.9232 B(  6-C ,  7-C ) :   0.9398
B(  6-C , 16-H ) :   0.9290 B(  6-C , 17-H ) :   0.9040 B(  7-C ,  8-O ) :   1.9446

MP2 TOTAL ENERGY:     -434.602887951 Eh
FINAL SINGLE POINT ENERGY      -434.602887951174

DIPOLE MOMENT
-------------
                                X             Y             Z
Electronic contribution:      0.52623       0.65822       1.20954
Nuclear contribution   :     -0.72115      -2.17628      -1.92387
                        -----------------------------------------
Total Dipole Moment    :     -0.19492      -1.51807      -0.71433
                        -----------------------------------------
Magnitude (a.u.)       :      1.68902
Magnitude (Debye)      :      4.29315

                             ****ORCA TERMINATED NORMALLY****
TOTAL RUN TIME: 0 days 0 hours 16 minutes 34 seconds 793 msec
