                         Program Version 3.0.3 - RELEASE   -
|  1> ! RI-MP2 RIJK def2-TZVP def2-TZVP/C def2-TZVP/JK TIGHTSCF
|  2> % maxcore 2000
|  3> % mp2 density relaxed end
|  4> *xyz 0 1
|  5>  C       -0.2750490747     1.4642693523    -0.3977053514
|  6>  O       -0.3571810025     0.0569370679    -0.4353769830
|  7>  C        0.9030483219    -0.5412954159    -0.6515153839
|  8>  C        0.7690177533    -1.9924776265    -0.6756340336
|  9>  C        0.6799282086    -3.1906626967    -0.6986802394
| 10>  C        0.5681913547    -4.6494540519    -0.7152586948
| 11>  N        0.5939629072    -5.1713319789    -2.0870578184
| 12>  C        1.6093878212    -5.2491526347     0.1613118531
| 13>  N        2.4222903720    -5.7658973461     0.8001729036
| 14>  H        0.3780621693     1.8140943862     0.4172946054
| 15>  H        0.1057122047     1.8771311877    -1.3452446299
| 16>  H       -1.2860237902     1.8401317944    -0.2281288935
| 17>  H        1.3404678547    -0.1968256312    -1.6050871697
| 18>  H        1.6139939495    -0.2519418490     0.1421077998
| 19>  H       -0.4028714008    -4.9255196950    -0.2819644425
| 20>  H        1.4804171598    -4.9323378632    -2.5222263115
| 21>  H        0.5391515412    -6.1860408394    -2.0625685703
| 22> *
| 23>
| 24>                          ****END OF INPUT****

CARTESIAN COORDINATES (ANGSTROEM)
---------------------------------
  C     -0.275049    1.464269   -0.397705
  O     -0.357181    0.056937   -0.435377
  C      0.903048   -0.541295   -0.651515
  C      0.769018   -1.992478   -0.675634
  C      0.679928   -3.190663   -0.698680
  C      0.568191   -4.649454   -0.715259
  N      0.593963   -5.171332   -2.087058
  C      1.609388   -5.249153    0.161312
  N      2.422290   -5.765897    0.800173
  H      0.378062    1.814094    0.417295
  H      0.105712    1.877131   -1.345245
  H     -1.286024    1.840132   -0.228129
  H      1.340468   -0.196826   -1.605087
  H      1.613994   -0.251942    0.142108
  H     -0.402871   -4.925520   -0.281964
  H      1.480417   -4.932338   -2.522226
  H      0.539152   -6.186041   -2.062569

 Total Charge           Charge          ....    0
 Multiplicity           Mult            ....    1
 Number of Electrons    NEL             ....   66
 Basis Dimension        Dim             ....  327

ORBITAL ENERGIES
----------------

  NO   OCC          E(Eh)            E(eV)
   0   2.0000     -20.574973      -559.8735
   1   2.0000     -15.581678      -423.9990
   2   2.0000     -15.579864      -423.9497
   3   2.0000     -11.348046      -308.7960
   4   2.0000     -11.317769      -307.9722
   5   2.0000     -11.284003      -307.0533
   6   2.0000     -11.280547      -306.9593
   7   2.0000     -11.251297      -306.1634
   8   2.0000     -11.247011      -306.0467
   9   2.0000      -1.395861       -37.9833
  10   2.0000      -1.247314       -33.9411
  11   2.0000      -1.210653       -32.9436
  12   2.0000      -1.080057       -29.3898
  13   2.0000      -1.018612       -27.7178
  14   2.0000      -0.957876       -26.0651
  15   2.0000      -0.900721       -24.5099
  16   2.0000      -0.758760       -20.6469
  17   2.0000      -0.730852       -19.8875
  18   2.0000      -0.699230       -19.0270
  19   2.0000      -0.686425       -18.6786
  20   2.0000      -0.670125       -18.2350
  21   2.0000      -0.650385       -17.6979
  22   2.0000      -0.610714       -16.6184
  23   2.0000      -0.580483       -15.7958
  24   2.0000      -0.574224       -15.6254
  25   2.0000      -0.569012       -15.4836
  26   2.0000      -0.506306       -13.7773
  27   2.0000      -0.490410       -13.3447
  28   2.0000      -0.473964       -12.8972
  29   2.0000      -0.450238       -12.2516
  30   2.0000      -0.440406       -11.9840
  31   2.0000      -0.406576       -11.0635
  32   2.0000      -0.398030       -10.8309
  33   0.0000       0.109200         2.9715
  34   0.0000       0.130944         3.5632
  35   0.0000       0.147256         4.0070
  36   0.0000       0.160068         4.3557
  37   0.0000       0.165828         4.5124

MULLIKEN ATOMIC CHARGES
-----------------------
   0 C :   -0.216357
   1 O :   -0.283873
   2 C :   -0.210447
   3 C :    0.094345
   4 C :    0.045619
   5 C :    0.033664
   6 N :   -0.501601
   7 C :   -0.175289
   8 N :   -0.065672
   9 H :    0.115174
  10 H :    0.114364
  11 H :    0.146378
  12 H :    0.127825
  13 H :    0.131977
  14 H :    0.159999
  15 H :    0.243897
  16 H :    0.239996
Sum of atomic charges:    0.0000000

LOEWDIN ATOMIC CHARGES
----------------------
   0 C :   -0.355128
   1 O :    0.142664
   2 C :   -0.313190
   3 C :   -0.038991
   4 C :   -0.032839
   5 C :   -0.308338
   6 N :   -0.113216
   7 C :   -0.164561
   8 N :    0.065888
   9 H :    0.102974
  10 H :    0.102786
  11 H :    0.116750
  12 H :    0.139308
  13 H :    0.139965
  14 H :    0.187973
  15 H :    0.165415
  16 H :    0.162541

  Mayer bond orders larger than 0.1
B(  0-C ,  1-O ) :   0.9097 B(  0-C ,  9-H ) :   0.9362 B(  0-C , 10-H ) :   0.9362
B(  0-C , 11-H ) :   0.9378 B(  1-O ,  2-C ) :   1.0597 B(  2-C ,  3-C ) :   1.0000
B(  2-C , 12-H ) :   0.9311 B(  2-C , 13-H ) :   0.9353 B(  3-C ,  4-C ) :   2.6420
B(  4-C ,  5-C ) :   1.0922 B(  5-C ,  6-N ) :   0.9685 B(  5-C ,  7-C ) :   0.9433
B(  5-C , 14-H ) :   0.8926 B(  6-N , 15-H ) :   0.8839 B(  6-N , 16-H ) :   0.8909
B(  7-C ,  8-N ) :   2.8454

MP2 TOTAL ENERGY:     -417.242806528 Eh
FINAL SINGLE POINT ENERGY      -417.242806528186

DIPOLE MOMENT
-------------
                                X             Y             Z
Electronic contribution:      1.81531      -9.03273       2.20610
Nuclear contribution   :     -1.99969       9.88271      -2.89313
                        -----------------------------------------
Total Dipole Moment    :     -0.18438       0.84998      -0.68702
                        -----------------------------------------
Magnitude (a.u.)       :      1.10836
Magnitude (Debye)      :      2.81722

                             ****ORCA TERMINATED NORMALLY****
TOTAL RUN TIME: 0 days 0 hours 11 minutes 51 seconds 392 msec
