                         Program Version 3.0.3 - RELEASE   -
|  1> ! RI-MP2 RIJK def2-TZVP def2-TZVP/C def2-TZVP/JK TIGHTSCF
|  2> % maxcore 2000
|  3> % mp2 density relaxed end
|  4> *xyz 0 1
|  5>  C       -0.0204459085     1.4466279008    -0.0705696817
|  6>  C        0.0038544647    -0.0451588755     0.0419101617
|  7>  N       -0.0337673425    -0.8049369750    -1.0600848578
|  8>  N        0.0033795861    -2.0580666951    -0.5761691346
|  9>  C       -0.0063253492    -3.3256770486    -1.1745836314
| 10>  C        0.0471775485    -4.2587979072    -0.2153474733
| 11>  C        0.0979239513    -3.5898425875     1.1541927252
| 12>  C        0.0631697828    -2.1334567734     0.7831348712
| 13>  C        0.0656255975    -0.8312919247     1.2298529503
| 14>  H        0.8763719584     1.8972716452     0.3691936763
| 15>  H       -0.0716646236     1.7383346852    -1.1216287920
| 16>  H       -0.8852000883     1.8745634118     0.4488461666
| 17>  H       -0.0517597346    -3.4099105529    -2.2492661701
| 18>  H        0.0542778367    -5.3269039442    -0.3689412676
| 19>  H       -0.7507431026    -3.8843824823     1.7841240414
| 20>  H        1.0051412100    -3.8618844597     1.7080487008
| 21>  H        0.1050161835    -0.4750405468     2.2466413548
| 22> *
| 23>
| 24>                          ****END OF INPUT****

CARTESIAN COORDINATES (ANGSTROEM)
---------------------------------
  C     -0.020446    1.446628   -0.070570
  C      0.003854   -0.045159    0.041910
  N     -0.033767   -0.804937   -1.060085
  N      0.003380   -2.058067   -0.576169
  C     -0.006325   -3.325677   -1.174584
  C      0.047178   -4.258798   -0.215347
  C      0.097924   -3.589843    1.154193
  C      0.063170   -2.133457    0.783135
  C      0.065626   -0.831292    1.229853
  H      0.876372    1.897272    0.369194
  H     -0.071665    1.738335   -1.121629
  H     -0.885200    1.874563    0.448846
  H     -0.051760   -3.409911   -2.249266
  H      0.054278   -5.326904   -0.368941
  H     -0.750743   -3.884382    1.784124
  H      1.005141   -3.861884    1.708049
  H      0.105016   -0.475041    2.246641

 Total Charge           Charge          ....    0
 Multiplicity           Mult            ....    1
 Number of Electrons    NEL             ....   64
 Basis Dimension        Dim             ....  327

ORBITAL ENERGIES
----------------

  NO   OCC          E(Eh)            E(eV)
   0   2.0000     -15.631261      -425.3482
   1   2.0000     -15.574334      -423.7992
   2   2.0000     -11.283838      -307.0488
   3   2.0000     -11.273568      -306.7694
   4   2.0000     -11.257221      -306.3246
   5   2.0000     -11.256961      -306.3175
   6   2.0000     -11.239424      -305.8403
   7   2.0000     -11.218442      -305.2693
   8   2.0000     -11.213848      -305.1443
   9   2.0000      -1.383125       -37.6368
  10   2.0000      -1.180899       -32.1339
  11   2.0000      -1.068969       -29.0881
  12   2.0000      -1.028175       -27.9781
  13   2.0000      -0.974167       -26.5084
  14   2.0000      -0.927117       -25.2281
  15   2.0000      -0.809673       -22.0323
  16   2.0000      -0.777036       -21.1442
  17   2.0000      -0.736303       -20.0358
  18   2.0000      -0.682033       -18.5591
  19   2.0000      -0.648969       -17.6593
  20   2.0000      -0.618151       -16.8208
  21   2.0000      -0.592651       -16.1269
  22   2.0000      -0.583128       -15.8677
  23   2.0000      -0.564279       -15.3548
  24   2.0000      -0.551743       -15.0137
  25   2.0000      -0.548155       -14.9161
  26   2.0000      -0.532978       -14.5031
  27   2.0000      -0.507742       -13.8163
  28   2.0000      -0.448063       -12.1924
  29   2.0000      -0.420962       -11.4550
  30   2.0000      -0.336746        -9.1633
  31   2.0000      -0.302854        -8.2411
  32   0.0000       0.121011         3.2929
  33   0.0000       0.142396         3.8748
  34   0.0000       0.155024         4.2184
  35   0.0000       0.175984         4.7888
  36   0.0000       0.186147         5.0653

MULLIKEN ATOMIC CHARGES
-----------------------
   0 C :   -0.444164
   1 C :    0.118066
   2 N :   -0.309926
   3 N :    0.181634
   4 C :   -0.100300
   5 C :   -0.211258
   6 C :   -0.126301
   7 C :   -0.019725
   8 C :   -0.244713
   9 H :    0.137672
  10 H :    0.151172
  11 H :    0.137672
  12 H :    0.158632
  13 H :    0.148517
  14 H :    0.143254
  15 H :    0.143256
  16 H :    0.136513
Sum of atomic charges:   -0.0000000

LOEWDIN ATOMIC CHARGES
----------------------
   0 C :   -0.279668
   1 C :   -0.293386
   2 N :    0.061694
   3 N :    0.238500
   4 C :   -0.160113
   5 C :   -0.157219
   6 C :   -0.199940
   7 C :   -0.187463
   8 C :   -0.159833
   9 H :    0.129822
  10 H :    0.135223
  11 H :    0.129819
  12 H :    0.145695
  13 H :    0.140751
  14 H :    0.157249
  15 H :    0.157249
  16 H :    0.141621

  Mayer bond orders larger than 0.1
B(  0-C ,  1-C ) :   0.8599 B(  0-C ,  9-H ) :   0.9351 B(  0-C , 10-H ) :   0.9530
B(  0-C , 11-H ) :   0.9353 B(  1-C ,  2-N ) :   1.5298 B(  1-C ,  8-C ) :   1.2702
B(  2-N ,  3-N ) :   0.9903 B(  3-N ,  4-C ) :   0.9873 B(  3-N ,  7-C ) :   1.1574
B(  4-C ,  5-C ) :   1.7168 B(  4-C , 12-H ) :   0.9276 B(  5-C ,  6-C ) :   0.9610
B(  5-C , 13-H ) :   0.9257 B(  6-C ,  7-C ) :   0.9985 B(  6-C , 14-H ) :   0.8921
B(  6-C , 15-H ) :   0.8922 B(  7-C ,  8-C ) :   1.4236 B(  8-C , 16-H ) :   0.9206

MP2 TOTAL ENERGY:     -380.220009348 Eh
FINAL SINGLE POINT ENERGY      -380.220009347650

DIPOLE MOMENT
-------------
                                X             Y             Z
Electronic contribution:     -0.04847      -2.81358      -1.97844
Nuclear contribution   :      0.08418       2.04507       2.57612
                        -----------------------------------------
Total Dipole Moment    :      0.03571      -0.76852       0.59768
                        -----------------------------------------
Magnitude (a.u.)       :      0.97422
Magnitude (Debye)      :      2.47627

                             ****ORCA TERMINATED NORMALLY****
TOTAL RUN TIME: 0 days 0 hours 16 minutes 58 seconds 621 msec
