                         Program Version 3.0.3 - RELEASE   -
|  1> ! RI-MP2 RIJK def2-TZVP def2-TZVP/C def2-TZVP/JK TIGHTSCF
|  2> % maxcore 2000
|  3> % mp2 density relaxed end
|  4> *xyz 0 1
|  5>  C       -0.0272963987     1.2958694572     0.0096892909
|  6>  N        1.1932582095     1.8251601841     0.0009401869
|  7>  C        2.0694817262     0.7929415305    -0.0133898869
|  8>  C        1.3868780889    -0.4177487434    -0.0136741045
|  9>  C        1.6331403924    -1.8018837327    -0.0238997296
| 10>  N        0.6628152471    -2.6842485858    -0.0195595969
| 11>  C       -0.6120694267    -2.1822542327    -0.0044249176
| 12>  N       -0.9999511111    -0.9363224266     0.0063884270
| 13>  N        0.0285585667    -0.0528000643     0.0014899655
| 14>  H       -0.9637300455     1.8299936365     0.0217538947
| 15>  H        3.1375343695     0.9497435580    -0.0228005797
| 16>  H        2.6568057307    -2.1706442497    -0.0358662643
| 17>  H       -1.4153342090    -2.9114285212    -0.0008194055
| 18> *
| 19>
| 20>                          ****END OF INPUT****

CARTESIAN COORDINATES (ANGSTROEM)
---------------------------------
  C     -0.027296    1.295869    0.009689
  N      1.193258    1.825160    0.000940
  C      2.069482    0.792942   -0.013390
  C      1.386878   -0.417749   -0.013674
  C      1.633140   -1.801884   -0.023900
  N      0.662815   -2.684249   -0.019560
  C     -0.612069   -2.182254   -0.004425
  N     -0.999951   -0.936322    0.006388
  N      0.028559   -0.052800    0.001490
  H     -0.963730    1.829994    0.021754
  H      3.137534    0.949744   -0.022801
  H      2.656806   -2.170644   -0.035866
  H     -1.415334   -2.911429   -0.000819

 Total Charge           Charge          ....    0
 Multiplicity           Mult            ....    1
 Number of Electrons    NEL             ....   62
 Basis Dimension        Dim             ....  303

ORBITAL ENERGIES
----------------

  NO   OCC          E(Eh)            E(eV)
   0   2.0000     -15.683727      -426.7759
   1   2.0000     -15.627598      -425.2485
   2   2.0000     -15.587026      -424.1445
   3   2.0000     -15.573639      -423.7803
   4   2.0000     -11.332526      -308.3737
   5   2.0000     -11.329207      -308.2834
   6   2.0000     -11.314889      -307.8938
   7   2.0000     -11.289997      -307.2164
   8   2.0000     -11.281721      -306.9912
   9   2.0000      -1.423334       -38.7309
  10   2.0000      -1.302885       -35.4533
  11   2.0000      -1.246272       -33.9128
  12   2.0000      -1.138235       -30.9729
  13   2.0000      -1.050516       -28.5860
  14   2.0000      -0.945014       -25.7151
  15   2.0000      -0.888324       -24.1725
  16   2.0000      -0.842809       -22.9340
  17   2.0000      -0.775726       -21.1086
  18   2.0000      -0.730889       -19.8885
  19   2.0000      -0.686715       -18.6865
  20   2.0000      -0.669970       -18.2308
  21   2.0000      -0.644944       -17.5498
  22   2.0000      -0.620921       -16.8961
  23   2.0000      -0.602266       -16.3885
  24   2.0000      -0.540982       -14.7209
  25   2.0000      -0.513053       -13.9609
  26   2.0000      -0.488016       -13.2796
  27   2.0000      -0.460470       -12.5300
  28   2.0000      -0.443840       -12.0775
  29   2.0000      -0.389608       -10.6018
  30   2.0000      -0.320048        -8.7090
  31   0.0000       0.053541         1.4569
  32   0.0000       0.116110         3.1595
  33   0.0000       0.153414         4.1746
  34   0.0000       0.170596         4.6422
  35   0.0000       0.176873         4.8130

MULLIKEN ATOMIC CHARGES
-----------------------
   0 C :    0.007605
   1 N :   -0.251988
   2 C :   -0.115282
   3 C :    0.024703
   4 C :   -0.009508
   5 N :   -0.243953
   6 C :    0.058750
   7 N :   -0.229842
   8 N :    0.130954
   9 H :    0.168377
  10 H :    0.149356
  11 H :    0.153783
  12 H :    0.157044
Sum of atomic charges:   -0.0000000

LOEWDIN ATOMIC CHARGES
----------------------
   0 C :   -0.274447
   1 N :    0.118162
   2 C :   -0.225163
   3 C :   -0.192410
   4 C :   -0.165656
   5 N :    0.115529
   6 C :   -0.299988
   7 N :    0.096672
   8 N :    0.255038
   9 H :    0.139406
  10 H :    0.138968
  11 H :    0.150843
  12 H :    0.143046

  Mayer bond orders larger than 0.1
B(  0-C ,  1-N ) :   1.4355 B(  0-C ,  8-N ) :   1.1946 B(  0-C ,  9-H ) :   0.9199
B(  1-N ,  2-C ) :   1.3806 B(  2-C ,  3-C ) :   1.3140 B(  2-C , 10-H ) :   0.9382
B(  3-C ,  4-C ) :   1.1459 B(  3-C ,  8-N ) :   1.0307 B(  4-C ,  5-N ) :   1.5618
B(  4-C , 11-H ) :   0.9478 B(  5-N ,  6-C ) :   1.2033 B(  6-C ,  7-N ) :   1.5844
B(  6-C , 12-H ) :   0.9262 B(  7-N ,  8-N ) :   0.8978

MP2 TOTAL ENERGY:     -411.108975547 Eh
FINAL SINGLE POINT ENERGY      -411.108975547287

DIPOLE MOMENT
-------------
                                X             Y             Z
Electronic contribution:     -0.90600      -0.04204       0.00850
Nuclear contribution   :      1.03166      -0.41060      -0.01229
                        -----------------------------------------
Total Dipole Moment    :      0.12566      -0.45264      -0.00379
                        -----------------------------------------
Magnitude (a.u.)       :      0.46978
Magnitude (Debye)      :      1.19407

                             ****ORCA TERMINATED NORMALLY****
TOTAL RUN TIME: 0 days 0 hours 15 minutes 58 seconds 756 msec
