                         Program Version 3.0.3 - RELEASE   -
|  1> ! RI-MP2 RIJK def2-TZVP def2-TZVP/C def2-TZVP/JK TIGHTSCF
|  2> % maxcore 2000
|  3> % mp2 density relaxed end
|  4> *xyz 0 1
|  5>  C       -0.0965161952    -1.1623633352    -0.2596043825
|  6>  C       -0.0501336489     0.0252300464    -0.0829553426
|  7>  C        0.0316836326     1.4651543497     0.1504989099
|  8>  C        1.4490023660     1.9748129201     0.1300035945
|  9>  C        2.6021223920     1.6022952688     1.0621209507
| 10>  C        3.3678164569     2.7795607008     0.3988987650
| 11>  C        3.4954467394     2.2977047088    -1.0550191602
| 12>  N        2.0058176813     2.3970811473    -1.2071248016
| 13>  C        1.9685492036     3.3509001080    -0.0573142113
| 14>  H       -0.1474568684    -2.2096202964    -0.4262321554
| 15>  H       -0.5430475486     2.0007392010    -0.6139104757
| 16>  H       -0.4277754366     1.7030174749     1.1192077165
| 17>  H        2.3384650468     1.8175587303     2.1013207272
| 18>  H        3.0414335626     0.6020166986     0.9880801041
| 19>  H        4.1640327230     3.3023839879     0.9252921559
| 20>  H        3.9561835041     3.0305272196    -1.7223936757
| 21>  H        3.9220119535     1.3045032929    -1.2387083348
| 22>  H        1.5069305559     4.3295480465    -0.0887115242
| 23> *
| 24>
| 25>                          ****END OF INPUT****

CARTESIAN COORDINATES (ANGSTROEM)
---------------------------------
  C     -0.096516   -1.162363   -0.259604
  C     -0.050134    0.025230   -0.082955
  C      0.031684    1.465154    0.150499
  C      1.449002    1.974813    0.130004
  C      2.602122    1.602295    1.062121
  C      3.367816    2.779561    0.398899
  C      3.495447    2.297705   -1.055019
  N      2.005818    2.397081   -1.207125
  C      1.968549    3.350900   -0.057314
  H     -0.147457   -2.209620   -0.426232
  H     -0.543048    2.000739   -0.613910
  H     -0.427775    1.703017    1.119208
  H      2.338465    1.817559    2.101321
  H      3.041434    0.602017    0.988080
  H      4.164033    3.302384    0.925292
  H      3.956184    3.030527   -1.722394
  H      3.922012    1.304503   -1.238708
  H      1.506931    4.329548   -0.088712

 Total Charge           Charge          ....    0
 Multiplicity           Mult            ....    1
 Number of Electrons    NEL             ....   64
 Basis Dimension        Dim             ....  333

ORBITAL ENERGIES
----------------

  NO   OCC          E(Eh)            E(eV)
   0   2.0000     -15.561289      -423.4442
   1   2.0000     -11.272668      -306.7449
   2   2.0000     -11.263226      -306.4880
   3   2.0000     -11.257183      -306.3235
   4   2.0000     -11.253982      -306.2364
   5   2.0000     -11.246949      -306.0450
   6   2.0000     -11.233903      -305.6900
   7   2.0000     -11.231861      -305.6345
   8   2.0000     -11.217702      -305.2492
   9   2.0000      -1.317969       -35.8638
  10   2.0000      -1.076453       -29.2918
  11   2.0000      -1.029134       -28.0041
  12   2.0000      -0.999729       -27.2040
  13   2.0000      -0.944065       -25.6893
  14   2.0000      -0.874147       -23.7868
  15   2.0000      -0.755540       -20.5593
  16   2.0000      -0.743613       -20.2347
  17   2.0000      -0.716988       -19.5102
  18   2.0000      -0.686073       -18.6690
  19   2.0000      -0.637452       -17.3460
  20   2.0000      -0.633455       -17.2372
  21   2.0000      -0.602827       -16.4038
  22   2.0000      -0.595468       -16.2035
  23   2.0000      -0.575831       -15.6692
  24   2.0000      -0.518089       -14.0979
  25   2.0000      -0.481857       -13.1120
  26   2.0000      -0.459771       -12.5110
  27   2.0000      -0.430041       -11.7020
  28   2.0000      -0.417206       -11.3528
  29   2.0000      -0.389186       -10.5903
  30   2.0000      -0.383356       -10.4316
  31   2.0000      -0.367937       -10.0121
  32   0.0000       0.138620         3.7721
  33   0.0000       0.154727         4.2103
  34   0.0000       0.166483         4.5302
  35   0.0000       0.172284         4.6881
  36   0.0000       0.176612         4.8058

MULLIKEN ATOMIC CHARGES
-----------------------
   0 C :   -0.159680
   1 C :   -0.036343
   2 C :   -0.338338
   3 C :    0.083603
   4 C :   -0.188945
   5 C :   -0.104177
   6 C :   -0.111743
   7 N :   -0.249441
   8 C :   -0.128032
   9 H :    0.188361
  10 H :    0.152380
  11 H :    0.140932
  12 H :    0.120625
  13 H :    0.118818
  14 H :    0.134776
  15 H :    0.123023
  16 H :    0.107954
  17 H :    0.146226
Sum of atomic charges:    0.0000000

LOEWDIN ATOMIC CHARGES
----------------------
   0 C :   -0.104720
   1 C :   -0.098343
   2 C :   -0.210342
   3 C :   -0.236097
   4 C :   -0.178677
   5 C :   -0.180969
   6 C :   -0.231935
   7 N :    0.140482
   8 C :   -0.147100
   9 H :    0.125942
  10 H :    0.169639
  11 H :    0.162780
  12 H :    0.144335
  13 H :    0.130256
  14 H :    0.129893
  15 H :    0.132697
  16 H :    0.121224
  17 H :    0.130936

  Mayer bond orders larger than 0.1
B(  0-C ,  1-C ) :   2.6029 B(  0-C ,  9-H ) :   0.9033 B(  1-C ,  2-C ) :   1.1250
B(  2-C ,  3-C ) :   0.9075 B(  2-C , 10-H ) :   0.9113 B(  2-C , 11-H ) :   0.9238
B(  3-C ,  4-C ) :   0.9133 B(  3-C ,  7-N ) :   0.8567 B(  3-C ,  8-C ) :   0.8532
B(  4-C ,  5-C ) :   0.9216 B(  4-C , 12-H ) :   0.9193 B(  4-C , 13-H ) :   0.9130
B(  5-C ,  6-C ) :   0.9336 B(  5-C ,  8-C ) :   0.9193 B(  5-C , 14-H ) :   0.9140
B(  6-C ,  7-N ) :   0.9054 B(  6-C , 15-H ) :   0.9355 B(  6-C , 16-H ) :   0.9176
B(  7-N ,  8-C ) :   0.9110 B(  8-C , 17-H ) :   0.8930

MP2 TOTAL ENERGY:     -364.039926468 Eh
FINAL SINGLE POINT ENERGY      -364.039926468116

DIPOLE MOMENT
-------------
                                X             Y             Z
Electronic contribution:     -2.18792      -0.59148      -1.21180
Nuclear contribution   :      2.58263       0.89355       1.85287
                        -----------------------------------------
Total Dipole Moment    :      0.39471       0.30207       0.64107
                        -----------------------------------------
Magnitude (a.u.)       :      0.81118
Magnitude (Debye)      :      2.06186

                             ****ORCA TERMINATED NORMALLY****
TOTAL RUN TIME: 0 days 0 hours 18 minutes 46 seconds 614 msec
