                         Program Version 3.0.3 - RELEASE   -
|  1> ! RI-MP2 RIJK def2-TZVP def2-TZVP/C def2-TZVP/JK TIGHTSCF
|  2> % maxcore 2000
|  3> % mp2 density relaxed end
|  4> *xyz 0 1
|  5>  N       -0.0978326874     1.2822959550     0.0227237598
|  6>  C       -0.0028727669     0.0198237689    -0.0313639940
|  7>  N        1.1163517227    -0.8277613390    -0.1050113774
|  8>  C        0.6159822855    -2.2177135901     0.0171802613
|  9>  C       -0.6529003133    -2.1127260493    -0.8537433619
| 10>  C       -1.1765966154    -0.9512791189     0.0035875319
| 11>  O       -1.1410693848    -1.5344798839     1.3473589721
| 12>  C       -0.0271644700    -2.3408052781     1.3891384960
| 13>  N        0.3834533509    -3.0042867733     2.3781642171
| 14>  H        0.8221250143     1.7288574596     0.0255814203
| 15>  H        1.9318041898    -0.5773883859     0.4384769515
| 16>  H        1.3672178977    -2.9664071504    -0.2166172706
| 17>  H       -0.4366410430    -1.8396015127    -1.8872920859
| 18>  H       -1.2930069416    -2.9949720115    -0.8038747195
| 19>  H       -2.1592975218    -0.5258693637    -0.1709947062
| 20>  H       -0.2296659266    -2.8718553766     3.1852996654
| 21> *
| 22>
| 23>                          ****END OF INPUT****

CARTESIAN COORDINATES (ANGSTROEM)
---------------------------------
  N     -0.097833    1.282296    0.022724
  C     -0.002873    0.019824   -0.031364
  N      1.116352   -0.827761   -0.105011
  C      0.615982   -2.217714    0.017180
  C     -0.652900   -2.112726   -0.853743
  C     -1.176597   -0.951279    0.003588
  O     -1.141069   -1.534480    1.347359
  C     -0.027164   -2.340805    1.389138
  N      0.383453   -3.004287    2.378164
  H      0.822125    1.728857    0.025581
  H      1.931804   -0.577388    0.438477
  H      1.367218   -2.966407   -0.216617
  H     -0.436641   -1.839602   -1.887292
  H     -1.293007   -2.994972   -0.803875
  H     -2.159298   -0.525869   -0.170995
  H     -0.229666   -2.871855    3.185300

 Total Charge           Charge          ....    0
 Multiplicity           Mult            ....    1
 Number of Electrons    NEL             ....   66
 Basis Dimension        Dim             ....  321

ORBITAL ENERGIES
----------------

  NO   OCC          E(Eh)            E(eV)
   0   2.0000     -20.606627      -560.7348
   1   2.0000     -15.596248      -424.3955
   2   2.0000     -15.546780      -423.0494
   3   2.0000     -15.544940      -422.9993
   4   2.0000     -11.345682      -308.7317
   5   2.0000     -11.327461      -308.2359
   6   2.0000     -11.319192      -308.0109
   7   2.0000     -11.302208      -307.5487
   8   2.0000     -11.261106      -306.4303
   9   2.0000      -1.447137       -39.3786
  10   2.0000      -1.292115       -35.1602
  11   2.0000      -1.209320       -32.9073
  12   2.0000      -1.183946       -32.2168
  13   2.0000      -1.068834       -29.0845
  14   2.0000      -0.986925       -26.8556
  15   2.0000      -0.869083       -23.6490
  16   2.0000      -0.829159       -22.5626
  17   2.0000      -0.770805       -20.9747
  18   2.0000      -0.733095       -19.9485
  19   2.0000      -0.700488       -19.0612
  20   2.0000      -0.692975       -18.8568
  21   2.0000      -0.657523       -17.8921
  22   2.0000      -0.621254       -16.9052
  23   2.0000      -0.592559       -16.1243
  24   2.0000      -0.565859       -15.3978
  25   2.0000      -0.548291       -14.9197
  26   2.0000      -0.535844       -14.5811
  27   2.0000      -0.525966       -14.3123
  28   2.0000      -0.511929       -13.9303
  29   2.0000      -0.446212       -12.1420
  30   2.0000      -0.435922       -11.8621
  31   2.0000      -0.412851       -11.2342
  32   2.0000      -0.378509       -10.2997
  33   0.0000       0.125857         3.4247
  34   0.0000       0.147268         4.0074
  35   0.0000       0.157758         4.2928
  36   0.0000       0.161228         4.3872
  37   0.0000       0.174667         4.7529

MULLIKEN ATOMIC CHARGES
-----------------------
   0 N :   -0.333159
   1 C :   -0.037766
   2 N :   -0.334181
   3 C :    0.117924
   4 C :   -0.305561
   5 C :    0.190870
   6 O :   -0.258883
   7 C :    0.022460
   8 N :   -0.354158
   9 H :    0.209598
  10 H :    0.241115
  11 H :    0.159686
  12 H :    0.149559
  13 H :    0.149082
  14 H :    0.153691
  15 H :    0.229724
Sum of atomic charges:    0.0000000

LOEWDIN ATOMIC CHARGES
----------------------
   0 N :   -0.053973
   1 C :   -0.358068
   2 N :    0.102975
   3 C :   -0.220187
   4 C :   -0.190341
   5 C :   -0.206721
   6 O :    0.251186
   7 C :   -0.392586
   8 N :   -0.050709
   9 H :    0.162686
  10 H :    0.183089
  11 H :    0.153288
  12 H :    0.149363
  13 H :    0.148021
  14 H :    0.150182
  15 H :    0.171794

  Mayer bond orders larger than 0.1
B(  0-N ,  1-C ) :   2.1105 B(  0-N ,  9-H ) :   0.8556 B(  1-C ,  2-N ) :   1.1237
B(  1-C ,  5-C ) :   0.8865 B(  2-N ,  3-C ) :   0.8958 B(  2-N , 10-H ) :   0.8623
B(  3-C ,  4-C ) :   0.9203 B(  3-C ,  7-C ) :   0.9252 B(  3-C , 11-H ) :   0.9044
B(  4-C ,  5-C ) :   0.9514 B(  4-C , 12-H ) :   0.9236 B(  4-C , 13-H ) :   0.9179
B(  5-C ,  6-O ) :   0.8335 B(  5-C , 14-H ) :   0.9194 B(  6-O ,  7-C ) :   1.0944
B(  7-C ,  8-N ) :   2.0889 B(  8-N , 15-H ) :   0.8519

MP2 TOTAL ENERGY:     -433.368739010 Eh
FINAL SINGLE POINT ENERGY      -433.368739009710

DIPOLE MOMENT
-------------
                                X             Y             Z
Electronic contribution:     -0.39787       0.61102       1.98712
Nuclear contribution   :      0.70788      -0.93544      -2.62740
                        -----------------------------------------
Total Dipole Moment    :      0.31001      -0.32443      -0.64028
                        -----------------------------------------
Magnitude (a.u.)       :      0.78187
Magnitude (Debye)      :      1.98735

                             ****ORCA TERMINATED NORMALLY****
TOTAL RUN TIME: 0 days 0 hours 16 minutes 10 seconds 311 msec
