                         Program Version 3.0.3 - RELEASE   -
|  1> ! RI-MP2 RIJK def2-TZVP def2-TZVP/C def2-TZVP/JK TIGHTSCF
|  2> % maxcore 2000
|  3> % mp2 density relaxed end
|  4> *xyz 0 1
|  5>  C        0.0253914239     1.5817527208    -0.1387634904
|  6>  C        0.0081162989     0.0612724792    -0.0078407769
|  7>  C       -1.3968085684    -0.5168244257     0.0868714067
|  8>  O        0.6185221174    -0.5351805069    -1.1715762579
|  9>  C        1.9500033323    -0.6798395516    -1.1593391589
| 10>  N        2.5668391453    -1.0823763051    -2.1829916147
| 11>  C        3.9959525783    -1.2584947881    -2.0702287399
| 12>  C        4.3969292624    -2.6751046486    -2.4647027613
| 13>  O        5.3994966239    -3.2197206053    -2.0838921084
| 14>  H        1.0495302489     1.9590572219    -0.2162876537
| 15>  H       -0.5224911981     1.8911716670    -1.0338257685
| 16>  H       -0.4432109019     2.0452864523     0.7347998560
| 17>  H        0.5871987268    -0.2395382578     0.8769164470
| 18>  H       -1.9768450820    -0.2548365472    -0.8029659465
| 19>  H       -1.3609929275    -1.6062150330     0.1656961615
| 20>  H       -1.9120060055    -0.1189395525     0.9658141412
| 21>  H        2.4310160848    -0.4360510752    -0.1983052899
| 22>  H        4.4983936931    -0.5927791983    -2.7902960196
| 23>  H        4.4199265549    -1.0390814733    -1.0772757654
| 24>  H        3.6798957124    -3.1664935326    -3.1581083904
| 25> *
| 26>
| 27>                          ****END OF INPUT****

CARTESIAN COORDINATES (ANGSTROEM)
---------------------------------
  C      0.025391    1.581753   -0.138763
  C      0.008116    0.061272   -0.007841
  C     -1.396809   -0.516824    0.086871
  O      0.618522   -0.535181   -1.171576
  C      1.950003   -0.679840   -1.159339
  N      2.566839   -1.082376   -2.182992
  C      3.995953   -1.258495   -2.070229
  C      4.396929   -2.675105   -2.464703
  O      5.399497   -3.219721   -2.083892
  H      1.049530    1.959057   -0.216288
  H     -0.522491    1.891172   -1.033826
  H     -0.443211    2.045286    0.734800
  H      0.587199   -0.239538    0.876916
  H     -1.976845   -0.254837   -0.802966
  H     -1.360993   -1.606215    0.165696
  H     -1.912006   -0.118940    0.965814
  H      2.431016   -0.436051   -0.198305
  H      4.498394   -0.592779   -2.790296
  H      4.419927   -1.039081   -1.077276
  H      3.679896   -3.166494   -3.158108

 Total Charge           Charge          ....    0
 Multiplicity           Mult            ....    1
 Number of Electrons    NEL             ....   70
 Basis Dimension        Dim             ....  345

ORBITAL ENERGIES
----------------

  NO   OCC          E(Eh)            E(eV)
   0   2.0000     -20.597351      -560.4824
   1   2.0000     -20.552963      -559.2746
   2   2.0000     -15.555373      -423.2832
   3   2.0000     -11.346748      -308.7607
   4   2.0000     -11.326712      -308.2155
   5   2.0000     -11.310509      -307.7746
   6   2.0000     -11.270889      -306.6965
   7   2.0000     -11.235317      -305.7285
   8   2.0000     -11.231644      -305.6286
   9   2.0000      -1.435259       -39.0554
  10   2.0000      -1.392976       -37.9048
  11   2.0000      -1.237416       -33.6718
  12   2.0000      -1.077818       -29.3289
  13   2.0000      -0.994768       -27.0690
  14   2.0000      -0.958329       -26.0775
  15   2.0000      -0.848050       -23.0766
  16   2.0000      -0.822020       -22.3683
  17   2.0000      -0.794388       -21.6164
  18   2.0000      -0.713849       -19.4248
  19   2.0000      -0.697401       -18.9772
  20   2.0000      -0.658885       -17.9292
  21   2.0000      -0.633392       -17.2355
  22   2.0000      -0.631991       -17.1973
  23   2.0000      -0.615224       -16.7411
  24   2.0000      -0.605566       -16.4783
  25   2.0000      -0.570316       -15.5191
  26   2.0000      -0.561206       -15.2712
  27   2.0000      -0.548249       -14.9186
  28   2.0000      -0.540048       -14.6955
  29   2.0000      -0.510988       -13.9047
  30   2.0000      -0.497053       -13.5255
  31   2.0000      -0.496857       -13.5202
  32   2.0000      -0.434619       -11.8266
  33   2.0000      -0.428559       -11.6617
  34   2.0000      -0.384079       -10.4513
  35   0.0000       0.123849         3.3701
  36   0.0000       0.130176         3.5423
  37   0.0000       0.142270         3.8714
  38   0.0000       0.148742         4.0475
  39   0.0000       0.169268         4.6060

MULLIKEN ATOMIC CHARGES
-----------------------
   0 C :   -0.375214
   1 C :    0.040528
   2 C :   -0.361997
   3 O :   -0.210938
   4 C :    0.060830
   5 N :   -0.224803
   6 C :   -0.045495
   7 C :    0.090755
   8 O :   -0.269967
   9 H :    0.133199
  10 H :    0.139386
  11 H :    0.134356
  12 H :    0.089028
  13 H :    0.138270
  14 H :    0.141042
  15 H :    0.126766
  16 H :    0.067477
  17 H :    0.134111
  18 H :    0.098503
  19 H :    0.094165
Sum of atomic charges:    0.0000000

LOEWDIN ATOMIC CHARGES
----------------------
   0 C :   -0.292456
   1 C :   -0.350510
   2 C :   -0.287941
   3 O :    0.268135
   4 C :   -0.362472
   5 N :    0.079429
   6 C :   -0.305220
   7 C :   -0.290116
   8 O :    0.129393
   9 H :    0.125009
  10 H :    0.130704
  11 H :    0.129127
  12 H :    0.136291
  13 H :    0.130284
  14 H :    0.128598
  15 H :    0.128576
  16 H :    0.110882
  17 H :    0.149388
  18 H :    0.129714
  19 H :    0.113186

  Mayer bond orders larger than 0.1
B(  0-C ,  1-C ) :   0.9360 B(  0-C ,  9-H ) :   0.9292 B(  0-C , 10-H ) :   0.9291
B(  0-C , 11-H ) :   0.9308 B(  1-C ,  2-C ) :   0.9409 B(  1-C ,  3-O ) :   0.8455
B(  1-C , 12-H ) :   0.9350 B(  2-C , 13-H ) :   0.9328 B(  2-C , 14-H ) :   0.9344
B(  2-C , 15-H ) :   0.9283 B(  3-O ,  4-C ) :   1.1013 B(  4-C ,  5-N ) :   1.8475
B(  4-C , 16-H ) :   0.9233 B(  5-N ,  6-C ) :   0.8697 B(  6-C ,  7-C ) :   0.8765
B(  6-C , 17-H ) :   0.8960 B(  6-C , 18-H ) :   0.8938 B(  7-C ,  8-O ) :   1.9946
B(  7-C , 19-H ) :   0.9321

MP2 TOTAL ENERGY:     -439.561358664 Eh
FINAL SINGLE POINT ENERGY      -439.561358664384

DIPOLE MOMENT
-------------
                                X             Y             Z
Electronic contribution:      9.23743      -6.88305      -5.49897
Nuclear contribution   :    -10.18572       7.99226       6.50600
                        -----------------------------------------
Total Dipole Moment    :     -0.94829       1.10921       1.00703
                        -----------------------------------------
Magnitude (a.u.)       :      1.77305
Magnitude (Debye)      :      4.50673

                             ****ORCA TERMINATED NORMALLY****
TOTAL RUN TIME: 0 days 0 hours 14 minutes 36 seconds 567 msec
