                         Program Version 3.0.3 - RELEASE   -
|  1> ! RI-MP2 RIJK def2-TZVP def2-TZVP/C def2-TZVP/JK TIGHTSCF
|  2> % maxcore 2000
|  3> % mp2 density relaxed end
|  4> *xyz 0 1
|  5>  C       -0.3625312590     1.5249161574    -0.0592812607
|  6>  C        0.0645309784     0.0666912877    -0.0424142110
|  7>  O        1.0708302502    -0.1416906801    -1.0759229939
|  8>  C        2.0705639831    -0.8277738146    -0.4827039740
|  9>  N        2.0117450410    -1.1017132790     0.7531502648
| 10>  C        0.7554583102    -0.5076871322     1.2415361567
| 11>  C        1.0618265350     0.5222908645     2.3521027593
| 12>  C        1.5988448969    -0.1094142162     3.5548233220
| 13>  N        1.9993999949    -0.6008748137     4.5203874756
| 14>  H        0.4700756362     2.1924755040     0.1781218152
| 15>  H       -0.7350024100     1.7889576200    -1.0522443341
| 16>  H       -1.1691494513     1.6993086946     0.6593282267
| 17>  H       -0.7866586204    -0.5674269509    -0.3119981014
| 18>  H        2.8868109936    -1.0957745857    -1.1446351738
| 19>  H        0.1362190305    -1.2953363449     1.6809449918
| 20>  H        1.7846536936     1.2609478442     1.9911545030
| 21>  H        0.1506213971     1.0627485648     2.6299205237
| 22> *
| 23>
| 24>                          ****END OF INPUT****

CARTESIAN COORDINATES (ANGSTROEM)
---------------------------------
  C     -0.362531    1.524916   -0.059281
  C      0.064531    0.066691   -0.042414
  O      1.070830   -0.141691   -1.075923
  C      2.070564   -0.827774   -0.482704
  N      2.011745   -1.101713    0.753150
  C      0.755458   -0.507687    1.241536
  C      1.061827    0.522291    2.352103
  C      1.598845   -0.109414    3.554823
  N      1.999400   -0.600875    4.520387
  H      0.470076    2.192476    0.178122
  H     -0.735002    1.788958   -1.052244
  H     -1.169149    1.699309    0.659328
  H     -0.786659   -0.567427   -0.311998
  H      2.886811   -1.095775   -1.144635
  H      0.136219   -1.295336    1.680945
  H      1.784654    1.260948    1.991155
  H      0.150621    1.062749    2.629921

 Total Charge           Charge          ....    0
 Multiplicity           Mult            ....    1
 Number of Electrons    NEL             ....   66
 Basis Dimension        Dim             ....  327

ORBITAL ENERGIES
----------------

  NO   OCC          E(Eh)            E(eV)
   0   2.0000     -20.610761      -560.8473
   1   2.0000     -15.564795      -423.5396
   2   2.0000     -15.562813      -423.4857
   3   2.0000     -11.347572      -308.7831
   4   2.0000     -11.319355      -308.0153
   5   2.0000     -11.297248      -307.4137
   6   2.0000     -11.287793      -307.1565
   7   2.0000     -11.269961      -306.6712
   8   2.0000     -11.247796      -306.0681
   9   2.0000      -1.455043       -39.5937
  10   2.0000      -1.236264       -33.6405
  11   2.0000      -1.212557       -32.9953
  12   2.0000      -1.103170       -30.0188
  13   2.0000      -1.036192       -28.1962
  14   2.0000      -0.945723       -25.7344
  15   2.0000      -0.837566       -22.7913
  16   2.0000      -0.815358       -22.1870
  17   2.0000      -0.740835       -20.1592
  18   2.0000      -0.708102       -19.2684
  19   2.0000      -0.672584       -18.3019
  20   2.0000      -0.661236       -17.9931
  21   2.0000      -0.617337       -16.7986
  22   2.0000      -0.594609       -16.1801
  23   2.0000      -0.585354       -15.9283
  24   2.0000      -0.567710       -15.4482
  25   2.0000      -0.553157       -15.0522
  26   2.0000      -0.551885       -15.0175
  27   2.0000      -0.528131       -14.3712
  28   2.0000      -0.522620       -14.2212
  29   2.0000      -0.459072       -12.4920
  30   2.0000      -0.457951       -12.4615
  31   2.0000      -0.444578       -12.0976
  32   2.0000      -0.398687       -10.8488
  33   0.0000       0.111806         3.0424
  34   0.0000       0.138392         3.7658
  35   0.0000       0.151962         4.1351
  36   0.0000       0.162301         4.4164
  37   0.0000       0.173299         4.7157

MULLIKEN ATOMIC CHARGES
-----------------------
   0 C :   -0.395835
   1 C :    0.067754
   2 O :   -0.264607
   3 C :    0.101297
   4 N :   -0.281703
   5 C :    0.012474
   6 C :   -0.158115
   7 C :   -0.176112
   8 N :   -0.048639
   9 H :    0.132839
  10 H :    0.159038
  11 H :    0.139140
  12 H :    0.112732
  13 H :    0.154349
  14 H :    0.132301
  15 H :    0.159622
  16 H :    0.153465
Sum of atomic charges:   -0.0000000

LOEWDIN ATOMIC CHARGES
----------------------
   0 C :   -0.291304
   1 C :   -0.260017
   2 O :    0.234171
   3 C :   -0.344308
   4 N :    0.090449
   5 C :   -0.243012
   6 C :   -0.225106
   7 C :   -0.188230
   8 N :    0.062278
   9 H :    0.128431
  10 H :    0.133745
  11 H :    0.130681
  12 H :    0.145596
  13 H :    0.137342
  14 H :    0.156459
  15 H :    0.166926
  16 H :    0.165899

  Mayer bond orders larger than 0.1
B(  0-C ,  1-C ) :   0.9224 B(  0-C ,  9-H ) :   0.9270 B(  0-C , 10-H ) :   0.9301
B(  0-C , 11-H ) :   0.9354 B(  1-C ,  2-O ) :   0.8525 B(  1-C ,  5-C ) :   0.9087
B(  1-C , 12-H ) :   0.9305 B(  2-O ,  3-C ) :   1.0776 B(  3-C ,  4-N ) :   1.7964
B(  3-C , 13-H ) :   0.9196 B(  4-N ,  5-C ) :   0.9106 B(  5-C ,  6-C ) :   0.8688
B(  5-C , 14-H ) :   0.9253 B(  6-C ,  7-C ) :   0.9704 B(  6-C , 15-H ) :   0.8963
B(  6-C , 16-H ) :   0.9071 B(  7-C ,  8-N ) :   2.8818

MP2 TOTAL ENERGY:     -417.331305012 Eh
FINAL SINGLE POINT ENERGY      -417.331305011680

DIPOLE MOMENT
-------------
                                X             Y             Z
Electronic contribution:      4.61639      -4.54684       2.66678
Nuclear contribution   :     -5.78970       5.51071      -4.14554
                        -----------------------------------------
Total Dipole Moment    :     -1.17332       0.96387      -1.47876
                        -----------------------------------------
Magnitude (a.u.)       :      2.11954
Magnitude (Debye)      :      5.38745

                             ****ORCA TERMINATED NORMALLY****
TOTAL RUN TIME: 0 days 0 hours 15 minutes 53 seconds 429 msec
