                         Program Version 3.0.3 - RELEASE   -
|  1> ! RI-MP2 RIJK def2-TZVP def2-TZVP/C def2-TZVP/JK TIGHTSCF
|  2> % maxcore 2000
|  3> % mp2 density relaxed end
|  4> *xyz 0 1
|  5>  C        0.3794543786     1.4060649731    -0.3758947649
|  6>  C        0.1228985582    -0.0299861456     0.0336761508
|  7>  O        0.8693061802    -0.9815314825    -0.7726079229
|  8>  C        1.3584550416    -1.6739233278     0.3982045084
|  9>  C        2.8570476398    -1.8573478182     0.3633827939
| 10>  C        3.5233028202    -2.2149676023    -0.9108679568
| 11>  N        3.7055028590    -0.8726236696    -0.3209072910
| 12>  C        0.7296694308    -0.6088180153     1.3441349256
| 13>  C        1.6688583828     0.2629323844     2.1702856407
| 14>  H        1.4334362464     1.6788109111    -0.2749274859
| 15>  H        0.0877330202     1.5493804079    -1.4211806351
| 16>  H       -0.2150983968     2.0916403088     0.2375210449
| 17>  H       -0.9517525534    -0.2447083472    -0.0497395822
| 18>  H        0.8788513593    -2.6589417093     0.4978158544
| 19>  H        3.2756387204    -2.2402748516     1.2928395748
| 20>  H        4.4063587379    -2.8472945999    -0.9059036269
| 21>  H        2.8986025719    -2.2962424784    -1.7959069088
| 22>  H        3.0835027272    -0.2423145544    -0.8259843119
| 23>  H       -0.0362949555    -1.0337374278     1.9982120940
| 24>  H        2.5031545737     0.6543715006     1.5836997920
| 25>  H        1.1286031327     1.1091780483     2.6076021039
| 26>  H        2.0957404449    -0.3143285943     2.9970328629
| 27> *
| 28>
| 29>                          ****END OF INPUT****

CARTESIAN COORDINATES (ANGSTROEM)
---------------------------------
  C      0.379454    1.406065   -0.375895
  C      0.122899   -0.029986    0.033676
  O      0.869306   -0.981531   -0.772608
  C      1.358455   -1.673923    0.398205
  C      2.857048   -1.857348    0.363383
  C      3.523303   -2.214968   -0.910868
  N      3.705503   -0.872624   -0.320907
  C      0.729669   -0.608818    1.344135
  C      1.668858    0.262932    2.170286
  H      1.433436    1.678811   -0.274927
  H      0.087733    1.549380   -1.421181
  H     -0.215098    2.091640    0.237521
  H     -0.951753   -0.244708   -0.049740
  H      0.878851   -2.658942    0.497816
  H      3.275639   -2.240275    1.292840
  H      4.406359   -2.847295   -0.905904
  H      2.898603   -2.296242   -1.795907
  H      3.083503   -0.242315   -0.825984
  H     -0.036295   -1.033737    1.998212
  H      2.503155    0.654372    1.583700
  H      1.128603    1.109178    2.607602
  H      2.095740   -0.314329    2.997033

 Total Charge           Charge          ....    0
 Multiplicity           Mult            ....    1
 Number of Electrons    NEL             ....   70
 Basis Dimension        Dim             ....  357

ORBITAL ENERGIES
----------------

  NO   OCC          E(Eh)            E(eV)
   0   2.0000     -20.550610      -559.2105
   1   2.0000     -15.548488      -423.0959
   2   2.0000     -11.286316      -307.1163
   3   2.0000     -11.285649      -307.0981
   4   2.0000     -11.254637      -306.2542
   5   2.0000     -11.246145      -306.0232
   6   2.0000     -11.237532      -305.7888
   7   2.0000     -11.221139      -305.3427
   8   2.0000     -11.220050      -305.3131
   9   2.0000      -1.383004       -37.6334
  10   2.0000      -1.251964       -34.0677
  11   2.0000      -1.060217       -28.8500
  12   2.0000      -1.015731       -27.6394
  13   2.0000      -0.942368       -25.6431
  14   2.0000      -0.894082       -24.3292
  15   2.0000      -0.869284       -23.6544
  16   2.0000      -0.803353       -21.8603
  17   2.0000      -0.726527       -19.7698
  18   2.0000      -0.698208       -18.9992
  19   2.0000      -0.677752       -18.4426
  20   2.0000      -0.654106       -17.7991
  21   2.0000      -0.611363       -16.6360
  22   2.0000      -0.596158       -16.2223
  23   2.0000      -0.580497       -15.7961
  24   2.0000      -0.563999       -15.3472
  25   2.0000      -0.545946       -14.8560
  26   2.0000      -0.534891       -14.5551
  27   2.0000      -0.516191       -14.0463
  28   2.0000      -0.508689       -13.8421
  29   2.0000      -0.487650       -13.2696
  30   2.0000      -0.471764       -12.8373
  31   2.0000      -0.445821       -12.1314
  32   2.0000      -0.435882       -11.8609
  33   2.0000      -0.415920       -11.3178
  34   2.0000      -0.379792       -10.3347
  35   0.0000       0.130819         3.5598
  36   0.0000       0.150606         4.0982
  37   0.0000       0.162533         4.4227
  38   0.0000       0.177129         4.8199
  39   0.0000       0.190464         5.1828

MULLIKEN ATOMIC CHARGES
-----------------------
   0 C :   -0.388891
   1 C :    0.041427
   2 O :   -0.346088
   3 C :    0.016768
   4 C :   -0.034756
   5 C :   -0.181228
   6 N :   -0.386522
   7 C :    0.004740
   8 C :   -0.458959
   9 H :    0.126324
  10 H :    0.145438
  11 H :    0.132221
  12 H :    0.087306
  13 H :    0.094008
  14 H :    0.119400
  15 H :    0.120990
  16 H :    0.141207
  17 H :    0.227515
  18 H :    0.113077
  19 H :    0.155085
  20 H :    0.136253
  21 H :    0.134685
Sum of atomic charges:   -0.0000000

LOEWDIN ATOMIC CHARGES
----------------------
   0 C :   -0.297444
   1 C :   -0.282288
   2 O :    0.152354
   3 C :   -0.255161
   4 C :   -0.275507
   5 C :   -0.260962
   6 N :   -0.021146
   7 C :   -0.218005
   8 C :   -0.293340
   9 H :    0.123546
  10 H :    0.131063
  11 H :    0.129889
  12 H :    0.135452
  13 H :    0.141305
  14 H :    0.145944
  15 H :    0.122812
  16 H :    0.127201
  17 H :    0.165625
  18 H :    0.145572
  19 H :    0.129123
  20 H :    0.126121
  21 H :    0.127849

  Mayer bond orders larger than 0.1
B(  0-C ,  1-C ) :   0.9297 B(  0-C ,  9-H ) :   0.9305 B(  0-C , 10-H ) :   0.9335
B(  0-C , 11-H ) :   0.9308 B(  1-C ,  2-O ) :   0.9133 B(  1-C ,  7-C ) :   0.9078
B(  1-C , 12-H ) :   0.9210 B(  2-O ,  3-C ) :   0.9401 B(  3-C ,  4-C ) :   0.9562
B(  3-C ,  7-C ) :   0.9251 B(  3-C , 13-H ) :   0.9193 B(  4-C ,  5-C ) :   0.9453
B(  4-C ,  6-N ) :   0.9413 B(  4-C , 14-H ) :   0.9035 B(  5-C ,  6-N ) :   0.9132
B(  5-C , 15-H ) :   0.9269 B(  5-C , 16-H ) :   0.9107 B(  6-N , 17-H ) :   0.8720
B(  7-C ,  8-C ) :   0.8908 B(  7-C , 18-H ) :   0.9239 B(  8-C , 19-H ) :   0.9414
B(  8-C , 20-H ) :   0.9315 B(  8-C , 21-H ) :   0.9343

MP2 TOTAL ENERGY:     -403.619415915 Eh
FINAL SINGLE POINT ENERGY      -403.619415914516

DIPOLE MOMENT
-------------
                                X             Y             Z
Electronic contribution:      0.49899      -4.09540      -2.63359
Nuclear contribution   :     -1.24062       4.07004       3.11692
                        -----------------------------------------
Total Dipole Moment    :     -0.74162      -0.02536       0.48334
                        -----------------------------------------
Magnitude (a.u.)       :      0.88559
Magnitude (Debye)      :      2.25098

                             ****ORCA TERMINATED NORMALLY****
TOTAL RUN TIME: 0 days 0 hours 18 minutes 51 seconds 674 msec
