                         Program Version 3.0.3 - RELEASE   -
|  1> ! RI-MP2 RIJK def2-TZVP def2-TZVP/C def2-TZVP/JK TIGHTSCF
|  2> % maxcore 2000
|  3> % mp2 density relaxed end
|  4> *xyz 0 1
|  5>  C       -0.0160868083     1.4828870848     0.0972677581
|  6>  C       -0.0693959317    -0.0618598400     0.0038806027
|  7>  C       -1.5206127840    -0.5504191441    -0.0737593493
|  8>  C        0.7564879904    -0.5032876485    -1.2118709121
|  9>  O        0.4444566946    -0.3135382329    -2.3593341398
| 10>  C        2.0324531447    -1.2249805108    -0.7556373050
| 11>  C        2.1011490755    -1.0513585559     0.7686282371
| 12>  C        0.6852746994    -0.6504667311     1.2010185433
| 13>  O        0.2342278779    -0.7777207659     2.3102043946
| 14>  H        1.0101271484     1.8576605993     0.1732496951
| 15>  H       -0.4682316257     1.9147792432    -0.7996773485
| 16>  H       -0.5676479569     1.8176648214     0.9801010463
| 17>  H       -2.0104236457    -0.1225188598    -0.9520068996
| 18>  H       -1.5730499618    -1.6406150209    -0.1518050424
| 19>  H       -2.0601948572    -0.2517347588     0.8283816738
| 20>  H        1.9275811212    -2.2790989945    -1.0394302743
| 21>  H        2.8980954083    -0.8410533216    -1.3006181858
| 22>  H        2.4282288611    -1.9346433720     1.3204730834
| 23>  H        2.7767776098    -0.2331579922     1.0476795925
| 24> *
| 25>
| 26>                          ****END OF INPUT****

CARTESIAN COORDINATES (ANGSTROEM)
---------------------------------
  C     -0.016087    1.482887    0.097268
  C     -0.069396   -0.061860    0.003881
  C     -1.520613   -0.550419   -0.073759
  C      0.756488   -0.503288   -1.211871
  O      0.444457   -0.313538   -2.359334
  C      2.032453   -1.224981   -0.755637
  C      2.101149   -1.051359    0.768628
  C      0.685275   -0.650467    1.201019
  O      0.234228   -0.777721    2.310204
  H      1.010127    1.857661    0.173250
  H     -0.468232    1.914779   -0.799677
  H     -0.567648    1.817665    0.980101
  H     -2.010424   -0.122519   -0.952007
  H     -1.573050   -1.640615   -0.151805
  H     -2.060195   -0.251735    0.828382
  H      1.927581   -2.279099   -1.039430
  H      2.898095   -0.841053   -1.300618
  H      2.428229   -1.934643    1.320473
  H      2.776778   -0.233158    1.047680

 Total Charge           Charge          ....    0
 Multiplicity           Mult            ....    1
 Number of Electrons    NEL             ....   68
 Basis Dimension        Dim             ....  339

ORBITAL ENERGIES
----------------

  NO   OCC          E(Eh)            E(eV)
   0   2.0000     -20.559170      -559.4434
   1   2.0000     -20.558342      -559.4209
   2   2.0000     -11.341502      -308.6180
   3   2.0000     -11.340779      -308.5983
   4   2.0000     -11.263007      -306.4820
   5   2.0000     -11.256279      -306.2989
   6   2.0000     -11.255363      -306.2740
   7   2.0000     -11.243723      -305.9573
   8   2.0000     -11.231450      -305.6233
   9   2.0000      -1.405706       -38.2512
  10   2.0000      -1.401065       -38.1249
  11   2.0000      -1.144706       -31.1490
  12   2.0000      -1.068174       -29.0665
  13   2.0000      -0.953458       -25.9449
  14   2.0000      -0.932271       -25.3684
  15   2.0000      -0.893114       -24.3029
  16   2.0000      -0.775157       -21.0931
  17   2.0000      -0.720798       -19.6139
  18   2.0000      -0.675267       -18.3749
  19   2.0000      -0.672755       -18.3066
  20   2.0000      -0.650395       -17.6981
  21   2.0000      -0.621698       -16.9173
  22   2.0000      -0.598499       -16.2860
  23   2.0000      -0.586994       -15.9729
  24   2.0000      -0.585038       -15.9197
  25   2.0000      -0.579490       -15.7687
  26   2.0000      -0.556248       -15.1363
  27   2.0000      -0.544603       -14.8194
  28   2.0000      -0.528000       -14.3676
  29   2.0000      -0.520770       -14.1709
  30   2.0000      -0.492451       -13.4003
  31   2.0000      -0.484977       -13.1969
  32   2.0000      -0.424048       -11.5389
  33   2.0000      -0.397214       -10.8088
  34   0.0000       0.100976         2.7477
  35   0.0000       0.115127         3.1328
  36   0.0000       0.151022         4.1095
  37   0.0000       0.157552         4.2872
  38   0.0000       0.158185         4.3044

MULLIKEN ATOMIC CHARGES
-----------------------
   0 C :   -0.437705
   1 C :    0.142797
   2 C :   -0.408958
   3 C :    0.091164
   4 O :   -0.267109
   5 C :   -0.209585
   6 C :   -0.234821
   7 C :    0.113689
   8 O :   -0.262388
   9 H :    0.134974
  10 H :    0.157689
  11 H :    0.156064
  12 H :    0.153153
  13 H :    0.132038
  14 H :    0.153563
  15 H :    0.147701
  16 H :    0.148933
  17 H :    0.147055
  18 H :    0.141746
Sum of atomic charges:    0.0000000

LOEWDIN ATOMIC CHARGES
----------------------
   0 C :   -0.241567
   1 C :   -0.268164
   2 C :   -0.250024
   3 C :   -0.275737
   4 O :    0.166684
   5 C :   -0.217745
   6 C :   -0.218141
   7 C :   -0.277621
   8 O :    0.167204
   9 H :    0.128945
  10 H :    0.136506
  11 H :    0.135355
  12 H :    0.134782
  13 H :    0.130212
  14 H :    0.135085
  15 H :    0.158501
  16 H :    0.150398
  17 H :    0.148740
  18 H :    0.156586

  Mayer bond orders larger than 0.1
B(  0-C ,  1-C ) :   0.8786 B(  0-C ,  9-H ) :   0.9204 B(  0-C , 10-H ) :   0.9322
B(  0-C , 11-H ) :   0.9343 B(  1-C ,  2-C ) :   0.8983 B(  1-C ,  3-C ) :   0.8099
B(  1-C ,  7-C ) :   0.8097 B(  2-C , 12-H ) :   0.9331 B(  2-C , 13-H ) :   0.9280
B(  2-C , 14-H ) :   0.9342 B(  3-C ,  4-O ) :   2.0469 B(  3-C ,  5-C ) :   0.8953
B(  5-C ,  6-C ) :   0.9063 B(  5-C , 15-H ) :   0.9019 B(  5-C , 16-H ) :   0.9108
B(  6-C ,  7-C ) :   0.9191 B(  6-C , 17-H ) :   0.9126 B(  6-C , 18-H ) :   0.9003
B(  7-C ,  8-O ) :   2.0713

MP2 TOTAL ENERGY:     -422.375261590 Eh
FINAL SINGLE POINT ENERGY      -422.375261589561

DIPOLE MOMENT
-------------
                                X             Y             Z
Electronic contribution:      1.17132      -2.06220      -0.09684
Nuclear contribution   :     -0.59295       2.10169       0.12323
                        -----------------------------------------
Total Dipole Moment    :      0.57837       0.03949       0.02639
                        -----------------------------------------
Magnitude (a.u.)       :      0.58032
Magnitude (Debye)      :      1.47505

                             ****ORCA TERMINATED NORMALLY****
TOTAL RUN TIME: 0 days 0 hours 20 minutes 12 seconds 559 msec
