                         Program Version 3.0.3 - RELEASE   -
|  1> ! RI-MP2 RIJK def2-TZVP def2-TZVP/C def2-TZVP/JK TIGHTSCF
|  2> % maxcore 2000
|  3> % mp2 density relaxed end
|  4> *xyz 0 1
|  5>  C        0.0155262807     1.4823000003    -0.2716020955
|  6>  C       -0.1312284212     0.0034568510     0.1128682941
|  7>  C        0.7498819043    -0.3748324492     1.2699046364
|  8>  C        2.1379378328    -0.8485389407     1.1555952889
|  9>  N        1.1185592065    -1.8283073810     1.6022399796
| 10>  C        0.7590793340    -1.5518916403     3.0513873211
| 11>  C        1.8050131172    -0.9673549248     4.0126668418
| 12>  O        1.4835449529     0.3864552529     3.5875824117
| 13>  C        0.4056677742    -0.0968558543     2.7508493335
| 14>  H        1.0420972747     1.7101643938    -0.5753480536
| 15>  H       -0.6496201195     1.7388597653    -1.1013345458
| 16>  H       -0.2328191240     2.1379455332     0.5698653223
| 17>  H       -1.1781907615    -0.2127458905     0.3635037516
| 18>  H        0.1193887846    -0.6388148540    -0.7390942393
| 19>  H        2.5008072680    -1.0800790534     0.1583465433
| 20>  H        2.8977243157    -0.4802648273     1.8361036579
| 21>  H        0.0632721004    -2.3021235115     3.4217360045
| 22>  H        1.5592439049    -1.1166471776     5.0715458301
| 23>  H        2.8568055976    -1.2269757622     3.8474162803
| 24>  H       -0.5510763425     0.3885814403     2.9568085769
| 25> *
| 26>
| 27>                          ****END OF INPUT****

CARTESIAN COORDINATES (ANGSTROEM)
---------------------------------
  C      0.015526    1.482300   -0.271602
  C     -0.131228    0.003457    0.112868
  C      0.749882   -0.374832    1.269905
  C      2.137938   -0.848539    1.155595
  N      1.118559   -1.828307    1.602240
  C      0.759079   -1.551892    3.051387
  C      1.805013   -0.967355    4.012667
  O      1.483545    0.386455    3.587582
  C      0.405668   -0.096856    2.750849
  H      1.042097    1.710164   -0.575348
  H     -0.649620    1.738860   -1.101335
  H     -0.232819    2.137946    0.569865
  H     -1.178191   -0.212746    0.363504
  H      0.119389   -0.638815   -0.739094
  H      2.500807   -1.080079    0.158347
  H      2.897724   -0.480265    1.836104
  H      0.063272   -2.302124    3.421736
  H      1.559244   -1.116647    5.071546
  H      2.856806   -1.226976    3.847416
  H     -0.551076    0.388581    2.956809

 Total Charge           Charge          ....    0
 Multiplicity           Mult            ....    1
 Number of Electrons    NEL             ....   68
 Basis Dimension        Dim             ....  345

ORBITAL ENERGIES
----------------

  NO   OCC          E(Eh)            E(eV)
   0   2.0000     -20.555138      -559.3337
   1   2.0000     -15.561915      -423.4612
   2   2.0000     -11.289196      -307.1946
   3   2.0000     -11.284887      -307.0774
   4   2.0000     -11.266794      -306.5850
   5   2.0000     -11.264267      -306.5163
   6   2.0000     -11.255735      -306.2841
   7   2.0000     -11.231203      -305.6166
   8   2.0000     -11.220345      -305.3211
   9   2.0000      -1.390373       -37.8340
  10   2.0000      -1.272568       -34.6283
  11   2.0000      -1.052234       -28.6327
  12   2.0000      -1.007126       -27.4053
  13   2.0000      -0.955520       -26.0010
  14   2.0000      -0.892636       -24.2899
  15   2.0000      -0.860224       -23.4079
  16   2.0000      -0.782297       -21.2874
  17   2.0000      -0.721447       -19.6316
  18   2.0000      -0.700519       -19.0621
  19   2.0000      -0.688410       -18.7326
  20   2.0000      -0.624191       -16.9851
  21   2.0000      -0.611548       -16.6411
  22   2.0000      -0.605491       -16.4763
  23   2.0000      -0.580067       -15.7844
  24   2.0000      -0.557436       -15.1686
  25   2.0000      -0.530934       -14.4475
  26   2.0000      -0.519779       -14.1439
  27   2.0000      -0.508041       -13.8245
  28   2.0000      -0.500849       -13.6288
  29   2.0000      -0.483749       -13.1635
  30   2.0000      -0.458674       -12.4812
  31   2.0000      -0.422330       -11.4922
  32   2.0000      -0.396181       -10.7806
  33   2.0000      -0.363325        -9.8866
  34   0.0000       0.132940         3.6175
  35   0.0000       0.154284         4.1983
  36   0.0000       0.162397         4.4191
  37   0.0000       0.174592         4.7509
  38   0.0000       0.184384         5.0174

MULLIKEN ATOMIC CHARGES
-----------------------
   0 C :   -0.404268
   1 C :   -0.240853
   2 C :    0.109898
   3 C :   -0.194926
   4 N :   -0.243930
   5 C :   -0.089729
   6 C :   -0.039298
   7 O :   -0.339612
   8 C :    0.072372
   9 H :    0.131030
  10 H :    0.137353
  11 H :    0.130135
  12 H :    0.112102
  13 H :    0.127493
  14 H :    0.126898
  15 H :    0.141356
  16 H :    0.128914
  17 H :    0.110545
  18 H :    0.111083
  19 H :    0.113437
Sum of atomic charges:    0.0000000

LOEWDIN ATOMIC CHARGES
----------------------
   0 C :   -0.307901
   1 C :   -0.255842
   2 C :   -0.228293
   3 C :   -0.222990
   4 N :    0.128300
   5 C :   -0.217695
   6 C :   -0.255779
   7 O :    0.129735
   8 C :   -0.210476
   9 H :    0.123519
  10 H :    0.121862
  11 H :    0.123142
  12 H :    0.142002
  13 H :    0.147439
  14 H :    0.136547
  15 H :    0.132651
  16 H :    0.136896
  17 H :    0.123524
  18 H :    0.119380
  19 H :    0.133980

  Mayer bond orders larger than 0.1
B(  0-C ,  1-C ) :   0.9274 B(  0-C ,  9-H ) :   0.9375 B(  0-C , 10-H ) :   0.9389
B(  0-C , 11-H ) :   0.9355 B(  1-C ,  2-C ) :   0.8889 B(  1-C , 12-H ) :   0.9271
B(  1-C , 13-H ) :   0.9350 B(  2-C ,  3-C ) :   0.9533 B(  2-C ,  4-N ) :   0.7964
B(  2-C ,  8-C ) :   0.8247 B(  3-C ,  4-N ) :   0.9242 B(  3-C , 14-H ) :   0.9215
B(  3-C , 15-H ) :   0.8956 B(  4-N ,  5-C ) :   0.9399 B(  5-C ,  6-C ) :   0.9783
B(  5-C ,  8-C ) :   0.9767 B(  5-C , 16-H ) :   0.9252 B(  6-C ,  7-O ) :   0.9186
B(  6-C , 17-H ) :   0.9155 B(  6-C , 18-H ) :   0.9054 B(  7-O ,  8-C ) :   0.9695
B(  8-C , 19-H ) :   0.9426

MP2 TOTAL ENERGY:     -402.378257583 Eh
FINAL SINGLE POINT ENERGY      -402.378257582752

DIPOLE MOMENT
-------------
                                X             Y             Z
Electronic contribution:      1.51777      -2.99588       5.02036
Nuclear contribution   :     -1.71927       3.01072      -5.00557
                        -----------------------------------------
Total Dipole Moment    :     -0.20149       0.01485       0.01480
                        -----------------------------------------
Magnitude (a.u.)       :      0.20258
Magnitude (Debye)      :      0.51492

                             ****ORCA TERMINATED NORMALLY****
TOTAL RUN TIME: 0 days 0 hours 19 minutes 5 seconds 137 msec
