                         Program Version 3.0.3 - RELEASE   -
|  1> ! RI-MP2 RIJK def2-TZVP def2-TZVP/C def2-TZVP/JK TIGHTSCF
|  2> % maxcore 2000
|  3> % mp2 density relaxed end
|  4> *xyz 0 1
|  5>  C        0.1511618105     1.0212712572    -1.3636148060
|  6>  C        0.1175584923     0.1398406680    -0.1126135802
|  7>  O        0.4962555082     0.9009601605     1.0374579123
|  8>  C       -1.2520539360    -0.5277260923     0.0327005725
|  9>  C       -1.5987591758    -1.9880693842     0.0642036187
| 10>  C       -0.8197866814    -2.8093236665     1.1122276314
| 11>  C        0.0861612956    -2.0672947330     2.0236961244
| 12>  N       -1.3685608734    -1.9971448060     2.2545397703
| 13>  C       -2.0227478559    -1.1071658784     1.2203306669
| 14>  H        1.1331091430     1.4899763056    -1.4656633059
| 15>  H       -0.0514300173     0.4313302492    -2.2640061408
| 16>  H       -0.6019648446     1.8153046497    -1.2983386170
| 17>  H        0.8898405765    -0.6295943873    -0.2133254167
| 18>  H       -0.3062140736     1.2738388830     1.4171507431
| 19>  H       -1.9980949429    -0.0082381750    -0.5721828725
| 20>  H       -2.2099788975    -2.4673238113    -0.6898865896
| 21>  H       -0.8894678427    -3.8922248406     1.1374095971
| 22>  H        0.5739148540    -2.6773559431     2.7807352746
| 23>  H        0.6250582676    -1.1690646378     1.7601721877
| 24>  H       -3.0004136268    -0.7201370278     1.4806134298
| 25> *
| 26>
| 27>                          ****END OF INPUT****

CARTESIAN COORDINATES (ANGSTROEM)
---------------------------------
  C      0.151162    1.021271   -1.363615
  C      0.117558    0.139841   -0.112614
  O      0.496256    0.900960    1.037458
  C     -1.252054   -0.527726    0.032701
  C     -1.598759   -1.988069    0.064204
  C     -0.819787   -2.809324    1.112228
  C      0.086161   -2.067295    2.023696
  N     -1.368561   -1.997145    2.254540
  C     -2.022748   -1.107166    1.220331
  H      1.133109    1.489976   -1.465663
  H     -0.051430    0.431330   -2.264006
  H     -0.601965    1.815305   -1.298339
  H      0.889841   -0.629594   -0.213325
  H     -0.306214    1.273839    1.417151
  H     -1.998095   -0.008238   -0.572183
  H     -2.209979   -2.467324   -0.689887
  H     -0.889468   -3.892225    1.137410
  H      0.573915   -2.677356    2.780735
  H      0.625058   -1.169065    1.760172
  H     -3.000414   -0.720137    1.480613

 Total Charge           Charge          ....    0
 Multiplicity           Mult            ....    1
 Number of Electrons    NEL             ....   68
 Basis Dimension        Dim             ....  345

ORBITAL ENERGIES
----------------

  NO   OCC          E(Eh)            E(eV)
   0   2.0000     -20.555993      -559.3570
   1   2.0000     -15.559538      -423.3965
   2   2.0000     -11.288704      -307.1813
   3   2.0000     -11.271447      -306.7117
   4   2.0000     -11.267166      -306.5952
   5   2.0000     -11.253294      -306.2177
   6   2.0000     -11.250671      -306.1463
   7   2.0000     -11.245960      -306.0181
   8   2.0000     -11.220137      -305.3154
   9   2.0000      -1.363034       -37.0901
  10   2.0000      -1.299860       -35.3710
  11   2.0000      -1.121500       -30.5176
  12   2.0000      -1.021968       -27.8092
  13   2.0000      -0.919641       -25.0247
  14   2.0000      -0.898397       -24.4466
  15   2.0000      -0.837977       -22.8025
  16   2.0000      -0.779863       -21.2212
  17   2.0000      -0.740385       -20.1469
  18   2.0000      -0.710211       -19.3258
  19   2.0000      -0.683694       -18.6043
  20   2.0000      -0.635702       -17.2983
  21   2.0000      -0.614674       -16.7261
  22   2.0000      -0.599417       -16.3110
  23   2.0000      -0.582820       -15.8593
  24   2.0000      -0.562823       -15.3152
  25   2.0000      -0.535795       -14.5797
  26   2.0000      -0.525910       -14.3108
  27   2.0000      -0.516115       -14.0442
  28   2.0000      -0.477672       -12.9981
  29   2.0000      -0.465495       -12.6668
  30   2.0000      -0.455524       -12.3955
  31   2.0000      -0.441585       -12.0161
  32   2.0000      -0.376861       -10.2549
  33   2.0000      -0.343771        -9.3545
  34   0.0000       0.131855         3.5880
  35   0.0000       0.149400         4.0654
  36   0.0000       0.157487         4.2854
  37   0.0000       0.173881         4.7315
  38   0.0000       0.189638         5.1603

MULLIKEN ATOMIC CHARGES
-----------------------
   0 C :   -0.382007
   1 C :    0.128007
   2 O :   -0.484644
   3 C :   -0.230016
   4 C :   -0.153031
   5 C :   -0.076012
   6 C :   -0.172985
   7 N :   -0.238280
   8 C :   -0.064316
   9 H :    0.144457
  10 H :    0.130609
  11 H :    0.115529
  12 H :    0.112983
  13 H :    0.322045
  14 H :    0.121677
  15 H :    0.144743
  16 H :    0.134064
  17 H :    0.126073
  18 H :    0.181454
  19 H :    0.139649
Sum of atomic charges:   -0.0000000

LOEWDIN ATOMIC CHARGES
----------------------
   0 C :   -0.298407
   1 C :   -0.362384
   2 O :   -0.026900
   3 C :   -0.188319
   4 C :   -0.163583
   5 C :   -0.198665
   6 C :   -0.239313
   7 N :    0.116907
   8 C :   -0.189614
   9 H :    0.126777
  10 H :    0.126485
  11 H :    0.121698
  12 H :    0.146067
  13 H :    0.176838
  14 H :    0.172281
  15 H :    0.139773
  16 H :    0.135848
  17 H :    0.134810
  18 H :    0.134770
  19 H :    0.134931

  Mayer bond orders larger than 0.1
B(  0-C ,  1-C ) :   0.9091 B(  0-C ,  9-H ) :   0.9419 B(  0-C , 10-H ) :   0.9365
B(  0-C , 11-H ) :   0.9302 B(  1-C ,  2-O ) :   0.8763 B(  1-C ,  3-C ) :   0.8807
B(  1-C , 12-H ) :   0.9454 B(  2-O , 13-H ) :   0.8393 B(  3-C ,  4-C ) :   0.8736
B(  3-C ,  8-C ) :   0.8755 B(  3-C , 14-H ) :   0.9173 B(  4-C ,  5-C ) :   0.9355
B(  4-C ,  8-C ) :   0.8701 B(  4-C , 15-H ) :   0.9146 B(  5-C ,  6-C ) :   0.9602
B(  5-C ,  7-N ) :   0.8685 B(  5-C , 16-H ) :   0.9032 B(  6-C ,  7-N ) :   0.8821
B(  6-C , 17-H ) :   0.9278 B(  6-C , 18-H ) :   0.8814 B(  7-N ,  8-C ) :   0.9372
B(  8-C , 19-H ) :   0.9325

MP2 TOTAL ENERGY:     -402.354345873 Eh
FINAL SINGLE POINT ENERGY      -402.354345873017

DIPOLE MOMENT
-------------
                                X             Y             Z
Electronic contribution:     -1.57097      -2.77141       4.34225
Nuclear contribution   :      1.23547       2.80118      -5.13395
                        -----------------------------------------
Total Dipole Moment    :     -0.33550       0.02977      -0.79170
                        -----------------------------------------
Magnitude (a.u.)       :      0.86037
Magnitude (Debye)      :      2.18689

                             ****ORCA TERMINATED NORMALLY****
TOTAL RUN TIME: 0 days 0 hours 20 minutes 49 seconds 459 msec
