                         Program Version 3.0.3 - RELEASE   -
|  1> ! RI-MP2 RIJK def2-TZVP def2-TZVP/C def2-TZVP/JK TIGHTSCF
|  2> % maxcore 2000
|  3> % mp2 density relaxed end
|  4> *xyz 0 1
|  5>  C        0.4202921014     1.3347819183    -0.1195198078
|  6>  C       -0.1541791393    -0.0908072713     0.0178455021
|  7>  C       -1.6849151986    -0.0189897408     0.1400995853
|  8>  C        0.2942151082    -1.0024445751    -1.1708839366
|  9>  C        1.4420839530    -1.8661933566    -0.6298654593
| 10>  C        1.8676814220    -3.1493510067    -1.3030103726
| 11>  C        2.7910903517    -1.9598019742    -1.3195543004
| 12>  C        1.3523551844    -1.7342746276     0.8478385322
| 13>  C        0.4825049973    -0.7919303428     1.2075968603
| 14>  H        1.5054673156     1.3079491840    -0.2582150001
| 15>  H       -0.0226597025     1.8530869226    -0.9780026134
| 16>  H        0.2116088653     1.9323699531     0.7749857149
| 17>  H       -2.1293044734     0.4282324194    -0.7565714329
| 18>  H       -2.1172817507    -1.0160214780     0.2714849050
| 19>  H       -1.9845122411     0.5934616252     0.9982512192
| 20>  H       -0.5396393798    -1.6474263300    -1.4708270469
| 21>  H        0.5826020870    -0.4181108300    -2.0501941136
| 22>  H        2.1296583450    -3.9954987583    -0.6756211983
| 23>  H        1.3665051782    -3.4204741906    -2.2270978159
| 24>  H        2.9154590836    -1.4205460407    -2.2532622498
| 25>  H        3.6821071116    -1.9909021102    -0.7008288148
| 26>  H        1.9554186033    -2.3338580483     1.5222740394
| 27>  H        0.2620674979    -0.4949209714     2.2280983738
| 28> *
| 29>
| 30>                          ****END OF INPUT****

CARTESIAN COORDINATES (ANGSTROEM)
---------------------------------
  C      0.420292    1.334782   -0.119520
  C     -0.154179   -0.090807    0.017846
  C     -1.684915   -0.018990    0.140100
  C      0.294215   -1.002445   -1.170884
  C      1.442084   -1.866193   -0.629865
  C      1.867681   -3.149351   -1.303010
  C      2.791090   -1.959802   -1.319554
  C      1.352355   -1.734275    0.847839
  C      0.482505   -0.791930    1.207597
  H      1.505467    1.307949   -0.258215
  H     -0.022660    1.853087   -0.978003
  H      0.211609    1.932370    0.774986
  H     -2.129304    0.428232   -0.756571
  H     -2.117282   -1.016021    0.271485
  H     -1.984512    0.593462    0.998251
  H     -0.539639   -1.647426   -1.470827
  H      0.582602   -0.418111   -2.050194
  H      2.129658   -3.995499   -0.675621
  H      1.366505   -3.420474   -2.227098
  H      2.915459   -1.420546   -2.253262
  H      3.682107   -1.990902   -0.700829
  H      1.955419   -2.333858    1.522274
  H      0.262067   -0.494921    2.228098

 Total Charge           Charge          ....    0
 Multiplicity           Mult            ....    1
 Number of Electrons    NEL             ....   68
 Basis Dimension        Dim             ....  363

ORBITAL ENERGIES
----------------

  NO   OCC          E(Eh)            E(eV)
   0   2.0000     -11.234407      -305.7037
   1   2.0000     -11.234270      -305.7000
   2   2.0000     -11.221492      -305.3523
   3   2.0000     -11.220788      -305.3332
   4   2.0000     -11.220425      -305.3233
   5   2.0000     -11.216391      -305.2135
   6   2.0000     -11.214645      -305.1660
   7   2.0000     -11.209757      -305.0330
   8   2.0000     -11.209258      -305.0194
   9   2.0000      -1.166894       -31.7528
  10   2.0000      -1.100096       -29.9351
  11   2.0000      -1.006886       -27.3988
  12   2.0000      -0.937649       -25.5147
  13   2.0000      -0.926253       -25.2046
  14   2.0000      -0.833261       -22.6742
  15   2.0000      -0.820361       -22.3232
  16   2.0000      -0.740495       -20.1499
  17   2.0000      -0.715170       -19.4608
  18   2.0000      -0.661071       -17.9887
  19   2.0000      -0.628916       -17.1137
  20   2.0000      -0.605118       -16.4661
  21   2.0000      -0.598079       -16.2746
  22   2.0000      -0.580245       -15.7893
  23   2.0000      -0.554346       -15.0845
  24   2.0000      -0.539354       -14.6766
  25   2.0000      -0.520166       -14.1544
  26   2.0000      -0.510216       -13.8837
  27   2.0000      -0.481929       -13.1140
  28   2.0000      -0.470591       -12.8054
  29   2.0000      -0.468767       -12.7558
  30   2.0000      -0.450160       -12.2495
  31   2.0000      -0.434498       -11.8233
  32   2.0000      -0.409298       -11.1376
  33   2.0000      -0.322173        -8.7668
  34   0.0000       0.136793         3.7223
  35   0.0000       0.154462         4.2031
  36   0.0000       0.158189         4.3046
  37   0.0000       0.170174         4.6307
  38   0.0000       0.173646         4.7251

MULLIKEN ATOMIC CHARGES
-----------------------
   0 C :   -0.442601
   1 C :    0.258278
   2 C :   -0.425520
   3 C :   -0.304534
   4 C :    0.168001
   5 C :   -0.308554
   6 C :   -0.301493
   7 C :   -0.174489
   8 C :   -0.244811
   9 H :    0.140548
  10 H :    0.127150
  11 H :    0.126088
  12 H :    0.129911
  13 H :    0.133541
  14 H :    0.127235
  15 H :    0.118350
  16 H :    0.120051
  17 H :    0.127968
  18 H :    0.127300
  19 H :    0.124883
  20 H :    0.127918
  21 H :    0.123668
  22 H :    0.121109
Sum of atomic charges:   -0.0000000

LOEWDIN ATOMIC CHARGES
----------------------
   0 C :   -0.267345
   1 C :   -0.293014
   2 C :   -0.272777
   3 C :   -0.148075
   4 C :   -0.221286
   5 C :   -0.207548
   6 C :   -0.205258
   7 C :   -0.114816
   8 C :   -0.116075
   9 H :    0.128125
  10 H :    0.123205
  11 H :    0.124010
  12 H :    0.124860
  13 H :    0.125227
  14 H :    0.124251
  15 H :    0.144447
  16 H :    0.139959
  17 H :    0.132880
  18 H :    0.133872
  19 H :    0.132329
  20 H :    0.132206
  21 H :    0.141256
  22 H :    0.139567

  Mayer bond orders larger than 0.1
B(  0-C ,  1-C ) :   0.8802 B(  0-C ,  9-H ) :   0.9384 B(  0-C , 10-H ) :   0.9327
B(  0-C , 11-H ) :   0.9364 B(  1-C ,  2-C ) :   0.8922 B(  1-C ,  3-C ) :   0.9033
B(  1-C ,  8-C ) :   0.8987 B(  2-C , 12-H ) :   0.9365 B(  2-C , 13-H ) :   0.9371
B(  2-C , 14-H ) :   0.9377 B(  3-C ,  4-C ) :   0.9256 B(  3-C , 15-H ) :   0.9235
B(  3-C , 16-H ) :   0.9158 B(  4-C ,  5-C ) :   0.8461 B(  4-C ,  6-C ) :   0.8221
B(  4-C ,  7-C ) :   0.9357 B(  5-C ,  6-C ) :   0.9309 B(  5-C , 17-H ) :   0.9259
B(  5-C , 18-H ) :   0.9218 B(  6-C , 19-H ) :   0.9223 B(  6-C , 20-H ) :   0.9278
B(  7-C ,  8-C ) :   1.8125 B(  7-C , 21-H ) :   0.9118 B(  8-C , 22-H ) :   0.9230

MP2 TOTAL ENERGY:     -350.510134126 Eh
FINAL SINGLE POINT ENERGY      -350.510134126307

DIPOLE MOMENT
-------------
                                X             Y             Z
Electronic contribution:      2.31213      -3.13376       1.55481
Nuclear contribution   :     -2.30497       3.16283      -1.61980
                        -----------------------------------------
Total Dipole Moment    :      0.00716       0.02907      -0.06498
                        -----------------------------------------
Magnitude (a.u.)       :      0.07155
Magnitude (Debye)      :      0.18186

                             ****ORCA TERMINATED NORMALLY****
TOTAL RUN TIME: 0 days 0 hours 22 minutes 31 seconds 944 msec
