                         Program Version 3.0.3 - RELEASE   -
|  1> ! RI-MP2 RIJK def2-TZVP def2-TZVP/C def2-TZVP/JK TIGHTSCF
|  2> % maxcore 2000
|  3> % mp2 density relaxed end
|  4> *xyz 0 1
|  5>  C       -0.0052876993     1.4752139885    -0.0130370845
|  6>  C       -0.0168379380    -0.0269802491     0.0493981084
|  7>  N       -0.0301429786    -0.6436047395     1.1641752061
|  8>  N       -0.0063303164    -0.6724101187    -1.1925210482
|  9>  C       -0.0173930759    -2.1119341003    -1.5141688909
| 10>  C        0.0133700572    -1.7210722243    -3.0150129246
| 11>  O       -1.1033540806    -2.1759392456    -3.7310065677
| 12>  C       -0.0517389826    -0.2542540947    -2.5208959357
| 13>  O       -0.1456407184     0.8241185174    -3.0402613891
| 14>  H        0.8909520300     1.8357538344    -0.5268175191
| 15>  H       -0.8613780534     1.8481198509    -0.5818288438
| 16>  H       -0.0309105540     1.8635104434     1.0044690295
| 17>  H       -0.0396216983    -1.6576511729     1.0369863030
| 18>  H        0.8535416453    -2.6554945296    -1.1391768997
| 19>  H       -0.9431546996    -2.6166332774    -1.2263697790
| 20>  H        0.9625674740    -1.9623644845    -3.5125031879
| 21>  H       -1.2073230614    -1.6092565580    -4.5040462667
| 22> *
| 23>
| 24>                          ****END OF INPUT****

CARTESIAN COORDINATES (ANGSTROEM)
---------------------------------
  C     -0.005288    1.475214   -0.013037
  C     -0.016838   -0.026980    0.049398
  N     -0.030143   -0.643605    1.164175
  N     -0.006330   -0.672410   -1.192521
  C     -0.017393   -2.111934   -1.514169
  C      0.013370   -1.721072   -3.015013
  O     -1.103354   -2.175939   -3.731007
  C     -0.051739   -0.254254   -2.520896
  O     -0.145641    0.824119   -3.040261
  H      0.890952    1.835754   -0.526818
  H     -0.861378    1.848120   -0.581829
  H     -0.030911    1.863510    1.004469
  H     -0.039622   -1.657651    1.036986
  H      0.853542   -2.655495   -1.139177
  H     -0.943155   -2.616633   -1.226370
  H      0.962567   -1.962364   -3.512503
  H     -1.207323   -1.609257   -4.504046

 Total Charge           Charge          ....    0
 Multiplicity           Mult            ....    1
 Number of Electrons    NEL             ....   68
 Basis Dimension        Dim             ....  327

ORBITAL ENERGIES
----------------

  NO   OCC          E(Eh)            E(eV)
   0   2.0000     -20.593892      -560.3883
   1   2.0000     -20.559520      -559.4530
   2   2.0000     -15.620116      -425.0450
   3   2.0000     -15.543831      -422.9691
   4   2.0000     -11.378220      -309.6171
   5   2.0000     -11.333237      -308.3931
   6   2.0000     -11.326223      -308.2022
   7   2.0000     -11.298656      -307.4521
   8   2.0000     -11.230190      -305.5890
   9   2.0000      -1.426497       -38.8170
  10   2.0000      -1.397168       -38.0189
  11   2.0000      -1.317133       -35.8410
  12   2.0000      -1.207276       -32.8516
  13   2.0000      -1.045210       -28.4416
  14   2.0000      -0.980231       -26.6734
  15   2.0000      -0.922704       -25.1081
  16   2.0000      -0.842658       -22.9299
  17   2.0000      -0.748573       -20.3697
  18   2.0000      -0.733241       -19.9525
  19   2.0000      -0.708185       -19.2707
  20   2.0000      -0.703292       -19.1375
  21   2.0000      -0.649525       -17.6745
  22   2.0000      -0.634254       -17.2589
  23   2.0000      -0.605148       -16.4669
  24   2.0000      -0.588060       -16.0019
  25   2.0000      -0.571997       -15.5648
  26   2.0000      -0.561408       -15.2767
  27   2.0000      -0.549804       -14.9609
  28   2.0000      -0.539970       -14.6933
  29   2.0000      -0.498015       -13.5517
  30   2.0000      -0.481193       -13.0939
  31   2.0000      -0.459642       -12.5075
  32   2.0000      -0.419720       -11.4212
  33   2.0000      -0.384254       -10.4561
  34   0.0000       0.112497         3.0612
  35   0.0000       0.130763         3.5582
  36   0.0000       0.143320         3.8999
  37   0.0000       0.158230         4.3057
  38   0.0000       0.164225         4.4688

MULLIKEN ATOMIC CHARGES
-----------------------
   0 C :   -0.352486
   1 C :    0.098052
   2 N :   -0.353473
   3 N :   -0.064884
   4 C :   -0.195213
   5 C :    0.112626
   6 O :   -0.471145
   7 C :    0.128503
   8 O :   -0.303863
   9 H :    0.144665
  10 H :    0.152105
  11 H :    0.155800
  12 H :    0.207282
  13 H :    0.142126
  14 H :    0.148444
  15 H :    0.113849
  16 H :    0.337610
Sum of atomic charges:    0.0000000

LOEWDIN ATOMIC CHARGES
----------------------
   0 C :   -0.256956
   1 C :   -0.358806
   2 N :   -0.044467
   3 N :    0.242449
   4 C :   -0.194011
   5 C :   -0.291721
   6 O :   -0.002189
   7 C :   -0.390577
   8 O :    0.127981
   9 H :    0.138426
  10 H :    0.139286
  11 H :    0.138138
  12 H :    0.158136
  13 H :    0.128980
  14 H :    0.137294
  15 H :    0.137743
  16 H :    0.190294

  Mayer bond orders larger than 0.1
B(  0-C ,  1-C ) :   0.9258 B(  0-C ,  9-H ) :   0.9196 B(  0-C , 10-H ) :   0.9187
B(  0-C , 11-H ) :   0.9289 B(  1-C ,  2-N ) :   1.9904 B(  1-C ,  3-N ) :   1.0041
B(  2-N , 12-H ) :   0.8692 B(  3-N ,  4-C ) :   0.8811 B(  3-N ,  7-C ) :   1.0441
B(  4-C ,  5-C ) :   0.9117 B(  4-C , 13-H ) :   0.9149 B(  4-C , 14-H ) :   0.9121
B(  5-C ,  6-O ) :   0.9661 B(  5-C ,  7-C ) :   0.9212 B(  5-C , 15-H ) :   0.9228
B(  6-O , 16-H ) :   0.8317 B(  7-C ,  8-O ) :   1.9895

MP2 TOTAL ENERGY:     -454.430112308 Eh
FINAL SINGLE POINT ENERGY      -454.430112308429

DIPOLE MOMENT
-------------
                                X             Y             Z
Electronic contribution:     -0.56453      -0.57242      -3.51140
Nuclear contribution   :      0.91350      -0.15482       2.96025
                        -----------------------------------------
Total Dipole Moment    :      0.34897      -0.72724      -0.55116
                        -----------------------------------------
Magnitude (a.u.)       :      0.97695
Magnitude (Debye)      :      2.48321

                             ****ORCA TERMINATED NORMALLY****
TOTAL RUN TIME: 0 days 0 hours 15 minutes 56 seconds 669 msec
