                         Program Version 3.0.3 - RELEASE   -
|  1> ! RI-MP2 RIJK def2-TZVP def2-TZVP/C def2-TZVP/JK TIGHTSCF
|  2> % maxcore 2000
|  3> % mp2 density relaxed end
|  4> *xyz 0 1
|  5>  C       -0.2252454032     1.4851967970     0.0110244963
|  6>  C        0.0683092965    -0.0192542720    -0.0780510903
|  7>  C        0.9206839057    -0.3301054987    -1.3168244706
|  8>  C        0.7307515056    -0.5220353606     1.2064803879
|  9>  C       -0.1035122930    -0.4787878722     2.5424448648
| 10>  C        0.0947732831    -1.9914720966     2.6598785483
| 11>  O       -0.4548320011    -2.5864998273     1.4738507527
| 12>  C        0.8796935757    -2.0537419029     1.4147240234
| 13>  C        1.9826150899    -2.9664501504     0.9831485651
| 14>  H        0.7038940677     2.0614750391     0.1009362181
| 15>  H       -0.7460786543     1.8366037048    -0.8858928461
| 16>  H       -0.8507472502     1.7267231368     0.8761373284
| 17>  H       -0.8854692474    -0.5533312088    -0.1748486573
| 18>  H        1.9078933838     0.1430387637    -1.2453438592
| 19>  H        1.0726696484    -1.4055500950    -1.4465807625
| 20>  H        0.4404690068     0.0467436574    -2.2260804143
| 21>  H        1.6983834728    -0.0248748964     1.3499820950
| 22>  H        0.3875847480     0.0917298578     3.3343508445
| 23>  H       -1.1458556487    -0.1599614277     2.4570898116
| 24>  H        0.1299614798    -2.6134750280     3.5478687528
| 25>  H        1.9547108766    -3.1447515653    -0.0970979429
| 26>  H        2.9591055547    -2.5343935927     1.2254311763
| 27>  H        1.8919636229    -3.9330741317     1.4866070179
| 28> *
| 29>
| 30>                          ****END OF INPUT****

CARTESIAN COORDINATES (ANGSTROEM)
---------------------------------
  C     -0.225245    1.485197    0.011024
  C      0.068309   -0.019254   -0.078051
  C      0.920684   -0.330105   -1.316824
  C      0.730752   -0.522035    1.206480
  C     -0.103512   -0.478788    2.542445
  C      0.094773   -1.991472    2.659879
  O     -0.454832   -2.586500    1.473851
  C      0.879694   -2.053742    1.414724
  C      1.982615   -2.966450    0.983149
  H      0.703894    2.061475    0.100936
  H     -0.746079    1.836604   -0.885893
  H     -0.850747    1.726723    0.876137
  H     -0.885469   -0.553331   -0.174849
  H      1.907893    0.143039   -1.245344
  H      1.072670   -1.405550   -1.446581
  H      0.440469    0.046744   -2.226080
  H      1.698383   -0.024875    1.349982
  H      0.387585    0.091730    3.334351
  H     -1.145856   -0.159961    2.457090
  H      0.129961   -2.613475    3.547869
  H      1.954711   -3.144752   -0.097098
  H      2.959106   -2.534394    1.225431
  H      1.891964   -3.933074    1.486607

 Total Charge           Charge          ....    0
 Multiplicity           Mult            ....    1
 Number of Electrons    NEL             ....   70
 Basis Dimension        Dim             ....  363

ORBITAL ENERGIES
----------------

  NO   OCC          E(Eh)            E(eV)
   0   2.0000     -20.557242      -559.3910
   1   2.0000     -11.283482      -307.0391
   2   2.0000     -11.276740      -306.8557
   3   2.0000     -11.232622      -305.6552
   4   2.0000     -11.227296      -305.5103
   5   2.0000     -11.225641      -305.4652
   6   2.0000     -11.222056      -305.3677
   7   2.0000     -11.210300      -305.0478
   8   2.0000     -11.210161      -305.0440
   9   2.0000      -1.408651       -38.3313
  10   2.0000      -1.104434       -30.0532
  11   2.0000      -1.038464       -28.2580
  12   2.0000      -1.000756       -27.2320
  13   2.0000      -0.925923       -25.1956
  14   2.0000      -0.891817       -24.2676
  15   2.0000      -0.839338       -22.8396
  16   2.0000      -0.785160       -21.3653
  17   2.0000      -0.731297       -19.8996
  18   2.0000      -0.680223       -18.5098
  19   2.0000      -0.632321       -17.2063
  20   2.0000      -0.616935       -16.7877
  21   2.0000      -0.601171       -16.3587
  22   2.0000      -0.582523       -15.8512
  23   2.0000      -0.561377       -15.2758
  24   2.0000      -0.557712       -15.1761
  25   2.0000      -0.548822       -14.9342
  26   2.0000      -0.532100       -14.4792
  27   2.0000      -0.520339       -14.1591
  28   2.0000      -0.504083       -13.7168
  29   2.0000      -0.484173       -13.1750
  30   2.0000      -0.473657       -12.8889
  31   2.0000      -0.456500       -12.4220
  32   2.0000      -0.445792       -12.1306
  33   2.0000      -0.422604       -11.4996
  34   2.0000      -0.382433       -10.4065
  35   0.0000       0.134701         3.6654
  36   0.0000       0.154338         4.1997
  37   0.0000       0.162170         4.4129
  38   0.0000       0.172938         4.7059
  39   0.0000       0.189135         5.1466

MULLIKEN ATOMIC CHARGES
-----------------------
   0 C :   -0.388732
   1 C :   -0.079330
   2 C :   -0.417516
   3 C :   -0.050686
   4 C :   -0.181435
   5 C :   -0.074941
   6 O :   -0.338329
   7 C :    0.192719
   8 C :   -0.409865
   9 H :    0.117166
  10 H :    0.131462
  11 H :    0.130303
  12 H :    0.107867
  13 H :    0.119356
  14 H :    0.129630
  15 H :    0.132920
  16 H :    0.101782
  17 H :    0.117406
  18 H :    0.115767
  19 H :    0.129823
  20 H :    0.135283
  21 H :    0.134376
  22 H :    0.144973
Sum of atomic charges:    0.0000000

LOEWDIN ATOMIC CHARGES
----------------------
   0 C :   -0.291943
   1 C :   -0.290942
   2 C :   -0.290064
   3 C :   -0.167400
   4 C :   -0.196677
   5 C :   -0.229269
   6 O :    0.183091
   7 C :   -0.283619
   8 C :   -0.273056
   9 H :    0.122175
  10 H :    0.122980
  11 H :    0.122143
  12 H :    0.157321
  13 H :    0.122457
  14 H :    0.121715
  15 H :    0.123771
  16 H :    0.153482
  17 H :    0.134743
  18 H :    0.133661
  19 H :    0.128399
  20 H :    0.128961
  21 H :    0.132624
  22 H :    0.135447

  Mayer bond orders larger than 0.1
B(  0-C ,  1-C ) :   0.9098 B(  0-C ,  9-H ) :   0.9308 B(  0-C , 10-H ) :   0.9416
B(  0-C , 11-H ) :   0.9404 B(  1-C ,  2-C ) :   0.9128 B(  1-C ,  3-C ) :   0.8753
B(  1-C , 12-H ) :   0.9283 B(  2-C , 13-H ) :   0.9327 B(  2-C , 14-H ) :   0.9408
B(  2-C , 15-H ) :   0.9410 B(  3-C ,  4-C ) :   0.9699 B(  3-C ,  7-C ) :   0.9057
B(  3-C , 16-H ) :   0.9092 B(  4-C ,  5-C ) :   0.9122 B(  4-C , 17-H ) :   0.9064
B(  4-C , 18-H ) :   0.9077 B(  5-C ,  6-O ) :   0.9230 B(  5-C ,  7-C ) :   0.8678
B(  5-C , 19-H ) :   0.9338 B(  6-O ,  7-C ) :   0.8644 B(  7-C ,  8-C ) :   0.8696
B(  8-C , 20-H ) :   0.9338 B(  8-C , 21-H ) :   0.9408 B(  8-C , 22-H ) :   0.9402

MP2 TOTAL ENERGY:     -387.590357484 Eh
FINAL SINGLE POINT ENERGY      -387.590357484007

DIPOLE MOMENT
-------------
                                X             Y             Z
Electronic contribution:     -2.65427      -5.52323       5.07252
Nuclear contribution   :      3.24026       5.82846      -4.80740
                        -----------------------------------------
Total Dipole Moment    :      0.58599       0.30523       0.26513
                        -----------------------------------------
Magnitude (a.u.)       :      0.71193
Magnitude (Debye)      :      1.80957

                             ****ORCA TERMINATED NORMALLY****
TOTAL RUN TIME: 0 days 0 hours 22 minutes 13 seconds 448 msec
