                         Program Version 3.0.3 - RELEASE   -
|  1> ! RI-MP2 RIJK def2-TZVP def2-TZVP/C def2-TZVP/JK TIGHTSCF
|  2> % maxcore 2000
|  3> % mp2 density relaxed end
|  4> *xyz 0 1
|  5>  C        0.0321123371     1.5191185147    -0.0239692542
|  6>  C       -0.0023243962     0.0128333319    -0.0131665349
|  7>  C       -1.1784612707    -0.6854037279     0.0076958716
|  8>  C       -2.5344768370    -0.0420229453     0.0213141430
|  9>  C       -1.1409832540    -2.1475850770     0.0148028995
| 10>  O       -2.1051278317    -2.8985855465     0.0305048227
| 11>  N        0.1538574765    -2.6689760268     0.0022838681
| 12>  N        1.3182083962    -2.0123018935    -0.0181127594
| 13>  C        1.2319847847    -0.7135429042    -0.0254371682
| 14>  H        1.0568272299     1.8950121972    -0.0712804238
| 15>  H       -0.5177267237     1.9220058091    -0.8815243379
| 16>  H       -0.4382759274     1.9322306257     0.8755049145
| 17>  H       -2.7120004447     0.5323668351    -0.8960932857
| 18>  H       -3.3013835087    -0.8128069649     0.1025693636
| 19>  H       -2.6379547409     0.6568532463     0.8591045750
| 20>  H        0.2250948683    -3.6780774024     0.0067649111
| 21>  H        2.1790283923    -0.1842153016    -0.0426551250
| 22> *
| 23>
| 24>                          ****END OF INPUT****

CARTESIAN COORDINATES (ANGSTROEM)
---------------------------------
  C      0.032112    1.519119   -0.023969
  C     -0.002324    0.012833   -0.013167
  C     -1.178461   -0.685404    0.007696
  C     -2.534477   -0.042023    0.021314
  C     -1.140983   -2.147585    0.014803
  O     -2.105128   -2.898586    0.030505
  N      0.153857   -2.668976    0.002284
  N      1.318208   -2.012302   -0.018113
  C      1.231985   -0.713543   -0.025437
  H      1.056827    1.895012   -0.071280
  H     -0.517727    1.922006   -0.881524
  H     -0.438276    1.932231    0.875505
  H     -2.712000    0.532367   -0.896093
  H     -3.301384   -0.812807    0.102569
  H     -2.637955    0.656853    0.859105
  H      0.225095   -3.678077    0.006765
  H      2.179028   -0.184215   -0.042655

 Total Charge           Charge          ....    0
 Multiplicity           Mult            ....    1
 Number of Electrons    NEL             ....   66
 Basis Dimension        Dim             ....  327

ORBITAL ENERGIES
----------------

  NO   OCC          E(Eh)            E(eV)
   0   2.0000     -20.513544      -558.2019
   1   2.0000     -15.640013      -425.5864
   2   2.0000     -15.634558      -425.4380
   3   2.0000     -11.355997      -309.0124
   4   2.0000     -11.283646      -307.0436
   5   2.0000     -11.278890      -306.9142
   6   2.0000     -11.264209      -306.5147
   7   2.0000     -11.250556      -306.1432
   8   2.0000     -11.230687      -305.6025
   9   2.0000      -1.399747       -38.0891
  10   2.0000      -1.343843       -36.5678
  11   2.0000      -1.148756       -31.2592
  12   2.0000      -1.115891       -30.3649
  13   2.0000      -1.014211       -27.5981
  14   2.0000      -0.962240       -26.1839
  15   2.0000      -0.867146       -23.5962
  16   2.0000      -0.853963       -23.2375
  17   2.0000      -0.742082       -20.1931
  18   2.0000      -0.739045       -20.1104
  19   2.0000      -0.638881       -17.3848
  20   2.0000      -0.638793       -17.3824
  21   2.0000      -0.625736       -17.0271
  22   2.0000      -0.596325       -16.2268
  23   2.0000      -0.586587       -15.9618
  24   2.0000      -0.572896       -15.5893
  25   2.0000      -0.568302       -15.4643
  26   2.0000      -0.562946       -15.3185
  27   2.0000      -0.530363       -14.4319
  28   2.0000      -0.511198       -13.9104
  29   2.0000      -0.489043       -13.3075
  30   2.0000      -0.418968       -11.4007
  31   2.0000      -0.409789       -11.1509
  32   2.0000      -0.333564        -9.0767
  33   0.0000       0.069893         1.9019
  34   0.0000       0.122749         3.3402
  35   0.0000       0.148307         4.0356
  36   0.0000       0.153749         4.1837
  37   0.0000       0.164750         4.4831

MULLIKEN ATOMIC CHARGES
-----------------------
   0 C :   -0.408940
   1 C :    0.098413
   2 C :   -0.036572
   3 C :   -0.438632
   4 C :    0.207330
   5 O :   -0.375151
   6 N :   -0.100778
   7 N :   -0.154103
   8 C :   -0.112825
   9 H :    0.143103
  10 H :    0.150801
  11 H :    0.153056
  12 H :    0.145615
  13 H :    0.190718
  14 H :    0.141155
  15 H :    0.261161
  16 H :    0.135648
Sum of atomic charges:    0.0000000

LOEWDIN ATOMIC CHARGES
----------------------
   0 C :   -0.254040
   1 C :   -0.152837
   2 C :   -0.107910
   3 C :   -0.254305
   4 C :   -0.427732
   5 O :    0.060029
   6 N :    0.134796
   7 N :    0.062552
   8 C :   -0.227093
   9 H :    0.132158
  10 H :    0.137156
  11 H :    0.137337
  12 H :    0.136655
  13 H :    0.144890
  14 H :    0.134894
  15 H :    0.197693
  16 H :    0.145757

  Mayer bond orders larger than 0.1
B(  0-C ,  1-C ) :   0.8847 B(  0-C ,  9-H ) :   0.9397 B(  0-C , 10-H ) :   0.9316
B(  0-C , 11-H ) :   0.9338 B(  1-C ,  2-C ) :   1.4404 B(  1-C ,  8-C ) :   1.1268
B(  2-C ,  3-C ) :   0.9104 B(  2-C ,  4-C ) :   1.0345 B(  3-C , 12-H ) :   0.9298
B(  3-C , 13-H ) :   0.9267 B(  3-C , 14-H ) :   0.9300 B(  4-C ,  5-O ) :   1.9432
B(  4-C ,  6-N ) :   1.1017 B(  6-N ,  7-N ) :   0.9999 B(  6-N , 15-H ) :   0.8568
B(  7-N ,  8-C ) :   1.6387 B(  8-C , 16-H ) :   0.9446

MP2 TOTAL ENERGY:     -417.346417651 Eh
FINAL SINGLE POINT ENERGY      -417.346417651008

DIPOLE MOMENT
-------------
                                X             Y             Z
Electronic contribution:      2.55687      -8.93057       0.02775
Nuclear contribution   :     -2.00380      10.20616      -0.04388
                        -----------------------------------------
Total Dipole Moment    :      0.55308       1.27560      -0.01613
                        -----------------------------------------
Magnitude (a.u.)       :      1.39043
Magnitude (Debye)      :      3.53419

                             ****ORCA TERMINATED NORMALLY****
TOTAL RUN TIME: 0 days 0 hours 16 minutes 49 seconds 679 msec
