                         Program Version 3.0.3 - RELEASE   -
|  1> ! RI-MP2 RIJK def2-TZVP def2-TZVP/C def2-TZVP/JK TIGHTSCF
|  2> % maxcore 2000
|  3> % mp2 density relaxed end
|  4> *xyz 0 1
|  5>  C        0.0139010481     1.3941660966     0.3927337065
|  6>  N       -0.0252140162    -0.0499308383     0.2688247508
|  7>  C       -1.1265789711    -0.6360042310    -0.0311998879
|  8>  C       -2.3863137914     0.0180150736    -0.4190128207
|  9>  C       -3.6282528823    -0.5074052529    -0.3918290134
| 10>  N       -4.1149076738    -1.6891635894     0.1765263018
| 11>  N       -3.4595670597    -2.7614022670     0.2954546761
| 12>  C       -2.1360823417    -2.9543987495    -0.1081633867
| 13>  C       -1.0993471915    -2.0916829841    -0.1782145176
| 14>  H        0.1983969730     1.8584256322    -0.5873977280
| 15>  H       -0.8991326291     1.8401844629     0.8108171093
| 16>  H        0.8536227084     1.6697382888     1.0367438351
| 17>  H       -2.3053834255     1.0375655125    -0.7865493690
| 18>  H       -4.4536013414     0.1149838388    -0.7285345840
| 19>  H       -1.9241237302    -4.0146631285    -0.2141162458
| 20>  H       -0.1045044957    -2.5081889846    -0.3158375965
| 21> *
| 22>
| 23>                          ****END OF INPUT****

CARTESIAN COORDINATES (ANGSTROEM)
---------------------------------
  C      0.013901    1.394166    0.392734
  N     -0.025214   -0.049931    0.268825
  C     -1.126579   -0.636004   -0.031200
  C     -2.386314    0.018015   -0.419013
  C     -3.628253   -0.507405   -0.391829
  N     -4.114908   -1.689164    0.176526
  N     -3.459567   -2.761402    0.295455
  C     -2.136082   -2.954399   -0.108163
  C     -1.099347   -2.091683   -0.178215
  H      0.198397    1.858426   -0.587398
  H     -0.899133    1.840184    0.810817
  H      0.853623    1.669738    1.036744
  H     -2.305383    1.037566   -0.786549
  H     -4.453601    0.114984   -0.728535
  H     -1.924124   -4.014663   -0.214116
  H     -0.104504   -2.508189   -0.315838

 Total Charge           Charge          ....    0
 Multiplicity           Mult            ....    1
 Number of Electrons    NEL             ....   64
 Basis Dimension        Dim             ....  321

ORBITAL ENERGIES
----------------

  NO   OCC          E(Eh)            E(eV)
   0   2.0000     -15.642763      -425.6612
   1   2.0000     -15.638926      -425.5568
   2   2.0000     -15.564910      -423.5427
   3   2.0000     -11.304997      -307.6246
   4   2.0000     -11.296094      -307.3823
   5   2.0000     -11.286228      -307.1139
   6   2.0000     -11.273995      -306.7810
   7   2.0000     -11.270760      -306.6930
   8   2.0000     -11.255332      -306.2732
   9   2.0000      -1.371967       -37.3331
  10   2.0000      -1.246978       -33.9320
  11   2.0000      -1.122923       -30.5563
  12   2.0000      -1.095796       -29.8181
  13   2.0000      -0.978437       -26.6246
  14   2.0000      -0.958916       -26.0934
  15   2.0000      -0.883908       -24.0524
  16   2.0000      -0.775577       -21.1045
  17   2.0000      -0.759341       -20.6627
  18   2.0000      -0.710901       -19.3446
  19   2.0000      -0.649432       -17.6720
  20   2.0000      -0.637998       -17.3608
  21   2.0000      -0.629435       -17.1278
  22   2.0000      -0.603664       -16.4265
  23   2.0000      -0.586618       -15.9627
  24   2.0000      -0.585452       -15.9310
  25   2.0000      -0.540940       -14.7197
  26   2.0000      -0.508532       -13.8379
  27   2.0000      -0.473045       -12.8722
  28   2.0000      -0.429605       -11.6902
  29   2.0000      -0.416459       -11.3324
  30   2.0000      -0.389029       -10.5860
  31   2.0000      -0.338094        -9.2000
  32   0.0000       0.037234         1.0132
  33   0.0000       0.068922         1.8755
  34   0.0000       0.135557         3.6887
  35   0.0000       0.163834         4.4581
  36   0.0000       0.169613         4.6154

MULLIKEN ATOMIC CHARGES
-----------------------
   0 C :   -0.319867
   1 N :   -0.193616
   2 C :    0.136444
   3 C :   -0.210067
   4 C :   -0.045370
   5 N :   -0.103855
   6 N :   -0.101662
   7 C :   -0.034066
   8 C :   -0.132302
   9 H :    0.145486
  10 H :    0.125279
  11 H :    0.153146
  12 H :    0.149499
  13 H :    0.143647
  14 H :    0.143716
  15 H :    0.143587
Sum of atomic charges:   -0.0000000

LOEWDIN ATOMIC CHARGES
----------------------
   0 C :   -0.339604
   1 N :    0.106937
   2 C :   -0.263920
   3 C :   -0.103219
   4 C :   -0.214836
   5 N :    0.068214
   6 N :    0.069484
   7 C :   -0.220595
   8 C :   -0.084767
   9 H :    0.121401
  10 H :    0.110371
  11 H :    0.120574
  12 H :    0.161996
  13 H :    0.151389
  14 H :    0.151500
  15 H :    0.165076

  Mayer bond orders larger than 0.1
B(  0-C ,  1-N ) :   0.8862 B(  0-C ,  9-H ) :   0.9198 B(  0-C , 10-H ) :   0.9276
B(  0-C , 11-H ) :   0.9410 B(  1-N ,  2-C ) :   1.8359 B(  2-C ,  3-C ) :   0.9732
B(  2-C ,  8-C ) :   1.0014 B(  3-C ,  4-C ) :   1.5694 B(  3-C , 12-H ) :   0.9101
B(  4-C ,  5-N ) :   1.1624 B(  4-C , 13-H ) :   0.9349 B(  5-N ,  6-N ) :   1.4092
B(  6-N ,  7-C ) :   1.1554 B(  7-C ,  8-C ) :   1.5699 B(  7-C , 14-H ) :   0.9376
B(  8-C , 15-H ) :   0.9068

MP2 TOTAL ENERGY:     -396.164973668 Eh
FINAL SINGLE POINT ENERGY      -396.164973668166

DIPOLE MOMENT
-------------
                                X             Y             Z
Electronic contribution:     -4.48193      -5.71970       0.14500
Nuclear contribution   :      4.87981       6.51788      -0.77298
                        -----------------------------------------
Total Dipole Moment    :      0.39788       0.79818      -0.62798
                        -----------------------------------------
Magnitude (a.u.)       :      1.09076
Magnitude (Debye)      :      2.77249

                             ****ORCA TERMINATED NORMALLY****
TOTAL RUN TIME: 0 days 0 hours 17 minutes 49 seconds 371 msec
