                         Program Version 3.0.3 - RELEASE   -
|  1> ! RI-MP2 RIJK def2-TZVP def2-TZVP/C def2-TZVP/JK TIGHTSCF
|  2> % maxcore 2000
|  3> % mp2 density relaxed end
|  4> *xyz 0 1
|  5>  O        0.0514521251     0.3683108521    -1.0170420290
|  6>  C       -0.0170503481     1.2451212469    -0.1924147413
|  7>  C       -1.3432037802     1.8990565481     0.1921072158
|  8>  C       -1.2250313958     2.7914740142     1.4310133230
|  9>  N       -0.0821630081     3.6819369325     1.2965418021
| 10>  C        1.1558309587     3.2660217981     0.8922551987
| 11>  O        2.1202465551     4.0005008475     0.8370404834
| 12>  C        1.2161192149     1.7830066429     0.5269302250
| 13>  H       -1.6540086351     2.5038928466    -0.6688919348
| 14>  H       -2.0968400182     1.1175948729     0.3236154688
| 15>  H       -2.1240513486     3.4017505662     1.5446103509
| 16>  H       -1.1444219814     2.1734378705     2.3380012399
| 17>  H       -0.1408919946     4.6352245441     1.6204335352
| 18>  H        1.3003830601     1.2195854913     1.4692993101
| 19>  H        2.1156486460     1.5829712361    -0.0543999877
| 20> *
| 21>
| 22>                          ****END OF INPUT****

CARTESIAN COORDINATES (ANGSTROEM)
---------------------------------
  O      0.051452    0.368311   -1.017042
  C     -0.017050    1.245121   -0.192415
  C     -1.343204    1.899057    0.192107
  C     -1.225031    2.791474    1.431013
  N     -0.082163    3.681937    1.296542
  C      1.155831    3.266022    0.892255
  O      2.120247    4.000501    0.837040
  C      1.216119    1.783007    0.526930
  H     -1.654009    2.503893   -0.668892
  H     -2.096840    1.117595    0.323615
  H     -2.124051    3.401751    1.544610
  H     -1.144422    2.173438    2.338001
  H     -0.140892    4.635225    1.620434
  H      1.300383    1.219585    1.469299
  H      2.115649    1.582971   -0.054400

 Total Charge           Charge          ....    0
 Multiplicity           Mult            ....    1
 Number of Electrons    NEL             ....   60
 Basis Dimension        Dim             ....  290

ORBITAL ENERGIES
----------------

  NO   OCC          E(Eh)            E(eV)
   0   2.0000     -20.560195      -559.4714
   1   2.0000     -20.528059      -558.5969
   2   2.0000     -15.597853      -424.4392
   3   2.0000     -11.364721      -309.2498
   4   2.0000     -11.351442      -308.8885
   5   2.0000     -11.299818      -307.4837
   6   2.0000     -11.260374      -306.4103
   7   2.0000     -11.260297      -306.4083
   8   2.0000      -1.406724       -38.2789
   9   2.0000      -1.393704       -37.9246
  10   2.0000      -1.255859       -34.1737
  11   2.0000      -1.075171       -29.2569
  12   2.0000      -1.041285       -28.3348
  13   2.0000      -0.912804       -24.8387
  14   2.0000      -0.820033       -22.3142
  15   2.0000      -0.757090       -20.6015
  16   2.0000      -0.707697       -19.2574
  17   2.0000      -0.685880       -18.6638
  18   2.0000      -0.683927       -18.6106
  19   2.0000      -0.641607       -17.4590
  20   2.0000      -0.613517       -16.6946
  21   2.0000      -0.604835       -16.4584
  22   2.0000      -0.593759       -16.1570
  23   2.0000      -0.579769       -15.7763
  24   2.0000      -0.555394       -15.1130
  25   2.0000      -0.528021       -14.3682
  26   2.0000      -0.501863       -13.6564
  27   2.0000      -0.441376       -12.0105
  28   2.0000      -0.419208       -11.4072
  29   2.0000      -0.406660       -11.0658
  30   0.0000       0.111483         3.0336
  31   0.0000       0.117327         3.1926
  32   0.0000       0.148816         4.0495
  33   0.0000       0.156184         4.2500
  34   0.0000       0.162391         4.4189

MULLIKEN ATOMIC CHARGES
-----------------------
   0 O :   -0.268850
   1 C :    0.111718
   2 C :   -0.182407
   3 C :   -0.164058
   4 N :   -0.293924
   5 C :    0.181965
   6 O :   -0.334886
   7 C :   -0.170461
   8 H :    0.141766
   9 H :    0.147353
  10 H :    0.145051
  11 H :    0.128945
  12 H :    0.244684
  13 H :    0.145118
  14 H :    0.167987
Sum of atomic charges:    0.0000000

LOEWDIN ATOMIC CHARGES
----------------------
   0 O :    0.160455
   1 C :   -0.322209
   2 C :   -0.230160
   3 C :   -0.275946
   4 N :    0.109662
   5 C :   -0.457486
   6 O :    0.089680
   7 C :   -0.187645
   8 H :    0.160903
   9 H :    0.154629
  10 H :    0.139983
  11 H :    0.132528
  12 H :    0.189750
  13 H :    0.172684
  14 H :    0.163172

  Mayer bond orders larger than 0.1
B(  0-O ,  1-C ) :   2.0017 B(  1-C ,  2-C ) :   0.8830 B(  1-C ,  7-C ) :   0.8877
B(  2-C ,  3-C ) :   0.9172 B(  2-C ,  8-H ) :   0.8997 B(  2-C ,  9-H ) :   0.9152
B(  3-C ,  4-N ) :   0.9083 B(  3-C , 10-H ) :   0.9241 B(  3-C , 11-H ) :   0.9360
B(  4-N ,  5-C ) :   1.1581 B(  4-N , 12-H ) :   0.8601 B(  5-C ,  6-O ) :   2.0015
B(  5-C ,  7-C ) :   0.8992 B(  7-C , 13-H ) :   0.8844 B(  7-C , 14-H ) :   0.9099

MP2 TOTAL ENERGY:     -399.210595510 Eh
FINAL SINGLE POINT ENERGY      -399.210595509527

DIPOLE MOMENT
-------------
                                X             Y             Z
Electronic contribution:      3.57452       0.23451      -1.91773
Nuclear contribution   :     -5.07200      -0.07849       2.89426
                        -----------------------------------------
Total Dipole Moment    :     -1.49748       0.15601       0.97653
                        -----------------------------------------
Magnitude (a.u.)       :      1.79455
Magnitude (Debye)      :      4.56139

                             ****ORCA TERMINATED NORMALLY****
TOTAL RUN TIME: 0 days 0 hours 11 minutes 44 seconds 9 msec
