                         Program Version 3.0.3 - RELEASE   -
|  1> ! RI-MP2 RIJK def2-TZVP def2-TZVP/C def2-TZVP/JK TIGHTSCF
|  2> % maxcore 2000
|  3> % mp2 density relaxed end
|  4> *xyz 0 1
|  5>  C        0.0835047078     1.4906202073     0.0403363952
|  6>  C       -0.0150780795     0.0003935207    -0.0227136842
|  7>  C       -0.0723668058    -0.7656151106    -1.1180171471
|  8>  C       -0.0703771212    -2.2136521195    -0.7727498180
|  9>  N        1.1595556145    -2.6344163416    -0.0546781841
| 10>  C       -0.0594035199    -2.2820935786     0.7289305913
| 11>  C       -0.0387660172    -0.8400711544     1.2440440058
| 12>  C       -0.7345415820    -3.3061790737     1.4639143111
| 13>  C       -1.2894527415    -4.1606795764     2.1048454977
| 14>  H        1.0197486020     1.8044618481     0.5190390260
| 15>  H        0.0470000636     1.9387808301    -0.9561080178
| 16>  H       -0.7309769462     1.9171107250     0.6398180285
| 17>  H       -0.0731973326    -0.4006619314    -2.1384437622
| 18>  H       -0.5993881408    -2.9470122386    -1.3717012322
| 19>  H        1.2187636616    -3.6523353421    -0.0778809554
| 20>  H        0.8376983848    -0.6561655608     1.8761066557
| 21>  H       -0.9268622672    -0.6268069767     1.8521100828
| 22>  H       -1.7824861505    -4.9166401169     2.6640042268
| 23> *
| 24>
| 25>                          ****END OF INPUT****

CARTESIAN COORDINATES (ANGSTROEM)
---------------------------------
  C      0.083505    1.490620    0.040336
  C     -0.015078    0.000394   -0.022714
  C     -0.072367   -0.765615   -1.118017
  C     -0.070377   -2.213652   -0.772750
  N      1.159556   -2.634416   -0.054678
  C     -0.059404   -2.282094    0.728931
  C     -0.038766   -0.840071    1.244044
  C     -0.734542   -3.306179    1.463914
  C     -1.289453   -4.160680    2.104845
  H      1.019749    1.804462    0.519039
  H      0.047000    1.938781   -0.956108
  H     -0.730977    1.917111    0.639818
  H     -0.073197   -0.400662   -2.138444
  H     -0.599388   -2.947012   -1.371701
  H      1.218764   -3.652335   -0.077881
  H      0.837698   -0.656166    1.876107
  H     -0.926862   -0.626807    1.852110
  H     -1.782486   -4.916640    2.664004

 Total Charge           Charge          ....    0
 Multiplicity           Mult            ....    1
 Number of Electrons    NEL             ....   64
 Basis Dimension        Dim             ....  333

ORBITAL ENERGIES
----------------

  NO   OCC          E(Eh)            E(eV)
   0   2.0000     -15.566545      -423.5872
   1   2.0000     -11.285891      -307.1047
   2   2.0000     -11.269971      -306.6715
   3   2.0000     -11.240849      -305.8791
   4   2.0000     -11.240056      -305.8575
   5   2.0000     -11.235534      -305.7344
   6   2.0000     -11.230293      -305.5918
   7   2.0000     -11.226414      -305.4863
   8   2.0000     -11.220890      -305.3359
   9   2.0000      -1.280519       -34.8447
  10   2.0000      -1.103021       -30.0147
  11   2.0000      -1.044711       -28.4280
  12   2.0000      -0.975844       -26.5541
  13   2.0000      -0.967443       -26.3255
  14   2.0000      -0.875317       -23.8186
  15   2.0000      -0.819808       -22.3081
  16   2.0000      -0.747535       -20.3415
  17   2.0000      -0.718264       -19.5450
  18   2.0000      -0.700037       -19.0490
  19   2.0000      -0.629948       -17.1418
  20   2.0000      -0.599358       -16.3094
  21   2.0000      -0.589513       -16.0415
  22   2.0000      -0.559745       -15.2314
  23   2.0000      -0.550673       -14.9846
  24   2.0000      -0.543568       -14.7912
  25   2.0000      -0.509602       -13.8670
  26   2.0000      -0.492019       -13.3885
  27   2.0000      -0.479092       -13.0367
  28   2.0000      -0.434452       -11.8220
  29   2.0000      -0.396313       -10.7842
  30   2.0000      -0.361108        -9.8263
  31   2.0000      -0.332424        -9.0457
  32   0.0000       0.136893         3.7250
  33   0.0000       0.142733         3.8840
  34   0.0000       0.152706         4.1553
  35   0.0000       0.165231         4.4962
  36   0.0000       0.166896         4.5415

MULLIKEN ATOMIC CHARGES
-----------------------
   0 C :   -0.431435
   1 C :   -0.034909
   2 C :   -0.180331
   3 C :   -0.018776
   4 N :   -0.374525
   5 C :   -0.090957
   6 C :   -0.171984
   7 C :    0.054263
   8 C :   -0.115510
   9 H :    0.145084
  10 H :    0.137964
  11 H :    0.137980
  12 H :    0.130435
  13 H :    0.141669
  14 H :    0.221341
  15 H :    0.129155
  16 H :    0.126968
  17 H :    0.193571
Sum of atomic charges:    0.0000000

LOEWDIN ATOMIC CHARGES
----------------------
   0 C :   -0.272200
   1 C :   -0.166997
   2 C :   -0.123861
   3 C :   -0.196129
   4 N :    0.045317
   5 C :   -0.250041
   6 C :   -0.150618
   7 C :   -0.080052
   8 C :   -0.087543
   9 H :    0.133780
  10 H :    0.131238
  11 H :    0.131500
  12 H :    0.140690
  13 H :    0.140910
  14 H :    0.173023
  15 H :    0.152570
  16 H :    0.150684
  17 H :    0.127728

  Mayer bond orders larger than 0.1
B(  0-C ,  1-C ) :   0.8875 B(  0-C ,  9-H ) :   0.9319 B(  0-C , 10-H ) :   0.9465
B(  0-C , 11-H ) :   0.9298 B(  1-C ,  2-C ) :   1.7868 B(  1-C ,  6-C ) :   0.9912
B(  2-C ,  3-C ) :   0.9267 B(  2-C , 12-H ) :   0.9168 B(  3-C ,  4-N ) :   0.9904
B(  3-C ,  5-C ) :   0.9001 B(  3-C , 13-H ) :   0.9088 B(  4-N ,  5-C ) :   0.9460
B(  4-N , 14-H ) :   0.8700 B(  5-C ,  6-C ) :   0.9630 B(  5-C ,  7-C ) :   1.1385
B(  5-C ,  8-C ) :  -0.1334 B(  6-C , 15-H ) :   0.8901 B(  6-C , 16-H ) :   0.9102
B(  7-C ,  8-C ) :   2.5740 B(  8-C , 17-H ) :   0.8799

MP2 TOTAL ENERGY:     -364.094701807 Eh
FINAL SINGLE POINT ENERGY      -364.094701807093

DIPOLE MOMENT
-------------
                                X             Y             Z
Electronic contribution:     -0.29433      -6.33713       0.41175
Nuclear contribution   :     -0.13245       6.35238      -0.46401
                        -----------------------------------------
Total Dipole Moment    :     -0.42678       0.01525      -0.05227
                        -----------------------------------------
Magnitude (a.u.)       :      0.43024
Magnitude (Debye)      :      1.09358

                             ****ORCA TERMINATED NORMALLY****
TOTAL RUN TIME: 0 days 0 hours 18 minutes 28 seconds 313 msec
