                         Program Version 3.0.3 - RELEASE   -
|  1> ! RI-MP2 RIJK def2-TZVP def2-TZVP/C def2-TZVP/JK TIGHTSCF
|  2> % maxcore 2000
|  3> % mp2 density relaxed end
|  4> *xyz 0 1
|  5>  C        0.0574362663     1.4986275171     0.0137939368
|  6>  O        1.2073011846     0.6340767917     0.0023683790
|  7>  C       -0.0887861495     0.0446498563     0.0073387657
|  8>  C       -0.5266873361    -0.8348569504     1.1483225391
|  9>  C       -1.7556685082    -1.5736142717     0.6426667936
| 10>  C       -2.0211382503    -1.0793642761    -0.7805440985
| 11>  C       -0.5439776435    -0.8240502324    -1.1681303340
| 12>  C        0.1286660196    -2.1701686930    -0.8003175659
| 13>  C       -0.4055164773    -2.2596153082     0.6295333745
| 14>  H       -0.0933701350     2.0578211836     0.9366766683
| 15>  H       -0.1046899841     2.0683170304    -0.9009273150
| 16>  H       -0.3783496279    -0.5689612371     2.1856978222
| 17>  H       -2.5472003651    -1.8791758140     1.3140218903
| 18>  H       -2.4985524017    -1.8357978182    -1.4122191968
| 19>  H       -2.6260922168    -0.1672014201    -0.8104131499
| 20>  H       -0.3478070999    -0.4258892169    -2.1619530672
| 21>  H       -0.2084885024    -2.9965503691    -1.4345958709
| 22>  H        1.2200803835    -2.1097951442    -0.8446308433
| 23>  H       -0.1757310360    -3.0828540178     1.2924913519
| 24> *
| 25>
| 26>                          ****END OF INPUT****

CARTESIAN COORDINATES (ANGSTROEM)
---------------------------------
  C      0.057436    1.498628    0.013794
  O      1.207301    0.634077    0.002368
  C     -0.088786    0.044650    0.007339
  C     -0.526687   -0.834857    1.148323
  C     -1.755669   -1.573614    0.642667
  C     -2.021138   -1.079364   -0.780544
  C     -0.543978   -0.824050   -1.168130
  C      0.128666   -2.170169   -0.800318
  C     -0.405516   -2.259615    0.629533
  H     -0.093370    2.057821    0.936677
  H     -0.104690    2.068317   -0.900927
  H     -0.378350   -0.568961    2.185698
  H     -2.547200   -1.879176    1.314022
  H     -2.498552   -1.835798   -1.412219
  H     -2.626092   -0.167201   -0.810413
  H     -0.347807   -0.425889   -2.161953
  H     -0.208489   -2.996550   -1.434596
  H      1.220080   -2.109795   -0.844631
  H     -0.175731   -3.082854    1.292491

 Total Charge           Charge          ....    0
 Multiplicity           Mult            ....    1
 Number of Electrons    NEL             ....   66
 Basis Dimension        Dim             ....  339

ORBITAL ENERGIES
----------------

  NO   OCC          E(Eh)            E(eV)
   0   2.0000     -20.558663      -559.4297
   1   2.0000     -11.285809      -307.1025
   2   2.0000     -11.276165      -306.8400
   3   2.0000     -11.233420      -305.6769
   4   2.0000     -11.232041      -305.6394
   5   2.0000     -11.231065      -305.6128
   6   2.0000     -11.229667      -305.5748
   7   2.0000     -11.227597      -305.5185
   8   2.0000     -11.222752      -305.3866
   9   2.0000      -1.403731       -38.1975
  10   2.0000      -1.213927       -33.0326
  11   2.0000      -1.020051       -27.7570
  12   2.0000      -0.967639       -26.3308
  13   2.0000      -0.944611       -25.7042
  14   2.0000      -0.889294       -24.1989
  15   2.0000      -0.780712       -21.2442
  16   2.0000      -0.752016       -20.4634
  17   2.0000      -0.743736       -20.2381
  18   2.0000      -0.713267       -19.4090
  19   2.0000      -0.659697       -17.9513
  20   2.0000      -0.636958       -17.3325
  21   2.0000      -0.601229       -16.3603
  22   2.0000      -0.591161       -16.0863
  23   2.0000      -0.558709       -15.2032
  24   2.0000      -0.521565       -14.1925
  25   2.0000      -0.513188       -13.9645
  26   2.0000      -0.502425       -13.6717
  27   2.0000      -0.484363       -13.1802
  28   2.0000      -0.474707       -12.9174
  29   2.0000      -0.437375       -11.9016
  30   2.0000      -0.430648       -11.7185
  31   2.0000      -0.392872       -10.6906
  32   2.0000      -0.384907       -10.4738
  33   0.0000       0.141376         3.8470
  34   0.0000       0.163267         4.4427
  35   0.0000       0.169375         4.6089
  36   0.0000       0.173604         4.7240
  37   0.0000       0.191536         5.2120

MULLIKEN ATOMIC CHARGES
-----------------------
   0 C :   -0.107461
   1 O :   -0.340964
   2 C :    0.066657
   3 C :   -0.106064
   4 C :   -0.140859
   5 C :   -0.256460
   6 C :    0.029796
   7 C :   -0.250765
   8 C :   -0.141098
   9 H :    0.114766
  10 H :    0.112733
  11 H :    0.140717
  12 H :    0.133727
  13 H :    0.118809
  14 H :    0.117446
  15 H :    0.129457
  16 H :    0.118633
  17 H :    0.127010
  18 H :    0.133920
Sum of atomic charges:   -0.0000000

LOEWDIN ATOMIC CHARGES
----------------------
   0 C :   -0.232022
   1 O :    0.164718
   2 C :   -0.283898
   3 C :   -0.131150
   4 C :   -0.164616
   5 C :   -0.196073
   6 C :   -0.177810
   7 C :   -0.194274
   8 C :   -0.164113
   9 H :    0.121281
  10 H :    0.120876
  11 H :    0.147364
  12 H :    0.141698
  13 H :    0.137739
  14 H :    0.138843
  15 H :    0.147293
  16 H :    0.137670
  17 H :    0.143981
  18 H :    0.142494

  Mayer bond orders larger than 0.1
B(  0-C ,  1-O ) :   0.9069 B(  0-C ,  2-C ) :   0.9989 B(  0-C ,  9-H ) :   0.9102
B(  0-C , 10-H ) :   0.9102 B(  1-O ,  2-C ) :   0.8660 B(  2-C ,  3-C ) :   0.9366
B(  2-C ,  6-C ) :   0.8622 B(  3-C ,  4-C ) :   0.8314 B(  3-C ,  8-C ) :   0.8468
B(  3-C , 11-H ) :   0.9210 B(  4-C ,  5-C ) :   0.9612 B(  4-C ,  8-C ) :   0.8562
B(  4-C , 12-H ) :   0.9297 B(  5-C ,  6-C ) :   0.9056 B(  5-C , 13-H ) :   0.9224
B(  5-C , 14-H ) :   0.9285 B(  6-C ,  7-C ) :   0.9207 B(  6-C , 15-H ) :   0.9166
B(  7-C ,  8-C ) :   0.9773 B(  7-C , 16-H ) :   0.9274 B(  7-C , 17-H ) :   0.9179
B(  8-C , 18-H ) :   0.9320

MP2 TOTAL ENERGY:     -385.207790038 Eh
FINAL SINGLE POINT ENERGY      -385.207790037796

DIPOLE MOMENT
-------------
                                X             Y             Z
Electronic contribution:      2.62082       1.73690       1.29206
Nuclear contribution   :     -3.38362      -1.81503      -1.29897
                        -----------------------------------------
Total Dipole Moment    :     -0.76280      -0.07813      -0.00691
                        -----------------------------------------
Magnitude (a.u.)       :      0.76682
Magnitude (Debye)      :      1.94910

                             ****ORCA TERMINATED NORMALLY****
TOTAL RUN TIME: 0 days 0 hours 18 minutes 26 seconds 138 msec
