                         Program Version 3.0.3 - RELEASE   -
|  1> ! RI-MP2 RIJK def2-TZVP def2-TZVP/C def2-TZVP/JK TIGHTSCF
|  2> % maxcore 2000
|  3> % mp2 density relaxed end
|  4> *xyz 0 1
|  5>  C       -0.0379016810     1.5389255330     0.0607517621
|  6>  C        0.0734405838     0.0292927735     0.0169738453
|  7>  C       -1.2302192786    -0.8172074613     0.3541269227
|  8>  C       -0.3637757528    -1.7469594370     1.1870167556
|  9>  C        0.7745598464    -0.7468874838     1.1889578199
| 10>  C        1.0020262664    -2.0579184259     0.5053242407
| 11>  O        1.8091504039    -2.9911582016     1.1516486674
| 12>  C        1.1306690829    -1.8094856131    -0.9611946235
| 13>  C        0.6570737096    -0.5921228390    -1.2394585850
| 14>  H        0.9448154909     2.0105596678    -0.0496225315
| 15>  H       -0.6778914363     1.9077768911    -0.7491660184
| 16>  H       -0.4698963870     1.8790773047     1.0077485041
| 17>  H       -1.8988430060    -0.2391273440     0.9993905690
| 18>  H       -1.7951435061    -1.2224743217    -0.4925533059
| 19>  H       -0.6896609688    -2.3948088684     1.9930076732
| 20>  H        1.3827508196    -0.3544603670     1.9953550769
| 21>  H        1.4152335799    -3.8620667731     1.0355904177
| 22>  H        1.5104581157    -2.5457029138    -1.6590295190
| 23>  H        0.5372198176    -0.1520339505    -2.2228093815
| 24> *
| 25>
| 26>                          ****END OF INPUT****

CARTESIAN COORDINATES (ANGSTROEM)
---------------------------------
  C     -0.037902    1.538926    0.060752
  C      0.073441    0.029293    0.016974
  C     -1.230219   -0.817207    0.354127
  C     -0.363776   -1.746959    1.187017
  C      0.774560   -0.746887    1.188958
  C      1.002026   -2.057918    0.505324
  O      1.809150   -2.991158    1.151649
  C      1.130669   -1.809486   -0.961195
  C      0.657074   -0.592123   -1.239459
  H      0.944815    2.010560   -0.049623
  H     -0.677891    1.907777   -0.749166
  H     -0.469896    1.879077    1.007749
  H     -1.898843   -0.239127    0.999391
  H     -1.795144   -1.222474   -0.492553
  H     -0.689661   -2.394809    1.993008
  H      1.382751   -0.354460    1.995355
  H      1.415234   -3.862067    1.035590
  H      1.510458   -2.545703   -1.659030
  H      0.537220   -0.152034   -2.222809

 Total Charge           Charge          ....    0
 Multiplicity           Mult            ....    1
 Number of Electrons    NEL             ....   66
 Basis Dimension        Dim             ....  339

ORBITAL ENERGIES
----------------

  NO   OCC          E(Eh)            E(eV)
   0   2.0000     -20.565457      -559.6145
   1   2.0000     -11.287853      -307.1581
   2   2.0000     -11.245117      -305.9952
   3   2.0000     -11.233722      -305.6851
   4   2.0000     -11.226542      -305.4898
   5   2.0000     -11.226487      -305.4882
   6   2.0000     -11.223014      -305.3937
   7   2.0000     -11.220794      -305.3333
   8   2.0000     -11.217434      -305.2419
   9   2.0000      -1.377089       -37.4725
  10   2.0000      -1.209684       -32.9172
  11   2.0000      -1.039572       -28.2882
  12   2.0000      -1.018749       -27.7216
  13   2.0000      -0.936468       -25.4826
  14   2.0000      -0.858518       -23.3615
  15   2.0000      -0.800998       -21.7963
  16   2.0000      -0.756714       -20.5912
  17   2.0000      -0.733724       -19.9656
  18   2.0000      -0.677182       -18.4271
  19   2.0000      -0.638837       -17.3837
  20   2.0000      -0.634040       -17.2531
  21   2.0000      -0.593894       -16.1607
  22   2.0000      -0.590456       -16.0671
  23   2.0000      -0.571183       -15.5427
  24   2.0000      -0.562773       -15.3138
  25   2.0000      -0.545260       -14.8373
  26   2.0000      -0.491446       -13.3729
  27   2.0000      -0.487598       -13.2682
  28   2.0000      -0.474164       -12.9027
  29   2.0000      -0.440322       -11.9818
  30   2.0000      -0.402801       -10.9608
  31   2.0000      -0.381576       -10.3832
  32   2.0000      -0.325899        -8.8682
  33   0.0000       0.140144         3.8135
  34   0.0000       0.142071         3.8659
  35   0.0000       0.148515         4.0413
  36   0.0000       0.176213         4.7950
  37   0.0000       0.183445         4.9918

MULLIKEN ATOMIC CHARGES
-----------------------
   0 C :   -0.422420
   1 C :    0.230085
   2 C :   -0.202594
   3 C :   -0.225612
   4 C :   -0.192791
   5 C :    0.236413
   6 O :   -0.460438
   7 C :   -0.188967
   8 C :   -0.258556
   9 H :    0.137823
  10 H :    0.133658
  11 H :    0.133596
  12 H :    0.112022
  13 H :    0.105644
  14 H :    0.132747
  15 H :    0.149647
  16 H :    0.327928
  17 H :    0.125490
  18 H :    0.126323
Sum of atomic charges:   -0.0000000

LOEWDIN ATOMIC CHARGES
----------------------
   0 C :   -0.271643
   1 C :   -0.211214
   2 C :   -0.167784
   3 C :   -0.152905
   4 C :   -0.082147
   5 C :   -0.308785
   6 O :    0.033605
   7 C :   -0.117773
   8 C :   -0.115063
   9 H :    0.129366
  10 H :    0.128977
  11 H :    0.127162
  12 H :    0.141352
  13 H :    0.125941
  14 H :    0.136880
  15 H :    0.141646
  16 H :    0.184140
  17 H :    0.139008
  18 H :    0.139237

  Mayer bond orders larger than 0.1
B(  0-C ,  1-C ) :   0.8672 B(  0-C ,  9-H ) :   0.9401 B(  0-C , 10-H ) :   0.9404
B(  0-C , 11-H ) :   0.9417 B(  1-C ,  2-C ) :   0.8971 B(  1-C ,  4-C ) :   0.8626
B(  1-C ,  8-C ) :   0.9094 B(  2-C ,  3-C ) :   0.9473 B(  2-C , 12-H ) :   0.9014
B(  2-C , 13-H ) :   0.9052 B(  3-C ,  4-C ) :   0.8566 B(  3-C ,  5-C ) :   0.8149
B(  3-C , 14-H ) :   0.9303 B(  4-C ,  5-C ) :   0.9132 B(  4-C , 15-H ) :   0.8955
B(  5-C ,  6-O ) :   0.9820 B(  5-C ,  7-C ) :   0.9933 B(  6-O , 16-H ) :   0.8393
B(  7-C ,  8-C ) :   1.7622 B(  7-C , 17-H ) :   0.9274 B(  8-C , 18-H ) :   0.9230

MP2 TOTAL ENERGY:     -385.181958438 Eh
FINAL SINGLE POINT ENERGY      -385.181958437883

DIPOLE MOMENT
-------------
                                X             Y             Z
Electronic contribution:      3.25756      -5.18694       0.69522
Nuclear contribution   :     -3.82969       5.08634      -0.82892
                        -----------------------------------------
Total Dipole Moment    :     -0.57213      -0.10060      -0.13370
                        -----------------------------------------
Magnitude (a.u.)       :      0.59609
Magnitude (Debye)      :      1.51515

                             ****ORCA TERMINATED NORMALLY****
TOTAL RUN TIME: 0 days 0 hours 20 minutes 9 seconds 732 msec
