                         Program Version 3.0.3 - RELEASE   -
|  1> ! RI-MP2 RIJK def2-TZVP def2-TZVP/C def2-TZVP/JK TIGHTSCF
|  2> % maxcore 2000
|  3> % mp2 density relaxed end
|  4> *xyz 0 1
|  5>  C        0.2136613132     1.4975029559     0.1082926854
|  6>  C        0.0569073517    -0.0285462665     0.1369737444
|  7>  C        0.4420042889    -0.5887714589     1.5130708943
|  8>  C       -1.3715051732    -0.4326268231    -0.2799780761
|  9>  C       -1.5463535135    -1.9200024280    -0.5039258215
| 10>  N       -1.9894045331    -2.7565295370     0.6294432174
| 11>  C       -2.8545810890    -2.6288315139    -0.5624823683
| 12>  C       -4.1991121120    -1.9923951810    -0.2925949279
| 13>  O       -5.0002996256    -2.8361824839     0.5182895665
| 14>  H        1.2339853741     1.7949160254     0.3718577716
| 15>  H       -0.0106053857     1.9063284209    -0.8827618361
| 16>  H       -0.4651113107     1.9736317817     0.8261589320
| 17>  H        0.7493140855    -0.4496402621    -0.6076937853
| 18>  H       -0.2160034180    -0.1873738314     2.2926343714
| 19>  H        0.3605459313    -1.6778732758     1.5486995593
| 20>  H        1.4706207292    -0.3150341396     1.7710340924
| 21>  H       -2.0797377540    -0.0892910086     0.4819842712
| 22>  H       -1.6278982014     0.0901475761    -1.2116181795
| 23>  H       -0.7735221856    -2.3515781268    -1.1420035296
| 24>  H       -1.5078159252    -3.6511293742     0.6246395049
| 25>  H       -2.9045573476    -3.4951162071    -1.2207068927
| 26>  H       -4.0702530335    -1.0044719532     0.1703278920
| 27>  H       -4.7474295253    -1.8510748097    -1.2301471713
| 28>  H       -4.4661597404    -3.0253693993     1.2993027855
| 29> *
| 30>
| 31>                          ****END OF INPUT****

CARTESIAN COORDINATES (ANGSTROEM)
---------------------------------
  C      0.213661    1.497503    0.108293
  C      0.056907   -0.028546    0.136974
  C      0.442004   -0.588771    1.513071
  C     -1.371505   -0.432627   -0.279978
  C     -1.546354   -1.920002   -0.503926
  N     -1.989405   -2.756530    0.629443
  C     -2.854581   -2.628832   -0.562482
  C     -4.199112   -1.992395   -0.292595
  O     -5.000300   -2.836182    0.518290
  H      1.233985    1.794916    0.371858
  H     -0.010605    1.906328   -0.882762
  H     -0.465111    1.973632    0.826159
  H      0.749314   -0.449640   -0.607694
  H     -0.216003   -0.187374    2.292634
  H      0.360546   -1.677873    1.548700
  H      1.470621   -0.315034    1.771034
  H     -2.079738   -0.089291    0.481984
  H     -1.627898    0.090148   -1.211618
  H     -0.773522   -2.351578   -1.142004
  H     -1.507816   -3.651129    0.624640
  H     -2.904557   -3.495116   -1.220707
  H     -4.070253   -1.004472    0.170328
  H     -4.747430   -1.851075   -1.230147
  H     -4.466160   -3.025369    1.299303

 Total Charge           Charge          ....    0
 Multiplicity           Mult            ....    1
 Number of Electrons    NEL             ....   72
 Basis Dimension        Dim             ....  369

ORBITAL ENERGIES
----------------

  NO   OCC          E(Eh)            E(eV)
   0   2.0000     -20.547275      -559.1198
   1   2.0000     -15.561165      -423.4408
   2   2.0000     -11.272647      -306.7443
   3   2.0000     -11.266747      -306.5838
   4   2.0000     -11.260078      -306.4023
   5   2.0000     -11.229592      -305.5727
   6   2.0000     -11.224060      -305.4222
   7   2.0000     -11.213020      -305.1218
   8   2.0000     -11.208177      -304.9900
   9   2.0000      -1.354316       -36.8528
  10   2.0000      -1.263759       -34.3886
  11   2.0000      -1.087129       -29.5823
  12   2.0000      -0.973179       -26.4815
  13   2.0000      -0.963663       -26.2226
  14   2.0000      -0.926975       -25.2243
  15   2.0000      -0.847397       -23.0588
  16   2.0000      -0.792039       -21.5525
  17   2.0000      -0.766039       -20.8450
  18   2.0000      -0.719619       -19.5818
  19   2.0000      -0.671591       -18.2749
  20   2.0000      -0.631519       -17.1845
  21   2.0000      -0.622572       -16.9410
  22   2.0000      -0.602361       -16.3911
  23   2.0000      -0.593123       -16.1397
  24   2.0000      -0.572683       -15.5835
  25   2.0000      -0.538162       -14.6441
  26   2.0000      -0.532709       -14.4958
  27   2.0000      -0.518506       -14.1093
  28   2.0000      -0.507941       -13.8218
  29   2.0000      -0.490893       -13.3579
  30   2.0000      -0.481034       -13.0896
  31   2.0000      -0.466057       -12.6821
  32   2.0000      -0.455060       -12.3828
  33   2.0000      -0.445983       -12.1358
  34   2.0000      -0.441732       -12.0201
  35   2.0000      -0.392057       -10.6684
  36   0.0000       0.127929         3.4811
  37   0.0000       0.141905         3.8614
  38   0.0000       0.157112         4.2752
  39   0.0000       0.166118         4.5203
  40   0.0000       0.185411         5.0453

MULLIKEN ATOMIC CHARGES
-----------------------
   0 C :   -0.392007
   1 C :   -0.029256
   2 C :   -0.388496
   3 C :   -0.251452
   4 C :   -0.026066
   5 N :   -0.435565
   6 C :   -0.065968
   7 C :   -0.002550
   8 O :   -0.481007
   9 H :    0.131780
  10 H :    0.127246
  11 H :    0.123243
  12 H :    0.077903
  13 H :    0.119078
  14 H :    0.127815
  15 H :    0.126693
  16 H :    0.119596
  17 H :    0.117963
  18 H :    0.123151
  19 H :    0.224111
  20 H :    0.121697
  21 H :    0.101704
  22 H :    0.106703
  23 H :    0.323684
Sum of atomic charges:    0.0000000

LOEWDIN ATOMIC CHARGES
----------------------
   0 C :   -0.296666
   1 C :   -0.307251
   2 C :   -0.292181
   3 C :   -0.233734
   4 C :   -0.254886
   5 N :   -0.011601
   6 C :   -0.271345
   7 C :   -0.331088
   8 O :   -0.049634
   9 H :    0.122796
  10 H :    0.121168
  11 H :    0.123551
  12 H :    0.147986
  13 H :    0.125052
  14 H :    0.122512
  15 H :    0.121196
  16 H :    0.145086
  17 H :    0.145937
  18 H :    0.141833
  19 H :    0.165131
  20 H :    0.138535
  21 H :    0.119981
  22 H :    0.130389
  23 H :    0.177233

  Mayer bond orders larger than 0.1
B(  0-C ,  1-C ) :   0.9205 B(  0-C ,  9-H ) :   0.9427 B(  0-C , 10-H ) :   0.9396
B(  0-C , 11-H ) :   0.9327 B(  1-C ,  2-C ) :   0.9297 B(  1-C ,  3-C ) :   0.9281
B(  1-C , 12-H ) :   0.9282 B(  2-C , 13-H ) :   0.9295 B(  2-C , 14-H ) :   0.9370
B(  2-C , 15-H ) :   0.9380 B(  3-C ,  4-C ) :   0.8870 B(  3-C , 16-H ) :   0.9346
B(  3-C , 17-H ) :   0.9306 B(  4-C ,  5-N ) :   0.8755 B(  4-C ,  6-C ) :   0.8850
B(  4-C , 18-H ) :   0.9202 B(  5-N ,  6-C ) :   0.8762 B(  5-N , 19-H ) :   0.8650
B(  6-C ,  7-C ) :   0.9458 B(  6-C , 20-H ) :   0.9227 B(  7-C ,  8-O ) :   0.9086
B(  7-C , 21-H ) :   0.9196 B(  7-C , 22-H ) :   0.9321 B(  8-O , 23-H ) :   0.8363

MP2 TOTAL ENERGY:     -404.841589374 Eh
FINAL SINGLE POINT ENERGY      -404.841589374129

DIPOLE MOMENT
-------------
                                X             Y             Z
Electronic contribution:     -7.14197      -6.86937      -0.97445
Nuclear contribution   :      8.02934       6.87273       0.54925
                        -----------------------------------------
Total Dipole Moment    :      0.88737       0.00336      -0.42520
                        -----------------------------------------
Magnitude (a.u.)       :      0.98399
Magnitude (Debye)      :      2.50110

                             ****ORCA TERMINATED NORMALLY****
TOTAL RUN TIME: 0 days 0 hours 28 minutes 57 seconds 478 msec
