                         Program Version 3.0.3 - RELEASE   -
|  1> ! RI-MP2 RIJK def2-TZVP def2-TZVP/C def2-TZVP/JK TIGHTSCF
|  2> % maxcore 2000
|  3> % mp2 density relaxed end
|  4> *xyz 0 1
|  5>  C        0.1218043577     1.2846882006    -0.2754772596
|  6>  O       -0.0260043386    -0.0198810786     0.2555240610
|  7>  C       -1.3125259899    -0.5518357125     0.1013310264
|  8>  C       -1.6457597006    -1.1707995614    -1.2517041543
|  9>  C       -1.3620086983    -2.0578890870    -0.0635563956
| 10>  C       -0.0976578579    -2.8835289314     0.0082666242
| 11>  C       -2.3539052523     0.1114977302     0.8475857742
| 12>  C       -3.2136092694     0.6770938920     1.4755369803
| 13>  C       -4.2528212413     1.3508532411     2.2403755046
| 14>  H        1.1592775015     1.5789864902    -0.1017252940
| 15>  H       -0.0844427825     1.3064556623    -1.3552661560
| 16>  H       -0.5460012268     1.9992988773     0.2229455511
| 17>  H       -2.6596805423    -1.0858757468    -1.6247654666
| 18>  H       -0.8669484163    -1.0917058768    -2.0036036823
| 19>  H       -2.2347040895    -2.5182014334     0.3902762047
| 20>  H        0.7543151420    -2.3303399354    -0.3913273516
| 21>  H        0.1366213620    -3.1547714315     1.0429183763
| 22>  H       -0.2116158436    -3.8097729797    -0.5654521968
| 23>  H       -5.0146390285     0.6410947648     2.5818570229
| 24>  H       -3.8356163978     1.8367356424     3.1293852561
| 25>  H       -4.7588321276     2.1208851635     1.6471721049
| 26> *
| 27>
| 28>                          ****END OF INPUT****

CARTESIAN COORDINATES (ANGSTROEM)
---------------------------------
  C      0.121804    1.284688   -0.275477
  O     -0.026004   -0.019881    0.255524
  C     -1.312526   -0.551836    0.101331
  C     -1.645760   -1.170800   -1.251704
  C     -1.362009   -2.057889   -0.063556
  C     -0.097658   -2.883529    0.008267
  C     -2.353905    0.111498    0.847586
  C     -3.213609    0.677094    1.475537
  C     -4.252821    1.350853    2.240376
  H      1.159278    1.578986   -0.101725
  H     -0.084443    1.306456   -1.355266
  H     -0.546001    1.999299    0.222946
  H     -2.659681   -1.085876   -1.624765
  H     -0.866948   -1.091706   -2.003604
  H     -2.234704   -2.518201    0.390276
  H      0.754315   -2.330340   -0.391327
  H      0.136621   -3.154771    1.042918
  H     -0.211616   -3.809773   -0.565452
  H     -5.014639    0.641095    2.581857
  H     -3.835616    1.836736    3.129385
  H     -4.758832    2.120885    1.647172

 Total Charge           Charge          ....    0
 Multiplicity           Mult            ....    1
 Number of Electrons    NEL             ....   68
 Basis Dimension        Dim             ....  351

ORBITAL ENERGIES
----------------

  NO   OCC          E(Eh)            E(eV)
   0   2.0000     -20.559592      -559.4549
   1   2.0000     -11.301795      -307.5375
   2   2.0000     -11.265950      -306.5621
   3   2.0000     -11.246618      -306.0360
   4   2.0000     -11.235260      -305.7270
   5   2.0000     -11.226965      -305.5012
   6   2.0000     -11.224441      -305.4326
   7   2.0000     -11.216097      -305.2055
   8   2.0000     -11.211935      -305.0923
   9   2.0000      -1.383390       -37.6439
  10   2.0000      -1.145610       -31.1736
  11   2.0000      -1.053716       -28.6731
  12   2.0000      -0.977344       -26.5949
  13   2.0000      -0.946594       -25.7581
  14   2.0000      -0.930350       -25.3161
  15   2.0000      -0.828594       -22.5472
  16   2.0000      -0.786072       -21.3901
  17   2.0000      -0.712879       -19.3984
  18   2.0000      -0.657491       -17.8912
  19   2.0000      -0.630506       -17.1569
  20   2.0000      -0.628121       -17.0920
  21   2.0000      -0.605951       -16.4888
  22   2.0000      -0.586846       -15.9689
  23   2.0000      -0.585064       -15.9204
  24   2.0000      -0.581613       -15.8265
  25   2.0000      -0.557607       -15.1733
  26   2.0000      -0.542917       -14.7735
  27   2.0000      -0.507404       -13.8072
  28   2.0000      -0.491695       -13.3797
  29   2.0000      -0.472121       -12.8471
  30   2.0000      -0.434200       -11.8152
  31   2.0000      -0.410668       -11.1748
  32   2.0000      -0.372667       -10.1408
  33   2.0000      -0.340967        -9.2782
  34   0.0000       0.134785         3.6677
  35   0.0000       0.153358         4.1731
  36   0.0000       0.161143         4.3849
  37   0.0000       0.180481         4.9111
  38   0.0000       0.183007         4.9799

MULLIKEN ATOMIC CHARGES
-----------------------
   0 C :   -0.218152
   1 O :   -0.308181
   2 C :    0.116044
   3 C :   -0.299539
   4 C :   -0.080528
   5 C :   -0.403874
   6 C :   -0.029382
   7 C :    0.044069
   8 C :   -0.492038
   9 H :    0.136845
  10 H :    0.111199
  11 H :    0.129056
  12 H :    0.136782
  13 H :    0.134553
  14 H :    0.127736
  15 H :    0.141927
  16 H :    0.132919
  17 H :    0.130436
  18 H :    0.163397
  19 H :    0.164837
  20 H :    0.161896
Sum of atomic charges:    0.0000000

LOEWDIN ATOMIC CHARGES
----------------------
   0 C :   -0.339187
   1 O :    0.200014
   2 C :   -0.321422
   3 C :   -0.177964
   4 C :   -0.197282
   5 C :   -0.290217
   6 C :   -0.045753
   7 C :   -0.092705
   8 C :   -0.295683
   9 H :    0.112655
  10 H :    0.102898
  11 H :    0.108819
  12 H :    0.135642
  13 H :    0.140414
  14 H :    0.153647
  15 H :    0.129923
  16 H :    0.127531
  17 H :    0.125301
  18 H :    0.141719
  19 H :    0.142126
  20 H :    0.139524

  Mayer bond orders larger than 0.1
B(  0-C ,  1-O ) :   0.8957 B(  0-C ,  9-H ) :   0.9385 B(  0-C , 10-H ) :   0.9332
B(  0-C , 11-H ) :   0.9347 B(  1-O ,  2-C ) :   0.9827 B(  2-C ,  3-C ) :   0.8855
B(  2-C ,  4-C ) :   0.8458 B(  2-C ,  6-C ) :   1.0767 B(  2-C ,  7-C ) :  -0.1262
B(  3-C ,  4-C ) :   0.9138 B(  3-C , 12-H ) :   0.9185 B(  3-C , 13-H ) :   0.9179
B(  4-C ,  5-C ) :   0.8904 B(  4-C , 14-H ) :   0.9291 B(  5-C , 15-H ) :   0.9346
B(  5-C , 16-H ) :   0.9383 B(  5-C , 17-H ) :   0.9367 B(  6-C ,  7-C ) :   2.6802
B(  7-C ,  8-C ) :   0.8438 B(  8-C , 18-H ) :   0.9506 B(  8-C , 19-H ) :   0.9477
B(  8-C , 20-H ) :   0.9485

MP2 TOTAL ENERGY:     -386.353405254 Eh
FINAL SINGLE POINT ENERGY      -386.353405254036

DIPOLE MOMENT
-------------
                                X             Y             Z
Electronic contribution:     -0.46502       0.53197       1.07535
Nuclear contribution   :      0.05132      -0.25502      -1.21141
                        -----------------------------------------
Total Dipole Moment    :     -0.41370       0.27695      -0.13607
                        -----------------------------------------
Magnitude (a.u.)       :      0.51611
Magnitude (Debye)      :      1.31184

                             ****ORCA TERMINATED NORMALLY****
TOTAL RUN TIME: 0 days 0 hours 19 minutes 1 seconds 639 msec
