                         Program Version 3.0.3 - RELEASE   -
|  1> ! RI-MP2 RIJK def2-TZVP def2-TZVP/C def2-TZVP/JK TIGHTSCF
|  2> % maxcore 2000
|  3> % mp2 density relaxed end
|  4> *xyz 0 1
|  5>  O       -0.0075981478     1.4259451647    -0.0937438465
|  6>  C        0.0278277366     0.0197205174     0.0166241087
|  7>  C        0.6500239186    -0.5270322859     1.3470412160
|  8>  C       -0.5282968877    -1.3146494287     1.9699791718
|  9>  O       -0.2000613234    -2.2571431472     2.9572392846
| 10>  C       -1.6162614061    -0.2917833355     2.3654946543
| 11>  O       -2.1320185941     0.1740674565     1.1114486595
| 12>  C       -1.4129538466    -0.5334334009     0.0946479970
| 13>  C       -1.1894080310    -1.9177965761     0.7147217371
| 14>  H        0.8948862529     1.7382386902    -0.2089150651
| 15>  H        0.5347995017    -0.4258926347    -0.8522845205
| 16>  H        1.4936951663    -1.1997648866     1.1662722071
| 17>  H        0.9874609579     0.2980114549     1.9829937255
| 18>  H        0.2321057950    -1.7964576817     3.6843150186
| 19>  H       -2.4110947779    -0.7744355634     2.9494148821
| 20>  H       -1.2154398446     0.5531498122     2.9412184921
| 21>  H       -1.9785127287    -0.4604562108    -0.8339604359
| 22>  H       -0.5150818622    -2.5644405801     0.1475409865
| 23>  H       -2.1212827788    -2.4455158244     0.9276977770
| 24> *
| 25>
| 26>                          ****END OF INPUT****

CARTESIAN COORDINATES (ANGSTROEM)
---------------------------------
  O     -0.007598    1.425945   -0.093744
  C      0.027828    0.019721    0.016624
  C      0.650024   -0.527032    1.347041
  C     -0.528297   -1.314649    1.969979
  O     -0.200061   -2.257143    2.957239
  C     -1.616261   -0.291783    2.365495
  O     -2.132019    0.174067    1.111449
  C     -1.412954   -0.533433    0.094648
  C     -1.189408   -1.917797    0.714722
  H      0.894886    1.738239   -0.208915
  H      0.534800   -0.425893   -0.852285
  H      1.493695   -1.199765    1.166272
  H      0.987461    0.298011    1.982994
  H      0.232106   -1.796458    3.684315
  H     -2.411095   -0.774436    2.949415
  H     -1.215440    0.553150    2.941218
  H     -1.978513   -0.460456   -0.833960
  H     -0.515082   -2.564441    0.147541
  H     -2.121283   -2.445516    0.927698

 Total Charge           Charge          ....    0
 Multiplicity           Mult            ....    1
 Number of Electrons    NEL             ....   70
 Basis Dimension        Dim             ....  339

ORBITAL ENERGIES
----------------

  NO   OCC          E(Eh)            E(eV)
   0   2.0000     -20.568737      -559.7038
   1   2.0000     -20.558777      -559.4328
   2   2.0000     -20.548210      -559.1452
   3   2.0000     -11.293067      -307.3000
   4   2.0000     -11.286629      -307.1248
   5   2.0000     -11.279589      -306.9332
   6   2.0000     -11.270268      -306.6796
   7   2.0000     -11.229520      -305.5708
   8   2.0000     -11.225268      -305.4551
   9   2.0000      -1.391160       -37.8554
  10   2.0000      -1.372608       -37.3506
  11   2.0000      -1.356554       -36.9137
  12   2.0000      -1.110761       -30.2254
  13   2.0000      -0.998152       -27.1611
  14   2.0000      -0.967642       -26.3309
  15   2.0000      -0.871723       -23.7208
  16   2.0000      -0.795489       -21.6464
  17   2.0000      -0.773380       -21.0447
  18   2.0000      -0.719681       -19.5835
  19   2.0000      -0.699370       -19.0308
  20   2.0000      -0.678621       -18.4662
  21   2.0000      -0.642833       -17.4924
  22   2.0000      -0.625727       -17.0269
  23   2.0000      -0.588062       -16.0020
  24   2.0000      -0.578887       -15.7523
  25   2.0000      -0.567104       -15.4317
  26   2.0000      -0.550719       -14.9858
  27   2.0000      -0.533358       -14.5134
  28   2.0000      -0.524418       -14.2702
  29   2.0000      -0.509082       -13.8528
  30   2.0000      -0.496389       -13.5074
  31   2.0000      -0.471196       -12.8219
  32   2.0000      -0.435294       -11.8450
  33   2.0000      -0.417353       -11.3567
  34   2.0000      -0.399985       -10.8841
  35   0.0000       0.127135         3.4595
  36   0.0000       0.131258         3.5717
  37   0.0000       0.156989         4.2719
  38   0.0000       0.178830         4.8662
  39   0.0000       0.189129         5.1465

MULLIKEN ATOMIC CHARGES
-----------------------
   0 O :   -0.439460
   1 C :   -0.042466
   2 C :   -0.272548
   3 C :    0.194092
   4 O :   -0.450581
   5 C :   -0.076534
   6 O :   -0.320922
   7 C :    0.164493
   8 C :   -0.293115
   9 H :    0.315822
  10 H :    0.086715
  11 H :    0.126381
  12 H :    0.110237
  13 H :    0.321172
  14 H :    0.103176
  15 H :    0.091978
  16 H :    0.124360
  17 H :    0.127001
  18 H :    0.130197
Sum of atomic charges:    0.0000000

LOEWDIN ATOMIC CHARGES
----------------------
   0 O :   -0.007143
   1 C :   -0.319557
   2 C :   -0.207777
   3 C :   -0.387159
   4 O :    0.020796
   5 C :   -0.256684
   6 O :    0.173302
   7 C :   -0.274078
   8 C :   -0.184230
   9 H :    0.174792
  10 H :    0.133343
  11 H :    0.138115
  12 H :    0.136188
  13 H :    0.181047
  14 H :    0.124347
  15 H :    0.123568
  16 H :    0.141038
  17 H :    0.144650
  18 H :    0.145441

  Mayer bond orders larger than 0.1
B(  0-O ,  1-C ) :   1.0936 B(  0-O ,  9-H ) :   0.8454 B(  1-C ,  2-C ) :   0.8946
B(  1-C ,  7-C ) :   0.8790 B(  1-C , 10-H ) :   0.9410 B(  2-C ,  3-C ) :   0.8993
B(  2-C , 11-H ) :   0.9089 B(  2-C , 12-H ) :   0.9059 B(  3-C ,  4-O ) :   1.0259
B(  3-C ,  5-C ) :   0.9610 B(  3-C ,  8-C ) :   0.8934 B(  4-O , 13-H ) :   0.8388
B(  5-C ,  6-O ) :   0.9520 B(  5-C , 14-H ) :   0.9183 B(  5-C , 15-H ) :   0.9050
B(  6-O ,  7-C ) :   0.9137 B(  7-C ,  8-C ) :   0.9350 B(  7-C , 16-H ) :   0.9215
B(  8-C , 17-H ) :   0.9201 B(  8-C , 18-H ) :   0.9096

MP2 TOTAL ENERGY:     -459.443330223 Eh
FINAL SINGLE POINT ENERGY      -459.443330222866

DIPOLE MOMENT
-------------
                                X             Y             Z
Electronic contribution:     -1.56960       1.24132      -0.00412
Nuclear contribution   :      2.67060      -1.40024       0.08982
                        -----------------------------------------
Total Dipole Moment    :      1.10100      -0.15892       0.08570
                        -----------------------------------------
Magnitude (a.u.)       :      1.11571
Magnitude (Debye)      :      2.83591

                             ****ORCA TERMINATED NORMALLY****
TOTAL RUN TIME: 0 days 0 hours 17 minutes 34 seconds 940 msec
