                         Program Version 3.0.3 - RELEASE   -
|  1> ! RI-MP2 RIJK def2-TZVP def2-TZVP/C def2-TZVP/JK TIGHTSCF
|  2> % maxcore 2000
|  3> % mp2 density relaxed end
|  4> *xyz 0 1
|  5>  N       -0.1116041903     1.3238010024     0.1297211006
|  6>  C       -0.0420161327     0.0615765394     0.0301034381
|  7>  C       -1.2715737544    -0.8000832590    -0.0505653029
|  8>  C       -1.1344855904    -1.8028729778    -1.2073462243
|  9>  N        0.1199977262    -2.5463813827    -1.1797669047
| 10>  C        1.1186261784    -2.0046156330    -0.6257976892
| 11>  N        1.1537958527    -0.7137415240    -0.0337049219
| 12>  C        2.3407576985    -0.2843605629     0.5623013233
| 13>  O        3.3846623279    -0.8828861237     0.5080293749
| 14>  H        0.8007096552     1.7797311412     0.1169628266
| 15>  H       -1.3720376593    -1.3584563990     0.8891066821
| 16>  H       -2.1437466169    -0.1555655148    -0.1640484684
| 17>  H       -1.9592226854    -2.5209595820    -1.1810171426
| 18>  H       -1.2039684658    -1.2868912220    -2.1748927454
| 19>  H        2.0819871739    -2.5020507801    -0.5750817262
| 20>  H        2.2089284223     0.6588816279     1.1176669400
| 21> *
| 22>
| 23>                          ****END OF INPUT****

CARTESIAN COORDINATES (ANGSTROEM)
---------------------------------
  N     -0.111604    1.323801    0.129721
  C     -0.042016    0.061577    0.030103
  C     -1.271574   -0.800083   -0.050565
  C     -1.134486   -1.802873   -1.207346
  N      0.119998   -2.546381   -1.179767
  C      1.118626   -2.004616   -0.625798
  N      1.153796   -0.713742   -0.033705
  C      2.340758   -0.284361    0.562301
  O      3.384662   -0.882886    0.508029
  H      0.800710    1.779731    0.116963
  H     -1.372038   -1.358456    0.889107
  H     -2.143747   -0.155566   -0.164048
  H     -1.959223   -2.520960   -1.181017
  H     -1.203968   -1.286891   -2.174893
  H      2.081987   -2.502051   -0.575082
  H      2.208928    0.658882    1.117667

 Total Charge           Charge          ....    0
 Multiplicity           Mult            ....    1
 Number of Electrons    NEL             ....   66
 Basis Dimension        Dim             ....  321

ORBITAL ENERGIES
----------------

  NO   OCC          E(Eh)            E(eV)
   0   2.0000     -20.570931      -559.7635
   1   2.0000     -15.642993      -425.6675
   2   2.0000     -15.569691      -423.6728
   3   2.0000     -15.568995      -423.6539
   4   2.0000     -11.390591      -309.9538
   5   2.0000     -11.352824      -308.9260
   6   2.0000     -11.332812      -308.3815
   7   2.0000     -11.275979      -306.8350
   8   2.0000     -11.255747      -306.2844
   9   2.0000      -1.433090       -38.9964
  10   2.0000      -1.337654       -36.3994
  11   2.0000      -1.245869       -33.9018
  12   2.0000      -1.198315       -32.6078
  13   2.0000      -1.061261       -28.8784
  14   2.0000      -0.956567       -26.0295
  15   2.0000      -0.881305       -23.9815
  16   2.0000      -0.870445       -23.6860
  17   2.0000      -0.755994       -20.5717
  18   2.0000      -0.733892       -19.9702
  19   2.0000      -0.712628       -19.3916
  20   2.0000      -0.672571       -18.3016
  21   2.0000      -0.655272       -17.8309
  22   2.0000      -0.635540       -17.2939
  23   2.0000      -0.620856       -16.8944
  24   2.0000      -0.601781       -16.3753
  25   2.0000      -0.561828       -15.2881
  26   2.0000      -0.555625       -15.1193
  27   2.0000      -0.515813       -14.0360
  28   2.0000      -0.487754       -13.2725
  29   2.0000      -0.459230       -12.4963
  30   2.0000      -0.445527       -12.1234
  31   2.0000      -0.422226       -11.4894
  32   2.0000      -0.385950       -10.5022
  33   0.0000       0.101502         2.7620
  34   0.0000       0.118737         3.2310
  35   0.0000       0.130358         3.5472
  36   0.0000       0.150935         4.1072
  37   0.0000       0.168807         4.5935

MULLIKEN ATOMIC CHARGES
-----------------------
   0 N :   -0.310840
   1 C :    0.040766
   2 C :   -0.198137
   3 C :   -0.129841
   4 N :   -0.215116
   5 C :   -0.027971
   6 N :   -0.074877
   7 C :    0.158652
   8 O :   -0.299127
   9 H :    0.212483
  10 H :    0.138450
  11 H :    0.147968
  12 H :    0.143882
  13 H :    0.134737
  14 H :    0.178064
  15 H :    0.100907
Sum of atomic charges:   -0.0000000

LOEWDIN ATOMIC CHARGES
----------------------
   0 N :   -0.020161
   1 C :   -0.316264
   2 C :   -0.217498
   3 C :   -0.280237
   4 N :    0.095210
   5 C :   -0.248366
   6 N :    0.206844
   7 C :   -0.356871
   8 O :    0.114018
   9 H :    0.159286
  10 H :    0.156081
  11 H :    0.155812
  12 H :    0.139612
  13 H :    0.142465
  14 H :    0.149695
  15 H :    0.120374

  Mayer bond orders larger than 0.1
B(  0-N ,  1-C ) :   2.0744 B(  0-N ,  9-H ) :   0.8614 B(  1-C ,  2-C ) :   0.9143
B(  1-C ,  6-N ) :   0.9796 B(  2-C ,  3-C ) :   0.9052 B(  2-C , 10-H ) :   0.9206
B(  2-C , 11-H ) :   0.9182 B(  3-C ,  4-N ) :   0.8995 B(  3-C , 12-H ) :   0.9313
B(  3-C , 13-H ) :   0.9192 B(  4-N ,  5-C ) :   1.8800 B(  5-C ,  6-N ) :   0.9554
B(  5-C , 14-H ) :   0.9087 B(  6-N ,  7-C ) :   1.0121 B(  7-C ,  8-O ) :   1.9351
B(  7-C , 15-H ) :   0.9229

MP2 TOTAL ENERGY:     -433.379309940 Eh
FINAL SINGLE POINT ENERGY      -433.379309939887

DIPOLE MOMENT
-------------
                                X             Y             Z
Electronic contribution:      5.10648      -0.09426       0.71103
Nuclear contribution   :     -5.70291       0.44470      -0.55334
                        -----------------------------------------
Total Dipole Moment    :     -0.59643       0.35044       0.15770
                        -----------------------------------------
Magnitude (a.u.)       :      0.70951
Magnitude (Debye)      :      1.80343

                             ****ORCA TERMINATED NORMALLY****
TOTAL RUN TIME: 0 days 0 hours 15 minutes 32 seconds 858 msec
