                         Program Version 3.0.3 - RELEASE   -
|  1> ! RI-MP2 RIJK def2-TZVP def2-TZVP/C def2-TZVP/JK TIGHTSCF
|  2> % maxcore 2000
|  3> % mp2 density relaxed end
|  4> *xyz 0 1
|  5>  C       -0.7662263695     0.8133058097    -0.1627789226
|  6>  O        0.4091624872     0.0285950793     0.0743506040
|  7>  C        0.9136319313    -0.5737900198    -1.0415744292
|  8>  C        0.7485714162    -1.8717490815    -1.4296597947
|  9>  C       -0.0270517169    -3.0008981318    -0.8250243377
| 10>  O       -0.9756275074    -2.5409443980     0.1156015434
| 11>  O        1.4701911269    -2.0974381557    -2.5379733409
| 12>  N        2.1332002385    -0.9231865453    -2.9156750294
| 13>  C        1.7935487330    -0.0309428772    -2.0210942860
| 14>  H       -0.5795111890     1.5817780221    -0.9219064474
| 15>  H       -1.5931758128     0.1708148949    -0.4847087228
| 16>  H       -1.0146962823     1.2925709880     0.7859777651
| 17>  H       -0.5790440383    -3.5295657240    -1.6096775954
| 18>  H        0.6713032677    -3.7302196080    -0.3822450789
| 19>  H       -0.5202873810    -1.9433546396     0.7208221450
| 20>  H        2.1894525465     0.9723504370    -2.0912027327
| 21> *
| 22>
| 23>                          ****END OF INPUT****

CARTESIAN COORDINATES (ANGSTROEM)
---------------------------------
  C     -0.766226    0.813306   -0.162779
  O      0.409162    0.028595    0.074351
  C      0.913632   -0.573790   -1.041574
  C      0.748571   -1.871749   -1.429660
  C     -0.027052   -3.000898   -0.825024
  O     -0.975628   -2.540944    0.115602
  O      1.470191   -2.097438   -2.537973
  N      2.133200   -0.923187   -2.915675
  C      1.793549   -0.030943   -2.021094
  H     -0.579511    1.581778   -0.921906
  H     -1.593176    0.170815   -0.484709
  H     -1.014696    1.292571    0.785978
  H     -0.579044   -3.529566   -1.609678
  H      0.671303   -3.730220   -0.382245
  H     -0.520287   -1.943355    0.720822
  H      2.189453    0.972350   -2.091203

 Total Charge           Charge          ....    0
 Multiplicity           Mult            ....    1
 Number of Electrons    NEL             ....   68
 Basis Dimension        Dim             ....  321

ORBITAL ENERGIES
----------------

  NO   OCC          E(Eh)            E(eV)
   0   2.0000     -20.648594      -561.8768
   1   2.0000     -20.599512      -560.5412
   2   2.0000     -20.574116      -559.8502
   3   2.0000     -15.629683      -425.3053
   4   2.0000     -11.318117      -307.9816
   5   2.0000     -11.308728      -307.7261
   6   2.0000     -11.296475      -307.3927
   7   2.0000     -11.295153      -307.3568
   8   2.0000     -11.287001      -307.1349
   9   2.0000      -1.498197       -40.7680
  10   2.0000      -1.418917       -38.6107
  11   2.0000      -1.381092       -37.5814
  12   2.0000      -1.174000       -31.9462
  13   2.0000      -1.081866       -29.4391
  14   2.0000      -0.973601       -26.4930
  15   2.0000      -0.942339       -25.6423
  16   2.0000      -0.839177       -22.8352
  17   2.0000      -0.803847       -21.8738
  18   2.0000      -0.743872       -20.2418
  19   2.0000      -0.703409       -19.1407
  20   2.0000      -0.680116       -18.5069
  21   2.0000      -0.669237       -18.2109
  22   2.0000      -0.653980       -17.7957
  23   2.0000      -0.638817       -17.3831
  24   2.0000      -0.624027       -16.9806
  25   2.0000      -0.598275       -16.2799
  26   2.0000      -0.581420       -15.8212
  27   2.0000      -0.543432       -14.7875
  28   2.0000      -0.535709       -14.5774
  29   2.0000      -0.502452       -13.6724
  30   2.0000      -0.473357       -12.8807
  31   2.0000      -0.459415       -12.5013
  32   2.0000      -0.429717       -11.6932
  33   2.0000      -0.354599        -9.6491
  34   0.0000       0.114139         3.1059
  35   0.0000       0.134158         3.6506
  36   0.0000       0.153928         4.1886
  37   0.0000       0.171277         4.6607
  38   0.0000       0.179615         4.8876

MULLIKEN ATOMIC CHARGES
-----------------------
   0 C :   -0.213050
   1 O :   -0.366655
   2 C :    0.145402
   3 C :    0.079586
   4 C :   -0.024348
   5 O :   -0.469956
   6 O :   -0.108833
   7 N :   -0.110071
   8 C :   -0.115204
   9 H :    0.130127
  10 H :    0.149728
  11 H :    0.145162
  12 H :    0.138508
  13 H :    0.130238
  14 H :    0.333231
  15 H :    0.156133
Sum of atomic charges:   -0.0000000

LOEWDIN ATOMIC CHARGES
----------------------
   0 C :   -0.319022
   1 O :    0.189185
   2 C :   -0.297233
   3 C :   -0.265746
   4 C :   -0.305636
   5 O :   -0.026266
   6 O :    0.294052
   7 N :    0.040049
   8 C :   -0.246346
   9 H :    0.109345
  10 H :    0.111151
  11 H :    0.115893
  12 H :    0.143434
  13 H :    0.132647
  14 H :    0.178739
  15 H :    0.145754

  Mayer bond orders larger than 0.1
B(  0-C ,  1-O ) :   0.8387 B(  0-C ,  9-H ) :   0.9335 B(  0-C , 10-H ) :   0.9300
B(  0-C , 11-H ) :   0.9367 B(  1-O ,  2-C ) :   0.9492 B(  2-C ,  3-C ) :   1.4855
B(  2-C ,  8-C ) :   1.2326 B(  3-C ,  4-C ) :   0.8725 B(  3-C ,  6-O ) :   1.1231
B(  3-C ,  7-N ) :   0.1098 B(  4-C ,  5-O ) :   0.9691 B(  4-C , 12-H ) :   0.9244
B(  4-C , 13-H ) :   0.9405 B(  5-O , 14-H ) :   0.8251 B(  6-O ,  7-N ) :   0.8778
B(  7-N ,  8-C ) :   1.5919 B(  8-C , 15-H ) :   0.9216

MP2 TOTAL ENERGY:     -474.232434167 Eh
FINAL SINGLE POINT ENERGY      -474.232434166721

DIPOLE MOMENT
-------------
                                X             Y             Z
Electronic contribution:      4.72283      -1.99898      -3.19148
Nuclear contribution   :     -5.15027       2.64310       3.80991
                        -----------------------------------------
Total Dipole Moment    :     -0.42744       0.64412       0.61843
                        -----------------------------------------
Magnitude (a.u.)       :      0.98998
Magnitude (Debye)      :      2.51632

                             ****ORCA TERMINATED NORMALLY****
TOTAL RUN TIME: 0 days 0 hours 16 minutes 58 seconds 290 msec
