                         Program Version 3.0.3 - RELEASE   -
|  1> ! RI-MP2 RIJK def2-TZVP def2-TZVP/C def2-TZVP/JK TIGHTSCF
|  2> % maxcore 2000
|  3> % mp2 density relaxed end
|  4> *xyz 0 1
|  5>  C        0.0739302644     1.5447362545     0.2739659101
|  6>  C       -0.0292886967     0.0399100043     0.1618655218
|  7>  C        1.1499797148    -0.7788937986    -0.3625240331
|  8>  C        0.7519178435    -0.8426013147     1.0680502503
|  9>  O        1.5970625390    -0.3050836985     2.1259660620
| 10>  C        1.1393512604    -1.2421643813     3.0204683696
| 11>  O        1.3855814213    -1.3349026935     4.1790582560
| 12>  C        0.2828513716    -1.9773120219     1.9621210932
| 13>  O       -1.1021753454    -2.0220794225     2.1652963662
| 14>  H        1.0726871615     1.8471885404     0.6005325882
| 15>  H       -0.1311673139     2.0218994042    -0.6895485942
| 16>  H       -0.6445649979     1.9319089219     1.0034237147
| 17>  H       -1.0159421140    -0.3424268401    -0.0870949107
| 18>  H        0.9625051700    -1.6417441219    -0.9933868991
| 19>  H        2.0623861514    -0.2370233776    -0.5906398020
| 20>  H        0.7061812992    -2.9570154102     1.6994547064
| 21>  H       -1.2826441192    -2.6488007343     2.8745029405
| 22> *
| 23>
| 24>                          ****END OF INPUT****

CARTESIAN COORDINATES (ANGSTROEM)
---------------------------------
  C      0.073930    1.544736    0.273966
  C     -0.029289    0.039910    0.161866
  C      1.149980   -0.778894   -0.362524
  C      0.751918   -0.842601    1.068050
  O      1.597063   -0.305084    2.125966
  C      1.139351   -1.242164    3.020468
  O      1.385581   -1.334903    4.179058
  C      0.282851   -1.977312    1.962121
  O     -1.102175   -2.022079    2.165296
  H      1.072687    1.847189    0.600533
  H     -0.131167    2.021899   -0.689549
  H     -0.644565    1.931909    1.003424
  H     -1.015942   -0.342427   -0.087095
  H      0.962505   -1.641744   -0.993387
  H      2.062386   -0.237023   -0.590640
  H      0.706181   -2.957015    1.699455
  H     -1.282644   -2.648801    2.874503

 Total Charge           Charge          ....    0
 Multiplicity           Mult            ....    1
 Number of Electrons    NEL             ....   68
 Basis Dimension        Dim             ....  327

ORBITAL ENERGIES
----------------

  NO   OCC          E(Eh)            E(eV)
   0   2.0000     -20.609023      -560.8000
   1   2.0000     -20.595128      -560.4219
   2   2.0000     -20.562016      -559.5209
   3   2.0000     -11.388704      -309.9024
   4   2.0000     -11.326460      -308.2086
   5   2.0000     -11.314601      -307.8859
   6   2.0000     -11.251217      -306.1612
   7   2.0000     -11.245602      -306.0084
   8   2.0000     -11.227260      -305.5093
   9   2.0000      -1.474251       -40.1164
  10   2.0000      -1.400539       -38.1106
  11   2.0000      -1.387884       -37.7663
  12   2.0000      -1.165228       -31.7075
  13   2.0000      -1.022673       -27.8284
  14   2.0000      -0.970613       -26.4117
  15   2.0000      -0.837117       -22.7791
  16   2.0000      -0.812141       -22.0995
  17   2.0000      -0.768764       -20.9191
  18   2.0000      -0.735045       -20.0016
  19   2.0000      -0.706598       -19.2275
  20   2.0000      -0.693457       -18.8699
  21   2.0000      -0.652702       -17.7609
  22   2.0000      -0.635894       -17.3036
  23   2.0000      -0.615690       -16.7538
  24   2.0000      -0.579297       -15.7635
  25   2.0000      -0.575839       -15.6694
  26   2.0000      -0.553664       -15.0660
  27   2.0000      -0.549150       -14.9431
  28   2.0000      -0.518634       -14.1128
  29   2.0000      -0.511984       -13.9318
  30   2.0000      -0.500903       -13.6303
  31   2.0000      -0.441991       -12.0272
  32   2.0000      -0.424887       -11.5618
  33   2.0000      -0.412254       -11.2180
  34   0.0000       0.117651         3.2015
  35   0.0000       0.145066         3.9475
  36   0.0000       0.157005         4.2723
  37   0.0000       0.166020         4.5176
  38   0.0000       0.174627         4.7519

MULLIKEN ATOMIC CHARGES
-----------------------
   0 C :   -0.421722
   1 C :   -0.062345
   2 C :   -0.304705
   3 C :    0.175679
   4 O :   -0.230405
   5 C :    0.220447
   6 O :   -0.257095
   7 C :    0.029299
   8 O :   -0.448913
   9 H :    0.145210
  10 H :    0.138072
  11 H :    0.142287
  12 H :    0.138850
  13 H :    0.143656
  14 H :    0.144155
  15 H :    0.113260
  16 H :    0.334271
Sum of atomic charges:   -0.0000000

LOEWDIN ATOMIC CHARGES
----------------------
   0 C :   -0.285074
   1 C :   -0.202260
   2 C :   -0.179976
   3 C :   -0.245686
   4 O :    0.282618
   5 C :   -0.430506
   6 O :    0.158300
   7 C :   -0.271391
   8 O :    0.008465
   9 H :    0.131935
  10 H :    0.127536
  11 H :    0.130657
  12 H :    0.157756
  13 H :    0.138664
  14 H :    0.146041
  15 H :    0.144454
  16 H :    0.188466

  Mayer bond orders larger than 0.1
B(  0-C ,  1-C ) :   0.9034 B(  0-C ,  9-H ) :   0.9287 B(  0-C , 10-H ) :   0.9389
B(  0-C , 11-H ) :   0.9387 B(  1-C ,  2-C ) :   0.8974 B(  1-C ,  3-C ) :   0.8518
B(  1-C , 12-H ) :   0.9089 B(  2-C ,  3-C ) :   0.8730 B(  2-C , 13-H ) :   0.9148
B(  2-C , 14-H ) :   0.9113 B(  3-C ,  4-O ) :   0.9127 B(  3-C ,  7-C ) :   0.8813
B(  4-O ,  5-C ) :   1.0829 B(  5-C ,  6-O ) :   2.0674 B(  5-C ,  7-C ) :   0.8960
B(  7-C ,  8-O ) :   1.0468 B(  7-C , 15-H ) :   0.9128 B(  8-O , 16-H ) :   0.8324

MP2 TOTAL ENERGY:     -458.226449643 Eh
FINAL SINGLE POINT ENERGY      -458.226449643297

DIPOLE MOMENT
-------------
                                X             Y             Z
Electronic contribution:      2.14716      -4.48645       7.77707
Nuclear contribution   :     -2.60935       3.92238      -8.83957
                        -----------------------------------------
Total Dipole Moment    :     -0.46219      -0.56407      -1.06250
                        -----------------------------------------
Magnitude (a.u.)       :      1.28868
Magnitude (Debye)      :      3.27556

                             ****ORCA TERMINATED NORMALLY****
TOTAL RUN TIME: 0 days 0 hours 16 minutes 45 seconds 678 msec
