                         Program Version 3.0.3 - RELEASE   -
|  1> ! RI-MP2 RIJK def2-TZVP def2-TZVP/C def2-TZVP/JK TIGHTSCF
|  2> % maxcore 2000
|  3> % mp2 density relaxed end
|  4> *xyz 0 1
|  5>  C        0.0632953444     1.5796916513     0.0781837522
|  6>  C        0.0672551619     0.0500001528     0.0424589926
|  7>  C        0.6116673083    -0.5074189037    -1.2879596910
|  8>  C        0.6477112162    -2.0041320445    -1.3209138058
|  9>  C       -0.1221646534    -2.8593812023    -2.0094758410
| 10>  C        0.2108885247    -4.3121110680    -1.7767381496
| 11>  C        1.3835266281    -4.2695193515    -0.7784483543
| 12>  C        1.6354217934    -2.7776725577    -0.5192957035
| 13>  O        2.4896757976    -2.3133009811     0.2028379027
| 14>  H        1.0761041506     1.9797996634    -0.0412581896
| 15>  H       -0.5539527259     1.9958033473    -0.7263254076
| 16>  H       -0.3319077562     1.9531278973     1.0279617417
| 17>  H        0.6799719747    -0.3415170789     0.8609297607
| 18>  H       -0.9502346724    -0.3294106796     0.1993497289
| 19>  H        0.0092370896    -0.1284625962    -2.1220519726
| 20>  H        1.6328596032    -0.1302370048    -1.4273674808
| 21>  H       -0.9187050612    -2.5620824904    -2.6853961610
| 22>  H       -0.6571411779    -4.8566016452    -1.3850288511
| 23>  H        0.4771671660    -4.8095607644    -2.7174519152
| 24>  H        1.1596906095    -4.7682746395     0.1691598607
| 25>  H        2.2965681989    -4.7298310543    -1.1669860965
| 26> *
| 27>
| 28>                          ****END OF INPUT****

CARTESIAN COORDINATES (ANGSTROEM)
---------------------------------
  C      0.063295    1.579692    0.078184
  C      0.067255    0.050000    0.042459
  C      0.611667   -0.507419   -1.287960
  C      0.647711   -2.004132   -1.320914
  C     -0.122165   -2.859381   -2.009476
  C      0.210889   -4.312111   -1.776738
  C      1.383527   -4.269519   -0.778448
  C      1.635422   -2.777673   -0.519296
  O      2.489676   -2.313301    0.202838
  H      1.076104    1.979800   -0.041258
  H     -0.553953    1.995803   -0.726325
  H     -0.331908    1.953128    1.027962
  H      0.679972   -0.341517    0.860930
  H     -0.950235   -0.329411    0.199350
  H      0.009237   -0.128463   -2.122052
  H      1.632860   -0.130237   -1.427367
  H     -0.918705   -2.562082   -2.685396
  H     -0.657141   -4.856602   -1.385029
  H      0.477167   -4.809561   -2.717452
  H      1.159691   -4.768275    0.169160
  H      2.296568   -4.729831   -1.166986

 Total Charge           Charge          ....    0
 Multiplicity           Mult            ....    1
 Number of Electrons    NEL             ....   68
 Basis Dimension        Dim             ....  351

ORBITAL ENERGIES
----------------

  NO   OCC          E(Eh)            E(eV)
   0   2.0000     -20.533916      -558.7563
   1   2.0000     -11.322428      -308.0989
   2   2.0000     -11.256832      -306.3140
   3   2.0000     -11.245521      -306.0062
   4   2.0000     -11.238250      -305.8083
   5   2.0000     -11.236796      -305.7688
   6   2.0000     -11.227387      -305.5127
   7   2.0000     -11.217810      -305.2521
   8   2.0000     -11.210410      -305.0508
   9   2.0000      -1.377112       -37.4731
  10   2.0000      -1.149607       -31.2824
  11   2.0000      -1.066714       -29.0268
  12   2.0000      -0.999154       -27.1884
  13   2.0000      -0.940211       -25.5844
  14   2.0000      -0.905373       -24.6365
  15   2.0000      -0.806907       -21.9571
  16   2.0000      -0.792000       -21.5514
  17   2.0000      -0.699960       -19.0469
  18   2.0000      -0.667277       -18.1575
  19   2.0000      -0.644705       -17.5433
  20   2.0000      -0.637400       -17.3445
  21   2.0000      -0.594176       -16.1683
  22   2.0000      -0.583921       -15.8893
  23   2.0000      -0.566722       -15.4213
  24   2.0000      -0.549973       -14.9655
  25   2.0000      -0.541499       -14.7349
  26   2.0000      -0.532461       -14.4890
  27   2.0000      -0.513001       -13.9595
  28   2.0000      -0.499335       -13.5876
  29   2.0000      -0.483832       -13.1657
  30   2.0000      -0.477346       -12.9892
  31   2.0000      -0.468619       -12.7518
  32   2.0000      -0.397824       -10.8253
  33   2.0000      -0.363545        -9.8926
  34   0.0000       0.101335         2.7575
  35   0.0000       0.132532         3.6064
  36   0.0000       0.144578         3.9342
  37   0.0000       0.162424         4.4198
  38   0.0000       0.176493         4.8026

MULLIKEN ATOMIC CHARGES
-----------------------
   0 C :   -0.389224
   1 C :   -0.214246
   2 C :   -0.236273
   3 C :    0.018879
   4 C :   -0.175141
   5 C :   -0.158791
   6 C :   -0.234264
   7 C :    0.150478
   8 O :   -0.303059
   9 H :    0.127791
  10 H :    0.118523
  11 H :    0.133644
  12 H :    0.137528
  13 H :    0.106369
  14 H :    0.121923
  15 H :    0.126218
  16 H :    0.137752
  17 H :    0.126688
  18 H :    0.127437
  19 H :    0.138645
  20 H :    0.139122
Sum of atomic charges:    0.0000000

LOEWDIN ATOMIC CHARGES
----------------------
   0 C :   -0.320515
   1 C :   -0.283838
   2 C :   -0.223340
   3 C :   -0.144024
   4 C :   -0.087963
   5 C :   -0.237962
   6 C :   -0.209058
   7 C :   -0.292354
   8 O :    0.135997
   9 H :    0.122008
  10 H :    0.119053
  11 H :    0.121362
  12 H :    0.142203
  13 H :    0.133556
  14 H :    0.143600
  15 H :    0.153339
  16 H :    0.140993
  17 H :    0.143047
  18 H :    0.143229
  19 H :    0.150352
  20 H :    0.150315

  Mayer bond orders larger than 0.1
B(  0-C ,  1-C ) :   0.9146 B(  0-C ,  9-H ) :   0.9402 B(  0-C , 10-H ) :   0.9385
B(  0-C , 11-H ) :   0.9418 B(  1-C ,  2-C ) :   0.9192 B(  1-C , 12-H ) :   0.9328
B(  1-C , 13-H ) :   0.9325 B(  2-C ,  3-C ) :   0.8971 B(  2-C , 14-H ) :   0.9446
B(  2-C , 15-H ) :   0.9113 B(  3-C ,  4-C ) :   1.6243 B(  3-C ,  7-C ) :   0.9044
B(  4-C ,  5-C ) :   0.9520 B(  4-C , 16-H ) :   0.9137 B(  5-C ,  6-C ) :   0.9495
B(  5-C , 17-H ) :   0.9119 B(  5-C , 18-H ) :   0.9096 B(  6-C ,  7-C ) :   0.9527
B(  6-C , 19-H ) :   0.9147 B(  6-C , 20-H ) :   0.9139 B(  7-C ,  8-O ) :   1.9919

MP2 TOTAL ENERGY:     -386.453749684 Eh
FINAL SINGLE POINT ENERGY      -386.453749683876

DIPOLE MOMENT
-------------
                                X             Y             Z
Electronic contribution:      4.25387      -6.03343      -0.20042
Nuclear contribution   :     -5.16416       5.62734      -0.51448
                        -----------------------------------------
Total Dipole Moment    :     -0.91029      -0.40609      -0.71490
                        -----------------------------------------
Magnitude (a.u.)       :      1.22663
Magnitude (Debye)      :      3.11785

                             ****ORCA TERMINATED NORMALLY****
TOTAL RUN TIME: 0 days 0 hours 18 minutes 3 seconds 529 msec
