                         Program Version 3.0.3 - RELEASE   -
|  1> ! RI-MP2 RIJK def2-TZVP def2-TZVP/C def2-TZVP/JK TIGHTSCF
|  2> % maxcore 2000
|  3> % mp2 density relaxed end
|  4> *xyz 0 1
|  5>  C       -0.0282984307     1.3507837308     0.1004934694
|  6>  O        0.0872138454    -0.0535473244     0.0488051645
|  7>  C        0.6475255785    -0.5140766126    -1.1561148371
|  8>  C        0.6843596592    -2.0376864759    -1.0874386672
|  9>  C        1.3174747616    -2.6837608599    -2.3475211564
| 10>  C        1.3646229095    -4.2069239931    -2.1410741113
| 11>  O        2.3275149800    -4.7700090566    -1.7028746602
| 12>  C        0.5717340617    -2.3635178427    -3.5644788932
| 13>  N       -0.0300384796    -2.1418725465    -4.5261575119
| 14>  H        0.9534467900     1.8432043040     0.0212576435
| 15>  H       -0.6729165841     1.7359624796    -0.7044925829
| 16>  H       -0.4745521821     1.6043356775     1.0645753787
| 17>  H        0.0495048341    -0.1817591603    -2.0205624764
| 18>  H        1.6677100813    -0.1136407315    -1.2927536776
| 19>  H        1.2745514282    -2.3463195290    -0.2197194280
| 20>  H       -0.3341707780    -2.4140508619    -0.9467002637
| 21>  H        2.3519916338    -2.3407123285    -2.4548621410
| 22>  H        0.4222567313    -4.7390503687    -2.3890492390
| 23> *
| 24>
| 25>                          ****END OF INPUT****

CARTESIAN COORDINATES (ANGSTROEM)
---------------------------------
  C     -0.028298    1.350784    0.100493
  O      0.087214   -0.053547    0.048805
  C      0.647526   -0.514077   -1.156115
  C      0.684360   -2.037686   -1.087439
  C      1.317475   -2.683761   -2.347521
  C      1.364623   -4.206924   -2.141074
  O      2.327515   -4.770009   -1.702875
  C      0.571734   -2.363518   -3.564479
  N     -0.030038   -2.141873   -4.526158
  H      0.953447    1.843204    0.021258
  H     -0.672917    1.735962   -0.704493
  H     -0.474552    1.604336    1.064575
  H      0.049505   -0.181759   -2.020562
  H      1.667710   -0.113641   -1.292754
  H      1.274551   -2.346320   -0.219719
  H     -0.334171   -2.414051   -0.946700
  H      2.351992   -2.340712   -2.454862
  H      0.422257   -4.739050   -2.389049

 Total Charge           Charge          ....    0
 Multiplicity           Mult            ....    1
 Number of Electrons    NEL             ....   68
 Basis Dimension        Dim             ....  333

ORBITAL ENERGIES
----------------

  NO   OCC          E(Eh)            E(eV)
   0   2.0000     -20.588972      -560.2544
   1   2.0000     -20.573871      -559.8435
   2   2.0000     -15.590986      -424.2523
   3   2.0000     -11.366086      -309.2869
   4   2.0000     -11.310560      -307.7760
   5   2.0000     -11.300092      -307.4911
   6   2.0000     -11.291993      -307.2707
   7   2.0000     -11.283863      -307.0495
   8   2.0000     -11.268980      -306.6445
   9   2.0000      -1.430274       -38.9197
  10   2.0000      -1.395879       -37.9838
  11   2.0000      -1.240340       -33.7514
  12   2.0000      -1.129156       -30.7259
  13   2.0000      -1.018381       -27.7115
  14   2.0000      -0.924777       -25.1645
  15   2.0000      -0.858727       -23.3671
  16   2.0000      -0.845463       -23.0062
  17   2.0000      -0.756341       -20.5811
  18   2.0000      -0.695130       -18.9155
  19   2.0000      -0.683114       -18.5885
  20   2.0000      -0.676987       -18.4218
  21   2.0000      -0.652455       -17.7542
  22   2.0000      -0.642490       -17.4830
  23   2.0000      -0.604971       -16.4621
  24   2.0000      -0.591999       -16.1091
  25   2.0000      -0.573127       -15.5956
  26   2.0000      -0.549641       -14.9565
  27   2.0000      -0.529908       -14.4195
  28   2.0000      -0.526943       -14.3389
  29   2.0000      -0.500515       -13.6197
  30   2.0000      -0.495855       -13.4929
  31   2.0000      -0.475800       -12.9472
  32   2.0000      -0.444293       -12.0898
  33   2.0000      -0.439402       -11.9567
  34   0.0000       0.100922         2.7462
  35   0.0000       0.121608         3.3091
  36   0.0000       0.142949         3.8898
  37   0.0000       0.147028         4.0008
  38   0.0000       0.161165         4.3855

MULLIKEN ATOMIC CHARGES
-----------------------
   0 C :   -0.219032
   1 O :   -0.299772
   2 C :   -0.080136
   3 C :   -0.203682
   4 C :    0.085103
   5 C :    0.090050
   6 O :   -0.233589
   7 C :   -0.226222
   8 N :   -0.049093
   9 H :    0.114989
  10 H :    0.118742
  11 H :    0.143536
  12 H :    0.124410
  13 H :    0.095873
  14 H :    0.150317
  15 H :    0.134858
  16 H :    0.143177
  17 H :    0.110471
Sum of atomic charges:    0.0000000

LOEWDIN ATOMIC CHARGES
----------------------
   0 C :   -0.354511
   1 O :    0.137709
   2 C :   -0.328036
   3 C :   -0.214823
   4 C :   -0.235175
   5 C :   -0.249960
   6 O :    0.163152
   7 C :   -0.176439
   8 N :    0.073871
   9 H :    0.102854
  10 H :    0.103919
  11 H :    0.115407
  12 H :    0.128093
  13 H :    0.122304
  14 H :    0.153330
  15 H :    0.151063
  16 H :    0.183359
  17 H :    0.123883

  Mayer bond orders larger than 0.1
B(  0-C ,  1-O ) :   0.9098 B(  0-C ,  9-H ) :   0.9370 B(  0-C , 10-H ) :   0.9371
B(  0-C , 11-H ) :   0.9384 B(  1-O ,  2-C ) :   0.9662 B(  2-C ,  3-C ) :   0.9420
B(  2-C , 12-H ) :   0.9257 B(  2-C , 13-H ) :   0.9177 B(  3-C ,  4-C ) :   0.8886
B(  3-C , 14-H ) :   0.9218 B(  3-C , 15-H ) :   0.9099 B(  4-C ,  5-C ) :   0.8211
B(  4-C ,  7-C ) :   0.8831 B(  4-C , 16-H ) :   0.8939 B(  5-C ,  6-O ) :   2.0067
B(  5-C , 17-H ) :   0.9283 B(  7-C ,  8-N ) :   2.8497

MP2 TOTAL ENERGY:     -438.366086334 Eh
FINAL SINGLE POINT ENERGY      -438.366086333660

DIPOLE MOMENT
-------------
                                X             Y             Z
Electronic contribution:      1.69602      -8.68114      -5.60013
Nuclear contribution   :     -1.60112       9.38318       6.32152
                        -----------------------------------------
Total Dipole Moment    :      0.09490       0.70204       0.72139
                        -----------------------------------------
Magnitude (a.u.)       :      1.01107
Magnitude (Debye)      :      2.56994

                             ****ORCA TERMINATED NORMALLY****
TOTAL RUN TIME: 0 days 0 hours 15 minutes 22 seconds 677 msec
