                         Program Version 3.0.3 - RELEASE   -
|  1> ! RI-MP2 RIJK def2-TZVP def2-TZVP/C def2-TZVP/JK TIGHTSCF
|  2> % maxcore 2000
|  3> % mp2 density relaxed end
|  4> *xyz 0 1
|  5>  O        0.1525633108     1.4285725278    -0.1036535103
|  6>  C        0.0274659728     0.0109457702    -0.0209309521
|  7>  C        0.7818871112    -0.5210154110     1.1711635045
|  8>  C        0.1916780943    -0.9946431905     2.2695137424
|  9>  C       -1.3008525478    -1.0849302466     2.4447842999
| 10>  C       -2.0591488562    -0.2531322925     1.4037040082
| 11>  C       -1.4526457046    -0.4645090248    -0.0000800078
| 12>  C       -2.2445743351     0.1708213478    -1.0460806634
| 13>  C       -2.9193080096     0.6846670354    -1.8976886641
| 14>  H        0.0149190689     1.7832034376     0.7810435225
| 15>  H        0.4851342873    -0.3560963043    -0.9462682000
| 16>  H        1.8654361382    -0.4595324264     1.1119278345
| 17>  H        0.8041194345    -1.3508844693     3.0951200177
| 18>  H       -1.6084937711    -2.1397014685     2.3795742774
| 19>  H       -1.5749013798    -0.7662536568     3.4580976837
| 20>  H       -3.1210084379    -0.5124840350     1.3966765106
| 21>  H       -2.0002619368     0.8132773342     1.6545145426
| 22>  H       -1.4314085723    -1.5473197661    -0.1937810301
| 23>  H       -3.5030175268     1.1442114289    -2.6560930362
| 24> *
| 25>
| 26>                          ****END OF INPUT****

CARTESIAN COORDINATES (ANGSTROEM)
---------------------------------
  O      0.152563    1.428573   -0.103654
  C      0.027466    0.010946   -0.020931
  C      0.781887   -0.521015    1.171164
  C      0.191678   -0.994643    2.269514
  C     -1.300853   -1.084930    2.444784
  C     -2.059149   -0.253132    1.403704
  C     -1.452646   -0.464509   -0.000080
  C     -2.244574    0.170821   -1.046081
  C     -2.919308    0.684667   -1.897689
  H      0.014919    1.783203    0.781044
  H      0.485134   -0.356096   -0.946268
  H      1.865436   -0.459532    1.111928
  H      0.804119   -1.350884    3.095120
  H     -1.608494   -2.139701    2.379574
  H     -1.574901   -0.766254    3.458098
  H     -3.121008   -0.512484    1.396677
  H     -2.000262    0.813277    1.654515
  H     -1.431409   -1.547320   -0.193781
  H     -3.503018    1.144211   -2.656093

 Total Charge           Charge          ....    0
 Multiplicity           Mult            ....    1
 Number of Electrons    NEL             ....   66
 Basis Dimension        Dim             ....  339

ORBITAL ENERGIES
----------------

  NO   OCC          E(Eh)            E(eV)
   0   2.0000     -20.554570      -559.3183
   1   2.0000     -11.290918      -307.2415
   2   2.0000     -11.256363      -306.3012
   3   2.0000     -11.243207      -305.9432
   4   2.0000     -11.238972      -305.8280
   5   2.0000     -11.235905      -305.7445
   6   2.0000     -11.232202      -305.6438
   7   2.0000     -11.226027      -305.4757
   8   2.0000     -11.214178      -305.1533
   9   2.0000      -1.362224       -37.0680
  10   2.0000      -1.134727       -30.8775
  11   2.0000      -1.058630       -28.8068
  12   2.0000      -1.010773       -27.5045
  13   2.0000      -0.983970       -26.7752
  14   2.0000      -0.863436       -23.4953
  15   2.0000      -0.850214       -23.1355
  16   2.0000      -0.734532       -19.9876
  17   2.0000      -0.725050       -19.7296
  18   2.0000      -0.693312       -18.8660
  19   2.0000      -0.655131       -17.8270
  20   2.0000      -0.634471       -17.2648
  21   2.0000      -0.614778       -16.7290
  22   2.0000      -0.596395       -16.2287
  23   2.0000      -0.583137       -15.8680
  24   2.0000      -0.570371       -15.5206
  25   2.0000      -0.526779       -14.3344
  26   2.0000      -0.500753       -13.6262
  27   2.0000      -0.497918       -13.5490
  28   2.0000      -0.474136       -12.9019
  29   2.0000      -0.441591       -12.0163
  30   2.0000      -0.379516       -10.3272
  31   2.0000      -0.377244       -10.2653
  32   2.0000      -0.367513       -10.0005
  33   0.0000       0.126124         3.4320
  34   0.0000       0.140150         3.8137
  35   0.0000       0.157613         4.2889
  36   0.0000       0.162360         4.4180
  37   0.0000       0.170566         4.6413

MULLIKEN ATOMIC CHARGES
-----------------------
   0 O :   -0.454579
   1 C :    0.142128
   2 C :   -0.240570
   3 C :   -0.167819
   4 C :   -0.136146
   5 C :   -0.290138
   6 C :   -0.264517
   7 C :    0.039733
   8 C :   -0.120323
   9 H :    0.312840
  10 H :    0.110786
  11 H :    0.125392
  12 H :    0.127464
  13 H :    0.121999
  14 H :    0.132479
  15 H :    0.141836
  16 H :    0.116960
  17 H :    0.114362
  18 H :    0.188113
Sum of atomic charges:   -0.0000000

LOEWDIN ATOMIC CHARGES
----------------------
   0 O :   -0.002953
   1 C :   -0.298866
   2 C :   -0.162323
   3 C :   -0.159511
   4 C :   -0.251898
   5 C :   -0.219146
   6 C :   -0.222029
   7 C :   -0.084925
   8 C :   -0.098296
   9 H :    0.172619
  10 H :    0.153840
  11 H :    0.146144
  12 H :    0.143907
  13 H :    0.148601
  14 H :    0.145778
  15 H :    0.144510
  16 H :    0.141377
  17 H :    0.177481
  18 H :    0.125690

  Mayer bond orders larger than 0.1
B(  0-O ,  1-C ) :   0.9308 B(  0-O ,  9-H ) :   0.8404 B(  1-C ,  2-C ) :   0.9674
B(  1-C ,  6-C ) :   0.9196 B(  1-C , 10-H ) :   0.9321 B(  2-C ,  3-C ) :   1.7732
B(  2-C , 11-H ) :   0.9387 B(  3-C ,  4-C ) :   0.9373 B(  3-C , 12-H ) :   0.9294
B(  4-C ,  5-C ) :   0.9299 B(  4-C , 13-H ) :   0.9036 B(  4-C , 14-H ) :   0.9265
B(  5-C ,  6-C ) :   0.8771 B(  5-C , 15-H ) :   0.9324 B(  5-C , 16-H ) :   0.9381
B(  6-C ,  7-C ) :   1.1634 B(  6-C ,  8-C ) :  -0.1307 B(  6-C , 17-H ) :   0.9093
B(  7-C ,  8-C ) :   2.6151 B(  8-C , 18-H ) :   0.8806

MP2 TOTAL ENERGY:     -385.185308479 Eh
FINAL SINGLE POINT ENERGY      -385.185308478795

DIPOLE MOMENT
-------------
                                X             Y             Z
Electronic contribution:      0.47564       1.93505      -3.98904
Nuclear contribution   :     -0.55987      -2.39073       4.80701
                        -----------------------------------------
Total Dipole Moment    :     -0.08423      -0.45569       0.81797
                        -----------------------------------------
Magnitude (a.u.)       :      0.94012
Magnitude (Debye)      :      2.38960

                             ****ORCA TERMINATED NORMALLY****
TOTAL RUN TIME: 0 days 0 hours 19 minutes 5 seconds 446 msec
