                         Program Version 3.0.3 - RELEASE   -
|  1> ! RI-MP2 RIJK def2-TZVP def2-TZVP/C def2-TZVP/JK TIGHTSCF
|  2> % maxcore 2000
|  3> % mp2 density relaxed end
|  4> *xyz 0 1
|  5>  O        0.0105139911     1.4331272734     0.1623017059
|  6>  C        0.0220392413     0.0484907345     0.0215981692
|  7>  C       -1.3273291418    -0.6954220316     0.0264430894
|  8>  N       -2.0379057432    -0.1324866891    -1.1269044024
|  9>  C       -1.0867459247    -1.2865069786    -1.3347006419
| 10>  C        0.2701082566    -0.6186373776    -1.3940457501
| 11>  O        1.2106166831    -0.6859042505    -2.1260274524
| 12>  H       -0.6793961771     1.7574952456    -0.4318213424
| 13>  H        0.7414383551    -0.3603732823     0.7386909372
| 14>  H       -1.8473555219    -1.1426882282     0.8632697680
| 15>  H       -2.9779676837    -0.5253166464    -1.1552630537
| 16>  H       -1.4336242547    -2.2156992991    -1.7671271868
| 17> *
| 18>
| 19>                          ****END OF INPUT****

CARTESIAN COORDINATES (ANGSTROEM)
---------------------------------
  O      0.010514    1.433127    0.162302
  C      0.022039    0.048491    0.021598
  C     -1.327329   -0.695422    0.026443
  N     -2.037906   -0.132487   -1.126904
  C     -1.086746   -1.286507   -1.334701
  C      0.270108   -0.618637   -1.394046
  O      1.210617   -0.685904   -2.126027
  H     -0.679396    1.757495   -0.431821
  H      0.741438   -0.360373    0.738691
  H     -1.847356   -1.142688    0.863270
  H     -2.977968   -0.525317   -1.155263
  H     -1.433624   -2.215699   -1.767127

 Total Charge           Charge          ....    0
 Multiplicity           Mult            ....    1
 Number of Electrons    NEL             ....   52
 Basis Dimension        Dim             ....  247

ORBITAL ENERGIES
----------------

  NO   OCC          E(Eh)            E(eV)
   0   2.0000     -20.572764      -559.8134
   1   2.0000     -20.564553      -559.5899
   2   2.0000     -15.603766      -424.6001
   3   2.0000     -11.345072      -308.7151
   4   2.0000     -11.311906      -307.8126
   5   2.0000     -11.296438      -307.3917
   6   2.0000     -11.294979      -307.3520
   7   2.0000      -1.411339       -38.4045
   8   2.0000      -1.384682       -37.6791
   9   2.0000      -1.308165       -35.5970
  10   2.0000      -1.047676       -28.5087
  11   2.0000      -0.911525       -24.8039
  12   2.0000      -0.850895       -23.1540
  13   2.0000      -0.786168       -21.3927
  14   2.0000      -0.723497       -19.6874
  15   2.0000      -0.678206       -18.4549
  16   2.0000      -0.663198       -18.0465
  17   2.0000      -0.640154       -17.4195
  18   2.0000      -0.613366       -16.6905
  19   2.0000      -0.564600       -15.3635
  20   2.0000      -0.546401       -14.8683
  21   2.0000      -0.535176       -14.5629
  22   2.0000      -0.507874       -13.8200
  23   2.0000      -0.482894       -13.1402
  24   2.0000      -0.419795       -11.4232
  25   2.0000      -0.387210       -10.5365
  26   0.0000       0.107466         2.9243
  27   0.0000       0.143155         3.8955
  28   0.0000       0.158490         4.3127
  29   0.0000       0.166224         4.5232
  30   0.0000       0.180522         4.9122

MULLIKEN ATOMIC CHARGES
-----------------------
   0 O :   -0.458327
   1 C :    0.147850
   2 C :   -0.123893
   3 N :   -0.403500
   4 C :   -0.041867
   5 C :    0.109047
   6 O :   -0.239374
   7 H :    0.336020
   8 H :    0.125802
   9 H :    0.154217
  10 H :    0.231471
  11 H :    0.162554
Sum of atomic charges:   -0.0000000

LOEWDIN ATOMIC CHARGES
----------------------
   0 O :    0.006795
   1 C :   -0.291083
   2 C :   -0.219964
   3 N :    0.003535
   4 C :   -0.182837
   5 C :   -0.284466
   6 O :    0.178968
   7 H :    0.187410
   8 H :    0.153387
   9 H :    0.134218
  10 H :    0.177899
  11 H :    0.136137

  Mayer bond orders larger than 0.1
B(  0-O ,  1-C ) :   0.9856 B(  0-O ,  7-H ) :   0.8221 B(  1-C ,  2-C ) :   0.9168
B(  1-C ,  4-C ) :  -0.1131 B(  1-C ,  5-C ) :   0.8598 B(  1-C ,  8-H ) :   0.9142
B(  2-C ,  3-N ) :   0.9371 B(  2-C ,  4-C ) :   0.8808 B(  2-C ,  9-H ) :   0.9150
B(  3-N ,  4-C ) :   0.8521 B(  3-N , 10-H ) :   0.8682 B(  4-C ,  5-C ) :   0.8733
B(  4-C , 11-H ) :   0.8965 B(  5-C ,  6-O ) :   2.0349

MP2 TOTAL ENERGY:     -359.892344950 Eh
FINAL SINGLE POINT ENERGY      -359.892344950479

DIPOLE MOMENT
-------------
                                X             Y             Z
Electronic contribution:      2.42677       0.33567      -1.67080
Nuclear contribution   :     -3.86384      -1.22269       2.19200
                        -----------------------------------------
Total Dipole Moment    :     -1.43707      -0.88701       0.52120
                        -----------------------------------------
Magnitude (a.u.)       :      1.76737
Magnitude (Debye)      :      4.49231

                             ****ORCA TERMINATED NORMALLY****
TOTAL RUN TIME: 0 days 0 hours 6 minutes 35 seconds 517 msec
