                         Program Version 3.0.3 - RELEASE   -
|  1> ! RI-MP2 RIJK def2-TZVP def2-TZVP/C def2-TZVP/JK TIGHTSCF
|  2> % maxcore 2000
|  3> % mp2 density relaxed end
|  4> *xyz 0 1
|  5>  O       -0.1357082847     1.4822789792    -0.0652126928
|  6>  C       -0.0487063682     0.0852648978    -0.0199675770
|  7>  C       -0.4669221812    -0.6573083649     1.2337547130
|  8>  C       -0.8973893882     0.0775979490     2.4899133826
|  9>  C       -2.1758011889    -0.4956408713     3.1302744235
| 10>  C       -3.4856615265    -0.0719958803     2.4451171537
| 11>  C       -3.6972943624    -0.5348274035     0.9938947003
| 12>  C       -2.6904956378     0.0398372029    -0.0197187995
| 13>  C       -1.3489729809    -0.6712464677    -0.0038686725
| 14>  H        0.5880397270     1.8420048822     0.4582531316
| 15>  H        0.7716123971    -0.3280064796    -0.6071684403
| 16>  H        0.0728028262    -1.5817420901     1.4271797224
| 17>  H       -0.0775721828     0.0321961113     3.2181606600
| 18>  H       -1.0492617056     1.1402693073     2.2681929399
| 19>  H       -2.1085398451    -1.5919291522     3.1566918356
| 20>  H       -2.2226039864    -0.1690848536     4.1768962654
| 21>  H       -4.3237656128    -0.4407271333     3.0502077607
| 22>  H       -3.5541862137     1.0251537149     2.4735978409
| 23>  H       -3.6768747023    -1.6325691891     0.9483750031
| 24>  H       -4.7095151462    -0.2378675187     0.6918173405
| 25>  H       -3.1082859089    -0.0379017238    -1.0308128423
| 26>  H       -2.5489054226     1.1093101500     0.1645545540
| 27>  H       -1.3422543050    -1.6056673564    -0.5599555427
| 28> *
| 29>
| 30>                          ****END OF INPUT****

CARTESIAN COORDINATES (ANGSTROEM)
---------------------------------
  O     -0.135708    1.482279   -0.065213
  C     -0.048706    0.085265   -0.019968
  C     -0.466922   -0.657308    1.233755
  C     -0.897389    0.077598    2.489913
  C     -2.175801   -0.495641    3.130274
  C     -3.485662   -0.071996    2.445117
  C     -3.697294   -0.534827    0.993895
  C     -2.690496    0.039837   -0.019719
  C     -1.348973   -0.671246   -0.003869
  H      0.588040    1.842005    0.458253
  H      0.771612   -0.328006   -0.607168
  H      0.072803   -1.581742    1.427180
  H     -0.077572    0.032196    3.218161
  H     -1.049262    1.140269    2.268193
  H     -2.108540   -1.591929    3.156692
  H     -2.222604   -0.169085    4.176896
  H     -4.323766   -0.440727    3.050208
  H     -3.554186    1.025154    2.473598
  H     -3.676875   -1.632569    0.948375
  H     -4.709515   -0.237868    0.691817
  H     -3.108286   -0.037902   -1.030813
  H     -2.548905    1.109310    0.164555
  H     -1.342254   -1.605667   -0.559956

 Total Charge           Charge          ....    0
 Multiplicity           Mult            ....    1
 Number of Electrons    NEL             ....   70
 Basis Dimension        Dim             ....  363

ORBITAL ENERGIES
----------------

  NO   OCC          E(Eh)            E(eV)
   0   2.0000     -20.559401      -559.4497
   1   2.0000     -11.275021      -306.8089
   2   2.0000     -11.221601      -305.3553
   3   2.0000     -11.220206      -305.3173
   4   2.0000     -11.217395      -305.2408
   5   2.0000     -11.214102      -305.1512
   6   2.0000     -11.212241      -305.1006
   7   2.0000     -11.211414      -305.0781
   8   2.0000     -11.210620      -305.0565
   9   2.0000      -1.368135       -37.2289
  10   2.0000      -1.140950       -31.0468
  11   2.0000      -1.061469       -28.8840
  12   2.0000      -1.021985       -27.8096
  13   2.0000      -0.922850       -25.1120
  14   2.0000      -0.871851       -23.7243
  15   2.0000      -0.796682       -21.6788
  16   2.0000      -0.766227       -20.8501
  17   2.0000      -0.731786       -19.9129
  18   2.0000      -0.696761       -18.9598
  19   2.0000      -0.666784       -18.1441
  20   2.0000      -0.629163       -17.1204
  21   2.0000      -0.615280       -16.7426
  22   2.0000      -0.586216       -15.9517
  23   2.0000      -0.566638       -15.4190
  24   2.0000      -0.555806       -15.1242
  25   2.0000      -0.535775       -14.5792
  26   2.0000      -0.515162       -14.0183
  27   2.0000      -0.502890       -13.6843
  28   2.0000      -0.488081       -13.2814
  29   2.0000      -0.466983       -12.7072
  30   2.0000      -0.458987       -12.4897
  31   2.0000      -0.452379       -12.3099
  32   2.0000      -0.445149       -12.1131
  33   2.0000      -0.388627       -10.5751
  34   2.0000      -0.374263       -10.1842
  35   0.0000       0.133995         3.6462
  36   0.0000       0.148345         4.0367
  37   0.0000       0.154191         4.1958
  38   0.0000       0.166445         4.5292
  39   0.0000       0.185341         5.0434

MULLIKEN ATOMIC CHARGES
-----------------------
   0 O :   -0.473916
   1 C :   -0.009234
   2 C :   -0.126462
   3 C :   -0.236607
   4 C :   -0.205831
   5 C :   -0.238651
   6 C :   -0.196609
   7 C :   -0.253332
   8 C :   -0.083756
   9 H :    0.324183
  10 H :    0.108123
  11 H :    0.111709
  12 H :    0.120360
  13 H :    0.118414
  14 H :    0.099993
  15 H :    0.117960
  16 H :    0.117162
  17 H :    0.104844
  18 H :    0.097946
  19 H :    0.118358
  20 H :    0.121331
  21 H :    0.145447
  22 H :    0.118568
Sum of atomic charges:    0.0000000

LOEWDIN ATOMIC CHARGES
----------------------
   0 O :   -0.002333
   1 C :   -0.301048
   2 C :   -0.202734
   3 C :   -0.249761
   4 C :   -0.264041
   5 C :   -0.272477
   6 C :   -0.264407
   7 C :   -0.241749
   8 C :   -0.193343
   9 H :    0.180391
  10 H :    0.128493
  11 H :    0.146699
  12 H :    0.138771
  13 H :    0.141530
  14 H :    0.137083
  15 H :    0.136080
  16 H :    0.136921
  17 H :    0.137236
  18 H :    0.136490
  19 H :    0.136438
  20 H :    0.140874
  21 H :    0.146509
  22 H :    0.148381

  Mayer bond orders larger than 0.1
B(  0-O ,  1-C ) :   1.0123 B(  0-O ,  9-H ) :   0.8413 B(  1-C ,  2-C ) :   0.8831
B(  1-C ,  8-C ) :   0.8632 B(  1-C , 10-H ) :   0.9516 B(  2-C ,  3-C ) :   0.9062
B(  2-C ,  8-C ) :   0.8560 B(  2-C , 11-H ) :   0.9226 B(  3-C ,  4-C ) :   0.9264
B(  3-C , 12-H ) :   0.9276 B(  3-C , 13-H ) :   0.9285 B(  4-C ,  5-C ) :   0.9359
B(  4-C , 14-H ) :   0.9282 B(  4-C , 15-H ) :   0.9321 B(  5-C ,  6-C ) :   0.9334
B(  5-C , 16-H ) :   0.9321 B(  5-C , 17-H ) :   0.9353 B(  6-C ,  7-C ) :   0.9171
B(  6-C , 18-H ) :   0.9256 B(  6-C , 19-H ) :   0.9328 B(  7-C ,  8-C ) :   0.9242
B(  7-C , 20-H ) :   0.9307 B(  7-C , 21-H ) :   0.9320 B(  8-C , 22-H ) :   0.9240

MP2 TOTAL ENERGY:     -387.618621626 Eh
FINAL SINGLE POINT ENERGY      -387.618621626376

DIPOLE MOMENT
-------------
                                X             Y             Z
Electronic contribution:      4.33995       1.51458      -3.46452
Nuclear contribution   :     -3.97582      -1.72369       3.80713
                        -----------------------------------------
Total Dipole Moment    :      0.36413      -0.20911       0.34261
                        -----------------------------------------
Magnitude (a.u.)       :      0.54195
Magnitude (Debye)      :      1.37752

                             ****ORCA TERMINATED NORMALLY****
TOTAL RUN TIME: 0 days 0 hours 21 minutes 2 seconds 250 msec
