                         Program Version 3.0.3 - RELEASE   -
|  1> ! RI-MP2 RIJK def2-TZVP def2-TZVP/C def2-TZVP/JK TIGHTSCF
|  2> % maxcore 2000
|  3> % mp2 density relaxed end
|  4> *xyz 0 1
|  5>  C       -0.2005379194     1.5468051986     0.0229970778
|  6>  C        0.0683290238     0.0521535227     0.0252156959
|  7>  C        0.7259020667    -0.4916849381    -1.3087871323
|  8>  C        1.5591190156    -1.6301399582    -0.7259782577
|  9>  N        3.1143648478    -1.9216958854    -0.6772784987
| 10>  C        3.2526666053    -0.4991209837    -0.1274298469
| 11>  C        1.9782435036    -1.0305944642     0.5816296089
| 12>  C        2.8150311678    -2.3212360209     0.7946268990
| 13>  O        0.9575270737    -0.2759754388     1.1468669875
| 14>  H        0.7264144482     2.1064665996    -0.1361939254
| 15>  H       -0.9041462158     1.8057777780    -0.7754648940
| 16>  H       -0.6325836849     1.8622477503     0.9765249088
| 17>  H       -0.8689631998    -0.4906843230     0.2042471462
| 18>  H       -0.0416738441    -0.8196960271    -2.0129698634
| 19>  H        1.3072013996     0.2964918324    -1.7914517309
| 20>  H        1.0059363999    -2.5721026288    -0.6935409324
| 21>  H        4.1545281294    -0.3569749864     0.4723495612
| 22>  H        3.1610183029     0.2804009268    -0.8840071841
| 23>  H        2.2821258653    -3.2696246682     0.8922720743
| 24>  H        3.7037813045    -2.2781187055     1.4277863761
| 25> *
| 26>
| 27>                          ****END OF INPUT****

CARTESIAN COORDINATES (ANGSTROEM)
---------------------------------
  C     -0.200538    1.546805    0.022997
  C      0.068329    0.052154    0.025216
  C      0.725902   -0.491685   -1.308787
  C      1.559119   -1.630140   -0.725978
  N      3.114365   -1.921696   -0.677278
  C      3.252667   -0.499121   -0.127430
  C      1.978244   -1.030594    0.581630
  C      2.815031   -2.321236    0.794627
  O      0.957527   -0.275975    1.146867
  H      0.726414    2.106467   -0.136194
  H     -0.904146    1.805778   -0.775465
  H     -0.632584    1.862248    0.976525
  H     -0.868963   -0.490684    0.204247
  H     -0.041674   -0.819696   -2.012970
  H      1.307201    0.296492   -1.791452
  H      1.005936   -2.572103   -0.693541
  H      4.154528   -0.356975    0.472350
  H      3.161018    0.280401   -0.884007
  H      2.282126   -3.269625    0.892272
  H      3.703781   -2.278119    1.427786

 Total Charge           Charge          ....    0
 Multiplicity           Mult            ....    1
 Number of Electrons    NEL             ....   68
 Basis Dimension        Dim             ....  345

ORBITAL ENERGIES
----------------

  NO   OCC          E(Eh)            E(eV)
   0   2.0000     -20.560416      -559.4774
   1   2.0000     -15.580749      -423.9737
   2   2.0000     -11.293403      -307.3091
   3   2.0000     -11.293158      -307.3024
   4   2.0000     -11.269468      -306.6578
   5   2.0000     -11.256608      -306.3079
   6   2.0000     -11.254866      -306.2605
   7   2.0000     -11.239739      -305.8489
   8   2.0000     -11.222256      -305.3731
   9   2.0000      -1.388302       -37.7776
  10   2.0000      -1.284186       -34.9445
  11   2.0000      -1.063434       -28.9375
  12   2.0000      -0.997009       -27.1300
  13   2.0000      -0.929615       -25.2961
  14   2.0000      -0.900104       -24.4931
  15   2.0000      -0.872597       -23.7446
  16   2.0000      -0.799545       -21.7567
  17   2.0000      -0.742881       -20.2148
  18   2.0000      -0.685620       -18.6567
  19   2.0000      -0.665041       -18.0967
  20   2.0000      -0.642327       -17.4786
  21   2.0000      -0.621137       -16.9020
  22   2.0000      -0.597167       -16.2497
  23   2.0000      -0.566013       -15.4020
  24   2.0000      -0.551048       -14.9948
  25   2.0000      -0.541301       -14.7296
  26   2.0000      -0.514914       -14.0115
  27   2.0000      -0.503661       -13.7053
  28   2.0000      -0.491240       -13.3673
  29   2.0000      -0.467887       -12.7319
  30   2.0000      -0.458920       -12.4879
  31   2.0000      -0.441315       -12.0088
  32   2.0000      -0.407914       -11.0999
  33   2.0000      -0.376728       -10.2513
  34   0.0000       0.134613         3.6630
  35   0.0000       0.152030         4.1369
  36   0.0000       0.160794         4.3754
  37   0.0000       0.167491         4.5576
  38   0.0000       0.184027         5.0076

MULLIKEN ATOMIC CHARGES
-----------------------
   0 C :   -0.404967
   1 C :    0.123636
   2 C :   -0.306805
   3 C :   -0.053693
   4 N :   -0.190337
   5 C :   -0.179363
   6 C :    0.113937
   7 C :   -0.123528
   8 O :   -0.308479
   9 H :    0.126441
  10 H :    0.128959
  11 H :    0.143981
  12 H :    0.090001
  13 H :    0.140833
  14 H :    0.134486
  15 H :    0.098527
  16 H :    0.116490
  17 H :    0.109310
  18 H :    0.117594
  19 H :    0.122978
Sum of atomic charges:    0.0000000

LOEWDIN ATOMIC CHARGES
----------------------
   0 C :   -0.297838
   1 C :   -0.272517
   2 C :   -0.216350
   3 C :   -0.203885
   4 N :    0.109140
   5 C :   -0.209593
   6 C :   -0.350800
   7 C :   -0.192793
   8 O :    0.194305
   9 H :    0.125146
  10 H :    0.128065
  11 H :    0.128409
  12 H :    0.137880
  13 H :    0.138657
  14 H :    0.140671
  15 H :    0.144317
  16 H :    0.124247
  17 H :    0.121700
  18 H :    0.125803
  19 H :    0.125435

  Mayer bond orders larger than 0.1
B(  0-C ,  1-C ) :   0.9093 B(  0-C ,  9-H ) :   0.9358 B(  0-C , 10-H ) :   0.9323
B(  0-C , 11-H ) :   0.9377 B(  1-C ,  2-C ) :   0.8885 B(  1-C ,  8-O ) :   0.8668
B(  1-C , 12-H ) :   0.9253 B(  2-C ,  3-C ) :   0.9204 B(  2-C , 13-H ) :   0.9228
B(  2-C , 14-H ) :   0.9273 B(  3-C ,  4-N ) :   0.9108 B(  3-C ,  6-C ) :   0.9240
B(  3-C , 15-H ) :   0.9302 B(  4-N ,  5-C ) :   0.9247 B(  4-N ,  7-C ) :   0.9090
B(  5-C ,  6-C ) :   0.9383 B(  5-C , 16-H ) :   0.9287 B(  5-C , 17-H ) :   0.9132
B(  6-C ,  7-C ) :   0.9117 B(  6-C ,  8-O ) :   1.0281 B(  7-C , 18-H ) :   0.9168
B(  7-C , 19-H ) :   0.9278

MP2 TOTAL ENERGY:     -402.365004723 Eh
FINAL SINGLE POINT ENERGY      -402.365004723225

DIPOLE MOMENT
-------------
                                X             Y             Z
Electronic contribution:      2.56116      -3.68250       1.84738
Nuclear contribution   :     -3.07945       3.97615      -1.97064
                        -----------------------------------------
Total Dipole Moment    :     -0.51829       0.29365      -0.12326
                        -----------------------------------------
Magnitude (a.u.)       :      0.60831
Magnitude (Debye)      :      1.54621

                             ****ORCA TERMINATED NORMALLY****
TOTAL RUN TIME: 0 days 0 hours 20 minutes 27 seconds 987 msec
