                         Program Version 3.0.3 - RELEASE   -
|  1> ! RI-MP2 RIJK def2-TZVP def2-TZVP/C def2-TZVP/JK TIGHTSCF
|  2> % maxcore 2000
|  3> % mp2 density relaxed end
|  4> *xyz 0 1
|  5>  C       -0.0477178785     1.4755184456     0.0278452648
|  6>  C       -0.0026968328    -0.0208216087    -0.0014351620
|  7>  N       -0.0223261658    -0.5734288079    -1.1622642623
|  8>  O        0.0196971264    -1.9812338636    -1.2034045327
|  9>  C        0.0911432456    -2.7098729617    -0.0775353126
| 10>  N        0.1857282198    -4.0390878556    -0.3731189154
| 11>  C        0.1071775034    -2.1642764211     1.1720031872
| 12>  C        0.0591302451    -0.7430907058     1.3127042302
| 13>  O        0.0633844770    -0.1080932920     2.3604969433
| 14>  H        0.8350798993     1.8587775471     0.5483929439
| 15>  H       -0.0945446521     1.8824017501    -0.9827608211
| 16>  H       -0.9143730329     1.8049535783     0.6087250753
| 17>  H       -0.1043751773    -4.3113976774    -1.2997559061
| 18>  H       -0.0370747029    -4.6882830135     0.3636053883
| 19>  H        0.1631453757    -2.7953715339     2.0497392992
| 20> *
| 21>
| 22>                          ****END OF INPUT****

CARTESIAN COORDINATES (ANGSTROEM)
---------------------------------
  C     -0.047718    1.475518    0.027845
  C     -0.002697   -0.020822   -0.001435
  N     -0.022326   -0.573429   -1.162264
  O      0.019697   -1.981234   -1.203405
  C      0.091143   -2.709873   -0.077535
  N      0.185728   -4.039088   -0.373119
  C      0.107178   -2.164276    1.172003
  C      0.059130   -0.743091    1.312704
  O      0.063384   -0.108093    2.360497
  H      0.835080    1.858778    0.548393
  H     -0.094545    1.882402   -0.982761
  H     -0.914373    1.804954    0.608725
  H     -0.104375   -4.311398   -1.299756
  H     -0.037075   -4.688283    0.363605
  H      0.163145   -2.795372    2.049739

 Total Charge           Charge          ....    0
 Multiplicity           Mult            ....    1
 Number of Electrons    NEL             ....   66
 Basis Dimension        Dim             ....  315

ORBITAL ENERGIES
----------------

  NO   OCC          E(Eh)            E(eV)
   0   2.0000     -20.657741      -562.1257
   1   2.0000     -20.528718      -558.6148
   2   2.0000     -15.657330      -426.0576
   3   2.0000     -15.610391      -424.7803
   4   2.0000     -11.389447      -309.9226
   5   2.0000     -11.336013      -308.4686
   6   2.0000     -11.306215      -307.6578
   7   2.0000     -11.234788      -305.7141
   8   2.0000     -11.229391      -305.5673
   9   2.0000      -1.500909       -40.8418
  10   2.0000      -1.372406       -37.3451
  11   2.0000      -1.275552       -34.7095
  12   2.0000      -1.197798       -32.5937
  13   2.0000      -1.077337       -29.3158
  14   2.0000      -1.000461       -27.2239
  15   2.0000      -0.883297       -24.0357
  16   2.0000      -0.876222       -23.8432
  17   2.0000      -0.768567       -20.9138
  18   2.0000      -0.741255       -20.1706
  19   2.0000      -0.696138       -18.9429
  20   2.0000      -0.684533       -18.6271
  21   2.0000      -0.672974       -18.3125
  22   2.0000      -0.623292       -16.9607
  23   2.0000      -0.603317       -16.4171
  24   2.0000      -0.592549       -16.1241
  25   2.0000      -0.558437       -15.1958
  26   2.0000      -0.549820       -14.9614
  27   2.0000      -0.537123       -14.6159
  28   2.0000      -0.520736       -14.1699
  29   2.0000      -0.509446       -13.8627
  30   2.0000      -0.420193       -11.4340
  31   2.0000      -0.415118       -11.2959
  32   2.0000      -0.348508        -9.4834
  33   0.0000       0.086283         2.3479
  34   0.0000       0.115892         3.1536
  35   0.0000       0.146161         3.9772
  36   0.0000       0.150770         4.1027
  37   0.0000       0.162985         4.4351

MULLIKEN ATOMIC CHARGES
-----------------------
   0 C :   -0.371929
   1 C :    0.053600
   2 N :   -0.086582
   3 O :   -0.147805
   4 C :    0.388600
   5 N :   -0.495573
   6 C :   -0.342851
   7 C :    0.214555
   8 O :   -0.349895
   9 H :    0.151974
  10 H :    0.153040
  11 H :    0.151838
  12 H :    0.274579
  13 H :    0.269924
  14 H :    0.136523
Sum of atomic charges:   -0.0000000

LOEWDIN ATOMIC CHARGES
----------------------
   0 C :   -0.257254
   1 C :   -0.235170
   2 N :    0.094666
   3 O :    0.252634
   4 C :   -0.358978
   5 N :   -0.019553
   6 C :   -0.158078
   7 C :   -0.361413
   8 O :    0.102777
   9 H :    0.143572
  10 H :    0.133978
  11 H :    0.143421
  12 H :    0.181912
  13 H :    0.181382
  14 H :    0.156104

  Mayer bond orders larger than 0.1
B(  0-C ,  1-C ) :   0.9031 B(  0-C ,  9-H ) :   0.9139 B(  0-C , 10-H ) :   0.9423
B(  0-C , 11-H ) :   0.9140 B(  1-C ,  2-N ) :   1.7326 B(  1-C ,  7-C ) :   0.8886
B(  2-N ,  3-O ) :   0.7950 B(  3-O ,  4-C ) :   1.1260 B(  4-C ,  5-N ) :   1.1263
B(  4-C ,  6-C ) :   1.4263 B(  5-N , 12-H ) :   0.8563 B(  5-N , 13-H ) :   0.8694
B(  6-C ,  7-C ) :   1.2235 B(  6-C , 14-H ) :   0.9002 B(  7-C ,  8-O ) :   1.8767

MP2 TOTAL ENERGY:     -453.204813295 Eh
FINAL SINGLE POINT ENERGY      -453.204813295334

DIPOLE MOMENT
-------------
                                X             Y             Z
Electronic contribution:      0.14000      -2.46516      -0.57170
Nuclear contribution   :     -0.40816       1.01920      -0.02086
                        -----------------------------------------
Total Dipole Moment    :     -0.26816      -1.44596      -0.59256
                        -----------------------------------------
Magnitude (a.u.)       :      1.58551
Magnitude (Debye)      :      4.03004

                             ****ORCA TERMINATED NORMALLY****
TOTAL RUN TIME: 0 days 0 hours 14 minutes 34 seconds 710 msec
