                         Program Version 3.0.3 - RELEASE   -
|  1> ! RI-MP2 RIJK def2-TZVP def2-TZVP/C def2-TZVP/JK TIGHTSCF
|  2> % maxcore 2000
|  3> % mp2 density relaxed end
|  4> *xyz 0 1
|  5>  C       -0.3574350921     1.5053109343    -0.0024466743
|  6>  C        0.1022969034     0.0509143087    -0.0141880412
|  7>  C        0.9338266188    -0.4061947575    -1.2367218074
|  8>  C        1.6692881044    -1.6840871353    -0.7789155262
|  9>  C        1.9422310744    -1.4613850394     0.7012831570
| 10>  O        2.7411051729    -2.0138913673     1.4069458527
| 11>  C        0.9761028361    -0.3296237498     1.1745473209
| 12>  O        0.9688195772     0.1438765939     2.2788651835
| 13>  H        0.4958852706     2.1830543612    -0.1087398116
| 14>  H       -1.0543585851     1.7054905979    -0.8213560029
| 15>  H       -0.8518361786     1.7399964182     0.9436197982
| 16>  H       -0.7789943579    -0.6082953537     0.0580804139
| 17>  H        0.3159506114    -0.5679565616    -2.1226184087
| 18>  H        1.6634489894     0.3726261978    -1.4886581967
| 19>  H        1.0154789686    -2.5626317861    -0.8687266804
| 20>  H        2.5872454866    -1.9085555912    -1.3261329768
| 21> *
| 22>
| 23>                          ****END OF INPUT****

CARTESIAN COORDINATES (ANGSTROEM)
---------------------------------
  C     -0.357435    1.505311   -0.002447
  C      0.102297    0.050914   -0.014188
  C      0.933827   -0.406195   -1.236722
  C      1.669288   -1.684087   -0.778916
  C      1.942231   -1.461385    0.701283
  O      2.741105   -2.013891    1.406946
  C      0.976103   -0.329624    1.174547
  O      0.968820    0.143877    2.278865
  H      0.495885    2.183054   -0.108740
  H     -1.054359    1.705491   -0.821356
  H     -0.851836    1.739996    0.943620
  H     -0.778994   -0.608295    0.058080
  H      0.315951   -0.567957   -2.122618
  H      1.663449    0.372626   -1.488658
  H      1.015479   -2.562632   -0.868727
  H      2.587245   -1.908556   -1.326133

 Total Charge           Charge          ....    0
 Multiplicity           Mult            ....    1
 Number of Electrons    NEL             ....   60
 Basis Dimension        Dim             ....  296

ORBITAL ENERGIES
----------------

  NO   OCC          E(Eh)            E(eV)
   0   2.0000     -20.574383      -559.8574
   1   2.0000     -20.574179      -559.8519
   2   2.0000     -11.346419      -308.7517
   3   2.0000     -11.343470      -308.6715
   4   2.0000     -11.262643      -306.4721
   5   2.0000     -11.258250      -306.3525
   6   2.0000     -11.257616      -306.3353
   7   2.0000     -11.235280      -305.7275
   8   2.0000      -1.423661       -38.7398
   9   2.0000      -1.399340       -38.0780
  10   2.0000      -1.147857       -31.2348
  11   2.0000      -1.032801       -28.1039
  12   2.0000      -0.932593       -25.3772
  13   2.0000      -0.913788       -24.8654
  14   2.0000      -0.807309       -21.9680
  15   2.0000      -0.724440       -19.7130
  16   2.0000      -0.696075       -18.9412
  17   2.0000      -0.681800       -18.5527
  18   2.0000      -0.631865       -17.1939
  19   2.0000      -0.627586       -17.0775
  20   2.0000      -0.615753       -16.7555
  21   2.0000      -0.577137       -15.7047
  22   2.0000      -0.565667       -15.3926
  23   2.0000      -0.553784       -15.0692
  24   2.0000      -0.544989       -14.8299
  25   2.0000      -0.511955       -13.9310
  26   2.0000      -0.500120       -13.6090
  27   2.0000      -0.489919       -13.3314
  28   2.0000      -0.484272       -13.1777
  29   2.0000      -0.388446       -10.5701
  30   0.0000       0.055888         1.5208
  31   0.0000       0.122815         3.3420
  32   0.0000       0.143815         3.9134
  33   0.0000       0.152318         4.1448
  34   0.0000       0.179376         4.8811

MULLIKEN ATOMIC CHARGES
-----------------------
   0 C :   -0.400200
   1 C :   -0.034261
   2 C :   -0.262262
   3 C :   -0.203885
   4 C :    0.146417
   5 O :   -0.229733
   6 C :    0.121713
   7 O :   -0.239041
   8 H :    0.129579
   9 H :    0.138465
  10 H :    0.154982
  11 H :    0.121675
  12 H :    0.134442
  13 H :    0.129240
  14 H :    0.142502
  15 H :    0.150365
Sum of atomic charges:   -0.0000000

LOEWDIN ATOMIC CHARGES
----------------------
   0 C :   -0.283340
   1 C :   -0.251378
   2 C :   -0.222198
   3 C :   -0.224146
   4 C :   -0.286857
   5 O :    0.192761
   6 C :   -0.269577
   7 O :    0.196197
   8 H :    0.128170
   9 H :    0.126189
  10 H :    0.133680
  11 H :    0.172734
  12 H :    0.137399
  13 H :    0.143500
  14 H :    0.158104
  15 H :    0.148761

  Mayer bond orders larger than 0.1
B(  0-C ,  1-C ) :   0.9126 B(  0-C ,  8-H ) :   0.9314 B(  0-C ,  9-H ) :   0.9382
B(  0-C , 10-H ) :   0.9325 B(  1-C ,  2-C ) :   0.8947 B(  1-C ,  6-C ) :   0.8529
B(  1-C , 11-H ) :   0.8919 B(  2-C ,  3-C ) :   0.9038 B(  2-C , 12-H ) :   0.9214
B(  2-C , 13-H ) :   0.9247 B(  3-C ,  4-C ) :   0.9015 B(  3-C , 14-H ) :   0.9044
B(  3-C , 15-H ) :   0.9083 B(  4-C ,  5-O ) :   2.0233 B(  4-C ,  6-C ) :   0.8521
B(  6-C ,  7-O ) :   1.9942

MP2 TOTAL ENERGY:     -383.141482720 Eh
FINAL SINGLE POINT ENERGY      -383.141482719674

DIPOLE MOMENT
-------------
                                X             Y             Z
Electronic contribution:      4.46110      -4.03055       7.14407
Nuclear contribution   :     -5.23118       4.16740      -8.77351
                        -----------------------------------------
Total Dipole Moment    :     -0.77008       0.13685      -1.62944
                        -----------------------------------------
Magnitude (a.u.)       :      1.80744
Magnitude (Debye)      :      4.59415

                             ****ORCA TERMINATED NORMALLY****
TOTAL RUN TIME: 0 days 0 hours 12 minutes 35 seconds 71 msec
