                         Program Version 3.0.3 - RELEASE   -
|  1> ! RI-MP2 RIJK def2-TZVP def2-TZVP/C def2-TZVP/JK TIGHTSCF
|  2> % maxcore 2000
|  3> % mp2 density relaxed end
|  4> *xyz 0 1
|  5>  C       -0.0305456305     1.5647953152     0.0052813441
|  6>  C        0.0133777617     0.0390898038    -0.0392660804
|  7>  C        1.1698752104    -0.5747441182    -0.8820644630
|  8>  C        2.0481918327    -0.5100329375     0.4032891768
|  9>  C        0.7056334154    -0.6266055304     1.1913071018
| 10>  C        0.3912749223    -2.1138686982     1.3061235627
| 11>  C       -0.8437282026    -2.7397380803     0.7117667365
| 12>  C        0.4842475471    -2.8698838390    -0.0040447217
| 13>  C        0.8483107392    -2.0387333317    -1.2411392431
| 14>  H        0.9411422094     2.0056762117     0.2484945259
| 15>  H       -0.3442907445     1.9719608711    -0.9624882951
| 16>  H       -0.7467729666     1.9110629700     0.7589557565
| 17>  H       -0.9886153408    -0.3221599363    -0.2881143405
| 18>  H        1.5057709761    -0.0191035265    -1.7628474819
| 19>  H        2.7846516095    -1.3037167526     0.5581337460
| 20>  H        2.5353185625     0.4593150097     0.5237939871
| 21>  H        0.6116296663    -0.1127512788     2.1523526316
| 22>  H        0.8045133737    -2.5898567710     2.1915848971
| 23>  H       -1.2313711419    -3.6306522964     1.1952767635
| 24>  H       -1.6162015900    -2.1097937064     0.2864556019
| 25>  H        0.9271354668    -3.8603276146     0.0234810732
| 26>  H        0.0470024562    -2.0699263616    -1.9915525952
| 27>  H        1.7308501276    -2.4865686120    -1.7136656339
| 28> *
| 29>
| 30>                          ****END OF INPUT****

CARTESIAN COORDINATES (ANGSTROEM)
---------------------------------
  C     -0.030546    1.564795    0.005281
  C      0.013378    0.039090   -0.039266
  C      1.169875   -0.574744   -0.882064
  C      2.048192   -0.510033    0.403289
  C      0.705633   -0.626606    1.191307
  C      0.391275   -2.113869    1.306124
  C     -0.843728   -2.739738    0.711767
  C      0.484248   -2.869884   -0.004045
  C      0.848311   -2.038733   -1.241139
  H      0.941142    2.005676    0.248495
  H     -0.344291    1.971961   -0.962488
  H     -0.746773    1.911063    0.758956
  H     -0.988615   -0.322160   -0.288114
  H      1.505771   -0.019104   -1.762847
  H      2.784652   -1.303717    0.558134
  H      2.535319    0.459315    0.523794
  H      0.611630   -0.112751    2.152353
  H      0.804513   -2.589857    2.191585
  H     -1.231371   -3.630652    1.195277
  H     -1.616202   -2.109794    0.286456
  H      0.927135   -3.860328    0.023481
  H      0.047002   -2.069926   -1.991553
  H      1.730850   -2.486569   -1.713666

 Total Charge           Charge          ....    0
 Multiplicity           Mult            ....    1
 Number of Electrons    NEL             ....   68
 Basis Dimension        Dim             ....  363

ORBITAL ENERGIES
----------------

  NO   OCC          E(Eh)            E(eV)
   0   2.0000     -11.223789      -305.4148
   1   2.0000     -11.222283      -305.3738
   2   2.0000     -11.221057      -305.3405
   3   2.0000     -11.220428      -305.3234
   4   2.0000     -11.219008      -305.2847
   5   2.0000     -11.218017      -305.2578
   6   2.0000     -11.216502      -305.2165
   7   2.0000     -11.211527      -305.0812
   8   2.0000     -11.210416      -305.0509
   9   2.0000      -1.178596       -32.0712
  10   2.0000      -1.098670       -29.8963
  11   2.0000      -0.993506       -27.0347
  12   2.0000      -0.968788       -26.3620
  13   2.0000      -0.866019       -23.5656
  14   2.0000      -0.851850       -23.1800
  15   2.0000      -0.788089       -21.4450
  16   2.0000      -0.774940       -21.0872
  17   2.0000      -0.691224       -18.8092
  18   2.0000      -0.676245       -18.4016
  19   2.0000      -0.626812       -17.0564
  20   2.0000      -0.620547       -16.8859
  21   2.0000      -0.587207       -15.9787
  22   2.0000      -0.569776       -15.5044
  23   2.0000      -0.548782       -14.9331
  24   2.0000      -0.531356       -14.4589
  25   2.0000      -0.519744       -14.1430
  26   2.0000      -0.515479       -14.0269
  27   2.0000      -0.488366       -13.2891
  28   2.0000      -0.471005       -12.8167
  29   2.0000      -0.437126       -11.8948
  30   2.0000      -0.426347       -11.6015
  31   2.0000      -0.413902       -11.2628
  32   2.0000      -0.391188       -10.6448
  33   2.0000      -0.371995       -10.1225
  34   0.0000       0.140231         3.8159
  35   0.0000       0.151700         4.1280
  36   0.0000       0.161081         4.3832
  37   0.0000       0.169428         4.6104
  38   0.0000       0.188743         5.1360

MULLIKEN ATOMIC CHARGES
-----------------------
   0 C :   -0.446805
   1 C :   -0.142553
   2 C :    0.052762
   3 C :   -0.361834
   4 C :    0.119860
   5 C :   -0.230399
   6 C :   -0.266557
   7 C :   -0.096901
   8 C :   -0.267570
   9 H :    0.126785
  10 H :    0.131958
  11 H :    0.132458
  12 H :    0.086818
  13 H :    0.104759
  14 H :    0.112680
  15 H :    0.122755
  16 H :    0.111248
  17 H :    0.112157
  18 H :    0.125852
  19 H :    0.124273
  20 H :    0.115257
  21 H :    0.114952
  22 H :    0.118045
Sum of atomic charges:    0.0000000

LOEWDIN ATOMIC CHARGES
----------------------
   0 C :   -0.292350
   1 C :   -0.209563
   2 C :   -0.197977
   3 C :   -0.191758
   4 C :   -0.178589
   5 C :   -0.185427
   6 C :   -0.210142
   7 C :   -0.195696
   8 C :   -0.218825
   9 H :    0.123800
  10 H :    0.123910
  11 H :    0.124198
  12 H :    0.139800
  13 H :    0.136371
  14 H :    0.128602
  15 H :    0.130751
  16 H :    0.139273
  17 H :    0.146371
  18 H :    0.132247
  19 H :    0.129352
  20 H :    0.143551
  21 H :    0.139587
  22 H :    0.142516

  Mayer bond orders larger than 0.1
B(  0-C ,  1-C ) :   0.8908 B(  0-C ,  9-H ) :   0.9364 B(  0-C , 10-H ) :   0.9442
B(  0-C , 11-H ) :   0.9438 B(  1-C ,  2-C ) :   0.8748 B(  1-C ,  4-C ) :   0.8652
B(  1-C , 12-H ) :   0.9285 B(  2-C ,  3-C ) :   0.8971 B(  2-C ,  8-C ) :   0.9101
B(  2-C , 13-H ) :   0.9296 B(  3-C ,  4-C ) :   0.8708 B(  3-C , 14-H ) :   0.9209
B(  3-C , 15-H ) :   0.9209 B(  4-C ,  5-C ) :   0.8649 B(  4-C , 16-H ) :   0.9257
B(  5-C ,  6-C ) :   0.9082 B(  5-C ,  7-C ) :   0.8966 B(  5-C , 17-H ) :   0.9351
B(  6-C ,  7-C ) :   0.8755 B(  6-C , 18-H ) :   0.9310 B(  6-C , 19-H ) :   0.9151
B(  7-C ,  8-C ) :   0.9352 B(  7-C , 20-H ) :   0.9390 B(  8-C , 21-H ) :   0.9234
B(  8-C , 22-H ) :   0.9275

MP2 TOTAL ENERGY:     -350.499312740 Eh
FINAL SINGLE POINT ENERGY      -350.499312740089

DIPOLE MOMENT
-------------
                                X             Y             Z
Electronic contribution:      0.43634      -2.64642       0.84536
Nuclear contribution   :     -0.40257       2.65223      -0.86108
                        -----------------------------------------
Total Dipole Moment    :      0.03377       0.00580      -0.01572
                        -----------------------------------------
Magnitude (a.u.)       :      0.03769
Magnitude (Debye)      :      0.09581

                             ****ORCA TERMINATED NORMALLY****
TOTAL RUN TIME: 0 days 0 hours 22 minutes 44 seconds 134 msec
