                         Program Version 3.0.3 - RELEASE   -
|  1> ! RI-MP2 RIJK def2-TZVP def2-TZVP/C def2-TZVP/JK TIGHTSCF
|  2> % maxcore 2000
|  3> % mp2 density relaxed end
|  4> *xyz 0 1
|  5>  C        0.0028283111     1.4832032704    -0.1286508240
|  6>  C       -0.0642533173    -0.0333816104     0.0655972366
|  7>  C        0.8219292509    -0.5158370489     1.2068362815
|  8>  O        0.6945725842    -1.9180254406     1.3134650265
|  9>  C        1.4019237108    -2.4974965234     2.4016494475
| 10>  C        0.9004348758    -3.9445549902     2.6068290929
| 11>  C        2.1567839087    -4.7977771312     2.9088651805
| 12>  C        3.2893244942    -3.9158761534     2.4406004614
| 13>  C        2.8887690039    -2.6761203578     2.1687842699
| 14>  H        1.0223318519     1.8122449924    -0.3587970578
| 15>  H       -0.6417159196     1.8032363302    -0.9524234037
| 16>  H       -0.3210394649     2.0165375316     0.7720793257
| 17>  H       -1.0943348344    -0.3468517059     0.2704692356
| 18>  H        0.2412201301    -0.5483759931    -0.8524245833
| 19>  H        1.8690629364    -0.2249455710     1.0174060379
| 20>  H        0.5234384048    -0.0323684665     2.1541930909
| 21>  H        1.2275094795    -1.8748716756     3.2973475224
| 22>  H        0.1339072221    -4.0178430923     3.3813195063
| 23>  H        0.4477014230    -4.2561592412     1.6613299535
| 24>  H        2.2526918065    -5.0134584650     3.9818444733
| 25>  H        2.1411740533    -5.7707350865     2.4043539701
| 26>  H        4.3125131718    -4.2710621662     2.3730380237
| 27>  H        3.5310508173    -1.8632722454     1.8495750728
| 28> *
| 29>
| 30>                          ****END OF INPUT****

CARTESIAN COORDINATES (ANGSTROEM)
---------------------------------
  C      0.002828    1.483203   -0.128651
  C     -0.064253   -0.033382    0.065597
  C      0.821929   -0.515837    1.206836
  O      0.694573   -1.918025    1.313465
  C      1.401924   -2.497497    2.401649
  C      0.900435   -3.944555    2.606829
  C      2.156784   -4.797777    2.908865
  C      3.289324   -3.915876    2.440600
  C      2.888769   -2.676120    2.168784
  H      1.022332    1.812245   -0.358797
  H     -0.641716    1.803236   -0.952423
  H     -0.321039    2.016538    0.772079
  H     -1.094335   -0.346852    0.270469
  H      0.241220   -0.548376   -0.852425
  H      1.869063   -0.224946    1.017406
  H      0.523438   -0.032368    2.154193
  H      1.227509   -1.874872    3.297348
  H      0.133907   -4.017843    3.381320
  H      0.447701   -4.256159    1.661330
  H      2.252692   -5.013458    3.981844
  H      2.141174   -5.770735    2.404354
  H      4.312513   -4.271062    2.373038
  H      3.531051   -1.863272    1.849575

 Total Charge           Charge          ....    0
 Multiplicity           Mult            ....    1
 Number of Electrons    NEL             ....   70
 Basis Dimension        Dim             ....  363

ORBITAL ENERGIES
----------------

  NO   OCC          E(Eh)            E(eV)
   0   2.0000     -20.546516      -559.0991
   1   2.0000     -11.277203      -306.8683
   2   2.0000     -11.268301      -306.6261
   3   2.0000     -11.227148      -305.5062
   4   2.0000     -11.224182      -305.4255
   5   2.0000     -11.218429      -305.2690
   6   2.0000     -11.215818      -305.1979
   7   2.0000     -11.215675      -305.1940
   8   2.0000     -11.214271      -305.1558
   9   2.0000      -1.368676       -37.2436
  10   2.0000      -1.126364       -30.6499
  11   2.0000      -1.049547       -28.5596
  12   2.0000      -0.968068       -26.3425
  13   2.0000      -0.953380       -25.9428
  14   2.0000      -0.894192       -24.3322
  15   2.0000      -0.806135       -21.9360
  16   2.0000      -0.784268       -21.3410
  17   2.0000      -0.734747       -19.9935
  18   2.0000      -0.679843       -18.4995
  19   2.0000      -0.673250       -18.3201
  20   2.0000      -0.644103       -17.5269
  21   2.0000      -0.604159       -16.4400
  22   2.0000      -0.588031       -16.0011
  23   2.0000      -0.583187       -15.8693
  24   2.0000      -0.545324       -14.8390
  25   2.0000      -0.530625       -14.4390
  26   2.0000      -0.512565       -13.9476
  27   2.0000      -0.502661       -13.6781
  28   2.0000      -0.491446       -13.3729
  29   2.0000      -0.488110       -13.2821
  30   2.0000      -0.473127       -12.8744
  31   2.0000      -0.463877       -12.6227
  32   2.0000      -0.462329       -12.5806
  33   2.0000      -0.411333       -11.1930
  34   2.0000      -0.351499        -9.5648
  35   0.0000       0.137803         3.7498
  36   0.0000       0.147927         4.0253
  37   0.0000       0.156445         4.2571
  38   0.0000       0.168785         4.5929
  39   0.0000       0.176484         4.8024

MULLIKEN ATOMIC CHARGES
-----------------------
   0 C :   -0.408406
   1 C :   -0.164883
   2 C :   -0.070801
   3 O :   -0.292719
   4 C :    0.146132
   5 C :   -0.229824
   6 C :   -0.182654
   7 C :   -0.144702
   8 C :   -0.236935
   9 H :    0.122932
  10 H :    0.137445
  11 H :    0.122656
  12 H :    0.111101
  13 H :    0.112854
  14 H :    0.084282
  15 H :    0.085501
  16 H :    0.070809
  17 H :    0.121889
  18 H :    0.123877
  19 H :    0.114815
  20 H :    0.120882
  21 H :    0.127919
  22 H :    0.127831
Sum of atomic charges:    0.0000000

LOEWDIN ATOMIC CHARGES
----------------------
   0 C :   -0.320803
   1 C :   -0.295065
   2 C :   -0.332446
   3 O :    0.178364
   4 C :   -0.300416
   5 C :   -0.213634
   6 C :   -0.243387
   7 C :   -0.154699
   8 C :   -0.151215
   9 H :    0.120275
  10 H :    0.122444
  11 H :    0.120298
  12 H :    0.136932
  13 H :    0.137513
  14 H :    0.116976
  15 H :    0.117111
  16 H :    0.135187
  17 H :    0.132215
  18 H :    0.146642
  19 H :    0.139594
  20 H :    0.136099
  21 H :    0.135826
  22 H :    0.136188

  Mayer bond orders larger than 0.1
B(  0-C ,  1-C ) :   0.9115 B(  0-C ,  9-H ) :   0.9372 B(  0-C , 10-H ) :   0.9403
B(  0-C , 11-H ) :   0.9370 B(  1-C ,  2-C ) :   0.9567 B(  1-C , 12-H ) :   0.9309
B(  1-C , 13-H ) :   0.9311 B(  2-C ,  3-O ) :   0.9424 B(  2-C , 14-H ) :   0.9187
B(  2-C , 15-H ) :   0.9201 B(  3-O ,  4-C ) :   0.9295 B(  4-C ,  5-C ) :   0.9308
B(  4-C ,  8-C ) :   0.9088 B(  4-C , 16-H ) :   0.9285 B(  5-C ,  6-C ) :   0.9466
B(  5-C , 17-H ) :   0.9338 B(  5-C , 18-H ) :   0.9250 B(  6-C ,  7-C ) :   0.9267
B(  6-C , 19-H ) :   0.9106 B(  6-C , 20-H ) :   0.9298 B(  7-C ,  8-C ) :   1.7870
B(  7-C , 21-H ) :   0.9237 B(  8-C , 22-H ) :   0.9201

MP2 TOTAL ENERGY:     -387.613795130 Eh
FINAL SINGLE POINT ENERGY      -387.613795129971

DIPOLE MOMENT
-------------
                                X             Y             Z
Electronic contribution:      2.57088      -5.34134       2.05444
Nuclear contribution   :     -2.37662       5.49725      -1.78299
                        -----------------------------------------
Total Dipole Moment    :      0.19426       0.15592       0.27145
                        -----------------------------------------
Magnitude (a.u.)       :      0.36842
Magnitude (Debye)      :      0.93644

                             ****ORCA TERMINATED NORMALLY****
TOTAL RUN TIME: 0 days 0 hours 17 minutes 2 seconds 450 msec
