                         Program Version 3.0.3 - RELEASE   -
|  1> ! RI-MP2 RIJK def2-TZVP def2-TZVP/C def2-TZVP/JK TIGHTSCF
|  2> % maxcore 2000
|  3> % mp2 density relaxed end
|  4> *xyz 0 1
|  5>  C        0.3053581052     0.9987691261    -1.0564941828
|  6>  C       -0.2023247906     0.5657037777     0.3183013260
|  7>  O       -0.3509196641     1.6788531041     1.2014172688
|  8>  C       -1.5279457982    -0.1720177256     0.2132649777
|  9>  C       -1.6524839545    -1.6807489171     0.0625306063
| 10>  C       -0.4533004392    -2.5563685515     0.0110427659
| 11>  O        0.5791709468    -2.4121743174     0.6293811599
| 12>  N       -2.0919373901    -0.9580576456     1.2734786397
| 13>  C       -1.3921497316    -1.1180649758     2.5492524817
| 14>  H        1.2144510443     1.5953044006    -0.9457883048
| 15>  H        0.5319595270     0.1320137769    -1.6850058724
| 16>  H       -0.4428684987     1.6079919833    -1.5796975155
| 17>  H        0.5420308990    -0.0744504088     0.7924379216
| 18>  H       -0.9802608759     2.2912313368     0.8031078694
| 19>  H       -2.2791824501     0.3922262224    -0.3475038571
| 20>  H       -2.4766350213    -2.0600210195    -0.5392682961
| 21>  H       -0.5791934479    -3.4248400479    -0.6736074604
| 22>  H       -0.3376288622    -1.3952286992     2.4635293129
| 23>  H       -1.4683192085    -0.1698155091     3.0864162203
| 24>  H       -1.9103505794    -1.8919550506     3.1228420990
| 25> *
| 26>
| 27>                          ****END OF INPUT****

CARTESIAN COORDINATES (ANGSTROEM)
---------------------------------
  C      0.305358    0.998769   -1.056494
  C     -0.202325    0.565704    0.318301
  O     -0.350920    1.678853    1.201417
  C     -1.527946   -0.172018    0.213265
  C     -1.652484   -1.680749    0.062531
  C     -0.453300   -2.556369    0.011043
  O      0.579171   -2.412174    0.629381
  N     -2.091937   -0.958058    1.273479
  C     -1.392150   -1.118065    2.549252
  H      1.214451    1.595304   -0.945788
  H      0.531960    0.132014   -1.685006
  H     -0.442868    1.607992   -1.579698
  H      0.542031   -0.074450    0.792438
  H     -0.980261    2.291231    0.803108
  H     -2.279182    0.392226   -0.347504
  H     -2.476635   -2.060021   -0.539268
  H     -0.579193   -3.424840   -0.673607
  H     -0.337629   -1.395229    2.463529
  H     -1.468319   -0.169816    3.086416
  H     -1.910351   -1.891955    3.122842

 Total Charge           Charge          ....    0
 Multiplicity           Mult            ....    1
 Number of Electrons    NEL             ....   70
 Basis Dimension        Dim             ....  345

ORBITAL ENERGIES
----------------

  NO   OCC          E(Eh)            E(eV)
   0   2.0000     -20.563149      -559.5517
   1   2.0000     -20.559635      -559.4561
   2   2.0000     -15.576876      -423.8684
   3   2.0000     -11.343588      -308.6747
   4   2.0000     -11.287106      -307.1378
   5   2.0000     -11.279558      -306.9324
   6   2.0000     -11.277368      -306.8728
   7   2.0000     -11.240395      -305.8667
   8   2.0000     -11.225682      -305.4663
   9   2.0000      -1.402431       -38.1621
  10   2.0000      -1.366007       -37.1710
  11   2.0000      -1.284501       -34.9531
  12   2.0000      -1.038801       -28.2672
  13   2.0000      -1.004216       -27.3261
  14   2.0000      -0.939200       -25.5569
  15   2.0000      -0.880925       -23.9712
  16   2.0000      -0.796249       -21.6670
  17   2.0000      -0.772637       -21.0245
  18   2.0000      -0.713741       -19.4219
  19   2.0000      -0.679029       -18.4773
  20   2.0000      -0.652944       -17.7675
  21   2.0000      -0.640591       -17.4314
  22   2.0000      -0.620850       -16.8942
  23   2.0000      -0.598892       -16.2967
  24   2.0000      -0.587275       -15.9806
  25   2.0000      -0.570744       -15.5307
  26   2.0000      -0.552243       -15.0273
  27   2.0000      -0.539939       -14.6925
  28   2.0000      -0.530013       -14.4224
  29   2.0000      -0.522478       -14.2174
  30   2.0000      -0.479416       -13.0456
  31   2.0000      -0.465080       -12.6555
  32   2.0000      -0.435623       -11.8539
  33   2.0000      -0.426402       -11.6030
  34   2.0000      -0.374704       -10.1962
  35   0.0000       0.100425         2.7327
  36   0.0000       0.133262         3.6262
  37   0.0000       0.155338         4.2270
  38   0.0000       0.168411         4.5827
  39   0.0000       0.174884         4.7588

MULLIKEN ATOMIC CHARGES
-----------------------
   0 C :   -0.405730
   1 C :    0.104099
   2 O :   -0.465718
   3 C :   -0.070157
   4 C :   -0.100972
   5 C :    0.110343
   6 O :   -0.299322
   7 N :   -0.188808
   8 C :   -0.311551
   9 H :    0.152823
  10 H :    0.135122
  11 H :    0.114775
  12 H :    0.131878
  13 H :    0.310652
  14 H :    0.120034
  15 H :    0.131084
  16 H :    0.091100
  17 H :    0.151969
  18 H :    0.149593
  19 H :    0.138788
Sum of atomic charges:    0.0000000

LOEWDIN ATOMIC CHARGES
----------------------
   0 C :   -0.295437
   1 C :   -0.356972
   2 O :   -0.017194
   3 C :   -0.223057
   4 C :   -0.235630
   5 C :   -0.293793
   6 O :    0.121315
   7 N :    0.133203
   8 C :   -0.314605
   9 H :    0.129422
  10 H :    0.129278
  11 H :    0.121291
  12 H :    0.154532
  13 H :    0.173819
  14 H :    0.147546
  15 H :    0.148516
  16 H :    0.118247
  17 H :    0.115334
  18 H :    0.125670
  19 H :    0.118514

  Mayer bond orders larger than 0.1
B(  0-C ,  1-C ) :   0.9332 B(  0-C ,  9-H ) :   0.9418 B(  0-C , 10-H ) :   0.9315
B(  0-C , 11-H ) :   0.9213 B(  1-C ,  2-O ) :   0.8833 B(  1-C ,  3-C ) :   0.9352
B(  1-C , 12-H ) :   0.9136 B(  2-O , 13-H ) :   0.8437 B(  3-C ,  4-C ) :   0.8713
B(  3-C ,  7-N ) :   0.9347 B(  3-C , 14-H ) :   0.8956 B(  4-C ,  5-C ) :   0.9377
B(  4-C ,  7-N ) :   0.9105 B(  4-C , 15-H ) :   0.8979 B(  5-C ,  6-O ) :   1.8873
B(  5-C , 16-H ) :   0.9417 B(  7-N ,  8-C ) :   0.8695 B(  8-C , 17-H ) :   0.9230
B(  8-C , 18-H ) :   0.9298 B(  8-C , 19-H ) :   0.9329

MP2 TOTAL ENERGY:     -439.533622308 Eh
FINAL SINGLE POINT ENERGY      -439.533622308235

DIPOLE MOMENT
-------------
                                X             Y             Z
Electronic contribution:     -0.37104      -3.11126       1.03688
Nuclear contribution   :     -0.22961       3.24632      -1.90856
                        -----------------------------------------
Total Dipole Moment    :     -0.60065       0.13506      -0.87168
                        -----------------------------------------
Magnitude (a.u.)       :      1.06716
Magnitude (Debye)      :      2.71252

                             ****ORCA TERMINATED NORMALLY****
TOTAL RUN TIME: 0 days 0 hours 21 minutes 55 seconds 929 msec
