                         Program Version 3.0.3 - RELEASE   -
|  1> ! RI-MP2 RIJK def2-TZVP def2-TZVP/C def2-TZVP/JK TIGHTSCF
|  2> % maxcore 2000
|  3> % mp2 density relaxed end
|  4> *xyz 0 1
|  5>  N       -0.4406298180    -1.0518489884    -0.0228724661
|  6>  C       -0.2765604530     0.0926399950    -0.0217039005
|  7>  C       -0.0637014994     1.5364890477    -0.0096272204
|  8>  N       -0.0244010857     2.1454992334     1.3677301955
|  9>  C        1.3750000197     2.1538157020     1.3036179863
| 10>  N        2.3788257343     1.9182283331     2.0339322706
| 11>  C        3.4571367664     1.6137348491     1.0440672077
| 12>  C        2.7247604234     1.1467354591    -0.2714426612
| 13>  C        1.4484422901     1.9925404444    -0.1849607630
| 14>  H       -0.7819107808     2.0244289394    -0.6718618312
| 15>  H       -0.4999102018     1.6975371124     2.1440189878
| 16>  H        4.0841221943     2.4972139498     0.8662793313
| 17>  H        4.1021484285     0.8317460793     1.4520671058
| 18>  H        3.3097054284     1.3149229503    -1.1782912888
| 19>  H        2.4968067620     0.0785564026    -0.2002453359
| 20>  H        1.4876462216     2.9195702308    -0.7600533479
| 21> *
| 22>
| 23>                          ****END OF INPUT****

CARTESIAN COORDINATES (ANGSTROEM)
---------------------------------
  N     -0.440630   -1.051849   -0.022872
  C     -0.276560    0.092640   -0.021704
  C     -0.063701    1.536489   -0.009627
  N     -0.024401    2.145499    1.367730
  C      1.375000    2.153816    1.303618
  N      2.378826    1.918228    2.033932
  C      3.457137    1.613735    1.044067
  C      2.724760    1.146735   -0.271443
  C      1.448442    1.992540   -0.184961
  H     -0.781911    2.024429   -0.671862
  H     -0.499910    1.697537    2.144019
  H      4.084122    2.497214    0.866279
  H      4.102148    0.831746    1.452067
  H      3.309705    1.314923   -1.178291
  H      2.496807    0.078556   -0.200245
  H      1.487646    2.919570   -0.760053

 Total Charge           Charge          ....    0
 Multiplicity           Mult            ....    1
 Number of Electrons    NEL             ....   64
 Basis Dimension        Dim             ....  321

ORBITAL ENERGIES
----------------

  NO   OCC          E(Eh)            E(eV)
   0   2.0000     -15.607541      -424.7028
   1   2.0000     -15.589477      -424.2112
   2   2.0000     -15.552588      -423.2074
   3   2.0000     -11.344069      -308.6878
   4   2.0000     -11.320984      -308.0596
   5   2.0000     -11.288684      -307.1807
   6   2.0000     -11.271916      -306.7244
   7   2.0000     -11.266734      -306.5834
   8   2.0000     -11.251519      -306.1694
   9   2.0000      -1.328408       -36.1478
  10   2.0000      -1.237294       -33.6685
  11   2.0000      -1.217493       -33.1297
  12   2.0000      -1.072395       -29.1813
  13   2.0000      -0.985525       -26.8175
  14   2.0000      -0.959458       -26.1082
  15   2.0000      -0.849532       -23.1169
  16   2.0000      -0.769547       -20.9404
  17   2.0000      -0.730100       -19.8670
  18   2.0000      -0.690209       -18.7815
  19   2.0000      -0.669006       -18.2046
  20   2.0000      -0.633053       -17.2262
  21   2.0000      -0.594341       -16.1728
  22   2.0000      -0.580267       -15.7899
  23   2.0000      -0.567069       -15.4307
  24   2.0000      -0.544411       -14.8142
  25   2.0000      -0.522656       -14.2222
  26   2.0000      -0.507250       -13.8030
  27   2.0000      -0.498341       -13.5605
  28   2.0000      -0.477306       -12.9882
  29   2.0000      -0.457327       -12.4445
  30   2.0000      -0.424768       -11.5585
  31   2.0000      -0.377940       -10.2843
  32   0.0000       0.118762         3.2317
  33   0.0000       0.126693         3.4475
  34   0.0000       0.144190         3.9236
  35   0.0000       0.148524         4.0415
  36   0.0000       0.161285         4.3888

MULLIKEN ATOMIC CHARGES
-----------------------
   0 N :   -0.043777
   1 C :   -0.234790
   2 C :    0.140942
   3 N :   -0.301527
   4 C :    0.047735
   5 N :   -0.196333
   6 C :   -0.093721
   7 C :   -0.252054
   8 C :   -0.120513
   9 H :    0.155039
  10 H :    0.241905
  11 H :    0.114881
  12 H :    0.130505
  13 H :    0.135317
  14 H :    0.141232
  15 H :    0.135160
Sum of atomic charges:    0.0000000

LOEWDIN ATOMIC CHARGES
----------------------
   0 N :    0.077765
   1 C :   -0.174594
   2 C :   -0.198888
   3 N :    0.113552
   4 C :   -0.337991
   5 N :    0.096522
   6 C :   -0.245637
   7 C :   -0.222130
   8 C :   -0.151437
   9 H :    0.162517
  10 H :    0.178824
  11 H :    0.127045
  12 H :    0.130044
  13 H :    0.135682
  14 H :    0.147614
  15 H :    0.161112

  Mayer bond orders larger than 0.1
B(  0-N ,  1-C ) :   2.8278 B(  1-C ,  2-C ) :   0.9287 B(  2-C ,  3-N ) :   0.9639
B(  2-C ,  8-C ) :   0.8709 B(  2-C ,  9-H ) :   0.8983 B(  3-N ,  4-C ) :   1.1290
B(  3-N , 10-H ) :   0.8601 B(  4-C ,  5-N ) :   1.9030 B(  4-C ,  8-C ) :   0.9303
B(  5-N ,  6-C ) :   0.8907 B(  6-C ,  7-C ) :   0.9279 B(  6-C , 11-H ) :   0.9239
B(  6-C , 12-H ) :   0.9251 B(  7-C ,  8-C ) :   0.9315 B(  7-C , 13-H ) :   0.9286
B(  7-C , 14-H ) :   0.9138 B(  8-C , 15-H ) :   0.8960

MP2 TOTAL ENERGY:     -396.223452568 Eh
FINAL SINGLE POINT ENERGY      -396.223452567719

DIPOLE MOMENT
-------------
                                X             Y             Z
Electronic contribution:     -5.32074      -1.28963       1.51748
Nuclear contribution   :      5.44043       2.19076      -2.30827
                        -----------------------------------------
Total Dipole Moment    :      0.11969       0.90113      -0.79079
                        -----------------------------------------
Magnitude (a.u.)       :      1.20487
Magnitude (Debye)      :      3.06253

                             ****ORCA TERMINATED NORMALLY****
TOTAL RUN TIME: 0 days 0 hours 18 minutes 19 seconds 948 msec
