                         Program Version 3.0.3 - RELEASE   -
|  1> ! RI-MP2 RIJK def2-TZVP def2-TZVP/C def2-TZVP/JK TIGHTSCF
|  2> % maxcore 2000
|  3> % mp2 density relaxed end
|  4> *xyz 0 1
|  5>  C       -0.3352007236     1.6024994099     0.0794421422
|  6>  N       -0.0212896999     0.1917026159     0.1221059299
|  7>  C        0.8024884022    -0.3981933688    -0.9480037247
|  8>  C        1.4403583769    -1.3521375158     0.0913265855
|  9>  C        2.9370317629    -1.6080815521    -0.0149617396
| 10>  O        3.2400329730    -2.2786587258    -1.2335255887
| 11>  C        0.8378802105    -0.4000362330     1.1722058661
| 12>  C        1.7835388695     0.5108855911     1.9360558626
| 13>  O        2.8692265528     0.1808973775     2.3451095764
| 14>  H        0.5445147044     2.2634303287    -0.0327184533
| 15>  H       -0.9971920199     1.7912340205    -0.7728006171
| 16>  H       -0.8731991371     1.8999831930     0.9861885349
| 17>  H        0.2309426664    -0.8384614852    -1.7711631444
| 18>  H        1.5469768374     0.2983854157    -1.3697407826
| 19>  H        0.9122083011    -2.3113180199     0.1171374669
| 20>  H        3.4929448871    -0.6684590434    -0.0496064953
| 21>  H        3.3015581323    -2.1638416736     0.8592934777
| 22>  H        2.8451286289    -3.1557213699    -1.1947124308
| 23>  H        0.2504320265    -0.8999549357     1.9615699456
| 24>  H        1.3745947687     1.5200287710     2.1678984185
| 25> *
| 26>
| 27>                          ****END OF INPUT****

CARTESIAN COORDINATES (ANGSTROEM)
---------------------------------
  C     -0.335201    1.602499    0.079442
  N     -0.021290    0.191703    0.122106
  C      0.802488   -0.398193   -0.948004
  C      1.440358   -1.352138    0.091327
  C      2.937032   -1.608082   -0.014962
  O      3.240033   -2.278659   -1.233526
  C      0.837880   -0.400036    1.172206
  C      1.783539    0.510886    1.936056
  O      2.869227    0.180897    2.345110
  H      0.544515    2.263430   -0.032718
  H     -0.997192    1.791234   -0.772801
  H     -0.873199    1.899983    0.986189
  H      0.230943   -0.838461   -1.771163
  H      1.546977    0.298385   -1.369741
  H      0.912208   -2.311318    0.117137
  H      3.492945   -0.668459   -0.049606
  H      3.301558   -2.163842    0.859293
  H      2.845129   -3.155721   -1.194712
  H      0.250432   -0.899955    1.961570
  H      1.374595    1.520029    2.167898

 Total Charge           Charge          ....    0
 Multiplicity           Mult            ....    1
 Number of Electrons    NEL             ....   70
 Basis Dimension        Dim             ....  345

ORBITAL ENERGIES
----------------

  NO   OCC          E(Eh)            E(eV)
   0   2.0000     -20.564858      -559.5982
   1   2.0000     -20.555909      -559.3547
   2   2.0000     -15.559283      -423.3896
   3   2.0000     -11.339080      -308.5520
   4   2.0000     -11.280464      -306.9570
   5   2.0000     -11.273363      -306.7638
   6   2.0000     -11.257866      -306.3421
   7   2.0000     -11.257428      -306.3302
   8   2.0000     -11.244467      -305.9775
   9   2.0000      -1.403913       -38.2024
  10   2.0000      -1.359304       -36.9885
  11   2.0000      -1.262773       -34.3618
  12   2.0000      -1.055744       -28.7283
  13   2.0000      -0.977276       -26.5930
  14   2.0000      -0.948161       -25.8008
  15   2.0000      -0.852117       -23.1873
  16   2.0000      -0.833714       -22.6865
  17   2.0000      -0.748510       -20.3680
  18   2.0000      -0.698503       -19.0072
  19   2.0000      -0.690932       -18.8012
  20   2.0000      -0.668678       -18.1957
  21   2.0000      -0.657110       -17.8809
  22   2.0000      -0.615804       -16.7569
  23   2.0000      -0.605007       -16.4631
  24   2.0000      -0.599803       -16.3215
  25   2.0000      -0.580204       -15.7881
  26   2.0000      -0.557663       -15.1748
  27   2.0000      -0.539162       -14.6713
  28   2.0000      -0.508089       -13.8258
  29   2.0000      -0.498627       -13.5683
  30   2.0000      -0.491631       -13.3779
  31   2.0000      -0.457776       -12.4567
  32   2.0000      -0.441953       -12.0262
  33   2.0000      -0.434336       -11.8189
  34   2.0000      -0.362077        -9.8526
  35   0.0000       0.110504         3.0070
  36   0.0000       0.134417         3.6577
  37   0.0000       0.138233         3.7615
  38   0.0000       0.160700         4.3729
  39   0.0000       0.175559         4.7772

MULLIKEN ATOMIC CHARGES
-----------------------
   0 C :   -0.352607
   1 N :   -0.116792
   2 C :   -0.191939
   3 C :   -0.092605
   4 C :   -0.030891
   5 O :   -0.463853
   6 C :   -0.030958
   7 C :    0.052023
   8 O :   -0.264405
   9 H :    0.116353
  10 H :    0.145548
  11 H :    0.140811
  12 H :    0.113469
  13 H :    0.107397
  14 H :    0.102815
  15 H :    0.112673
  16 H :    0.118180
  17 H :    0.312304
  18 H :    0.122459
  19 H :    0.100018
Sum of atomic charges:   -0.0000000

LOEWDIN ATOMIC CHARGES
----------------------
   0 C :   -0.345019
   1 N :    0.085832
   2 C :   -0.226033
   3 C :   -0.216382
   4 C :   -0.331632
   5 O :   -0.046578
   6 C :   -0.232119
   7 C :   -0.272596
   8 O :    0.141964
   9 H :    0.101808
  10 H :    0.122265
  11 H :    0.119196
  12 H :    0.121508
  13 H :    0.125935
  14 H :    0.150097
  15 H :    0.132295
  16 H :    0.122424
  17 H :    0.172265
  18 H :    0.158127
  19 H :    0.116644

  Mayer bond orders larger than 0.1
B(  0-C ,  1-N ) :   0.9110 B(  0-C ,  9-H ) :   0.9272 B(  0-C , 10-H ) :   0.9342
B(  0-C , 11-H ) :   0.9346 B(  1-N ,  2-C ) :   0.9277 B(  1-N ,  6-C ) :   0.9724
B(  2-C ,  3-C ) :   0.9116 B(  2-C , 12-H ) :   0.9187 B(  2-C , 13-H ) :   0.9210
B(  3-C ,  4-C ) :   0.9549 B(  3-C ,  6-C ) :   0.9078 B(  3-C , 14-H ) :   0.9070
B(  4-C ,  5-O ) :   0.9232 B(  4-C , 15-H ) :   0.9167 B(  4-C , 16-H ) :   0.9398
B(  5-O , 17-H ) :   0.8485 B(  6-C ,  7-C ) :   0.8452 B(  6-C , 18-H ) :   0.8788
B(  7-C ,  8-O ) :   1.9743 B(  7-C , 19-H ) :   0.9422

MP2 TOTAL ENERGY:     -439.527847777 Eh
FINAL SINGLE POINT ENERGY      -439.527847776936

DIPOLE MOMENT
-------------
                                X             Y             Z
Electronic contribution:      3.14171      -2.11350       3.03484
Nuclear contribution   :     -4.08406       2.08797      -3.00331
                        -----------------------------------------
Total Dipole Moment    :     -0.94235      -0.02552       0.03153
                        -----------------------------------------
Magnitude (a.u.)       :      0.94322
Magnitude (Debye)      :      2.39748

                             ****ORCA TERMINATED NORMALLY****
TOTAL RUN TIME: 0 days 0 hours 28 minutes 31 seconds 721 msec
