                         Program Version 3.0.3 - RELEASE   -
|  1> ! RI-MP2 RIJK def2-TZVP def2-TZVP/C def2-TZVP/JK TIGHTSCF
|  2> % maxcore 2000
|  3> % mp2 density relaxed end
|  4> *xyz 0 1
|  5>  C       -0.1109509099    -1.2390166035     0.0350516610
|  6>  C       -0.0495203084    -0.0379856120     0.0398298233
|  7>  C       -0.0045222701     1.3907668989     0.0204180272
|  8>  C        0.5293813083     2.1710851449     1.2206188691
|  9>  O        0.9805385259     1.4354687481     2.3110517784
| 10>  C        2.3924923456     1.3657511266     2.4845361889
| 11>  C        3.1494835126     1.1127168274     1.2078656816
| 12>  C        2.6394783163     1.4551641103     0.0274268212
| 13>  C        1.3354550566     2.1550201654    -0.0387441606
| 14>  H       -0.1651363000    -2.2990258082     0.0424533718
| 15>  H       -0.8211171613     1.8691956184    -0.5138909561
| 16>  H       -0.0104674113     3.0749364614     1.4973058038
| 17>  H        2.7660200445     2.2841833944     2.9699502774
| 18>  H        2.5516733151     0.5454521791     3.1917509862
| 19>  H        4.1231619298     0.6400225676     1.2943230536
| 20>  H        3.1651814786     1.2524827921    -0.9004229681
| 21>  H        1.3094510277     3.0473984790    -0.6578399488
| 22> *
| 23>
| 24>                          ****END OF INPUT****

CARTESIAN COORDINATES (ANGSTROEM)
---------------------------------
  C     -0.110951   -1.239017    0.035052
  C     -0.049520   -0.037986    0.039830
  C     -0.004522    1.390767    0.020418
  C      0.529381    2.171085    1.220619
  O      0.980539    1.435469    2.311052
  C      2.392492    1.365751    2.484536
  C      3.149484    1.112717    1.207866
  C      2.639478    1.455164    0.027427
  C      1.335455    2.155020   -0.038744
  H     -0.165136   -2.299026    0.042453
  H     -0.821117    1.869196   -0.513891
  H     -0.010467    3.074936    1.497306
  H      2.766020    2.284183    2.969950
  H      2.551673    0.545452    3.191751
  H      4.123162    0.640023    1.294323
  H      3.165181    1.252483   -0.900423
  H      1.309451    3.047398   -0.657840

 Total Charge           Charge          ....    0
 Multiplicity           Mult            ....    1
 Number of Electrons    NEL             ....   64
 Basis Dimension        Dim             ....  327

ORBITAL ENERGIES
----------------

  NO   OCC          E(Eh)            E(eV)
   0   2.0000     -20.563454      -559.5600
   1   2.0000     -11.295167      -307.3571
   2   2.0000     -11.285582      -307.0963
   3   2.0000     -11.258612      -306.3624
   4   2.0000     -11.251418      -306.1666
   5   2.0000     -11.236813      -305.7692
   6   2.0000     -11.234704      -305.7119
   7   2.0000     -11.227802      -305.5240
   8   2.0000     -11.212868      -305.1176
   9   2.0000      -1.389839       -37.8194
  10   2.0000      -1.160086       -31.5675
  11   2.0000      -1.075721       -29.2719
  12   2.0000      -1.018568       -27.7166
  13   2.0000      -0.933914       -25.4131
  14   2.0000      -0.866407       -23.5761
  15   2.0000      -0.849571       -23.1180
  16   2.0000      -0.724455       -19.7134
  17   2.0000      -0.718077       -19.5399
  18   2.0000      -0.692416       -18.8416
  19   2.0000      -0.672174       -18.2908
  20   2.0000      -0.662621       -18.0308
  21   2.0000      -0.614181       -16.7127
  22   2.0000      -0.597859       -16.2686
  23   2.0000      -0.579238       -15.7619
  24   2.0000      -0.540298       -14.7023
  25   2.0000      -0.518084       -14.0978
  26   2.0000      -0.501374       -13.6431
  27   2.0000      -0.436643       -11.8817
  28   2.0000      -0.430852       -11.7241
  29   2.0000      -0.376573       -10.2471
  30   2.0000      -0.367693       -10.0054
  31   2.0000      -0.338819        -9.2197
  32   0.0000       0.137123         3.7313
  33   0.0000       0.141768         3.8577
  34   0.0000       0.157999         4.2994
  35   0.0000       0.169915         4.6236
  36   0.0000       0.173414         4.7188

MULLIKEN ATOMIC CHARGES
-----------------------
   0 C :   -0.171301
   1 C :    0.073858
   2 C :   -0.342162
   3 C :    0.076731
   4 O :   -0.307399
   5 C :   -0.008535
   6 C :   -0.164445
   7 C :   -0.205443
   8 C :   -0.023319
   9 H :    0.185927
  10 H :    0.137786
  11 H :    0.118114
  12 H :    0.107610
  13 H :    0.129836
  14 H :    0.129107
  15 H :    0.130049
  16 H :    0.133585
Sum of atomic charges:   -0.0000000

LOEWDIN ATOMIC CHARGES
----------------------
   0 C :   -0.095683
   1 C :   -0.088873
   2 C :   -0.165501
   3 C :   -0.247243
   4 O :    0.206332
   5 C :   -0.284411
   6 C :   -0.160127
   7 C :   -0.145333
   8 C :   -0.163536
   9 H :    0.125487
  10 H :    0.164796
  11 H :    0.137317
  12 H :    0.130169
  13 H :    0.137910
  14 H :    0.144572
  15 H :    0.147232
  16 H :    0.156891

  Mayer bond orders larger than 0.1
B(  0-C ,  1-C ) :   2.5653 B(  0-C ,  2-C ) :  -0.1190 B(  0-C ,  9-H ) :   0.8993
B(  1-C ,  2-C ) :   1.1899 B(  2-C ,  3-C ) :   0.8368 B(  2-C ,  8-C ) :   0.8345
B(  2-C , 10-H ) :   0.9257 B(  3-C ,  4-O ) :   1.0174 B(  3-C ,  8-C ) :   0.8748
B(  3-C , 11-H ) :   0.9466 B(  4-O ,  5-C ) :   0.9155 B(  5-C ,  6-C ) :   0.9336
B(  5-C , 12-H ) :   0.9166 B(  5-C , 13-H ) :   0.9311 B(  6-C ,  7-C ) :   1.8059
B(  6-C , 14-H ) :   0.9150 B(  7-C ,  8-C ) :   0.9418 B(  7-C , 15-H ) :   0.9297
B(  8-C , 16-H ) :   0.9159

MP2 TOTAL ENERGY:     -383.941574037 Eh
FINAL SINGLE POINT ENERGY      -383.941574036778

DIPOLE MOMENT
-------------
                                X             Y             Z
Electronic contribution:     -2.40535      -0.96605      -0.20931
Nuclear contribution   :      2.90925       1.40261       0.02217
                        -----------------------------------------
Total Dipole Moment    :      0.50391       0.43657      -0.18715
                        -----------------------------------------
Magnitude (a.u.)       :      0.69249
Magnitude (Debye)      :      1.76016

                             ****ORCA TERMINATED NORMALLY****
TOTAL RUN TIME: 0 days 0 hours 17 minutes 37 seconds 317 msec
