                         Program Version 3.0.3 - RELEASE   -
|  1> ! RI-MP2 RIJK def2-TZVP def2-TZVP/C def2-TZVP/JK TIGHTSCF
|  2> % maxcore 2000
|  3> % mp2 density relaxed end
|  4> *xyz 0 1
|  5>  C        0.0465668012     1.4511078843     0.1083797501
|  6>  C       -0.0227482339    -0.0321328588    -0.0673505212
|  7>  C        0.6366224568    -0.9492926452    -1.1333498142
|  8>  C        0.0300495479    -1.8482855072    -0.0215118068
|  9>  C        0.1851055650    -3.3142534297     0.2286571868
| 10>  O        0.5887866223    -0.8972667786     0.9830011612
| 11>  C       -1.2360107704    -0.9766676107    -0.0611106774
| 12>  C       -2.4922141449    -0.9933209838     0.7253055167
| 13>  C       -2.5254179636    -1.0328696597    -0.8037598506
| 14>  H        1.0877742478     1.7829372869     0.1604738483
| 15>  H       -0.4355594177     1.9578147763    -0.7338155586
| 16>  H       -0.4587631025     1.7515206156     1.0315499490
| 17>  H        0.1868617067    -0.9875034680    -2.1291791250
| 18>  H        1.7279396364    -0.9179885692    -1.1501156630
| 19>  H        1.2437437384    -3.5819732150     0.2961051265
| 20>  H       -0.3034679791    -3.5966317918     1.1664247605
| 21>  H       -0.2653517459    -3.8899035123    -0.5863305269
| 22>  H       -2.7611546782    -1.8988141205     1.2605344681
| 23>  H       -2.8140219498    -0.0791469152     1.2146330329
| 24>  H       -2.8687919861    -0.1445385836    -1.3255865623
| 25>  H       -2.8159199002    -1.9647903140    -1.2796515541
| 26> *
| 27>
| 28>                          ****END OF INPUT****

CARTESIAN COORDINATES (ANGSTROEM)
---------------------------------
  C      0.046567    1.451108    0.108380
  C     -0.022748   -0.032133   -0.067351
  C      0.636622   -0.949293   -1.133350
  C      0.030050   -1.848286   -0.021512
  C      0.185106   -3.314253    0.228657
  O      0.588787   -0.897267    0.983001
  C     -1.236011   -0.976668   -0.061111
  C     -2.492214   -0.993321    0.725306
  C     -2.525418   -1.032870   -0.803760
  H      1.087774    1.782937    0.160474
  H     -0.435559    1.957815   -0.733816
  H     -0.458763    1.751521    1.031550
  H      0.186862   -0.987503   -2.129179
  H      1.727940   -0.917989   -1.150116
  H      1.243744   -3.581973    0.296105
  H     -0.303468   -3.596632    1.166425
  H     -0.265352   -3.889904   -0.586331
  H     -2.761155   -1.898814    1.260534
  H     -2.814022   -0.079147    1.214633
  H     -2.868792   -0.144539   -1.325587
  H     -2.815920   -1.964790   -1.279652

 Total Charge           Charge          ....    0
 Multiplicity           Mult            ....    1
 Number of Electrons    NEL             ....   68
 Basis Dimension        Dim             ....  351

ORBITAL ENERGIES
----------------

  NO   OCC          E(Eh)            E(eV)
   0   2.0000     -20.534342      -558.7678
   1   2.0000     -11.296961      -307.4059
   2   2.0000     -11.296898      -307.4042
   3   2.0000     -11.239991      -305.8557
   4   2.0000     -11.228602      -305.5458
   5   2.0000     -11.227413      -305.5134
   6   2.0000     -11.224740      -305.4407
   7   2.0000     -11.222544      -305.3810
   8   2.0000     -11.222543      -305.3809
   9   2.0000      -1.382633       -37.6234
  10   2.0000      -1.141865       -31.0717
  11   2.0000      -1.043891       -28.4057
  12   2.0000      -1.020034       -27.7565
  13   2.0000      -0.968141       -26.3445
  14   2.0000      -0.862905       -23.4808
  15   2.0000      -0.824922       -22.4473
  16   2.0000      -0.775693       -21.1077
  17   2.0000      -0.704986       -19.1836
  18   2.0000      -0.651642       -17.7321
  19   2.0000      -0.646518       -17.5926
  20   2.0000      -0.619978       -16.8704
  21   2.0000      -0.601025       -16.3547
  22   2.0000      -0.588824       -16.0227
  23   2.0000      -0.577635       -15.7182
  24   2.0000      -0.557116       -15.1599
  25   2.0000      -0.542561       -14.7638
  26   2.0000      -0.516933       -14.0665
  27   2.0000      -0.504409       -13.7257
  28   2.0000      -0.491100       -13.3635
  29   2.0000      -0.441051       -12.0016
  30   2.0000      -0.440022       -11.9736
  31   2.0000      -0.426778       -11.6132
  32   2.0000      -0.407418       -11.0864
  33   2.0000      -0.386041       -10.5047
  34   0.0000       0.132608         3.6084
  35   0.0000       0.148447         4.0395
  36   0.0000       0.164841         4.4856
  37   0.0000       0.172706         4.6996
  38   0.0000       0.199213         5.4209

MULLIKEN ATOMIC CHARGES
-----------------------
   0 C :   -0.423403
   1 C :    0.050782
   2 C :   -0.087060
   3 C :    0.050790
   4 C :   -0.423403
   5 O :   -0.298460
   6 C :    0.098799
   7 C :   -0.279507
   8 C :   -0.279048
   9 H :    0.147997
  10 H :    0.138085
  11 H :    0.144857
  12 H :    0.111786
  13 H :    0.106882
  14 H :    0.147999
  15 H :    0.144854
  16 H :    0.138087
  17 H :    0.127553
  18 H :    0.127554
  19 H :    0.127429
  20 H :    0.127430
Sum of atomic charges:    0.0000000

LOEWDIN ATOMIC CHARGES
----------------------
   0 C :   -0.269472
   1 C :   -0.254871
   2 C :   -0.151561
   3 C :   -0.254871
   4 C :   -0.269472
   5 O :    0.158595
   6 C :   -0.170301
   7 C :   -0.197497
   8 C :   -0.204147
   9 H :    0.135972
  10 H :    0.134884
  11 H :    0.135425
  12 H :    0.130567
  13 H :    0.132608
  14 H :    0.135974
  15 H :    0.135423
  16 H :    0.134884
  17 H :    0.135227
  18 H :    0.135227
  19 H :    0.133702
  20 H :    0.133702

  Mayer bond orders larger than 0.1
B(  0-C ,  1-C ) :   0.8061 B(  0-C ,  9-H ) :   0.9440 B(  0-C , 10-H ) :   0.9391
B(  0-C , 11-H ) :   0.9469 B(  1-C ,  2-C ) :   0.8928 B(  1-C ,  3-C ) :   0.1027
B(  1-C ,  5-O ) :   0.9657 B(  1-C ,  6-C ) :   0.9027 B(  2-C ,  3-C ) :   0.8928
B(  2-C ,  5-O ) :  -0.1053 B(  2-C , 12-H ) :   0.9069 B(  2-C , 13-H ) :   0.9101
B(  3-C ,  4-C ) :   0.8061 B(  3-C ,  5-O ) :   0.9657 B(  3-C ,  6-C ) :   0.9027
B(  4-C , 14-H ) :   0.9440 B(  4-C , 15-H ) :   0.9469 B(  4-C , 16-H ) :   0.9391
B(  6-C ,  7-C ) :   0.8619 B(  6-C ,  8-C ) :   0.8523 B(  7-C ,  8-C ) :   0.9355
B(  7-C , 17-H ) :   0.9212 B(  7-C , 18-H ) :   0.9212 B(  8-C , 19-H ) :   0.9142
B(  8-C , 20-H ) :   0.9142

MP2 TOTAL ENERGY:     -386.340887256 Eh
FINAL SINGLE POINT ENERGY      -386.340887255562

DIPOLE MOMENT
-------------
                                X             Y             Z
Electronic contribution:      1.79379       0.08816       1.42823
Nuclear contribution   :     -2.15964      -0.11455      -2.05263
                        -----------------------------------------
Total Dipole Moment    :     -0.36585      -0.02639      -0.62440
                        -----------------------------------------
Magnitude (a.u.)       :      0.72416
Magnitude (Debye)      :      1.84068

                             ****ORCA TERMINATED NORMALLY****
TOTAL RUN TIME: 0 days 0 hours 19 minutes 0 seconds 802 msec
