                         Program Version 3.0.3 - RELEASE   -
|  1> ! RI-MP2 RIJK def2-TZVP def2-TZVP/C def2-TZVP/JK TIGHTSCF
|  2> % maxcore 2000
|  3> % mp2 density relaxed end
|  4> *xyz 0 1
|  5>  C       -0.0082109871     1.5978979138    -0.1058832942
|  6>  O        1.3613774927     1.9760124818    -0.2262983293
|  7>  C        2.1585699923     0.8390879589    -0.6206027462
|  8>  C        1.1369004630    -0.2684993418    -0.9453332791
|  9>  C       -0.0108302593     0.0702551609     0.0227389498
| 10>  C        0.2232609314    -0.4184523727     1.4686960313
| 11>  C        1.3354700119     0.2772246518     2.2839821371
| 12>  C        2.7427538774     0.1829213135     1.7377884396
| 13>  C        3.1122991466     0.4358755154     0.4827453923
| 14>  H       -0.4338764661     2.1121226032     0.7636921224
| 15>  H       -0.5711106549     1.9158782971    -0.9972513475
| 16>  H        2.7311573298     1.1313803638    -1.5078518118
| 17>  H        0.7909587906    -0.1737984540    -1.9804791145
| 18>  H        1.5477898172    -1.2707608161    -0.8095437358
| 19>  H       -0.9577289943    -0.3493099094    -0.3316286145
| 20>  H       -0.7153868231    -0.2942683564     2.0240072844
| 21>  H        0.4230999283    -1.4968442192     1.4437188895
| 22>  H        1.0811629705     1.3380696300     2.4110726502
| 23>  H        1.3185028952    -0.1520766303     3.2915725493
| 24>  H        3.5145533015    -0.0864960487     2.4555144060
| 25>  H        4.1603969065     0.3449592685     0.2082887709
| 26> *
| 27>
| 28>                          ****END OF INPUT****

CARTESIAN COORDINATES (ANGSTROEM)
---------------------------------
  C     -0.008211    1.597898   -0.105883
  O      1.361377    1.976012   -0.226298
  C      2.158570    0.839088   -0.620603
  C      1.136900   -0.268499   -0.945333
  C     -0.010830    0.070255    0.022739
  C      0.223261   -0.418452    1.468696
  C      1.335470    0.277225    2.283982
  C      2.742754    0.182921    1.737788
  C      3.112299    0.435876    0.482745
  H     -0.433876    2.112123    0.763692
  H     -0.571111    1.915878   -0.997251
  H      2.731157    1.131380   -1.507852
  H      0.790959   -0.173798   -1.980479
  H      1.547790   -1.270761   -0.809544
  H     -0.957729   -0.349310   -0.331629
  H     -0.715387   -0.294268    2.024007
  H      0.423100   -1.496844    1.443719
  H      1.081163    1.338070    2.411073
  H      1.318503   -0.152077    3.291573
  H      3.514553   -0.086496    2.455514
  H      4.160397    0.344959    0.208289

 Total Charge           Charge          ....    0
 Multiplicity           Mult            ....    1
 Number of Electrons    NEL             ....   68
 Basis Dimension        Dim             ....  351

ORBITAL ENERGIES
----------------

  NO   OCC          E(Eh)            E(eV)
   0   2.0000     -20.541795      -558.9707
   1   2.0000     -11.276803      -306.8574
   2   2.0000     -11.266946      -306.5892
   3   2.0000     -11.229943      -305.5823
   4   2.0000     -11.224812      -305.4427
   5   2.0000     -11.223947      -305.4191
   6   2.0000     -11.223317      -305.4020
   7   2.0000     -11.222373      -305.3763
   8   2.0000     -11.216153      -305.2070
   9   2.0000      -1.364899       -37.1408
  10   2.0000      -1.103704       -30.0333
  11   2.0000      -1.055715       -28.7275
  12   2.0000      -1.022497       -27.8236
  13   2.0000      -0.941399       -25.6168
  14   2.0000      -0.878707       -23.9108
  15   2.0000      -0.820084       -22.3156
  16   2.0000      -0.767075       -20.8732
  17   2.0000      -0.708452       -19.2780
  18   2.0000      -0.691091       -18.8055
  19   2.0000      -0.653572       -17.7846
  20   2.0000      -0.626499       -17.0479
  21   2.0000      -0.621323       -16.9071
  22   2.0000      -0.587029       -15.9739
  23   2.0000      -0.566622       -15.4186
  24   2.0000      -0.557658       -15.1746
  25   2.0000      -0.524593       -14.2749
  26   2.0000      -0.517705       -14.0875
  27   2.0000      -0.496731       -13.5167
  28   2.0000      -0.479603       -13.0507
  29   2.0000      -0.467847       -12.7308
  30   2.0000      -0.451250       -12.2791
  31   2.0000      -0.447560       -12.1787
  32   2.0000      -0.404870       -11.0171
  33   2.0000      -0.344019        -9.3612
  34   0.0000       0.129562         3.5256
  35   0.0000       0.143891         3.9155
  36   0.0000       0.164042         4.4638
  37   0.0000       0.169435         4.6106
  38   0.0000       0.174179         4.7397

MULLIKEN ATOMIC CHARGES
-----------------------
   0 C :   -0.071224
   1 O :   -0.340117
   2 C :    0.214453
   3 C :   -0.286297
   4 C :   -0.030405
   5 C :   -0.272690
   6 C :   -0.187129
   7 C :   -0.166146
   8 C :   -0.256667
   9 H :    0.107547
  10 H :    0.098023
  11 H :    0.103407
  12 H :    0.123668
  13 H :    0.127338
  14 H :    0.108838
  15 H :    0.122359
  16 H :    0.111740
  17 H :    0.129740
  18 H :    0.129180
  19 H :    0.118375
  20 H :    0.116010
Sum of atomic charges:   -0.0000000

LOEWDIN ATOMIC CHARGES
----------------------
   0 C :   -0.287753
   1 O :    0.162126
   2 C :   -0.280171
   3 C :   -0.211510
   4 C :   -0.254597
   5 C :   -0.237311
   6 C :   -0.250726
   7 C :   -0.164359
   8 C :   -0.159572
   9 H :    0.126193
  10 H :    0.120617
  11 H :    0.141261
  12 H :    0.140213
  13 H :    0.142645
  14 H :    0.152063
  15 H :    0.140707
  16 H :    0.140884
  17 H :    0.151997
  18 H :    0.142218
  19 H :    0.142910
  20 H :    0.142165

  Mayer bond orders larger than 0.1
B(  0-C ,  1-O ) :   0.9373 B(  0-C ,  4-C ) :   0.9316 B(  0-C ,  9-H ) :   0.9246
B(  0-C , 10-H ) :   0.9215 B(  1-O ,  2-C ) :   0.9213 B(  2-C ,  3-C ) :   0.9218
B(  2-C ,  8-C ) :   0.9058 B(  2-C , 11-H ) :   0.9262 B(  3-C ,  4-C ) :   0.9148
B(  3-C , 12-H ) :   0.9238 B(  3-C , 13-H ) :   0.9250 B(  4-C ,  5-C ) :   0.9125
B(  4-C , 14-H ) :   0.9234 B(  5-C ,  6-C ) :   0.9206 B(  5-C , 15-H ) :   0.9303
B(  5-C , 16-H ) :   0.9282 B(  6-C ,  7-C ) :   0.9326 B(  6-C , 17-H ) :   0.9175
B(  6-C , 18-H ) :   0.9317 B(  7-C ,  8-C ) :   1.8163 B(  7-C , 19-H ) :   0.9281
B(  8-C , 20-H ) :   0.9259

MP2 TOTAL ENERGY:     -386.427344587 Eh
FINAL SINGLE POINT ENERGY      -386.427344587031

DIPOLE MOMENT
-------------
                                X             Y             Z
Electronic contribution:      2.35246       2.63609      -1.52257
Nuclear contribution   :     -2.69955      -3.24626       1.51290
                        -----------------------------------------
Total Dipole Moment    :     -0.34709      -0.61017      -0.00967
                        -----------------------------------------
Magnitude (a.u.)       :      0.70205
Magnitude (Debye)      :      1.78446

                             ****ORCA TERMINATED NORMALLY****
TOTAL RUN TIME: 0 days 0 hours 20 minutes 39 seconds 211 msec
