                         Program Version 3.0.3 - RELEASE   -
|  1> ! RI-MP2 RIJK def2-TZVP def2-TZVP/C def2-TZVP/JK TIGHTSCF
|  2> % maxcore 2000
|  3> % mp2 density relaxed end
|  4> *xyz 0 1
|  5>  C       -0.1165251755     1.5558034567     0.0255231717
|  6>  C        0.0510470027     0.0536071876     0.0732559102
|  7>  C        1.3551981288    -0.6667752365    -0.1926291042
|  8>  C        2.6714014602     0.1022797769    -0.0790571625
|  9>  C        2.7081486601     0.5254150854     1.3720821661
| 10>  C        1.6618435572     0.0691292204     2.0702154944
| 11>  C        1.3820018721     0.3034881561     3.5230923676
| 12>  C        0.7290354792    -0.7258017134     1.1972799017
| 13>  C        0.0618568744    -1.9620474888     1.7580146580
| 14>  H        0.7135098734     2.0791946990     0.5056363210
| 15>  H       -0.1782905974     1.9054527122    -1.0116307885
| 16>  H       -1.0399860866     1.8617555682     0.5301885990
| 17>  H       -0.8083367494    -0.4774672252    -0.3338401403
| 18>  H        1.3227989268    -1.5348038683    -0.8426964213
| 19>  H        3.5281107249    -0.5340601741    -0.3391539142
| 20>  H        2.7166464800     0.9639905847    -0.7597747040
| 21>  H        3.4901178229     1.1605659067     1.7763043156
| 22>  H        2.1714790537     0.8981346942     3.9905387115
| 23>  H        0.4289514596     0.8290551772     3.6659470182
| 24>  H        1.3002183504    -0.6413221255     4.0745174263
| 25>  H       -0.6431347348    -1.7148168232     2.5606716042
| 26>  H       -0.5014529454    -2.4864928921     0.9797255354
| 27>  H        0.7971339228    -2.6652825483     2.1669116541
| 28> *
| 29>
| 30>                          ****END OF INPUT****

CARTESIAN COORDINATES (ANGSTROEM)
---------------------------------
  C     -0.116525    1.555803    0.025523
  C      0.051047    0.053607    0.073256
  C      1.355198   -0.666775   -0.192629
  C      2.671401    0.102280   -0.079057
  C      2.708149    0.525415    1.372082
  C      1.661844    0.069129    2.070215
  C      1.382002    0.303488    3.523092
  C      0.729035   -0.725802    1.197280
  C      0.061857   -1.962047    1.758015
  H      0.713510    2.079195    0.505636
  H     -0.178291    1.905453   -1.011631
  H     -1.039986    1.861756    0.530189
  H     -0.808337   -0.477467   -0.333840
  H      1.322799   -1.534804   -0.842696
  H      3.528111   -0.534060   -0.339154
  H      2.716646    0.963991   -0.759775
  H      3.490118    1.160566    1.776304
  H      2.171479    0.898135    3.990539
  H      0.428951    0.829055    3.665947
  H      1.300218   -0.641322    4.074517
  H     -0.643135   -1.714817    2.560672
  H     -0.501453   -2.486493    0.979726
  H      0.797134   -2.665283    2.166912

 Total Charge           Charge          ....    0
 Multiplicity           Mult            ....    1
 Number of Electrons    NEL             ....   68
 Basis Dimension        Dim             ....  363

ORBITAL ENERGIES
----------------

  NO   OCC          E(Eh)            E(eV)
   0   2.0000     -11.228236      -305.5358
   1   2.0000     -11.224906      -305.4452
   2   2.0000     -11.224337      -305.4297
   3   2.0000     -11.219761      -305.3052
   4   2.0000     -11.218680      -305.2758
   5   2.0000     -11.218231      -305.2636
   6   2.0000     -11.214459      -305.1610
   7   2.0000     -11.208909      -305.0099
   8   2.0000     -11.207930      -304.9833
   9   2.0000      -1.180724       -32.1291
  10   2.0000      -1.051875       -28.6230
  11   2.0000      -1.004781       -27.3415
  12   2.0000      -0.974972       -26.5303
  13   2.0000      -0.921396       -25.0725
  14   2.0000      -0.888628       -24.1808
  15   2.0000      -0.786634       -21.4054
  16   2.0000      -0.743293       -20.2260
  17   2.0000      -0.679071       -18.4785
  18   2.0000      -0.654892       -17.8205
  19   2.0000      -0.615139       -16.7388
  20   2.0000      -0.592511       -16.1230
  21   2.0000      -0.574395       -15.6301
  22   2.0000      -0.560456       -15.2508
  23   2.0000      -0.553411       -15.0591
  24   2.0000      -0.546010       -14.8577
  25   2.0000      -0.541263       -14.7285
  26   2.0000      -0.530814       -14.4442
  27   2.0000      -0.520799       -14.1717
  28   2.0000      -0.494526       -13.4567
  29   2.0000      -0.480071       -13.0634
  30   2.0000      -0.455631       -12.3984
  31   2.0000      -0.403887       -10.9903
  32   2.0000      -0.380915       -10.3652
  33   2.0000      -0.316581        -8.6146
  34   0.0000       0.131677         3.5831
  35   0.0000       0.156001         4.2450
  36   0.0000       0.162241         4.4148
  37   0.0000       0.166113         4.5202
  38   0.0000       0.173142         4.7114

MULLIKEN ATOMIC CHARGES
-----------------------
   0 C :   -0.412006
   1 C :   -0.151074
   2 C :   -0.113249
   3 C :   -0.177590
   4 C :   -0.228283
   5 C :   -0.024584
   6 C :   -0.471917
   7 C :    0.179507
   8 C :   -0.413193
   9 H :    0.145686
  10 H :    0.129954
  11 H :    0.129203
  12 H :    0.106495
  13 H :    0.124541
  14 H :    0.119552
  15 H :    0.121021
  16 H :    0.114963
  17 H :    0.138205
  18 H :    0.141722
  19 H :    0.144671
  20 H :    0.134334
  21 H :    0.129371
  22 H :    0.132671
Sum of atomic charges:   -0.0000000

LOEWDIN ATOMIC CHARGES
----------------------
   0 C :   -0.292567
   1 C :   -0.189180
   2 C :   -0.148534
   3 C :   -0.222576
   4 C :   -0.140623
   5 C :   -0.152762
   6 C :   -0.269063
   7 C :   -0.188774
   8 C :   -0.267160
   9 H :    0.131308
  10 H :    0.125634
  11 H :    0.124947
  12 H :    0.151730
  13 H :    0.142970
  14 H :    0.141398
  15 H :    0.142459
  16 H :    0.135012
  17 H :    0.130210
  18 H :    0.131704
  19 H :    0.131280
  20 H :    0.126724
  21 H :    0.128682
  22 H :    0.127182

  Mayer bond orders larger than 0.1
B(  0-C ,  1-C ) :   0.9032 B(  0-C ,  9-H ) :   0.9364 B(  0-C , 10-H ) :   0.9374
B(  0-C , 11-H ) :   0.9400 B(  1-C ,  2-C ) :   0.8888 B(  1-C ,  7-C ) :   0.8490
B(  1-C , 12-H ) :   0.9315 B(  2-C ,  3-C ) :   0.9516 B(  2-C ,  7-C ) :   0.8255
B(  2-C , 13-H ) :   0.9264 B(  3-C ,  4-C ) :   0.9879 B(  3-C , 14-H ) :   0.9138
B(  3-C , 15-H ) :   0.9040 B(  4-C ,  5-C ) :   1.7414 B(  4-C , 16-H ) :   0.9323
B(  5-C ,  6-C ) :   0.8845 B(  5-C ,  7-C ) :   0.9213 B(  6-C , 17-H ) :   0.9484
B(  6-C , 18-H ) :   0.9327 B(  6-C , 19-H ) :   0.9381 B(  7-C ,  8-C ) :   0.8688
B(  8-C , 20-H ) :   0.9408 B(  8-C , 21-H ) :   0.9325 B(  8-C , 22-H ) :   0.9401

MP2 TOTAL ENERGY:     -350.516859027 Eh
FINAL SINGLE POINT ENERGY      -350.516859026566

DIPOLE MOMENT
-------------
                                X             Y             Z
Electronic contribution:      2.45052      -0.70885      -1.45068
Nuclear contribution   :     -2.52422       0.66606       1.49383
                        -----------------------------------------
Total Dipole Moment    :     -0.07370      -0.04278       0.04315
                        -----------------------------------------
Magnitude (a.u.)       :      0.09552
Magnitude (Debye)      :      0.24279

                             ****ORCA TERMINATED NORMALLY****
TOTAL RUN TIME: 0 days 0 hours 23 minutes 22 seconds 119 msec
