                         Program Version 3.0.3 - RELEASE   -
|  1> ! RI-MP2 RIJK def2-TZVP def2-TZVP/C def2-TZVP/JK TIGHTSCF
|  2> % maxcore 2000
|  3> % mp2 density relaxed end
|  4> *xyz 0 1
|  5>  O       -0.9444767241     1.2256673214    -0.3292323609
|  6>  C        0.1226721056     0.8728122799     0.0963424494
|  7>  C        1.3674700550     1.6971391257     0.0146399618
|  8>  N        2.4810051969     1.2763774695     0.4687787949
|  9>  C        3.4630895875     2.3551604596     0.1952561359
| 10>  C        2.6067417540     3.4849761827    -0.4679595111
| 11>  O        1.2842433520     2.9105989101    -0.5636478796
| 12>  C        4.1583167619     2.7849719254     1.4021138721
| 13>  C        4.7293808331     3.1725215436     2.3849784724
| 14>  H        0.2967432883    -0.1003135268     0.5931546972
| 15>  H        4.2006666338     1.9587026015    -0.5134918371
| 16>  H        2.5514859236     4.3855437035     0.1466289361
| 17>  H        2.9430272406     3.7436748626    -1.4737564255
| 18>  H        5.2366780016     3.5021692412     3.2581230944
| 19> *
| 20>
| 21>                          ****END OF INPUT****

CARTESIAN COORDINATES (ANGSTROEM)
---------------------------------
  O     -0.944477    1.225667   -0.329232
  C      0.122672    0.872812    0.096342
  C      1.367470    1.697139    0.014640
  N      2.481005    1.276377    0.468779
  C      3.463090    2.355160    0.195256
  C      2.606742    3.484976   -0.467960
  O      1.284243    2.910599   -0.563648
  C      4.158317    2.784972    1.402114
  C      4.729381    3.172522    2.384978
  H      0.296743   -0.100314    0.593155
  H      4.200667    1.958703   -0.513492
  H      2.551486    4.385544    0.146629
  H      2.943027    3.743675   -1.473756
  H      5.236678    3.502169    3.258123

 Total Charge           Charge          ....    0
 Multiplicity           Mult            ....    1
 Number of Electrons    NEL             ....   64
 Basis Dimension        Dim             ....  309

ORBITAL ENERGIES
----------------

  NO   OCC          E(Eh)            E(eV)
   0   2.0000     -20.617752      -561.0375
   1   2.0000     -20.587127      -560.2042
   2   2.0000     -15.587233      -424.1502
   3   2.0000     -11.360882      -309.1453
   4   2.0000     -11.357459      -309.0522
   5   2.0000     -11.316971      -307.9504
   6   2.0000     -11.315875      -307.9206
   7   2.0000     -11.249826      -306.1233
   8   2.0000     -11.242163      -305.9148
   9   2.0000      -1.467783       -39.9404
  10   2.0000      -1.419330       -38.6219
  11   2.0000      -1.248722       -33.9795
  12   2.0000      -1.095812       -29.8186
  13   2.0000      -1.023373       -27.8474
  14   2.0000      -0.922445       -25.1010
  15   2.0000      -0.904950       -24.6250
  16   2.0000      -0.786236       -21.3946
  17   2.0000      -0.749748       -20.4017
  18   2.0000      -0.727923       -19.8078
  19   2.0000      -0.711375       -19.3575
  20   2.0000      -0.683766       -18.6062
  21   2.0000      -0.641041       -17.4436
  22   2.0000      -0.630836       -17.1659
  23   2.0000      -0.618622       -16.8336
  24   2.0000      -0.580897       -15.8070
  25   2.0000      -0.559414       -15.2224
  26   2.0000      -0.529088       -14.3972
  27   2.0000      -0.479380       -13.0446
  28   2.0000      -0.458527       -12.4771
  29   2.0000      -0.417200       -11.3526
  30   2.0000      -0.408048       -11.1036
  31   2.0000      -0.402652       -10.9567
  32   0.0000       0.065671         1.7870
  33   0.0000       0.127628         3.4729
  34   0.0000       0.155041         4.2189
  35   0.0000       0.158628         4.3165
  36   0.0000       0.171780         4.6744

MULLIKEN ATOMIC CHARGES
-----------------------
   0 O :   -0.230716
   1 C :    0.069217
   2 C :    0.228124
   3 N :   -0.246765
   4 C :   -0.083121
   5 C :   -0.055766
   6 O :   -0.241949
   7 C :   -0.050960
   8 C :   -0.110969
   9 H :    0.118811
  10 H :    0.139998
  11 H :    0.137355
  12 H :    0.127938
  13 H :    0.198802
Sum of atomic charges:    0.0000000

LOEWDIN ATOMIC CHARGES
----------------------
   0 O :    0.168332
   1 C :   -0.251049
   2 C :   -0.384348
   3 N :    0.142389
   4 C :   -0.254334
   5 C :   -0.209416
   6 O :    0.261459
   7 C :   -0.089155
   8 C :   -0.075907
   9 H :    0.128066
  10 H :    0.168102
  11 H :    0.135506
  12 H :    0.130179
  13 H :    0.130175

  Mayer bond orders larger than 0.1
B(  0-O ,  1-C ) :   2.0157 B(  1-C ,  2-C ) :   0.8114 B(  1-C ,  9-H ) :   0.9604
B(  2-C ,  3-N ) :   1.7690 B(  2-C ,  6-O ) :   1.1149 B(  3-N ,  4-C ) :   0.9214
B(  4-C ,  5-C ) :   0.9237 B(  4-C ,  7-C ) :   1.1223 B(  4-C , 10-H ) :   0.9139
B(  5-C ,  6-O ) :   0.8669 B(  5-C , 11-H ) :   0.9258 B(  5-C , 12-H ) :   0.9185
B(  7-C ,  8-C ) :   2.5958 B(  8-C , 13-H ) :   0.8924

MP2 TOTAL ENERGY:     -435.925837678 Eh
FINAL SINGLE POINT ENERGY      -435.925837677540

DIPOLE MOMENT
-------------
                                X             Y             Z
Electronic contribution:     -3.49980      -1.88734      -0.41148
Nuclear contribution   :      4.59019       2.35078       0.42267
                        -----------------------------------------
Total Dipole Moment    :      1.09039       0.46344       0.01119
                        -----------------------------------------
Magnitude (a.u.)       :      1.18484
Magnitude (Debye)      :      3.01163

                             ****ORCA TERMINATED NORMALLY****
TOTAL RUN TIME: 0 days 0 hours 12 minutes 50 seconds 870 msec
