                         Program Version 3.0.3 - RELEASE   -
|  1> ! RI-MP2 RIJK def2-TZVP def2-TZVP/C def2-TZVP/JK TIGHTSCF
|  2> % maxcore 2000
|  3> % mp2 density relaxed end
|  4> *xyz 0 1
|  5>  C        0.2512651596     1.3854168625    -0.0918996740
|  6>  C       -0.0284510029    -0.0835987437    -0.0903587921
|  7>  C       -0.2702463315    -0.8822422657    -1.1484371370
|  8>  C       -0.2177535186    -2.2696721355    -0.5708979375
|  9>  C        0.9442396890    -2.9425564409    -0.5458432793
| 10>  C        1.4203270552    -3.0197620019     0.9009999918
| 11>  N        0.4341281936    -2.2402423976     1.6896741909
| 12>  C       -0.1653511108    -0.8652645436     1.2187298531
| 13>  C       -0.7497205245    -2.1623643443     0.8600224691
| 14>  H        1.2474319062     1.5957902058     0.3178462770
| 15>  H        0.2033860105     1.8013157744    -1.1018028452
| 16>  H       -0.4650762770     1.9317503005     0.5353662703
| 17>  H       -0.2270046614    -0.6023561532    -2.1933327641
| 18>  H        1.6485374634    -2.9743061383    -1.3707830566
| 19>  H        1.4865891383    -4.0188712842     1.3567492820
| 20>  H        2.4234016748    -2.5772024540     0.9599949038
| 21>  H       -0.4650553600    -0.3144343372     2.1041569070
| 22>  H       -1.7090929542    -2.5693454829     1.1742119808
| 23> *
| 24>
| 25>                          ****END OF INPUT****

CARTESIAN COORDINATES (ANGSTROEM)
---------------------------------
  C      0.251265    1.385417   -0.091900
  C     -0.028451   -0.083599   -0.090359
  C     -0.270246   -0.882242   -1.148437
  C     -0.217754   -2.269672   -0.570898
  C      0.944240   -2.942556   -0.545843
  C      1.420327   -3.019762    0.901000
  N      0.434128   -2.240242    1.689674
  C     -0.165351   -0.865265    1.218730
  C     -0.749721   -2.162364    0.860022
  H      1.247432    1.595790    0.317846
  H      0.203386    1.801316   -1.101803
  H     -0.465076    1.931750    0.535366
  H     -0.227005   -0.602356   -2.193333
  H      1.648537   -2.974306   -1.370783
  H      1.486589   -4.018871    1.356749
  H      2.423402   -2.577202    0.959995
  H     -0.465055   -0.314434    2.104157
  H     -1.709093   -2.569345    1.174212

 Total Charge           Charge          ....    0
 Multiplicity           Mult            ....    1
 Number of Electrons    NEL             ....   64
 Basis Dimension        Dim             ....  333

ORBITAL ENERGIES
----------------

  NO   OCC          E(Eh)            E(eV)
   0   2.0000     -15.566572      -423.5880
   1   2.0000     -11.265858      -306.5596
   2   2.0000     -11.262204      -306.4602
   3   2.0000     -11.252462      -306.1951
   4   2.0000     -11.247854      -306.0697
   5   2.0000     -11.242416      -305.9217
   6   2.0000     -11.239242      -305.8353
   7   2.0000     -11.232114      -305.6414
   8   2.0000     -11.230967      -305.6102
   9   2.0000      -1.285172       -34.9713
  10   2.0000      -1.110405       -30.2157
  11   2.0000      -1.059382       -28.8272
  12   2.0000      -0.996396       -27.1133
  13   2.0000      -0.917881       -24.9768
  14   2.0000      -0.861793       -23.4506
  15   2.0000      -0.801009       -21.7965
  16   2.0000      -0.742483       -20.2040
  17   2.0000      -0.719347       -19.5744
  18   2.0000      -0.670883       -18.2556
  19   2.0000      -0.633453       -17.2371
  20   2.0000      -0.593393       -16.1471
  21   2.0000      -0.588238       -16.0068
  22   2.0000      -0.578290       -15.7361
  23   2.0000      -0.563849       -15.3431
  24   2.0000      -0.542293       -14.7566
  25   2.0000      -0.515084       -14.0161
  26   2.0000      -0.489863       -13.3299
  27   2.0000      -0.452764       -12.3203
  28   2.0000      -0.441313       -12.0087
  29   2.0000      -0.422489       -11.4965
  30   2.0000      -0.367446        -9.9987
  31   2.0000      -0.289142        -7.8679
  32   0.0000       0.107262         2.9187
  33   0.0000       0.133157         3.6234
  34   0.0000       0.140873         3.8333
  35   0.0000       0.162596         4.4245
  36   0.0000       0.175605         4.7785

MULLIKEN ATOMIC CHARGES
-----------------------
   0 C :   -0.438222
   1 C :    0.041082
   2 C :   -0.206118
   3 C :    0.045910
   4 C :   -0.212186
   5 C :   -0.096149
   6 N :   -0.252212
   7 C :   -0.167926
   8 C :    0.075873
   9 H :    0.145561
  10 H :    0.139853
  11 H :    0.142420
  12 H :    0.138944
  13 H :    0.126861
  14 H :    0.128362
  15 H :    0.119981
  16 H :    0.126195
  17 H :    0.141770
Sum of atomic charges:   -0.0000000

LOEWDIN ATOMIC CHARGES
----------------------
   0 C :   -0.273854
   1 C :   -0.159734
   2 C :   -0.089677
   3 C :   -0.124484
   4 C :   -0.117854
   5 C :   -0.258780
   6 N :    0.138274
   7 C :   -0.148008
   8 C :   -0.197409
   9 H :    0.134001
  10 H :    0.131638
  11 H :    0.132483
  12 H :    0.140603
  13 H :    0.136794
  14 H :    0.134453
  15 H :    0.138694
  16 H :    0.145942
  17 H :    0.136918

  Mayer bond orders larger than 0.1
B(  0-C ,  1-C ) :   0.8849 B(  0-C ,  9-H ) :   0.9282 B(  0-C , 10-H ) :   0.9473
B(  0-C , 11-H ) :   0.9323 B(  1-C ,  2-C ) :   1.7320 B(  1-C ,  7-C ) :   0.8962
B(  2-C ,  3-C ) :   0.9111 B(  2-C , 12-H ) :   0.9272 B(  3-C ,  4-C ) :   1.7253
B(  3-C ,  8-C ) :   0.8628 B(  4-C ,  5-C ) :   0.9454 B(  4-C , 13-H ) :   0.9220
B(  5-C ,  6-N ) :   0.9340 B(  5-C , 14-H ) :   0.9111 B(  5-C , 15-H ) :   0.9132
B(  6-N ,  7-C ) :   0.8781 B(  6-N ,  8-C ) :   0.9021 B(  7-C ,  8-C ) :   0.8837
B(  7-C , 16-H ) :   0.9448 B(  8-C , 17-H ) :   0.8947

MP2 TOTAL ENERGY:     -364.052879146 Eh
FINAL SINGLE POINT ENERGY      -364.052879145939

DIPOLE MOMENT
-------------
                                X             Y             Z
Electronic contribution:     -1.92205      -4.29039       0.13660
Nuclear contribution   :      2.15357       4.74619      -0.57723
                        -----------------------------------------
Total Dipole Moment    :      0.23152       0.45580      -0.44063
                        -----------------------------------------
Magnitude (a.u.)       :      0.67491
Magnitude (Debye)      :      1.71548

                             ****ORCA TERMINATED NORMALLY****
TOTAL RUN TIME: 0 days 0 hours 20 minutes 8 seconds 518 msec
