                         Program Version 3.0.3 - RELEASE   -
|  1> ! RI-MP2 RIJK def2-TZVP def2-TZVP/C def2-TZVP/JK TIGHTSCF
|  2> % maxcore 2000
|  3> % mp2 density relaxed end
|  4> *xyz 0 1
|  5>  O        0.0322770320     0.2482981336    -0.8687212067
|  6>  C        0.0887411061     1.3832233109    -0.4394026702
|  7>  N        1.2022678864     1.9530119981     0.0670952974
|  8>  C        2.5350639507     1.3920935533     0.2737255973
|  9>  C        2.9503560119     2.7453894172     0.9286890685
| 10>  C        4.0564273743     3.5204091405     0.2040690354
| 11>  C        4.2295193080     4.8686905937     0.7321296840
| 12>  C        4.3412612395     5.9747661283     1.1889593512
| 13>  C        1.4951133079     3.2506461401     0.6810940788
| 14>  H       -0.7769161993     2.0778885427    -0.4210774376
| 15>  H        2.5474118568     0.5174401367     0.9316656668
| 16>  H        3.0568651075     1.1381365827    -0.6561915158
| 17>  H        3.1935440354     2.6575089445     1.9883795495
| 18>  H        5.0000024548     2.9652776224     0.2841407802
| 19>  H        3.8218211567     3.5712995330    -0.8677311532
| 20>  H        4.4547412402     6.9544799650     1.5826566636
| 21>  H        1.4172633674     4.1046533204    -0.0015274017
| 22>  H        0.9129156438     3.4641091670     1.5836648625
| 23> *
| 24>
| 25>                          ****END OF INPUT****

CARTESIAN COORDINATES (ANGSTROEM)
---------------------------------
  O      0.032277    0.248298   -0.868721
  C      0.088741    1.383223   -0.439403
  N      1.202268    1.953012    0.067095
  C      2.535064    1.392094    0.273726
  C      2.950356    2.745389    0.928689
  C      4.056427    3.520409    0.204069
  C      4.229519    4.868691    0.732130
  C      4.341261    5.974766    1.188959
  C      1.495113    3.250646    0.681094
  H     -0.776916    2.077889   -0.421077
  H      2.547412    0.517440    0.931666
  H      3.056865    1.138137   -0.656192
  H      3.193544    2.657509    1.988380
  H      5.000002    2.965278    0.284141
  H      3.821821    3.571300   -0.867731
  H      4.454741    6.954480    1.582657
  H      1.417263    4.104653   -0.001527
  H      0.912916    3.464109    1.583665

 Total Charge           Charge          ....    0
 Multiplicity           Mult            ....    1
 Number of Electrons    NEL             ....   66
 Basis Dimension        Dim             ....  333

ORBITAL ENERGIES
----------------

  NO   OCC          E(Eh)            E(eV)
   0   2.0000     -20.517641      -558.3134
   1   2.0000     -15.586453      -424.1290
   2   2.0000     -11.343624      -308.6757
   3   2.0000     -11.283546      -307.0409
   4   2.0000     -11.276761      -306.8563
   5   2.0000     -11.269959      -306.6712
   6   2.0000     -11.262891      -306.4788
   7   2.0000     -11.245495      -306.0055
   8   2.0000     -11.233001      -305.6655
   9   2.0000      -1.378158       -37.5016
  10   2.0000      -1.276193       -34.7270
  11   2.0000      -1.104441       -30.0534
  12   2.0000      -1.035859       -28.1872
  13   2.0000      -0.967188       -26.3185
  14   2.0000      -0.954240       -25.9662
  15   2.0000      -0.830063       -22.5872
  16   2.0000      -0.760191       -20.6859
  17   2.0000      -0.734603       -19.9896
  18   2.0000      -0.715730       -19.4760
  19   2.0000      -0.690647       -18.7935
  20   2.0000      -0.654717       -17.8158
  21   2.0000      -0.637002       -17.3337
  22   2.0000      -0.616136       -16.7659
  23   2.0000      -0.577680       -15.7195
  24   2.0000      -0.559142       -15.2150
  25   2.0000      -0.552690       -15.0394
  26   2.0000      -0.526259       -14.3202
  27   2.0000      -0.510193       -13.8831
  28   2.0000      -0.484428       -13.1820
  29   2.0000      -0.423939       -11.5360
  30   2.0000      -0.398497       -10.8437
  31   2.0000      -0.398227       -10.8363
  32   2.0000      -0.377656       -10.2765
  33   0.0000       0.121954         3.3185
  34   0.0000       0.141839         3.8596
  35   0.0000       0.151375         4.1191
  36   0.0000       0.159587         4.3426
  37   0.0000       0.166222         4.5231

MULLIKEN ATOMIC CHARGES
-----------------------
   0 O :   -0.363288
   1 C :    0.122682
   2 N :   -0.062257
   3 C :   -0.149319
   4 C :   -0.005795
   5 C :   -0.404084
   6 C :   -0.032587
   7 C :   -0.137586
   8 C :   -0.176527
   9 H :    0.077569
  10 H :    0.127377
  11 H :    0.122904
  12 H :    0.123361
  13 H :    0.153063
  14 H :    0.158211
  15 H :    0.193522
  16 H :    0.128519
  17 H :    0.124234
Sum of atomic charges:   -0.0000000

LOEWDIN ATOMIC CHARGES
----------------------
   0 O :    0.054486
   1 C :   -0.426941
   2 N :    0.174713
   3 C :   -0.194756
   4 C :   -0.203247
   5 C :   -0.234121
   6 C :   -0.110523
   7 C :   -0.099331
   8 C :   -0.198646
   9 H :    0.111099
  10 H :    0.131368
  11 H :    0.132091
  12 H :    0.151571
  13 H :    0.161689
  14 H :    0.162466
  15 H :    0.127803
  16 H :    0.131971
  17 H :    0.128309

  Mayer bond orders larger than 0.1
B(  0-O ,  1-C ) :   1.9048 B(  1-C ,  2-N ) :   1.1425 B(  1-C ,  9-H ) :   0.9295
B(  2-N ,  3-C ) :   0.8873 B(  2-N ,  8-C ) :   0.9182 B(  3-C ,  4-C ) :   0.9159
B(  3-C , 10-H ) :   0.9233 B(  3-C , 11-H ) :   0.9119 B(  4-C ,  5-C ) :   0.8929
B(  4-C ,  8-C ) :   0.9311 B(  4-C , 12-H ) :   0.9210 B(  5-C ,  6-C ) :   1.0765
B(  5-C , 13-H ) :   0.9214 B(  5-C , 14-H ) :   0.9281 B(  6-C ,  7-C ) :   2.6165
B(  7-C , 15-H ) :   0.9005 B(  8-C , 16-H ) :   0.9077 B(  8-C , 17-H ) :   0.9116

MP2 TOTAL ENERGY:     -401.217327981 Eh
FINAL SINGLE POINT ENERGY      -401.217327981401

DIPOLE MOMENT
-------------
                                X             Y             Z
Electronic contribution:     -2.31684      -1.45581      -1.07967
Nuclear contribution   :      3.08566       2.61617       1.77584
                        -----------------------------------------
Total Dipole Moment    :      0.76883       1.16036       0.69616
                        -----------------------------------------
Magnitude (a.u.)       :      1.55633
Magnitude (Debye)      :      3.95588

                             ****ORCA TERMINATED NORMALLY****
TOTAL RUN TIME: 0 days 0 hours 14 minutes 37 seconds 785 msec
