                         Program Version 3.0.3 - RELEASE   -
|  1> ! RI-MP2 RIJK def2-TZVP def2-TZVP/C def2-TZVP/JK TIGHTSCF
|  2> % maxcore 2000
|  3> % mp2 density relaxed end
|  4> *xyz 0 1
|  5>  C       -0.0161275056     1.4878969743     0.0096582235
|  6>  C        1.3417499929     0.8057737174    -0.0076312215
|  7>  C        0.0989819962    -0.0056140252     0.0012305183
|  8>  C       -0.5067607104    -0.9672022569     1.0355937719
|  9>  C       -1.6976212573    -1.0960621844     0.0143523259
| 10>  C       -0.5279769983    -0.9570997432    -1.0298321936
| 11>  C        0.2137387658    -2.2852984663    -0.7434530609
| 12>  O        1.4497837814    -2.1692717427    -0.0232186801
| 13>  C        0.2287678314    -2.2924695861     0.7210477811
| 14>  H       -0.3303752913     1.9788189716     0.9258021507
| 15>  H       -0.3491563561     1.9876562074    -0.8950004203
| 16>  H        1.9225922076     0.8422504995    -0.9233369934
| 17>  H        1.9413217140     0.8334624656     0.8962344616
| 18>  H       -0.6534884264    -0.6877267430     2.0785782622
| 19>  H       -2.2613816343    -2.0337828564     0.0155594255
| 20>  H       -2.3719649692    -0.2374111536     0.0254828357
| 21>  H       -0.6960699845    -0.6674356126    -2.0667949030
| 22>  H        0.1032308994    -3.1602817080    -1.3752284215
| 23>  H        0.1311510447    -3.1736048373     1.3463639578
| 24> *
| 25>
| 26>                          ****END OF INPUT****

CARTESIAN COORDINATES (ANGSTROEM)
---------------------------------
  C     -0.016128    1.487897    0.009658
  C      1.341750    0.805774   -0.007631
  C      0.098982   -0.005614    0.001231
  C     -0.506761   -0.967202    1.035594
  C     -1.697621   -1.096062    0.014352
  C     -0.527977   -0.957100   -1.029832
  C      0.213739   -2.285298   -0.743453
  O      1.449784   -2.169272   -0.023219
  C      0.228768   -2.292470    0.721048
  H     -0.330375    1.978819    0.925802
  H     -0.349156    1.987656   -0.895000
  H      1.922592    0.842250   -0.923337
  H      1.941322    0.833462    0.896234
  H     -0.653488   -0.687727    2.078578
  H     -2.261382   -2.033783    0.015559
  H     -2.371965   -0.237411    0.025483
  H     -0.696070   -0.667436   -2.066795
  H      0.103231   -3.160282   -1.375228
  H      0.131151   -3.173605    1.346364

 Total Charge           Charge          ....    0
 Multiplicity           Mult            ....    1
 Number of Electrons    NEL             ....   66
 Basis Dimension        Dim             ....  339

ORBITAL ENERGIES
----------------

  NO   OCC          E(Eh)            E(eV)
   0   2.0000     -20.559632      -559.4560
   1   2.0000     -11.278861      -306.9134
   2   2.0000     -11.278031      -306.8908
   3   2.0000     -11.243262      -305.9447
   4   2.0000     -11.243215      -305.9434
   5   2.0000     -11.237605      -305.7908
   6   2.0000     -11.235435      -305.7317
   7   2.0000     -11.220691      -305.3305
   8   2.0000     -11.215561      -305.1909
   9   2.0000      -1.406716       -38.2787
  10   2.0000      -1.186062       -32.2744
  11   2.0000      -1.093196       -29.7474
  12   2.0000      -0.940676       -25.5971
  13   2.0000      -0.910166       -24.7669
  14   2.0000      -0.851381       -23.1672
  15   2.0000      -0.818012       -22.2592
  16   2.0000      -0.774603       -21.0780
  17   2.0000      -0.721622       -19.6363
  18   2.0000      -0.710550       -19.3350
  19   2.0000      -0.650736       -17.7074
  20   2.0000      -0.637507       -17.3474
  21   2.0000      -0.628770       -17.1097
  22   2.0000      -0.565701       -15.3935
  23   2.0000      -0.549932       -14.9644
  24   2.0000      -0.524824       -14.2812
  25   2.0000      -0.516629       -14.0582
  26   2.0000      -0.504526       -13.7289
  27   2.0000      -0.457462       -12.4482
  28   2.0000      -0.443674       -12.0730
  29   2.0000      -0.438669       -11.9368
  30   2.0000      -0.432961       -11.7815
  31   2.0000      -0.395479       -10.7615
  32   2.0000      -0.380361       -10.3502
  33   0.0000       0.144239         3.9249
  34   0.0000       0.151062         4.1106
  35   0.0000       0.165981         4.5166
  36   0.0000       0.171553         4.6682
  37   0.0000       0.190790         5.1917

MULLIKEN ATOMIC CHARGES
-----------------------
   0 C :   -0.305715
   1 C :   -0.232831
   2 C :   -0.078426
   3 C :    0.035075
   4 C :   -0.287249
   5 C :    0.035065
   6 C :   -0.052514
   7 O :   -0.318162
   8 C :   -0.052506
   9 H :    0.123904
  10 H :    0.123905
  11 H :    0.123799
  12 H :    0.123798
  13 H :    0.133991
  14 H :    0.121615
  15 H :    0.120527
  16 H :    0.133990
  17 H :    0.125867
  18 H :    0.125867
Sum of atomic charges:    0.0000000

LOEWDIN ATOMIC CHARGES
----------------------
   0 C :   -0.203115
   1 C :   -0.198775
   2 C :   -0.202144
   3 C :   -0.144277
   4 C :   -0.170466
   5 C :   -0.144276
   6 C :   -0.229256
   7 O :    0.178864
   8 C :   -0.229261
   9 H :    0.132769
  10 H :    0.132768
  11 H :    0.136305
  12 H :    0.136304
  13 H :    0.136937
  14 H :    0.127340
  15 H :    0.135468
  16 H :    0.136937
  17 H :    0.133939
  18 H :    0.133939

  Mayer bond orders larger than 0.1
B(  0-C ,  1-C ) :   0.9625 B(  0-C ,  2-C ) :   0.8712 B(  0-C ,  9-H ) :   0.9177
B(  0-C , 10-H ) :   0.9177 B(  1-C ,  2-C ) :   0.8658 B(  1-C , 11-H ) :   0.9186
B(  1-C , 12-H ) :   0.9186 B(  2-C ,  3-C ) :   0.8432 B(  2-C ,  5-C ) :   0.8432
B(  3-C ,  4-C ) :   0.9103 B(  3-C ,  8-C ) :   0.8314 B(  3-C , 13-H ) :   0.8977
B(  4-C ,  5-C ) :   0.9103 B(  4-C , 14-H ) :   0.9225 B(  4-C , 15-H ) :   0.9130
B(  5-C ,  6-C ) :   0.8314 B(  5-C , 16-H ) :   0.8977 B(  6-C ,  7-O ) :   0.9552
B(  6-C ,  8-C ) :   0.9898 B(  6-C , 17-H ) :   0.9372 B(  7-O ,  8-C ) :   0.9552
B(  8-C , 18-H ) :   0.9372

MP2 TOTAL ENERGY:     -385.144336219 Eh
FINAL SINGLE POINT ENERGY      -385.144336219290

DIPOLE MOMENT
-------------
                                X             Y             Z
Electronic contribution:      2.42342      -3.80440      -0.04337
Nuclear contribution   :     -3.17009       3.82668       0.05114
                        -----------------------------------------
Total Dipole Moment    :     -0.74667       0.02228       0.00777
                        -----------------------------------------
Magnitude (a.u.)       :      0.74704
Magnitude (Debye)      :      1.89883

                             ****ORCA TERMINATED NORMALLY****
TOTAL RUN TIME: 0 days 0 hours 20 minutes 26 seconds 873 msec
