                         Program Version 3.0.3 - RELEASE   -
|  1> ! RI-MP2 RIJK def2-TZVP def2-TZVP/C def2-TZVP/JK TIGHTSCF
|  2> % maxcore 2000
|  3> % mp2 density relaxed end
|  4> *xyz 0 1
|  5>  C       -0.0503686643     1.5741575692     0.0327976159
|  6>  C        0.0425837902     0.0470322277     0.0491239076
|  7>  C        0.7755790583    -0.5635816890    -1.1902948072
|  8>  C        1.4915572191    -1.8724148088    -0.7215984252
|  9>  C        1.6667197924    -1.6106962511     0.7454665315
| 10>  C        2.3104509975    -2.0320759584     1.8850807062
| 11>  N        1.8572503443    -1.2148956391     2.8816620649
| 12>  N        0.9614017023    -0.2864300531     2.4652584900
| 13>  C        0.8554355989    -0.5414626179     1.1693291345
| 14>  H        0.9472281411     2.0236225799    -0.0138117864
| 15>  H       -0.6225489309     1.9237398326    -0.8331100080
| 16>  H       -0.5412739141     1.9441487040     0.9375780407
| 17>  H       -0.9780588293    -0.3603784955     0.0977908886
| 18>  H        0.0989783072    -0.7340895835    -2.0322160955
| 19>  H        1.5353695398     0.1521972253    -1.5253620601
| 20>  H        0.8573479355    -2.7512255811    -0.8980969536
| 21>  H        2.4243634235    -2.0437647358    -1.2679219963
| 22>  H        3.0323604440    -2.8080267831     2.0865723987
| 23>  H        2.1399644545    -1.2160429421     3.8467688637
| 24> *
| 25>
| 26>                          ****END OF INPUT****

CARTESIAN COORDINATES (ANGSTROEM)
---------------------------------
  C     -0.050369    1.574158    0.032798
  C      0.042584    0.047032    0.049124
  C      0.775579   -0.563582   -1.190295
  C      1.491557   -1.872415   -0.721598
  C      1.666720   -1.610696    0.745467
  C      2.310451   -2.032076    1.885081
  N      1.857250   -1.214896    2.881662
  N      0.961402   -0.286430    2.465258
  C      0.855436   -0.541463    1.169329
  H      0.947228    2.023623   -0.013812
  H     -0.622549    1.923740   -0.833110
  H     -0.541274    1.944149    0.937578
  H     -0.978059   -0.360378    0.097791
  H      0.098978   -0.734090   -2.032216
  H      1.535370    0.152197   -1.525362
  H      0.857348   -2.751226   -0.898097
  H      2.424363   -2.043765   -1.267922
  H      3.032360   -2.808027    2.086572
  H      2.139964   -1.216043    3.846769

 Total Charge           Charge          ....    0
 Multiplicity           Mult            ....    1
 Number of Electrons    NEL             ....   66
 Basis Dimension        Dim             ....  339

ORBITAL ENERGIES
----------------

  NO   OCC          E(Eh)            E(eV)
   0   2.0000     -15.626132      -425.2087
   1   2.0000     -15.575460      -423.8298
   2   2.0000     -11.270545      -306.6871
   3   2.0000     -11.236615      -305.7638
   4   2.0000     -11.231968      -305.6374
   5   2.0000     -11.230500      -305.5974
   6   2.0000     -11.223694      -305.4123
   7   2.0000     -11.209411      -305.0236
   8   2.0000     -11.209308      -305.0208
   9   2.0000      -1.359845       -37.0033
  10   2.0000      -1.133732       -30.8504
  11   2.0000      -1.078048       -29.3352
  12   2.0000      -1.021511       -27.7967
  13   2.0000      -0.977790       -26.6070
  14   2.0000      -0.880463       -23.9586
  15   2.0000      -0.839721       -22.8500
  16   2.0000      -0.772441       -21.0192
  17   2.0000      -0.729167       -19.8416
  18   2.0000      -0.711291       -19.3552
  19   2.0000      -0.641271       -17.4499
  20   2.0000      -0.623932       -16.9781
  21   2.0000      -0.589286       -16.0353
  22   2.0000      -0.577338       -15.7102
  23   2.0000      -0.573070       -15.5940
  24   2.0000      -0.544654       -14.8208
  25   2.0000      -0.516759       -14.0617
  26   2.0000      -0.503912       -13.7121
  27   2.0000      -0.483781       -13.1644
  28   2.0000      -0.476433       -12.9644
  29   2.0000      -0.459228       -12.4962
  30   2.0000      -0.434938       -11.8353
  31   2.0000      -0.343667        -9.3517
  32   2.0000      -0.328901        -8.9498
  33   0.0000       0.136330         3.7097
  34   0.0000       0.141847         3.8599
  35   0.0000       0.151792         4.1305
  36   0.0000       0.161272         4.3884
  37   0.0000       0.181709         4.9446

MULLIKEN ATOMIC CHARGES
-----------------------
   0 C :   -0.407572
   1 C :   -0.004027
   2 C :   -0.249864
   3 C :   -0.182820
   4 C :   -0.065713
   5 C :   -0.142129
   6 N :   -0.083977
   7 N :   -0.226762
   8 C :   -0.004374
   9 H :    0.122672
  10 H :    0.128756
  11 H :    0.142926
  12 H :    0.097036
  13 H :    0.122823
  14 H :    0.110586
  15 H :    0.117342
  16 H :    0.125157
  17 H :    0.148554
  18 H :    0.251386
Sum of atomic charges:    0.0000000

LOEWDIN ATOMIC CHARGES
----------------------
   0 C :   -0.289347
   1 C :   -0.229718
   2 C :   -0.204232
   3 C :   -0.211386
   4 C :   -0.172047
   5 C :   -0.222668
   6 N :    0.129359
   7 N :    0.042484
   8 C :   -0.241047
   9 H :    0.124085
  10 H :    0.121952
  11 H :    0.127989
  12 H :    0.157232
  13 H :    0.129936
  14 H :    0.139650
  15 H :    0.141009
  16 H :    0.137371
  17 H :    0.135156
  18 H :    0.184222

  Mayer bond orders larger than 0.1
B(  0-C ,  1-C ) :   0.9038 B(  0-C ,  9-H ) :   0.9313 B(  0-C , 10-H ) :   0.9401
B(  0-C , 11-H ) :   0.9371 B(  1-C ,  2-C ) :   0.9269 B(  1-C ,  8-C ) :   0.9492
B(  1-C , 12-H ) :   0.9221 B(  2-C ,  3-C ) :   0.9503 B(  2-C , 13-H ) :   0.9353
B(  2-C , 14-H ) :   0.9221 B(  3-C ,  4-C ) :   0.9205 B(  3-C , 15-H ) :   0.9041
B(  3-C , 16-H ) :   0.9262 B(  4-C ,  5-C ) :   1.4108 B(  4-C ,  8-C ) :   1.2360
B(  5-C ,  6-N ) :   1.2141 B(  5-C ,  7-N ) :   0.1299 B(  5-C , 17-H ) :   0.8989
B(  6-N ,  7-N ) :   1.0737 B(  6-N , 18-H ) :   0.8738 B(  7-N ,  8-C ) :   1.5939

MP2 TOTAL ENERGY:     -381.429378294 Eh
FINAL SINGLE POINT ENERGY      -381.429378294199

DIPOLE MOMENT
-------------
                                X             Y             Z
Electronic contribution:      2.39933      -3.48308       7.18782
Nuclear contribution   :     -1.91415       2.89410      -7.20496
                        -----------------------------------------
Total Dipole Moment    :      0.48518      -0.58899      -0.01713
                        -----------------------------------------
Magnitude (a.u.)       :      0.76328
Magnitude (Debye)      :      1.94010

                             ****ORCA TERMINATED NORMALLY****
TOTAL RUN TIME: 0 days 0 hours 19 minutes 20 seconds 868 msec
