                         Program Version 3.0.3 - RELEASE   -
|  1> ! RI-MP2 RIJK def2-TZVP def2-TZVP/C def2-TZVP/JK TIGHTSCF
|  2> % maxcore 2000
|  3> % mp2 density relaxed end
|  4> *xyz 0 1
|  5>  C        0.0252090266     1.4678877840     0.0594018455
|  6>  C       -0.0470784513    -0.0522557495     0.2043414544
|  7>  O        0.2532276876    -0.4573032597     1.5406086795
|  8>  C       -1.3919432742    -0.6166224536    -0.2672931437
|  9>  C       -1.4583538071    -2.1357043178    -0.1898031113
| 10>  O       -2.7411671043    -2.5472757141    -0.6366622341
| 11>  C       -2.9165461959    -3.9271457267    -0.6040677768
| 12>  C       -3.3293468248    -4.5891310131     0.6869996398
| 13>  C       -4.3185982669    -4.4170552947    -0.4506089458
| 14>  H        0.9873628648     1.8373194790     0.4241853329
| 15>  H       -0.0939704551     1.7745752196    -0.9846931957
| 16>  H       -0.7705320637     1.9510194623     0.6405370243
| 17>  H        0.7549736106    -0.5032441362    -0.3944284843
| 18>  H       -0.3982355735    -0.0462367170     2.1202749920
| 19>  H       -2.2019307021    -0.1925305716     0.3426061023
| 20>  H       -1.5823027522    -0.3011487507    -1.2998842846
| 21>  H       -0.6740568168    -2.5843082847    -0.8230972034
| 22>  H       -1.2779714299    -2.4755267462     0.8388148823
| 23>  H       -2.2449120626    -4.4802066709    -1.2631546488
| 24>  H       -2.9541044084    -5.5814020783     0.9121294634
| 25>  H       -3.4561441413    -3.9425755516     1.5481120528
| 26>  H       -5.0818702711    -3.6569618146    -0.3294316281
| 27>  H       -4.6289403783    -5.2891528338    -1.0149124027
| 28> *
| 29>
| 30>                          ****END OF INPUT****

CARTESIAN COORDINATES (ANGSTROEM)
---------------------------------
  C      0.025209    1.467888    0.059402
  C     -0.047078   -0.052256    0.204341
  O      0.253228   -0.457303    1.540609
  C     -1.391943   -0.616622   -0.267293
  C     -1.458354   -2.135704   -0.189803
  O     -2.741167   -2.547276   -0.636662
  C     -2.916546   -3.927146   -0.604068
  C     -3.329347   -4.589131    0.687000
  C     -4.318598   -4.417055   -0.450609
  H      0.987363    1.837319    0.424185
  H     -0.093970    1.774575   -0.984693
  H     -0.770532    1.951019    0.640537
  H      0.754974   -0.503244   -0.394428
  H     -0.398236   -0.046237    2.120275
  H     -2.201931   -0.192531    0.342606
  H     -1.582303   -0.301149   -1.299884
  H     -0.674057   -2.584308   -0.823097
  H     -1.277971   -2.475527    0.838815
  H     -2.244912   -4.480207   -1.263155
  H     -2.954104   -5.581402    0.912129
  H     -3.456144   -3.942576    1.548112
  H     -5.081870   -3.656962   -0.329432
  H     -4.628940   -5.289153   -1.014912

 Total Charge           Charge          ....    0
 Multiplicity           Mult            ....    1
 Number of Electrons    NEL             ....   72
 Basis Dimension        Dim             ....  363

ORBITAL ENERGIES
----------------

  NO   OCC          E(Eh)            E(eV)
   0   2.0000     -20.555137      -559.3337
   1   2.0000     -20.553599      -559.2919
   2   2.0000     -11.281828      -306.9941
   3   2.0000     -11.277552      -306.8778
   4   2.0000     -11.269069      -306.6470
   5   2.0000     -11.222238      -305.3726
   6   2.0000     -11.221502      -305.3526
   7   2.0000     -11.220878      -305.3356
   8   2.0000     -11.219276      -305.2920
   9   2.0000      -1.379788       -37.5460
  10   2.0000      -1.359543       -36.9951
  11   2.0000      -1.126856       -30.6633
  12   2.0000      -1.056258       -28.7422
  13   2.0000      -0.980685       -26.6858
  14   2.0000      -0.868240       -23.6260
  15   2.0000      -0.825007       -22.4496
  16   2.0000      -0.806814       -21.9545
  17   2.0000      -0.798915       -21.7396
  18   2.0000      -0.696460       -18.9516
  19   2.0000      -0.668702       -18.1963
  20   2.0000      -0.660502       -17.9732
  21   2.0000      -0.642165       -17.4742
  22   2.0000      -0.615108       -16.7379
  23   2.0000      -0.606343       -16.4994
  24   2.0000      -0.587169       -15.9777
  25   2.0000      -0.564687       -15.3659
  26   2.0000      -0.540515       -14.7082
  27   2.0000      -0.532508       -14.4903
  28   2.0000      -0.515078       -14.0160
  29   2.0000      -0.512695       -13.9512
  30   2.0000      -0.487347       -13.2614
  31   2.0000      -0.467904       -12.7323
  32   2.0000      -0.455791       -12.4027
  33   2.0000      -0.438072       -11.9205
  34   2.0000      -0.414576       -11.2812
  35   2.0000      -0.389893       -10.6095
  36   0.0000       0.129619         3.5271
  37   0.0000       0.155915         4.2427
  38   0.0000       0.159181         4.3315
  39   0.0000       0.172345         4.6898
  40   0.0000       0.177715         4.8359

MULLIKEN ATOMIC CHARGES
-----------------------
   0 C :   -0.382445
   1 C :    0.075921
   2 O :   -0.471901
   3 C :   -0.240191
   4 C :   -0.033212
   5 O :   -0.287621
   6 C :    0.027205
   7 C :   -0.265354
   8 C :   -0.250454
   9 H :    0.147678
  10 H :    0.127404
  11 H :    0.114331
  12 H :    0.090271
  13 H :    0.309833
  14 H :    0.111224
  15 H :    0.116820
  16 H :    0.083815
  17 H :    0.106929
  18 H :    0.098621
  19 H :    0.126749
  20 H :    0.131502
  21 H :    0.134850
  22 H :    0.128024
Sum of atomic charges:    0.0000000

LOEWDIN ATOMIC CHARGES
----------------------
   0 C :   -0.304735
   1 C :   -0.372823
   2 O :   -0.027163
   3 C :   -0.260201
   4 C :   -0.312637
   5 O :    0.189351
   6 C :   -0.327633
   7 C :   -0.238407
   8 C :   -0.228349
   9 H :    0.126044
  10 H :    0.126371
  11 H :    0.120871
  12 H :    0.144373
  13 H :    0.173635
  14 H :    0.139353
  15 H :    0.145239
  16 H :    0.120207
  17 H :    0.123401
  18 H :    0.130690
  19 H :    0.128764
  20 H :    0.134989
  21 H :    0.137896
  22 H :    0.130763

  Mayer bond orders larger than 0.1
B(  0-C ,  1-C ) :   0.9394 B(  0-C ,  9-H ) :   0.9439 B(  0-C , 10-H ) :   0.9340
B(  0-C , 11-H ) :   0.9212 B(  1-C ,  2-O ) :   0.9000 B(  1-C ,  3-C ) :   0.9326
B(  1-C , 12-H ) :   0.9205 B(  2-O , 13-H ) :   0.8446 B(  3-C ,  4-C ) :   0.9507
B(  3-C , 14-H ) :   0.9215 B(  3-C , 15-H ) :   0.9169 B(  4-C ,  5-O ) :   0.9142
B(  4-C , 16-H ) :   0.9205 B(  4-C , 17-H ) :   0.9238 B(  5-O ,  6-C ) :   0.9879
B(  6-C ,  7-C ) :   0.8892 B(  6-C ,  8-C ) :   0.8986 B(  6-C , 18-H ) :   0.9327
B(  7-C ,  8-C ) :   0.9091 B(  7-C , 19-H ) :   0.9205 B(  7-C , 20-H ) :   0.9240
B(  8-C , 21-H ) :   0.9232 B(  8-C , 22-H ) :   0.9258

MP2 TOTAL ENERGY:     -424.695219984 Eh
FINAL SINGLE POINT ENERGY      -424.695219983892

DIPOLE MOMENT
-------------
                                X             Y             Z
Electronic contribution:     -0.65071      -2.32041       0.13942
Nuclear contribution   :      0.55260       2.50349      -0.16798
                        -----------------------------------------
Total Dipole Moment    :     -0.09811       0.18308      -0.02856
                        -----------------------------------------
Magnitude (a.u.)       :      0.20967
Magnitude (Debye)      :      0.53293

                             ****ORCA TERMINATED NORMALLY****
TOTAL RUN TIME: 0 days 0 hours 17 minutes 9 seconds 751 msec
