                         Program Version 3.0.3 - RELEASE   -
|  1> ! RI-MP2 RIJK def2-TZVP def2-TZVP/C def2-TZVP/JK TIGHTSCF
|  2> % maxcore 2000
|  3> % mp2 density relaxed end
|  4> *xyz 0 1
|  5>  C       -0.1231024174     1.5098381848     0.2123501294
|  6>  C       -0.0374735667     0.0105178955    -0.0620052374
|  7>  C        0.7767336468    -0.3299258791    -1.2999490600
|  8>  O        1.2211759711     0.4980068673    -2.0503847129
|  9>  C        1.0019791775    -1.8462036932    -1.5252018603
| 10>  C        1.6429071251    -2.1693169436    -2.7825413630
| 11>  C        2.1744926989    -2.4367910166    -3.8325175607
| 12>  C        2.7749979402    -2.7466711296    -5.0187316140
| 13>  N        3.2852200639    -3.0164019801    -6.0268472514
| 14>  H        0.8703641959     1.9338408292     0.3788579613
| 15>  H       -0.5640009294     2.0357093217    -0.6375890023
| 16>  H       -0.7347058798     1.7028682052     1.0975197645
| 17>  H        0.3917521856    -0.5311822899     0.7920593989
| 18>  H       -1.0381335893    -0.4239982844    -0.1994031168
| 19>  H        1.6061474446    -2.2195470230    -0.6863985924
| 20>  H        0.0369776931    -2.3635794041    -1.4434169228
| 21> *
| 22>
| 23>                          ****END OF INPUT****

CARTESIAN COORDINATES (ANGSTROEM)
---------------------------------
  C     -0.123102    1.509838    0.212350
  C     -0.037474    0.010518   -0.062005
  C      0.776734   -0.329926   -1.299949
  O      1.221176    0.498007   -2.050385
  C      1.001979   -1.846204   -1.525202
  C      1.642907   -2.169317   -2.782541
  C      2.174493   -2.436791   -3.832518
  C      2.774998   -2.746671   -5.018732
  N      3.285220   -3.016402   -6.026847
  H      0.870364    1.933841    0.378858
  H     -0.564001    2.035709   -0.637589
  H     -0.734706    1.702868    1.097520
  H      0.391752   -0.531182    0.792059
  H     -1.038134   -0.423998   -0.199403
  H      1.606147   -2.219547   -0.686399
  H      0.036978   -2.363579   -1.443417

 Total Charge           Charge          ....    0
 Multiplicity           Mult            ....    1
 Number of Electrons    NEL             ....   64
 Basis Dimension        Dim             ....  321

ORBITAL ENERGIES
----------------

  NO   OCC          E(Eh)            E(eV)
   0   2.0000     -20.572842      -559.8155
   1   2.0000     -15.591764      -424.2735
   2   2.0000     -11.361657      -309.1664
   3   2.0000     -11.300510      -307.5025
   4   2.0000     -11.299098      -307.4641
   5   2.0000     -11.295376      -307.3628
   6   2.0000     -11.278377      -306.9002
   7   2.0000     -11.264326      -306.5179
   8   2.0000     -11.235159      -305.7242
   9   2.0000      -1.420155       -38.6444
  10   2.0000      -1.231878       -33.5211
  11   2.0000      -1.123321       -30.5671
  12   2.0000      -1.079125       -29.3645
  13   2.0000      -1.033317       -28.1180
  14   2.0000      -0.915035       -24.8994
  15   2.0000      -0.872148       -23.7323
  16   2.0000      -0.767901       -20.8957
  17   2.0000      -0.697461       -18.9789
  18   2.0000      -0.690529       -18.7903
  19   2.0000      -0.673432       -18.3250
  20   2.0000      -0.630740       -17.1633
  21   2.0000      -0.627157       -17.0658
  22   2.0000      -0.576498       -15.6873
  23   2.0000      -0.553612       -15.0645
  24   2.0000      -0.540787       -14.7156
  25   2.0000      -0.537058       -14.6141
  26   2.0000      -0.530408       -14.4331
  27   2.0000      -0.527004       -14.3405
  28   2.0000      -0.510650       -13.8955
  29   2.0000      -0.445761       -12.1298
  30   2.0000      -0.404770       -11.0143
  31   2.0000      -0.401829       -10.9343
  32   0.0000       0.090701         2.4681
  33   0.0000       0.096854         2.6355
  34   0.0000       0.107929         2.9369
  35   0.0000       0.119064         3.2399
  36   0.0000       0.142454         3.8764

MULLIKEN ATOMIC CHARGES
-----------------------
   0 C :   -0.367719
   1 C :   -0.240954
   2 C :    0.208514
   3 O :   -0.255326
   4 C :   -0.413313
   5 C :   -0.067434
   6 C :    0.337811
   7 C :   -0.216994
   8 N :   -0.040426
   9 H :    0.136048
  10 H :    0.141788
  11 H :    0.138135
  12 H :    0.135367
  13 H :    0.140449
  14 H :    0.180765
  15 H :    0.183289
Sum of atomic charges:   -0.0000000

LOEWDIN ATOMIC CHARGES
----------------------
   0 C :   -0.306353
   1 C :   -0.268856
   2 C :   -0.312120
   3 O :    0.185165
   4 C :   -0.217850
   5 C :    0.007978
   6 C :   -0.049587
   7 C :   -0.173667
   8 N :    0.098596
   9 H :    0.128369
  10 H :    0.129657
  11 H :    0.123965
  12 H :    0.151173
  13 H :    0.154047
  14 H :    0.176073
  15 H :    0.173409

  Mayer bond orders larger than 0.1
B(  0-C ,  1-C ) :   0.9404 B(  0-C ,  9-H ) :   0.9359 B(  0-C , 10-H ) :   0.9337
B(  0-C , 11-H ) :   0.9374 B(  1-C ,  2-C ) :   0.9236 B(  1-C , 12-H ) :   0.9134
B(  1-C , 13-H ) :   0.9085 B(  2-C ,  3-O ) :   2.0154 B(  2-C ,  4-C ) :   0.8818
B(  4-C ,  5-C ) :   1.0657 B(  4-C ,  6-C ) :  -0.1467 B(  4-C , 14-H ) :   0.8902
B(  4-C , 15-H ) :   0.9237 B(  5-C ,  6-C ) :   2.5391 B(  5-C ,  8-N ) :   0.1111
B(  6-C ,  7-C ) :   0.9641 B(  7-C ,  8-N ) :   2.7600

MP2 TOTAL ENERGY:     -400.047501295 Eh
FINAL SINGLE POINT ENERGY      -400.047501294582

DIPOLE MOMENT
-------------
                                X             Y             Z
Electronic contribution:      7.13450      -7.25502     -12.70224
Nuclear contribution   :     -8.38932       7.20438      15.03987
                        -----------------------------------------
Total Dipole Moment    :     -1.25482      -0.05063       2.33764
                        -----------------------------------------
Magnitude (a.u.)       :      2.65362
Magnitude (Debye)      :      6.74496

                             ****ORCA TERMINATED NORMALLY****
TOTAL RUN TIME: 0 days 0 hours 12 minutes 31 seconds 147 msec
