                         Program Version 3.0.3 - RELEASE   -
|  1> ! RI-MP2 RIJK def2-TZVP def2-TZVP/C def2-TZVP/JK TIGHTSCF
|  2> % maxcore 2000
|  3> % mp2 density relaxed end
|  4> *xyz 0 1
|  5>  C        0.3403183598     0.9473378635     1.2270215921
|  6>  C        0.1213035921     0.1344073086    -0.0368537911
|  7>  O        0.7841490330     0.2937070116    -1.0349706945
|  8>  C       -1.0454616783    -0.8325059580     0.0116770198
|  9>  C       -1.2409927106    -2.1343545931    -0.7003660383
| 10>  C       -0.0904526414    -3.1409201365    -0.5049247633
| 11>  C        1.0155503222    -2.7109368614     0.3706710331
| 12>  N       -0.2513746355    -3.1385739445     0.9967305338
| 13>  C       -1.3235658847    -2.0861591434     0.8161890486
| 14>  H        1.1381775084     1.6743351484     1.0706207317
| 15>  H       -0.5829421866     1.4642417863     1.5124531034
| 16>  H        0.5970573371     0.2833896006     2.0600574302
| 17>  H       -1.9698806338    -0.2491142742     0.0001247650
| 18>  H       -2.0306643633    -2.2982637256    -1.4213670569
| 19>  H       -0.0677222835    -4.0802388779    -1.0472226215
| 20>  H        1.8055964591    -3.4380087287     0.5400605358
| 21>  H        1.3517066832    -1.6847120054     0.4187987149
| 22>  H       -2.1758311671    -2.1591277503     1.4803519271
| 23> *
| 24>
| 25>                          ****END OF INPUT****

CARTESIAN COORDINATES (ANGSTROEM)
---------------------------------
  C      0.340318    0.947338    1.227022
  C      0.121304    0.134407   -0.036854
  O      0.784149    0.293707   -1.034971
  C     -1.045462   -0.832506    0.011677
  C     -1.240993   -2.134355   -0.700366
  C     -0.090453   -3.140920   -0.504925
  C      1.015550   -2.710937    0.370671
  N     -0.251375   -3.138574    0.996731
  C     -1.323566   -2.086159    0.816189
  H      1.138178    1.674335    1.070621
  H     -0.582942    1.464242    1.512453
  H      0.597057    0.283390    2.060057
  H     -1.969881   -0.249114    0.000125
  H     -2.030664   -2.298264   -1.421367
  H     -0.067722   -4.080239   -1.047223
  H      1.805596   -3.438009    0.540061
  H      1.351707   -1.684712    0.418799
  H     -2.175831   -2.159128    1.480352

 Total Charge           Charge          ....    0
 Multiplicity           Mult            ....    1
 Number of Electrons    NEL             ....   66
 Basis Dimension        Dim             ....  333

ORBITAL ENERGIES
----------------

  NO   OCC          E(Eh)            E(eV)
   0   2.0000     -20.549224      -559.1728
   1   2.0000     -15.567611      -423.6162
   2   2.0000     -11.339906      -308.5745
   3   2.0000     -11.281941      -306.9972
   4   2.0000     -11.274025      -306.7818
   5   2.0000     -11.264948      -306.5348
   6   2.0000     -11.261343      -306.4367
   7   2.0000     -11.253006      -306.2099
   8   2.0000     -11.239579      -305.8445
   9   2.0000      -1.394147       -37.9367
  10   2.0000      -1.308790       -35.6140
  11   2.0000      -1.130082       -30.7511
  12   2.0000      -1.021325       -27.7917
  13   2.0000      -0.931679       -25.3523
  14   2.0000      -0.910188       -24.7675
  15   2.0000      -0.828302       -22.5393
  16   2.0000      -0.749668       -20.3995
  17   2.0000      -0.740631       -20.1536
  18   2.0000      -0.716541       -19.4981
  19   2.0000      -0.676315       -18.4035
  20   2.0000      -0.630888       -17.1673
  21   2.0000      -0.613527       -16.6949
  22   2.0000      -0.603392       -16.4191
  23   2.0000      -0.593576       -16.1520
  24   2.0000      -0.559515       -15.2252
  25   2.0000      -0.553333       -15.0570
  26   2.0000      -0.511187       -13.9101
  27   2.0000      -0.490116       -13.3367
  28   2.0000      -0.485603       -13.2139
  29   2.0000      -0.470300       -12.7975
  30   2.0000      -0.425590       -11.5809
  31   2.0000      -0.386272       -10.5110
  32   2.0000      -0.349396        -9.5076
  33   0.0000       0.123229         3.3532
  34   0.0000       0.137407         3.7390
  35   0.0000       0.155467         4.2305
  36   0.0000       0.169534         4.6133
  37   0.0000       0.178102         4.8464

MULLIKEN ATOMIC CHARGES
-----------------------
   0 C :   -0.408897
   1 C :    0.197507
   2 O :   -0.261482
   3 C :   -0.177765
   4 C :   -0.120651
   5 C :   -0.057367
   6 C :   -0.151675
   7 N :   -0.243426
   8 C :   -0.065706
   9 H :    0.154494
  10 H :    0.142232
  11 H :    0.157099
  12 H :    0.139229
  13 H :    0.148901
  14 H :    0.138875
  15 H :    0.131586
  16 H :    0.136892
  17 H :    0.140156
Sum of atomic charges:   -0.0000000

LOEWDIN ATOMIC CHARGES
----------------------
   0 C :   -0.276550
   1 C :   -0.358410
   2 O :    0.159862
   3 C :   -0.173862
   4 C :   -0.149253
   5 C :   -0.187237
   6 C :   -0.233266
   7 N :    0.116518
   8 C :   -0.178018
   9 H :    0.133079
  10 H :    0.137816
  11 H :    0.139992
  12 H :    0.182218
  13 H :    0.142474
  14 H :    0.137815
  15 H :    0.137331
  16 H :    0.133622
  17 H :    0.135867

  Mayer bond orders larger than 0.1
B(  0-C ,  1-C ) :   0.9187 B(  0-C ,  9-H ) :   0.9370 B(  0-C , 10-H ) :   0.9118
B(  0-C , 11-H ) :   0.9092 B(  1-C ,  2-O ) :   2.0695 B(  1-C ,  3-C ) :   0.8524
B(  3-C ,  4-C ) :   0.8705 B(  3-C ,  8-C ) :   0.8949 B(  3-C , 12-H ) :   0.8955
B(  4-C ,  5-C ) :   0.9470 B(  4-C ,  8-C ) :   0.8627 B(  4-C , 13-H ) :   0.9136
B(  5-C ,  6-C ) :   0.9632 B(  5-C ,  7-N ) :   0.8623 B(  5-C , 14-H ) :   0.9015
B(  6-C ,  7-N ) :   0.8930 B(  6-C , 15-H ) :   0.9235 B(  6-C , 16-H ) :   0.8909
B(  7-N ,  8-C ) :   0.9325 B(  8-C , 17-H ) :   0.9306

MP2 TOTAL ENERGY:     -401.165698648 Eh
FINAL SINGLE POINT ENERGY      -401.165698648206

DIPOLE MOMENT
-------------
                                X             Y             Z
Electronic contribution:     -0.12509      -1.48446      -2.81704
Nuclear contribution   :     -0.45565       1.68144       3.20082
                        -----------------------------------------
Total Dipole Moment    :     -0.58074       0.19698       0.38378
                        -----------------------------------------
Magnitude (a.u.)       :      0.72343
Magnitude (Debye)      :      1.83881

                             ****ORCA TERMINATED NORMALLY****
TOTAL RUN TIME: 0 days 0 hours 20 minutes 21 seconds 50 msec
