                         Program Version 3.0.3 - RELEASE   -
|  1> ! RI-MP2 RIJK def2-TZVP def2-TZVP/C def2-TZVP/JK TIGHTSCF
|  2> % maxcore 2000
|  3> % mp2 density relaxed end
|  4> *xyz 0 1
|  5>  O       -0.0505478157     1.3648612857     0.0037675487
|  6>  C       -0.0080037244    -0.0246768584    -0.0646345601
|  7>  C        0.9006162578    -0.6876299693    -1.1050475491
|  8>  C        0.0775331358    -1.8564456842    -1.6005223034
|  9>  C       -1.1242952684    -1.9042747904    -1.0205277694
| 10>  C       -1.2917114798    -0.8052014982    -0.0305205739
| 11>  C       -0.3450373328    -0.8146590911     1.1971146427
| 12>  C        0.3943621565    -1.9635289956     1.6174555054
| 13>  C        1.0397940123    -2.9131763084     1.9787086644
| 14>  H        0.7510196028     1.6688377599     0.4443091907
| 15>  H        1.1248104876     0.0302392937    -1.9044831863
| 16>  H        1.8575982704    -1.0132736393    -0.6784733238
| 17>  H        0.4566663962    -2.5687484400    -2.3237905146
| 18>  H       -1.8858239772    -2.6529942154    -1.2015441868
| 19>  H       -2.2471066816    -0.3152883744     0.1175647222
| 20>  H       -0.7014081419    -0.1724537671     1.9985731740
| 21>  H        1.5960811225    -3.7579417075     2.3008801795
| 22> *
| 23>
| 24>                          ****END OF INPUT****

CARTESIAN COORDINATES (ANGSTROEM)
---------------------------------
  O     -0.050548    1.364861    0.003768
  C     -0.008004   -0.024677   -0.064635
  C      0.900616   -0.687630   -1.105048
  C      0.077533   -1.856446   -1.600522
  C     -1.124295   -1.904275   -1.020528
  C     -1.291711   -0.805201   -0.030521
  C     -0.345037   -0.814659    1.197115
  C      0.394362   -1.963529    1.617456
  C      1.039794   -2.913176    1.978709
  H      0.751020    1.668838    0.444309
  H      1.124810    0.030239   -1.904483
  H      1.857598   -1.013274   -0.678473
  H      0.456666   -2.568748   -2.323791
  H     -1.885824   -2.652994   -1.201544
  H     -2.247107   -0.315288    0.117565
  H     -0.701408   -0.172454    1.998573
  H      1.596081   -3.757942    2.300880

 Total Charge           Charge          ....    0
 Multiplicity           Mult            ....    1
 Number of Electrons    NEL             ....   64
 Basis Dimension        Dim             ....  327

ORBITAL ENERGIES
----------------

  NO   OCC          E(Eh)            E(eV)
   0   2.0000     -20.573084      -559.8221
   1   2.0000     -11.299521      -307.4756
   2   2.0000     -11.258091      -306.3482
   3   2.0000     -11.244611      -305.9814
   4   2.0000     -11.233725      -305.6852
   5   2.0000     -11.233357      -305.6752
   6   2.0000     -11.231064      -305.6128
   7   2.0000     -11.229233      -305.5630
   8   2.0000     -11.219233      -305.2908
   9   2.0000      -1.385276       -37.6953
  10   2.0000      -1.186417       -32.2841
  11   2.0000      -1.061129       -28.8748
  12   2.0000      -1.012854       -27.5612
  13   2.0000      -0.962727       -26.1971
  14   2.0000      -0.873739       -23.7757
  15   2.0000      -0.786270       -21.3955
  16   2.0000      -0.756689       -20.5906
  17   2.0000      -0.722897       -19.6710
  18   2.0000      -0.709828       -19.3154
  19   2.0000      -0.669217       -18.2103
  20   2.0000      -0.625747       -17.0274
  21   2.0000      -0.614899       -16.7323
  22   2.0000      -0.586001       -15.9459
  23   2.0000      -0.555578       -15.1181
  24   2.0000      -0.537358       -14.6223
  25   2.0000      -0.533935       -14.5291
  26   2.0000      -0.496576       -13.5125
  27   2.0000      -0.457678       -12.4541
  28   2.0000      -0.435422       -11.8484
  29   2.0000      -0.381209       -10.3732
  30   2.0000      -0.366949        -9.9852
  31   2.0000      -0.334179        -9.0935
  32   0.0000       0.131841         3.5876
  33   0.0000       0.147117         4.0033
  34   0.0000       0.158331         4.3084
  35   0.0000       0.160467         4.3665
  36   0.0000       0.172368         4.6904

MULLIKEN ATOMIC CHARGES
-----------------------
   0 O :   -0.443435
   1 C :    0.171115
   2 C :   -0.160787
   3 C :   -0.196744
   4 C :   -0.204304
   5 C :    0.004775
   6 C :   -0.412525
   7 C :    0.085334
   8 C :   -0.158409
   9 H :    0.327453
  10 H :    0.129597
  11 H :    0.129518
  12 H :    0.127815
  13 H :    0.131417
  14 H :    0.144566
  15 H :    0.137441
  16 H :    0.187174
Sum of atomic charges:   -0.0000000

LOEWDIN ATOMIC CHARGES
----------------------
   0 O :    0.032813
   1 C :   -0.298472
   2 C :   -0.197797
   3 C :   -0.140616
   4 C :   -0.133024
   5 C :   -0.127449
   6 C :   -0.156548
   7 C :   -0.092317
   8 C :   -0.098769
   9 H :    0.185531
  10 H :    0.148948
  11 H :    0.149500
  12 H :    0.136981
  13 H :    0.140835
  14 H :    0.153230
  15 H :    0.171134
  16 H :    0.126020

  Mayer bond orders larger than 0.1
B(  0-O ,  1-C ) :   1.0646 B(  0-O ,  9-H ) :   0.8372 B(  1-C ,  2-C ) :   0.9767
B(  1-C ,  5-C ) :   0.8623 B(  1-C ,  6-C ) :   0.8558 B(  2-C ,  3-C ) :   0.9522
B(  2-C , 10-H ) :   0.9059 B(  2-C , 11-H ) :   0.8867 B(  3-C ,  4-C ) :   1.7807
B(  3-C , 12-H ) :   0.9233 B(  4-C ,  5-C ) :   0.9357 B(  4-C , 13-H ) :   0.9253
B(  5-C ,  6-C ) :   0.8277 B(  5-C , 14-H ) :   0.9062 B(  6-C ,  7-C ) :   1.1135
B(  6-C ,  8-C ) :  -0.1152 B(  6-C , 15-H ) :   0.9585 B(  7-C ,  8-C ) :   2.5575
B(  8-C , 16-H ) :   0.9023

MP2 TOTAL ENERGY:     -383.961184856 Eh
FINAL SINGLE POINT ENERGY      -383.961184856430

DIPOLE MOMENT
-------------
                                X             Y             Z
Electronic contribution:     -0.74228       0.73582       1.84725
Nuclear contribution   :      1.15099      -0.78468      -1.82565
                        -----------------------------------------
Total Dipole Moment    :      0.40871      -0.04886       0.02159
                        -----------------------------------------
Magnitude (a.u.)       :      0.41219
Magnitude (Debye)      :      1.04770

                             ****ORCA TERMINATED NORMALLY****
TOTAL RUN TIME: 0 days 0 hours 18 minutes 6 seconds 24 msec
