                         Program Version 3.0.3 - RELEASE   -
|  1> ! RI-MP2 RIJK def2-TZVP def2-TZVP/C def2-TZVP/JK TIGHTSCF
|  2> % maxcore 2000
|  3> % mp2 density relaxed end
|  4> *xyz 0 1
|  5>  C       -0.4114604804     1.4165889303    -0.0318786013
|  6>  C        0.1385528898    -0.0068408325    -0.0291335296
|  7>  C        1.1210428634    -0.3723619980    -1.1475862859
|  8>  C        1.9751900548    -1.4765057087    -0.4819312367
|  9>  O        1.9781465573    -1.1693891869     0.9175995050
| 10>  C        0.9401291579    -0.3223474847     1.2326185603
| 11>  O        0.7655465762     0.0651368812     2.3464174271
| 12>  C        1.4217595787    -2.8238820192    -0.7009068430
| 13>  N        0.9805276217    -3.8725841787    -0.8999510392
| 14>  H        0.3997203054     2.1507654160    -0.0673328663
| 15>  H       -1.0618985137     1.5821720674    -0.8948277376
| 16>  H       -0.9860422292     1.5956349290     0.8799311823
| 17>  H       -0.6971936978    -0.7205246047    -0.0351019850
| 18>  H        0.6478678903    -0.7129841652    -2.0688898184
| 19>  H        1.7671894726     0.4791448265    -1.3824323884
| 20>  H        3.0133921230    -1.4697651819    -0.8224182933
| 21> *
| 22>
| 23>                          ****END OF INPUT****

CARTESIAN COORDINATES (ANGSTROEM)
---------------------------------
  C     -0.411460    1.416589   -0.031879
  C      0.138553   -0.006841   -0.029134
  C      1.121043   -0.372362   -1.147586
  C      1.975190   -1.476506   -0.481931
  O      1.978147   -1.169389    0.917600
  C      0.940129   -0.322347    1.232619
  O      0.765547    0.065137    2.346417
  C      1.421760   -2.823882   -0.700907
  N      0.980528   -3.872584   -0.899951
  H      0.399720    2.150765   -0.067333
  H     -1.061899    1.582172   -0.894828
  H     -0.986042    1.595635    0.879931
  H     -0.697194   -0.720525   -0.035102
  H      0.647868   -0.712984   -2.068890
  H      1.767189    0.479145   -1.382432
  H      3.013392   -1.469765   -0.822418

 Total Charge           Charge          ....    0
 Multiplicity           Mult            ....    1
 Number of Electrons    NEL             ....   66
 Basis Dimension        Dim             ....  321

ORBITAL ENERGIES
----------------

  NO   OCC          E(Eh)            E(eV)
   0   2.0000     -20.631024      -561.3987
   1   2.0000     -20.562869      -559.5441
   2   2.0000     -15.595357      -424.3712
   3   2.0000     -11.397453      -310.1405
   4   2.0000     -11.369034      -309.3671
   5   2.0000     -11.291798      -307.2654
   6   2.0000     -11.282091      -307.0013
   7   2.0000     -11.281478      -306.9846
   8   2.0000     -11.247165      -306.0509
   9   2.0000      -1.484655       -40.3995
  10   2.0000      -1.393876       -37.9293
  11   2.0000      -1.239702       -33.7340
  12   2.0000      -1.135901       -30.9094
  13   2.0000      -1.059025       -28.8175
  14   2.0000      -0.960811       -26.1450
  15   2.0000      -0.882138       -24.0042
  16   2.0000      -0.802876       -21.8474
  17   2.0000      -0.770507       -20.9665
  18   2.0000      -0.720859       -19.6156
  19   2.0000      -0.683201       -18.5908
  20   2.0000      -0.664713       -18.0878
  21   2.0000      -0.631477       -17.1834
  22   2.0000      -0.623343       -16.9620
  23   2.0000      -0.589046       -16.0288
  24   2.0000      -0.574551       -15.6343
  25   2.0000      -0.571459       -15.5502
  26   2.0000      -0.550661       -14.9843
  27   2.0000      -0.536626       -14.6023
  28   2.0000      -0.519162       -14.1271
  29   2.0000      -0.495717       -13.4891
  30   2.0000      -0.484160       -13.1747
  31   2.0000      -0.476627       -12.9697
  32   2.0000      -0.455488       -12.3945
  33   0.0000       0.106594         2.9006
  34   0.0000       0.126504         3.4424
  35   0.0000       0.139443         3.7944
  36   0.0000       0.144561         3.9337
  37   0.0000       0.157007         4.2724

MULLIKEN ATOMIC CHARGES
-----------------------
   0 C :   -0.401088
   1 C :   -0.102223
   2 C :   -0.288863
   3 C :    0.250366
   4 O :   -0.219076
   5 C :    0.238314
   6 O :   -0.260917
   7 C :   -0.221463
   8 N :   -0.042719
   9 H :    0.131999
  10 H :    0.142849
  11 H :    0.163400
  12 H :    0.146485
  13 H :    0.161435
  14 H :    0.143973
  15 H :    0.157527
Sum of atomic charges:    0.0000000

LOEWDIN ATOMIC CHARGES
----------------------
   0 C :   -0.275792
   1 C :   -0.245884
   2 C :   -0.190436
   3 C :   -0.268426
   4 O :    0.280527
   5 C :   -0.426883
   6 O :    0.165926
   7 C :   -0.162095
   8 N :    0.083063
   9 H :    0.129117
  10 H :    0.128000
  11 H :    0.137449
  12 H :    0.177018
  13 H :    0.150480
  14 H :    0.150007
  15 H :    0.167930

  Mayer bond orders larger than 0.1
B(  0-C ,  1-C ) :   0.9226 B(  0-C ,  9-H ) :   0.9291 B(  0-C , 10-H ) :   0.9351
B(  0-C , 11-H ) :   0.9319 B(  1-C ,  2-C ) :   0.9314 B(  1-C ,  5-C ) :   0.9061
B(  1-C , 12-H ) :   0.8988 B(  2-C ,  3-C ) :   0.8803 B(  2-C , 13-H ) :   0.9231
B(  2-C , 14-H ) :   0.9208 B(  3-C ,  4-O ) :   0.8823 B(  3-C ,  7-C ) :   0.9164
B(  3-C , 15-H ) :   0.9127 B(  4-O ,  5-C ) :   1.0712 B(  5-C ,  6-O ) :   2.0512
B(  7-C ,  8-N ) :   2.8370

MP2 TOTAL ENERGY:     -437.224069917 Eh
FINAL SINGLE POINT ENERGY      -437.224069917080

DIPOLE MOMENT
-------------
                                X             Y             Z
Electronic contribution:      3.65917      -7.35656       3.82712
Nuclear contribution   :     -3.55263       8.59933      -5.19863
                        -----------------------------------------
Total Dipole Moment    :      0.10654       1.24278      -1.37151
                        -----------------------------------------
Magnitude (a.u.)       :      1.85388
Magnitude (Debye)      :      4.71220

                             ****ORCA TERMINATED NORMALLY****
TOTAL RUN TIME: 0 days 0 hours 16 minutes 12 seconds 494 msec
