                         Program Version 3.0.3 - RELEASE   -
|  1> ! RI-MP2 RIJK def2-TZVP def2-TZVP/C def2-TZVP/JK TIGHTSCF
|  2> % maxcore 2000
|  3> % mp2 density relaxed end
|  4> *xyz 0 1
|  5>  C        0.0198145813     1.4826813677     0.0752887973
|  6>  C       -0.0291497784    -0.0091580348    -0.0707700977
|  7>  N       -0.0568000169    -0.5764282288    -1.2040801722
|  8>  C       -0.0499571670    -2.0279000338    -1.2831104299
|  9>  C        0.4411341861    -2.7085944509     0.0149939759
| 10>  C       -0.2667532210    -2.0136819662     1.1873077980
| 11>  O       -0.0302481683    -0.6061862555     1.1582599009
| 12>  C        0.2007881147    -4.1425546288     0.0225461427
| 13>  C       -0.0321215865    -5.3220850006     0.0224060442
| 14>  H        0.8971660941     1.7756557601     0.6607821000
| 15>  H        0.0621194650     1.9454548816    -0.9095920582
| 16>  H       -0.8623671030     1.8406299001     0.6158044550
| 17>  H       -1.0599623839    -2.3841929737    -1.5227145293
| 18>  H        0.5872515259    -2.3260186281    -2.1219551152
| 19>  H        1.5176389261    -2.5183929270     0.1179723220
| 20>  H       -1.3460916921    -2.2043792291     1.1365392903
| 21>  H        0.1036446240    -2.3659884834     2.1518284595
| 22>  H       -0.2224883600    -6.3668511487     0.0200751866
| 23> *
| 24>
| 25>                          ****END OF INPUT****

CARTESIAN COORDINATES (ANGSTROEM)
---------------------------------
  C      0.019815    1.482681    0.075289
  C     -0.029150   -0.009158   -0.070770
  N     -0.056800   -0.576428   -1.204080
  C     -0.049957   -2.027900   -1.283110
  C      0.441134   -2.708594    0.014994
  C     -0.266753   -2.013682    1.187308
  O     -0.030248   -0.606186    1.158260
  C      0.200788   -4.142555    0.022546
  C     -0.032122   -5.322085    0.022406
  H      0.897166    1.775656    0.660782
  H      0.062119    1.945455   -0.909592
  H     -0.862367    1.840630    0.615804
  H     -1.059962   -2.384193   -1.522715
  H      0.587252   -2.326019   -2.121955
  H      1.517639   -2.518393    0.117972
  H     -1.346092   -2.204379    1.136539
  H      0.103645   -2.365988    2.151828
  H     -0.222488   -6.366851    0.020075

 Total Charge           Charge          ....    0
 Multiplicity           Mult            ....    1
 Number of Electrons    NEL             ....   66
 Basis Dimension        Dim             ....  333

ORBITAL ENERGIES
----------------

  NO   OCC          E(Eh)            E(eV)
   0   2.0000     -20.595449      -560.4307
   1   2.0000     -15.540290      -422.8728
   2   2.0000     -11.337049      -308.4968
   3   2.0000     -11.299657      -307.4793
   4   2.0000     -11.266063      -306.5652
   5   2.0000     -11.261645      -306.4449
   6   2.0000     -11.242584      -305.9263
   7   2.0000     -11.232152      -305.6424
   8   2.0000     -11.227829      -305.5248
   9   2.0000      -1.429696       -38.9040
  10   2.0000      -1.218172       -33.1481
  11   2.0000      -1.114305       -30.3218
  12   2.0000      -1.028173       -27.9780
  13   2.0000      -0.979936       -26.6654
  14   2.0000      -0.934322       -25.4242
  15   2.0000      -0.874043       -23.7839
  16   2.0000      -0.747754       -20.3474
  17   2.0000      -0.735473       -20.0132
  18   2.0000      -0.689863       -18.7721
  19   2.0000      -0.682138       -18.5619
  20   2.0000      -0.660536       -17.9741
  21   2.0000      -0.625838       -17.0299
  22   2.0000      -0.596584       -16.2339
  23   2.0000      -0.581389       -15.8204
  24   2.0000      -0.568398       -15.4669
  25   2.0000      -0.548483       -14.9250
  26   2.0000      -0.542087       -14.7509
  27   2.0000      -0.503953       -13.7133
  28   2.0000      -0.488987       -13.3060
  29   2.0000      -0.429434       -11.6855
  30   2.0000      -0.397289       -10.8108
  31   2.0000      -0.385603       -10.4928
  32   2.0000      -0.379623       -10.3301
  33   0.0000       0.132538         3.6065
  34   0.0000       0.154203         4.1961
  35   0.0000       0.162148         4.4123
  36   0.0000       0.163360         4.4452
  37   0.0000       0.171668         4.6713

MULLIKEN ATOMIC CHARGES
-----------------------
   0 C :   -0.413011
   1 C :    0.228720
   2 N :   -0.268983
   3 C :   -0.113542
   4 C :   -0.225581
   5 C :   -0.048568
   6 O :   -0.266942
   7 C :   -0.037686
   8 C :   -0.128942
   9 H :    0.142486
  10 H :    0.153391
  11 H :    0.141045
  12 H :    0.126852
  13 H :    0.135587
  14 H :    0.122782
  15 H :    0.116921
  16 H :    0.140812
  17 H :    0.194661
Sum of atomic charges:    0.0000000

LOEWDIN ATOMIC CHARGES
----------------------
   0 C :   -0.265565
   1 C :   -0.398212
   2 N :    0.093374
   3 C :   -0.257330
   4 C :   -0.251361
   5 C :   -0.245306
   6 O :    0.240752
   7 C :   -0.089745
   8 C :   -0.090415
   9 H :    0.135220
  10 H :    0.136327
  11 H :    0.134460
  12 H :    0.142196
  13 H :    0.140860
  14 H :    0.174542
  15 H :    0.134825
  16 H :    0.137112
  17 H :    0.128267

  Mayer bond orders larger than 0.1
B(  0-C ,  1-C ) :   0.8967 B(  0-C ,  9-H ) :   0.9263 B(  0-C , 10-H ) :   0.9492
B(  0-C , 11-H ) :   0.9245 B(  1-C ,  2-N ) :   1.8683 B(  1-C ,  6-O ) :   1.0522
B(  2-N ,  3-C ) :   0.9296 B(  3-C ,  4-C ) :   0.9269 B(  3-C , 12-H ) :   0.9212
B(  3-C , 13-H ) :   0.9231 B(  4-C ,  5-C ) :   0.9181 B(  4-C ,  7-C ) :   1.1415
B(  4-C ,  8-C ) :  -0.1058 B(  4-C , 14-H ) :   0.9086 B(  5-C ,  6-O ) :   0.8882
B(  5-C , 15-H ) :   0.9327 B(  5-C , 16-H ) :   0.9220 B(  7-C ,  8-C ) :   2.5991
B(  8-C , 17-H ) :   0.8869

MP2 TOTAL ENERGY:     -401.235869637 Eh
FINAL SINGLE POINT ENERGY      -401.235869636767

DIPOLE MOMENT
-------------
                                X             Y             Z
Electronic contribution:      0.38588      -2.76748       0.37001
Nuclear contribution   :     -0.42778       2.42594       0.05115
                        -----------------------------------------
Total Dipole Moment    :     -0.04191      -0.34154       0.42116
                        -----------------------------------------
Magnitude (a.u.)       :      0.54386
Magnitude (Debye)      :      1.38237

                             ****ORCA TERMINATED NORMALLY****
TOTAL RUN TIME: 0 days 0 hours 17 minutes 12 seconds 148 msec
