                         Program Version 3.0.3 - RELEASE   -
|  1> ! RI-MP2 RIJK def2-TZVP def2-TZVP/C def2-TZVP/JK TIGHTSCF
|  2> % maxcore 2000
|  3> % mp2 density relaxed end
|  4> *xyz 0 1
|  5>  O        0.0345257853     0.0711810897     0.2821890324
|  6>  C       -0.0570393270     1.2448212118     0.0823914988
|  7>  C       -1.1445068568     2.2513605331    -0.0911402176
|  8>  C       -0.7542415616     3.4634058889     0.8165699945
|  9>  C        0.2096963419     3.2283876025     1.9808176799
| 10>  C        1.4732048857     2.6609401817     1.2631889587
| 11>  N        0.9939283316     2.2494860375    -0.0813985559
| 12>  C       -0.0511396673     3.2405675990    -0.4675539737
| 13>  H       -2.1512693629     2.1267049409    -0.4687374670
| 14>  H       -1.5281714723     4.2198340503     0.8920620404
| 15>  H        0.4225413380     4.1688064323     2.4978234444
| 16>  H       -0.1952525523     2.5288239793     2.7179071456
| 17>  H        2.2457493717     3.4255705509     1.1447352394
| 18>  H        1.9117148254     1.7987979751     1.7688849159
| 19>  H        0.0449643606     3.8750494171    -1.3366828155
| 20> *
| 21>
| 22>                          ****END OF INPUT****

CARTESIAN COORDINATES (ANGSTROEM)
---------------------------------
  O      0.034526    0.071181    0.282189
  C     -0.057039    1.244821    0.082391
  C     -1.144507    2.251361   -0.091140
  C     -0.754242    3.463406    0.816570
  C      0.209696    3.228388    1.980818
  C      1.473205    2.660940    1.263189
  N      0.993928    2.249486   -0.081399
  C     -0.051140    3.240568   -0.467554
  H     -2.151269    2.126705   -0.468737
  H     -1.528171    4.219834    0.892062
  H      0.422541    4.168806    2.497823
  H     -0.195253    2.528824    2.717907
  H      2.245749    3.425571    1.144735
  H      1.911715    1.798798    1.768885
  H      0.044964    3.875049   -1.336683

 Total Charge           Charge          ....    0
 Multiplicity           Mult            ....    1
 Number of Electrons    NEL             ....   58
 Basis Dimension        Dim             ....  290

ORBITAL ENERGIES
----------------

  NO   OCC          E(Eh)            E(eV)
   0   2.0000     -20.546043      -559.0863
   1   2.0000     -15.577506      -423.8855
   2   2.0000     -11.356717      -309.0320
   3   2.0000     -11.284554      -307.0683
   4   2.0000     -11.270947      -306.6981
   5   2.0000     -11.268855      -306.6411
   6   2.0000     -11.262962      -306.4808
   7   2.0000     -11.244077      -305.9669
   8   2.0000      -1.404895       -38.2291
   9   2.0000      -1.308066       -35.5943
  10   2.0000      -1.099945       -29.9310
  11   2.0000      -1.046282       -28.4708
  12   2.0000      -0.898029       -24.4366
  13   2.0000      -0.859145       -23.3785
  14   2.0000      -0.800243       -21.7757
  15   2.0000      -0.723049       -19.6752
  16   2.0000      -0.704885       -19.1809
  17   2.0000      -0.679564       -18.4919
  18   2.0000      -0.647700       -17.6248
  19   2.0000      -0.621895       -16.9226
  20   2.0000      -0.583921       -15.8893
  21   2.0000      -0.557344       -15.1661
  22   2.0000      -0.538462       -14.6523
  23   2.0000      -0.527162       -14.3448
  24   2.0000      -0.509025       -13.8513
  25   2.0000      -0.448800       -12.2125
  26   2.0000      -0.437486       -11.9046
  27   2.0000      -0.423815       -11.5326
  28   2.0000      -0.389939       -10.6108
  29   0.0000       0.135566         3.6889
  30   0.0000       0.154323         4.1993
  31   0.0000       0.161273         4.3885
  32   0.0000       0.164451         4.4749
  33   0.0000       0.181286         4.9330

MULLIKEN ATOMIC CHARGES
-----------------------
   0 O :   -0.263118
   1 C :    0.187334
   2 C :   -0.208171
   3 C :   -0.153835
   4 C :   -0.210381
   5 C :   -0.172762
   6 N :   -0.132713
   7 C :   -0.024991
   8 H :    0.153840
   9 H :    0.138759
  10 H :    0.128716
  11 H :    0.128433
  12 H :    0.128621
  13 H :    0.143043
  14 H :    0.157226
Sum of atomic charges:   -0.0000000

LOEWDIN ATOMIC CHARGES
----------------------
   0 O :    0.157300
   1 C :   -0.369703
   2 C :   -0.119320
   3 C :   -0.163505
   4 C :   -0.235110
   5 C :   -0.248771
   6 N :    0.161888
   7 C :   -0.171145
   8 H :    0.143596
   9 H :    0.153428
  10 H :    0.140354
  11 H :    0.140893
  12 H :    0.132673
  13 H :    0.138397
  14 H :    0.139024

  Mayer bond orders larger than 0.1
B(  0-O ,  1-C ) :   2.0459 B(  1-C ,  2-C ) :   0.9807 B(  1-C ,  6-N ) :   0.9689
B(  2-C ,  3-C ) :   0.8098 B(  2-C ,  7-C ) :   0.8155 B(  2-C ,  8-H ) :   0.9016
B(  3-C ,  4-C ) :   0.9291 B(  3-C ,  7-C ) :   0.8843 B(  3-C ,  9-H ) :   0.9244
B(  4-C ,  5-C ) :   0.9564 B(  4-C , 10-H ) :   0.9198 B(  4-C , 11-H ) :   0.9156
B(  5-C ,  6-N ) :   0.8921 B(  5-C , 12-H ) :   0.9317 B(  5-C , 13-H ) :   0.9299
B(  6-N ,  7-C ) :   0.9427 B(  7-C , 14-H ) :   0.9128

MP2 TOTAL ENERGY:     -362.033439221 Eh
FINAL SINGLE POINT ENERGY      -362.033439221370

DIPOLE MOMENT
-------------
                                X             Y             Z
Electronic contribution:     -0.48840      -4.26249      -3.21132
Nuclear contribution   :      0.02541       5.80425       3.53205
                        -----------------------------------------
Total Dipole Moment    :     -0.46299       1.54176       0.32072
                        -----------------------------------------
Magnitude (a.u.)       :      1.64142
Magnitude (Debye)      :      4.17216

                             ****ORCA TERMINATED NORMALLY****
TOTAL RUN TIME: 0 days 0 hours 13 minutes 6 seconds 863 msec
