                         Program Version 3.0.3 - RELEASE   -
|  1> ! RI-MP2 RIJK def2-TZVP def2-TZVP/C def2-TZVP/JK TIGHTSCF
|  2> % maxcore 2000
|  3> % mp2 density relaxed end
|  4> *xyz 0 1
|  5>  N       -0.1483675931     0.9553690525     0.9114425885
|  6>  C       -0.1122296585    -0.0507491563     0.1783772995
|  7>  C       -1.1334683923    -1.0147236183    -0.3850409162
|  8>  C        0.0966213048    -1.6899401138    -1.0312080390
|  9>  O        0.9791677386    -0.6831502552    -0.4332292404
| 10>  C        0.4930167655    -3.0606693405    -0.4483599625
| 11>  O       -0.2214001797    -3.6904512099     0.2775560399
| 12>  C        0.1861572510    -1.7008893890    -2.4868843081
| 13>  N        0.2552344790    -1.7604510216    -3.6388963735
| 14>  H        0.7755873184     1.3574466956     1.0736359450
| 15>  H       -1.6373066051    -1.6481399334     0.3454860760
| 16>  H       -1.8519655390    -0.5754016985    -1.0759692202
| 17>  H        1.5134429404    -3.3868053115    -0.7297035989
| 18> *
| 19>
| 20>                          ****END OF INPUT****

CARTESIAN COORDINATES (ANGSTROEM)
---------------------------------
  N     -0.148368    0.955369    0.911443
  C     -0.112230   -0.050749    0.178377
  C     -1.133468   -1.014724   -0.385041
  C      0.096621   -1.689940   -1.031208
  O      0.979168   -0.683150   -0.433229
  C      0.493017   -3.060669   -0.448360
  O     -0.221400   -3.690451    0.277556
  C      0.186157   -1.700889   -2.486884
  N      0.255234   -1.760451   -3.638896
  H      0.775587    1.357447    1.073636
  H     -1.637307   -1.648140    0.345486
  H     -1.851966   -0.575402   -1.075969
  H      1.513443   -3.386805   -0.729704

 Total Charge           Charge          ....    0
 Multiplicity           Mult            ....    1
 Number of Electrons    NEL             ....   64
 Basis Dimension        Dim             ....  303

ORBITAL ENERGIES
----------------

  NO   OCC          E(Eh)            E(eV)
   0   2.0000     -20.642288      -561.7052
   1   2.0000     -20.612772      -560.9020
   2   2.0000     -15.616477      -424.9460
   3   2.0000     -15.572179      -423.7405
   4   2.0000     -11.390908      -309.9624
   5   2.0000     -11.384915      -309.7993
   6   2.0000     -11.377249      -309.5907
   7   2.0000     -11.310173      -307.7655
   8   2.0000     -11.293816      -307.3203
   9   2.0000      -1.482669       -40.3455
  10   2.0000      -1.449733       -39.4492
  11   2.0000      -1.258997       -34.2591
  12   2.0000      -1.234954       -33.6048
  13   2.0000      -1.105502       -30.0822
  14   2.0000      -1.019195       -27.7337
  15   2.0000      -0.874443       -23.7948
  16   2.0000      -0.797058       -21.6890
  17   2.0000      -0.775414       -21.1001
  18   2.0000      -0.742016       -20.1913
  19   2.0000      -0.738957       -20.1081
  20   2.0000      -0.697361       -18.9762
  21   2.0000      -0.637772       -17.3547
  22   2.0000      -0.610098       -16.6016
  23   2.0000      -0.600978       -16.3534
  24   2.0000      -0.586533       -15.9604
  25   2.0000      -0.575375       -15.6567
  26   2.0000      -0.557346       -15.1662
  27   2.0000      -0.518328       -14.1044
  28   2.0000      -0.502076       -13.6622
  29   2.0000      -0.471427       -12.8282
  30   2.0000      -0.467405       -12.7187
  31   2.0000      -0.441543       -12.0150
  32   0.0000       0.070817         1.9270
  33   0.0000       0.119936         3.2636
  34   0.0000       0.126507         3.4424
  35   0.0000       0.146866         3.9964
  36   0.0000       0.152349         4.1456

MULLIKEN ATOMIC CHARGES
-----------------------
   0 N :   -0.330790
   1 C :    0.105667
   2 C :   -0.226396
   3 C :    0.412440
   4 O :   -0.272791
   5 C :    0.086660
   6 O :   -0.228430
   7 C :   -0.225942
   8 N :   -0.032001
   9 H :    0.243297
  10 H :    0.176390
  11 H :    0.168865
  12 H :    0.123030
Sum of atomic charges:   -0.0000000

LOEWDIN ATOMIC CHARGES
----------------------
   0 N :   -0.021796
   1 C :   -0.371899
   2 C :   -0.129447
   3 C :   -0.285306
   4 O :    0.254696
   5 C :   -0.224943
   6 O :    0.181041
   7 C :   -0.140072
   8 N :    0.105072
   9 H :    0.181373
  10 H :    0.160981
  11 H :    0.158520
  12 H :    0.131778

  Mayer bond orders larger than 0.1
B(  0-N ,  1-C ) :   2.1214 B(  0-N ,  9-H ) :   0.8387 B(  1-C ,  2-C ) :   0.9451
B(  1-C ,  4-O ) :   1.0018 B(  2-C ,  3-C ) :   0.8771 B(  2-C , 10-H ) :   0.8905
B(  2-C , 11-H ) :   0.9094 B(  3-C ,  4-O ) :   0.8822 B(  3-C ,  5-C ) :   0.8281
B(  3-C ,  7-C ) :   0.9050 B(  5-C ,  6-O ) :   1.9863 B(  5-C , 12-H ) :   0.9253
B(  7-C ,  8-N ) :   2.8155

MP2 TOTAL ENERGY:     -452.004638619 Eh
FINAL SINGLE POINT ENERGY      -452.004638618913

DIPOLE MOMENT
-------------
                                X             Y             Z
Electronic contribution:      1.49522      -1.39731      -1.99985
Nuclear contribution   :     -1.32107       1.31525       2.40792
                        -----------------------------------------
Total Dipole Moment    :      0.17414      -0.08206       0.40807
                        -----------------------------------------
Magnitude (a.u.)       :      0.45120
Magnitude (Debye)      :      1.14686

                             ****ORCA TERMINATED NORMALLY****
TOTAL RUN TIME: 0 days 0 hours 14 minutes 14 seconds 965 msec
