                         Program Version 3.0.3 - RELEASE   -
|  1> ! RI-MP2 RIJK def2-TZVP def2-TZVP/C def2-TZVP/JK TIGHTSCF
|  2> % maxcore 2000
|  3> % mp2 density relaxed end
|  4> *xyz 0 1
|  5>  C        0.1515957761     1.4277851685    -0.1095329799
|  6>  C        0.0102361776    -0.0680940459     0.0187784027
|  7>  N       -0.3467900235    -0.7455779233     1.0333438535
|  8>  O        0.3283013874    -0.6651321374    -1.1479573814
|  9>  C        0.2619703329    -2.0946772388    -1.1821047027
| 10>  C       -1.1401877119    -2.7613169255    -1.3339849431
| 11>  C       -0.6485979256    -3.4017007039    -2.6385402549
| 12>  C       -0.2599733472    -2.3262765519    -3.6071387825
| 13>  C        0.7049955428    -2.6846332850    -2.5085605325
| 14>  H       -0.1070167006     1.9284543991     0.8248524835
| 15>  H        1.1788233179     1.6865080197    -0.3840067052
| 16>  H       -0.4980947444     1.7999056914    -0.9076450297
| 17>  H       -0.5378261945    -0.1310525586     1.8213782939
| 18>  H        0.8007517360    -2.4922650721    -0.3208723482
| 19>  H       -1.3468897157    -3.4622546700    -0.5244113866
| 20>  H       -1.9849156786    -2.0735002629    -1.4330809114
| 21>  H       -0.8334402070    -4.4221401507    -2.9487888373
| 22>  H        0.0358930194    -2.6642856575    -4.5949675429
| 23>  H       -0.7687230494    -1.3660169557    -3.5953821468
| 24>  H        1.7015223583    -3.0510816693    -2.7220327584
| 25> *
| 26>
| 27>                          ****END OF INPUT****

CARTESIAN COORDINATES (ANGSTROEM)
---------------------------------
  C      0.151596    1.427785   -0.109533
  C      0.010236   -0.068094    0.018778
  N     -0.346790   -0.745578    1.033344
  O      0.328301   -0.665132   -1.147957
  C      0.261970   -2.094677   -1.182105
  C     -1.140188   -2.761317   -1.333985
  C     -0.648598   -3.401701   -2.638540
  C     -0.259973   -2.326277   -3.607139
  C      0.704996   -2.684633   -2.508561
  H     -0.107017    1.928454    0.824852
  H      1.178823    1.686508   -0.384007
  H     -0.498095    1.799906   -0.907645
  H     -0.537826   -0.131053    1.821378
  H      0.800752   -2.492265   -0.320872
  H     -1.346890   -3.462255   -0.524411
  H     -1.984916   -2.073500   -1.433081
  H     -0.833440   -4.422140   -2.948789
  H      0.035893   -2.664286   -4.594968
  H     -0.768723   -1.366017   -3.595382
  H      1.701522   -3.051082   -2.722033

 Total Charge           Charge          ....    0
 Multiplicity           Mult            ....    1
 Number of Electrons    NEL             ....   68
 Basis Dimension        Dim             ....  345

ORBITAL ENERGIES
----------------

  NO   OCC          E(Eh)            E(eV)
   0   2.0000     -20.580120      -560.0135
   1   2.0000     -15.527548      -422.5261
   2   2.0000     -11.335070      -308.4429
   3   2.0000     -11.281629      -306.9887
   4   2.0000     -11.237352      -305.7839
   5   2.0000     -11.232059      -305.6399
   6   2.0000     -11.228227      -305.5356
   7   2.0000     -11.224828      -305.4431
   8   2.0000     -11.219857      -305.3078
   9   2.0000      -1.418986       -38.6126
  10   2.0000      -1.197521       -32.5862
  11   2.0000      -1.175783       -31.9947
  12   2.0000      -1.009988       -27.4832
  13   2.0000      -0.970618       -26.4119
  14   2.0000      -0.898541       -24.4505
  15   2.0000      -0.809835       -22.0367
  16   2.0000      -0.772816       -21.0294
  17   2.0000      -0.736922       -20.0527
  18   2.0000      -0.696318       -18.9478
  19   2.0000      -0.673490       -18.3266
  20   2.0000      -0.643204       -17.5025
  21   2.0000      -0.626550       -17.0493
  22   2.0000      -0.600767       -16.3477
  23   2.0000      -0.569538       -15.4979
  24   2.0000      -0.569040       -15.4844
  25   2.0000      -0.565425       -15.3860
  26   2.0000      -0.524814       -14.2809
  27   2.0000      -0.512586       -13.9482
  28   2.0000      -0.475200       -12.9309
  29   2.0000      -0.454536       -12.3686
  30   2.0000      -0.428868       -11.6701
  31   2.0000      -0.408940       -11.1278
  32   2.0000      -0.395615       -10.7652
  33   2.0000      -0.379807       -10.3351
  34   0.0000       0.134556         3.6614
  35   0.0000       0.160605         4.3703
  36   0.0000       0.168451         4.5838
  37   0.0000       0.179027         4.8716
  38   0.0000       0.184593         5.0230

MULLIKEN ATOMIC CHARGES
-----------------------
   0 C :   -0.372325
   1 C :    0.201186
   2 N :   -0.430438
   3 O :   -0.257515
   4 C :    0.059697
   5 C :   -0.243254
   6 C :   -0.093346
   7 C :   -0.274110
   8 C :   -0.096256
   9 H :    0.122799
  10 H :    0.149069
  11 H :    0.147296
  12 H :    0.212150
  13 H :    0.110621
  14 H :    0.128658
  15 H :    0.111161
  16 H :    0.130751
  17 H :    0.129337
  18 H :    0.133107
  19 H :    0.131413
Sum of atomic charges:   -0.0000000

LOEWDIN ATOMIC CHARGES
----------------------
   0 C :   -0.278126
   1 C :   -0.442352
   2 N :   -0.075334
   3 O :    0.270913
   4 C :   -0.250306
   5 C :   -0.195556
   6 C :   -0.179953
   7 C :   -0.206123
   8 C :   -0.167373
   9 H :    0.126515
  10 H :    0.137187
  11 H :    0.136654
  12 H :    0.164173
  13 H :    0.146533
  14 H :    0.138383
  15 H :    0.133448
  16 H :    0.133645
  17 H :    0.139567
  18 H :    0.133352
  19 H :    0.134754

  Mayer bond orders larger than 0.1
B(  0-C ,  1-C ) :   0.9241 B(  0-C ,  9-H ) :   0.9418 B(  0-C , 10-H ) :   0.9211
B(  0-C , 11-H ) :   0.9208 B(  1-C ,  2-N ) :   1.8820 B(  1-C ,  3-O ) :   1.0744
B(  2-N , 12-H ) :   0.8611 B(  3-O ,  4-C ) :   0.8789 B(  4-C ,  5-C ) :   1.0013
B(  4-C ,  8-C ) :   0.9281 B(  4-C , 13-H ) :   0.9303 B(  5-C ,  6-C ) :   0.9566
B(  5-C , 14-H ) :   0.9286 B(  5-C , 15-H ) :   0.9115 B(  6-C ,  7-C ) :   0.8895
B(  6-C ,  8-C ) :   0.8239 B(  6-C , 16-H ) :   0.9270 B(  7-C ,  8-C ) :   0.8843
B(  7-C , 17-H ) :   0.9318 B(  7-C , 18-H ) :   0.9207 B(  8-C , 19-H ) :   0.9287

MP2 TOTAL ENERGY:     -402.434783101 Eh
FINAL SINGLE POINT ENERGY      -402.434783100934

DIPOLE MOMENT
-------------
                                X             Y             Z
Electronic contribution:      1.18577      -0.98431       0.94722
Nuclear contribution   :     -1.13439       1.36357      -1.05688
                        -----------------------------------------
Total Dipole Moment    :      0.05138       0.37926      -0.10966
                        -----------------------------------------
Magnitude (a.u.)       :      0.39813
Magnitude (Debye)      :      1.01196

                             ****ORCA TERMINATED NORMALLY****
TOTAL RUN TIME: 0 days 0 hours 19 minutes 11 seconds 181 msec
