                         Program Version 3.0.3 - RELEASE   -
|  1> ! RI-MP2 RIJK def2-TZVP def2-TZVP/C def2-TZVP/JK TIGHTSCF
|  2> % maxcore 2000
|  3> % mp2 density relaxed end
|  4> *xyz 0 1
|  5>  C       -0.0450607740     1.4430243034     0.0413996769
|  6>  O       -0.0220945812     0.0358412846     0.0799562095
|  7>  C        0.5810117389    -0.5103295409    -1.0560609203
|  8>  C        0.5753353003    -2.0224925003    -0.9561873811
|  9>  N        1.1577361118    -2.7176910157    -2.0433159425
| 10>  C        1.7373518025    -2.2366025480    -3.1942953964
| 11>  O        1.8643508498    -1.0772589288    -3.5082020638
| 12>  N        0.0745998762    -2.6104796026     0.0481825331
| 13>  C        0.0800921363    -4.0594832085     0.1228475401
| 14>  H        0.9696292348     1.8698411101    -0.0053759143
| 15>  H       -0.6137684738     1.8215905554    -0.8230161177
| 16>  H       -0.5296356669     1.7820867032     0.9597908009
| 17>  H        0.0630937509    -0.2079743681    -1.9807225754
| 18>  H        1.6191626458    -0.1607673084    -1.1773205407
| 19>  H        1.1456735215    -3.7234107751    -1.9612137975
| 20>  H        2.0906470038    -3.0725706431    -3.8296935122
| 21>  H       -0.3920366149    -4.3716041720     1.0570752548
| 22>  H       -0.4838448025    -4.5284330690    -0.6993679636
| 23>  H        1.0982537905    -4.4805455961     0.1161792501
| 24> *
| 25>
| 26>                          ****END OF INPUT****

CARTESIAN COORDINATES (ANGSTROEM)
---------------------------------
  C     -0.045061    1.443024    0.041400
  O     -0.022095    0.035841    0.079956
  C      0.581012   -0.510330   -1.056061
  C      0.575335   -2.022493   -0.956187
  N      1.157736   -2.717691   -2.043316
  C      1.737352   -2.236603   -3.194295
  O      1.864351   -1.077259   -3.508202
  N      0.074600   -2.610480    0.048183
  C      0.080092   -4.059483    0.122848
  H      0.969629    1.869841   -0.005376
  H     -0.613768    1.821591   -0.823016
  H     -0.529636    1.782087    0.959791
  H      0.063094   -0.207974   -1.980723
  H      1.619163   -0.160767   -1.177321
  H      1.145674   -3.723411   -1.961214
  H      2.090647   -3.072571   -3.829694
  H     -0.392037   -4.371604    1.057075
  H     -0.483845   -4.528433   -0.699368
  H      1.098254   -4.480546    0.116179

 Total Charge           Charge          ....    0
 Multiplicity           Mult            ....    1
 Number of Electrons    NEL             ....   70
 Basis Dimension        Dim             ....  339

ORBITAL ENERGIES
----------------

  NO   OCC          E(Eh)            E(eV)
   0   2.0000     -20.552432      -559.2601
   1   2.0000     -20.552048      -559.2496
   2   2.0000     -15.622057      -425.0978
   3   2.0000     -15.544010      -422.9740
   4   2.0000     -11.378672      -309.6294
   5   2.0000     -11.327103      -308.2261
   6   2.0000     -11.284074      -307.0553
   7   2.0000     -11.267045      -306.5919
   8   2.0000     -11.256447      -306.3035
   9   2.0000      -1.413723       -38.4694
  10   2.0000      -1.379285       -37.5323
  11   2.0000      -1.294844       -35.2345
  12   2.0000      -1.196465       -32.5575
  13   2.0000      -1.016989       -27.6737
  14   2.0000      -0.939145       -25.5554
  15   2.0000      -0.899773       -24.4841
  16   2.0000      -0.872961       -23.7545
  17   2.0000      -0.776894       -21.1404
  18   2.0000      -0.737267       -20.0620
  19   2.0000      -0.686530       -18.6814
  20   2.0000      -0.672232       -18.2924
  21   2.0000      -0.654589       -17.8123
  22   2.0000      -0.634577       -17.2677
  23   2.0000      -0.625159       -17.0114
  24   2.0000      -0.621234       -16.9046
  25   2.0000      -0.586515       -15.9599
  26   2.0000      -0.577703       -15.7201
  27   2.0000      -0.551877       -15.0173
  28   2.0000      -0.527096       -14.3430
  29   2.0000      -0.487093       -13.2545
  30   2.0000      -0.484285       -13.1781
  31   2.0000      -0.458251       -12.4697
  32   2.0000      -0.422180       -11.4881
  33   2.0000      -0.405834       -11.0433
  34   2.0000      -0.377097       -10.2613
  35   0.0000       0.118127         3.2144
  36   0.0000       0.124086         3.3766
  37   0.0000       0.147902         4.0246
  38   0.0000       0.163395         4.4462
  39   0.0000       0.184368         5.0169

MULLIKEN ATOMIC CHARGES
-----------------------
   0 C :   -0.226603
   1 O :   -0.263978
   2 C :   -0.006407
   3 C :    0.127233
   4 N :   -0.305394
   5 C :    0.176620
   6 O :   -0.329388
   7 N :   -0.171667
   8 C :   -0.369708
   9 H :    0.111963
  10 H :    0.111959
  11 H :    0.140922
  12 H :    0.116134
  13 H :    0.116141
  14 H :    0.245183
  15 H :    0.096823
  16 H :    0.160872
  17 H :    0.134703
  18 H :    0.134591
Sum of atomic charges:   -0.0000000

LOEWDIN ATOMIC CHARGES
----------------------
   0 C :   -0.357504
   1 O :    0.161078
   2 C :   -0.302895
   3 C :   -0.306903
   4 N :    0.130041
   5 C :   -0.410132
   6 O :    0.094595
   7 N :    0.094812
   8 C :   -0.348663
   9 H :    0.101845
  10 H :    0.101845
  11 H :    0.114428
  12 H :    0.135636
  13 H :    0.135638
  14 H :    0.196894
  15 H :    0.115702
  16 H :    0.121459
  17 H :    0.111079
  18 H :    0.111045

  Mayer bond orders larger than 0.1
B(  0-C ,  1-O ) :   0.9229 B(  0-C ,  9-H ) :   0.9372 B(  0-C , 10-H ) :   0.9372
B(  0-C , 11-H ) :   0.9396 B(  1-O ,  2-C ) :   0.9897 B(  2-C ,  3-C ) :   0.9430
B(  2-C , 12-H ) :   0.9084 B(  2-C , 13-H ) :   0.9084 B(  3-C ,  4-N ) :   0.9711
B(  3-C ,  7-N ) :   1.9697 B(  4-N ,  5-C ) :   1.0903 B(  4-N , 14-H ) :   0.8660
B(  5-C ,  6-O ) :   1.9081 B(  5-C , 15-H ) :   0.9258 B(  7-N ,  8-C ) :   0.8800
B(  8-C , 16-H ) :   0.9491 B(  8-C , 17-H ) :   0.9223 B(  8-C , 18-H ) :   0.9223

MP2 TOTAL ENERGY:     -455.604033621 Eh
FINAL SINGLE POINT ENERGY      -455.604033621230

DIPOLE MOMENT
-------------
                                X             Y             Z
Electronic contribution:      1.80476      -0.96619      -3.43791
Nuclear contribution   :     -1.59866      -0.05287       3.09813
                        -----------------------------------------
Total Dipole Moment    :      0.20610      -1.01906      -0.33977
                        -----------------------------------------
Magnitude (a.u.)       :      1.09381
Magnitude (Debye)      :      2.78023

                             ****ORCA TERMINATED NORMALLY****
TOTAL RUN TIME: 0 days 0 hours 14 minutes 50 seconds 589 msec
