                         Program Version 3.0.3 - RELEASE   -
|  1> ! RI-MP2 RIJK def2-TZVP def2-TZVP/C def2-TZVP/JK TIGHTSCF
|  2> % maxcore 2000
|  3> % mp2 density relaxed end
|  4> *xyz 0 1
|  5>  O       -0.0883588573     1.4636422242     0.0547071323
|  6>  C       -0.0106702566     0.0465879980     0.0096874101
|  7>  C        0.6941755936    -0.5836164539     1.2353579881
|  8>  C        0.0464351693    -1.9699002952     1.4224709924
|  9>  C       -1.3634251067    -1.8178624986     0.8661964931
| 10>  C       -2.1611118629    -0.5917357396     1.2920132448
| 11>  C       -1.4090052721    -0.5461880413     0.0068859543
| 12>  C       -2.1121831986    -3.0123052633     0.4332156173
| 13>  O       -1.7031451316    -4.1462767033     0.5115172171
| 14>  H        0.8053745684     1.8128809145    -0.0212651445
| 15>  H        0.4942032031    -0.2743182109    -0.9152860800
| 16>  H        1.7790445118    -0.6394168487     1.1089602080
| 17>  H        0.5045958912     0.0614778734     2.0992853967
| 18>  H        0.5638165987    -2.7390848878     0.8406182329
| 19>  H        0.0567148553    -2.3027623687     2.4649292078
| 20>  H       -3.2417225205    -0.6674964096     1.2272306980
| 21>  H       -1.8059223813    -0.0300269550     2.1483883731
| 22>  H       -1.9702623869    -0.5303105554    -0.9206807515
| 23>  H       -3.1193886169    -2.7922914787     0.0060048301
| 24> *
| 25>
| 26>                          ****END OF INPUT****

CARTESIAN COORDINATES (ANGSTROEM)
---------------------------------
  O     -0.088359    1.463642    0.054707
  C     -0.010670    0.046588    0.009687
  C      0.694176   -0.583616    1.235358
  C      0.046435   -1.969900    1.422471
  C     -1.363425   -1.817862    0.866196
  C     -2.161112   -0.591736    1.292013
  C     -1.409005   -0.546188    0.006886
  C     -2.112183   -3.012305    0.433216
  O     -1.703145   -4.146277    0.511517
  H      0.805375    1.812881   -0.021265
  H      0.494203   -0.274318   -0.915286
  H      1.779045   -0.639417    1.108960
  H      0.504596    0.061478    2.099285
  H      0.563817   -2.739085    0.840618
  H      0.056715   -2.302762    2.464929
  H     -3.241723   -0.667496    1.227231
  H     -1.805922   -0.030027    2.148388
  H     -1.970262   -0.530311   -0.920681
  H     -3.119389   -2.792291    0.006005

 Total Charge           Charge          ....    0
 Multiplicity           Mult            ....    1
 Number of Electrons    NEL             ....   68
 Basis Dimension        Dim             ....  339

ORBITAL ENERGIES
----------------

  NO   OCC          E(Eh)            E(eV)
   0   2.0000     -20.563901      -559.5722
   1   2.0000     -20.548593      -559.1556
   2   2.0000     -11.329183      -308.2827
   3   2.0000     -11.294325      -307.3342
   4   2.0000     -11.252103      -306.1853
   5   2.0000     -11.250661      -306.1461
   6   2.0000     -11.247836      -306.0692
   7   2.0000     -11.232799      -305.6600
   8   2.0000     -11.231054      -305.6125
   9   2.0000      -1.388328       -37.7783
  10   2.0000      -1.370647       -37.2972
  11   2.0000      -1.195007       -32.5178
  12   2.0000      -1.042857       -28.3776
  13   2.0000      -0.975658       -26.5490
  14   2.0000      -0.892440       -24.2845
  15   2.0000      -0.856390       -23.3035
  16   2.0000      -0.779021       -21.1982
  17   2.0000      -0.749387       -20.3918
  18   2.0000      -0.711731       -19.3672
  19   2.0000      -0.694154       -18.8889
  20   2.0000      -0.657875       -17.9017
  21   2.0000      -0.619220       -16.8498
  22   2.0000      -0.616719       -16.7818
  23   2.0000      -0.599977       -16.3262
  24   2.0000      -0.570902       -15.5350
  25   2.0000      -0.553875       -15.0717
  26   2.0000      -0.536919       -14.6103
  27   2.0000      -0.519024       -14.1234
  28   2.0000      -0.499900       -13.6030
  29   2.0000      -0.482555       -13.1310
  30   2.0000      -0.460418       -12.5286
  31   2.0000      -0.431560       -11.7433
  32   2.0000      -0.413734       -11.2583
  33   2.0000      -0.404966       -11.0197
  34   0.0000       0.123192         3.3522
  35   0.0000       0.131503         3.5784
  36   0.0000       0.149996         4.0816
  37   0.0000       0.158078         4.3015
  38   0.0000       0.164526         4.4770

MULLIKEN ATOMIC CHARGES
-----------------------
   0 O :   -0.449513
   1 C :    0.015061
   2 C :   -0.256796
   3 C :   -0.257827
   4 C :    0.132695
   5 C :   -0.310113
   6 C :   -0.055618
   7 C :    0.027951
   8 O :   -0.279053
   9 H :    0.315646
  10 H :    0.087851
  11 H :    0.129151
  12 H :    0.128824
  13 H :    0.137876
  14 H :    0.127358
  15 H :    0.146789
  16 H :    0.148498
  17 H :    0.139761
  18 H :    0.071458
Sum of atomic charges:   -0.0000000

LOEWDIN ATOMIC CHARGES
----------------------
   0 O :   -0.018048
   1 C :   -0.317614
   2 C :   -0.236451
   3 C :   -0.198954
   4 C :   -0.212060
   5 C :   -0.161170
   6 C :   -0.145861
   7 C :   -0.272541
   8 O :    0.125816
   9 H :    0.175227
  10 H :    0.139005
  11 H :    0.133945
  12 H :    0.140622
  13 H :    0.149699
  14 H :    0.142587
  15 H :    0.142291
  16 H :    0.145213
  17 H :    0.150567
  18 H :    0.117727

  Mayer bond orders larger than 0.1
B(  0-O ,  1-C ) :   1.0801 B(  0-O ,  6-C ) :  -0.1028 B(  0-O ,  9-H ) :   0.8454
B(  1-C ,  2-C ) :   0.9114 B(  1-C ,  6-C ) :   0.9083 B(  1-C , 10-H ) :   0.9514
B(  2-C ,  3-C ) :   0.9156 B(  2-C , 11-H ) :   0.9240 B(  2-C , 12-H ) :   0.9331
B(  3-C ,  4-C ) :   0.9185 B(  3-C , 13-H ) :   0.9206 B(  3-C , 14-H ) :   0.9277
B(  4-C ,  5-C ) :   0.8557 B(  4-C ,  6-C ) :   0.7650 B(  4-C ,  7-C ) :   0.8748
B(  5-C ,  6-C ) :   0.8900 B(  5-C , 15-H ) :   0.9260 B(  5-C , 16-H ) :   0.9092
B(  6-C , 17-H ) :   0.9223 B(  7-C ,  8-O ) :   2.0079 B(  7-C , 18-H ) :   0.9659

MP2 TOTAL ENERGY:     -422.337276031 Eh
FINAL SINGLE POINT ENERGY      -422.337276030660

DIPOLE MOMENT
-------------
                                X             Y             Z
Electronic contribution:     -2.16942      -2.86461      -1.56958
Nuclear contribution   :      2.65041       3.76483       1.55096
                        -----------------------------------------
Total Dipole Moment    :      0.48099       0.90022      -0.01862
                        -----------------------------------------
Magnitude (a.u.)       :      1.02083
Magnitude (Debye)      :      2.59474

                             ****ORCA TERMINATED NORMALLY****
TOTAL RUN TIME: 0 days 0 hours 18 minutes 15 seconds 919 msec
