                         Program Version 3.0.3 - RELEASE   -
|  1> ! RI-MP2 RIJK def2-TZVP def2-TZVP/C def2-TZVP/JK TIGHTSCF
|  2> % maxcore 2000
|  3> % mp2 density relaxed end
|  4> *xyz 0 1
|  5>  C       -0.4489545182     1.2954357432     0.0518611335
|  6>  C        0.2607209354    -0.0568463016    -0.0918566483
|  7>  C        0.8500596577    -0.5757897450     1.2118145148
|  8>  C        2.0478259814     0.1943218055     1.7457122131
|  9>  C        0.0012883652    -1.1876642394     2.2759447680
| 10>  O       -1.1491242583    -1.8653625560     1.7057804496
| 11>  C       -0.2965266449    -2.7713246053     1.0665780118
| 12>  N       -0.5656694485    -3.8031626646     0.4084838350
| 13>  C        0.9520472210    -2.0899005081     1.5148554113
| 14>  H        0.2285225992     2.0839494734     0.3943377910
| 15>  H       -0.8641202153     1.6148898026    -0.9086172416
| 16>  H       -1.2747591835     1.2257563623     0.7671740312
| 17>  H       -0.4454193579    -0.7877072420    -0.4931703006
| 18>  H        1.0716642162     0.0219079302    -0.8267380716
| 19>  H        1.7973104885     1.2465333541     1.9102810598
| 20>  H        2.3994342439    -0.2163935970     2.6976039688
| 21>  H        2.8808861231     0.1529686619     1.0360001241
| 22>  H       -0.0569368727    -0.9185670148     3.3226643978
| 23>  H       -1.5747880723    -3.9517142069     0.3527546179
| 24>  H        1.8772328500    -2.5685752826     1.8013533644
| 25> *
| 26>
| 27>                          ****END OF INPUT****

CARTESIAN COORDINATES (ANGSTROEM)
---------------------------------
  C     -0.448955    1.295436    0.051861
  C      0.260721   -0.056846   -0.091857
  C      0.850060   -0.575790    1.211815
  C      2.047826    0.194322    1.745712
  C      0.001288   -1.187664    2.275945
  O     -1.149124   -1.865363    1.705780
  C     -0.296527   -2.771325    1.066578
  N     -0.565669   -3.803163    0.408484
  C      0.952047   -2.089901    1.514855
  H      0.228523    2.083949    0.394338
  H     -0.864120    1.614890   -0.908617
  H     -1.274759    1.225756    0.767174
  H     -0.445419   -0.787707   -0.493170
  H      1.071664    0.021908   -0.826738
  H      1.797310    1.246533    1.910281
  H      2.399434   -0.216394    2.697604
  H      2.880886    0.152969    1.036000
  H     -0.056937   -0.918567    3.322664
  H     -1.574788   -3.951714    0.352755
  H      1.877233   -2.568575    1.801353

 Total Charge           Charge          ....    0
 Multiplicity           Mult            ....    1
 Number of Electrons    NEL             ....   68
 Basis Dimension        Dim             ....  345

ORBITAL ENERGIES
----------------

  NO   OCC          E(Eh)            E(eV)
   0   2.0000     -20.590716      -560.3019
   1   2.0000     -15.537926      -422.8085
   2   2.0000     -11.342425      -308.6431
   3   2.0000     -11.308631      -307.7235
   4   2.0000     -11.269191      -306.6503
   5   2.0000     -11.253611      -306.2263
   6   2.0000     -11.237224      -305.7804
   7   2.0000     -11.231138      -305.6148
   8   2.0000     -11.219588      -305.3005
   9   2.0000      -1.438900       -39.1545
  10   2.0000      -1.198383       -32.6097
  11   2.0000      -1.162202       -31.6251
  12   2.0000      -1.037590       -28.2343
  13   2.0000      -0.979550       -26.6549
  14   2.0000      -0.890216       -24.2240
  15   2.0000      -0.876102       -23.8399
  16   2.0000      -0.771915       -21.0049
  17   2.0000      -0.740162       -20.1408
  18   2.0000      -0.704646       -19.1744
  19   2.0000      -0.681864       -18.5545
  20   2.0000      -0.660595       -17.9757
  21   2.0000      -0.615580       -16.7508
  22   2.0000      -0.589566       -16.0429
  23   2.0000      -0.579439       -15.7673
  24   2.0000      -0.553715       -15.0674
  25   2.0000      -0.553064       -15.0496
  26   2.0000      -0.539940       -14.6925
  27   2.0000      -0.522397       -14.2152
  28   2.0000      -0.504734       -13.7345
  29   2.0000      -0.484085       -13.1726
  30   2.0000      -0.458123       -12.4662
  31   2.0000      -0.436133       -11.8678
  32   2.0000      -0.406822       -11.0702
  33   2.0000      -0.385991       -10.5033
  34   0.0000       0.129800         3.5320
  35   0.0000       0.150844         4.1047
  36   0.0000       0.161139         4.3848
  37   0.0000       0.169248         4.6055
  38   0.0000       0.176388         4.7998

MULLIKEN ATOMIC CHARGES
-----------------------
   0 C :   -0.430378
   1 C :   -0.157302
   2 C :    0.076853
   3 C :   -0.454161
   4 C :    0.053262
   5 O :   -0.292703
   6 C :    0.126412
   7 N :   -0.366952
   8 C :   -0.173131
   9 H :    0.121794
  10 H :    0.139029
  11 H :    0.140492
  12 H :    0.127995
  13 H :    0.115474
  14 H :    0.146766
  15 H :    0.139479
  16 H :    0.147188
  17 H :    0.152165
  18 H :    0.231542
  19 H :    0.156176
Sum of atomic charges:    0.0000000

LOEWDIN ATOMIC CHARGES
----------------------
   0 C :   -0.308708
   1 C :   -0.239740
   2 C :   -0.227495
   3 C :   -0.251928
   4 C :   -0.182534
   5 O :    0.222506
   6 C :   -0.376518
   7 N :   -0.044871
   8 C :   -0.111281
   9 H :    0.118352
  10 H :    0.123681
  11 H :    0.125790
  12 H :    0.150508
  13 H :    0.143936
  14 H :    0.130239
  15 H :    0.132645
  16 H :    0.132469
  17 H :    0.138447
  18 H :    0.174806
  19 H :    0.149696

  Mayer bond orders larger than 0.1
B(  0-C ,  1-C ) :   0.9118 B(  0-C ,  9-H ) :   0.9367 B(  0-C , 10-H ) :   0.9399
B(  0-C , 11-H ) :   0.9411 B(  1-C ,  2-C ) :   0.9006 B(  1-C , 12-H ) :   0.9265
B(  1-C , 13-H ) :   0.9264 B(  2-C ,  3-C ) :   0.8942 B(  2-C ,  4-C ) :   0.8951
B(  2-C ,  8-C ) :   0.8155 B(  3-C , 14-H ) :   0.9401 B(  3-C , 15-H ) :   0.9267
B(  3-C , 16-H ) :   0.9397 B(  4-C ,  5-O ) :   0.8792 B(  4-C ,  8-C ) :   0.8534
B(  4-C , 17-H ) :   0.9189 B(  5-O ,  6-C ) :   1.0308 B(  6-C ,  7-N ) :   2.0718
B(  6-C ,  8-C ) :   0.9506 B(  7-N , 18-H ) :   0.8449 B(  8-C , 19-H ) :   0.9146

MP2 TOTAL ENERGY:     -402.431012663 Eh
FINAL SINGLE POINT ENERGY      -402.431012663273

DIPOLE MOMENT
-------------
                                X             Y             Z
Electronic contribution:     -3.54658      -9.22991       2.26854
Nuclear contribution   :      3.97573      10.17615      -1.81910
                        -----------------------------------------
Total Dipole Moment    :      0.42915       0.94623       0.44944
                        -----------------------------------------
Magnitude (a.u.)       :      1.13204
Magnitude (Debye)      :      2.87743

                             ****ORCA TERMINATED NORMALLY****
TOTAL RUN TIME: 0 days 0 hours 18 minutes 25 seconds 312 msec
