                         Program Version 3.0.3 - RELEASE   -
|  1> ! RI-MP2 RIJK def2-TZVP def2-TZVP/C def2-TZVP/JK TIGHTSCF
|  2> % maxcore 2000
|  3> % mp2 density relaxed end
|  4> *xyz 0 1
|  5>  C       -0.0463790543     1.4278158340    -0.0106301007
|  6>  N       -0.0273365786    -0.0175249121     0.0442120459
|  7>  N       -0.1856753946    -0.7723189052    -1.0808323013
|  8>  N       -0.1241695349    -2.0185611656    -0.7237491108
|  9>  C        0.0726687711    -2.1028415379     0.6217483152
| 10>  C        0.1351122120    -0.8195433862     1.1167696715
| 11>  O        0.3083314547    -0.2641494492     2.3335237203
| 12>  H        0.9016599382     1.8410294622     0.3443704793
| 13>  H       -0.2006157956     1.7038023299    -1.0535026401
| 14>  H       -0.8595844022     1.8275624923     0.6012922264
| 15>  H        0.1549733464    -3.0458641260     1.1370283798
| 16>  H        0.4086953576    -0.9644830461     2.9861298444
| 17> *
| 18>
| 19>                          ****END OF INPUT****

CARTESIAN COORDINATES (ANGSTROEM)
---------------------------------
  C     -0.046379    1.427816   -0.010630
  N     -0.027337   -0.017525    0.044212
  N     -0.185675   -0.772319   -1.080832
  N     -0.124170   -2.018561   -0.723749
  C      0.072669   -2.102842    0.621748
  C      0.135112   -0.819543    1.116770
  O      0.308331   -0.264149    2.333524
  H      0.901660    1.841029    0.344370
  H     -0.200616    1.703802   -1.053503
  H     -0.859584    1.827562    0.601292
  H      0.154973   -3.045864    1.137028
  H      0.408695   -0.964483    2.986130

 Total Charge           Charge          ....    0
 Multiplicity           Mult            ....    1
 Number of Electrons    NEL             ....   52
 Basis Dimension        Dim             ....  247

ORBITAL ENERGIES
----------------

  NO   OCC          E(Eh)            E(eV)
   0   2.0000     -20.629403      -561.3546
   1   2.0000     -15.650141      -425.8620
   2   2.0000     -15.627719      -425.2518
   3   2.0000     -15.596012      -424.3891
   4   2.0000     -11.349154      -308.8262
   5   2.0000     -11.282631      -307.0160
   6   2.0000     -11.247367      -306.0564
   7   2.0000      -1.462208       -39.7887
   8   2.0000      -1.415242       -38.5107
   9   2.0000      -1.215890       -33.0861
  10   2.0000      -1.071267       -29.1507
  11   2.0000      -0.989317       -26.9207
  12   2.0000      -0.866858       -23.5884
  13   2.0000      -0.813762       -22.1436
  14   2.0000      -0.757008       -20.5992
  15   2.0000      -0.687332       -18.7033
  16   2.0000      -0.686007       -18.6672
  17   2.0000      -0.649952       -17.6861
  18   2.0000      -0.604523       -16.4499
  19   2.0000      -0.592514       -16.1231
  20   2.0000      -0.576509       -15.6876
  21   2.0000      -0.564902       -15.3718
  22   2.0000      -0.511400       -13.9159
  23   2.0000      -0.431509       -11.7420
  24   2.0000      -0.398882       -10.8541
  25   2.0000      -0.340796        -9.2735
  26   0.0000       0.112911         3.0725
  27   0.0000       0.150938         4.1072
  28   0.0000       0.154138         4.1943
  29   0.0000       0.188071         5.1177
  30   0.0000       0.198802         5.4097

MULLIKEN ATOMIC CHARGES
-----------------------
   0 C :   -0.322661
   1 N :    0.107193
   2 N :   -0.181899
   3 N :   -0.163279
   4 C :   -0.194382
   5 C :    0.204816
   6 O :   -0.433042
   7 H :    0.155604
   8 H :    0.179876
   9 H :    0.155604
  10 H :    0.141327
  11 H :    0.350842
Sum of atomic charges:    0.0000000

LOEWDIN ATOMIC CHARGES
----------------------
   0 C :   -0.269555
   1 N :    0.172044
   2 N :   -0.038298
   3 N :   -0.003254
   4 C :   -0.292450
   5 C :   -0.382124
   6 O :    0.081757
   7 H :    0.127458
   8 H :    0.136929
   9 H :    0.127459
  10 H :    0.134173
  11 H :    0.205861

  Mayer bond orders larger than 0.1
B(  0-C ,  1-N ) :   0.8541 B(  0-C ,  7-H ) :   0.9281 B(  0-C ,  8-H ) :   0.9230
B(  0-C ,  9-H ) :   0.9281 B(  1-N ,  2-N ) :   0.9758 B(  1-N ,  5-C ) :   1.1897
B(  2-N ,  3-N ) :   1.2972 B(  3-N ,  4-C ) :   1.3571 B(  4-C ,  5-C ) :   1.4034
B(  4-C , 10-H ) :   0.9411 B(  5-C ,  6-O ) :   1.0998 B(  6-O , 11-H ) :   0.8246

MP2 TOTAL ENERGY:     -356.111431986 Eh
FINAL SINGLE POINT ENERGY      -356.111431986287

DIPOLE MOMENT
-------------
                                X             Y             Z
Electronic contribution:     -0.02378      -3.36521      -0.33933
Nuclear contribution   :      0.26093       4.12447       2.00593
                        -----------------------------------------
Total Dipole Moment    :      0.23716       0.75926       1.66660
                        -----------------------------------------
Magnitude (a.u.)       :      1.84669
Magnitude (Debye)      :      4.69391

                             ****ORCA TERMINATED NORMALLY****
TOTAL RUN TIME: 0 days 0 hours 6 minutes 52 seconds 746 msec
