                         Program Version 3.0.3 - RELEASE   -
|  1> ! RI-MP2 RIJK def2-TZVP def2-TZVP/C def2-TZVP/JK TIGHTSCF
|  2> % maxcore 2000
|  3> % mp2 density relaxed end
|  4> *xyz 0 1
|  5>  C       -0.0713737509     1.5286625577    -0.0164502112
|  6>  C        0.0557229130     0.0110578790     0.0149732483
|  7>  O        0.7117958938    -0.3849544258    -1.1836830589
|  8>  C        0.8365997443    -1.7935425041    -1.2714103885
|  9>  C        1.8559803268    -2.3429338807    -0.2674350316
| 10>  C        1.6992434043    -1.7132681615     1.1220676201
| 11>  C        1.7543302641    -2.6868087268     2.2820979144
| 12>  C        2.2942964368    -0.3369915613     1.3263864499
| 13>  C        0.7972656978    -0.4991107538     1.2404862894
| 14>  H        0.9175880371     1.9955848212    -0.0131343133
| 15>  H       -0.6031551878     1.8463244384    -0.9175901128
| 16>  H       -0.6240618455     1.8825767228     0.8592097595
| 17>  H       -0.9572305551    -0.4326405218     0.0178750869
| 18>  H       -0.1481868624    -2.2607565692    -1.1014935341
| 19>  H        1.1385754090    -2.0163146851    -2.2991875314
| 20>  H        1.7260091597    -3.4294766177    -0.1991401207
| 21>  H        2.8718889241    -2.1731109987    -0.6427797058
| 22>  H        2.7067397419    -3.2308255236     2.2941160956
| 23>  H        1.6553545295    -2.1697533541     3.2422403647
| 24>  H        0.9503711319    -3.4300534092     2.2184199225
| 25>  H        2.7345761632    -0.1024501711     2.2901185410
| 26>  H        2.7922339400     0.1196320814     0.4768563827
| 27>  H        0.2369960244    -0.3991288659     2.1670450031
| 28> *
| 29>
| 30>                          ****END OF INPUT****

CARTESIAN COORDINATES (ANGSTROEM)
---------------------------------
  C     -0.071374    1.528663   -0.016450
  C      0.055723    0.011058    0.014973
  O      0.711796   -0.384954   -1.183683
  C      0.836600   -1.793543   -1.271410
  C      1.855980   -2.342934   -0.267435
  C      1.699243   -1.713268    1.122068
  C      1.754330   -2.686809    2.282098
  C      2.294296   -0.336992    1.326386
  C      0.797266   -0.499111    1.240486
  H      0.917588    1.995585   -0.013134
  H     -0.603155    1.846324   -0.917590
  H     -0.624062    1.882577    0.859210
  H     -0.957231   -0.432641    0.017875
  H     -0.148187   -2.260757   -1.101494
  H      1.138575   -2.016315   -2.299188
  H      1.726009   -3.429477   -0.199140
  H      2.871889   -2.173111   -0.642780
  H      2.706740   -3.230826    2.294116
  H      1.655355   -2.169753    3.242240
  H      0.950371   -3.430053    2.218420
  H      2.734576   -0.102450    2.290119
  H      2.792234    0.119632    0.476856
  H      0.236996   -0.399129    2.167045

 Total Charge           Charge          ....    0
 Multiplicity           Mult            ....    1
 Number of Electrons    NEL             ....   70
 Basis Dimension        Dim             ....  363

ORBITAL ENERGIES
----------------

  NO   OCC          E(Eh)            E(eV)
   0   2.0000     -20.546968      -559.1114
   1   2.0000     -11.275957      -306.8344
   2   2.0000     -11.268817      -306.6401
   3   2.0000     -11.235489      -305.7332
   4   2.0000     -11.223631      -305.4105
   5   2.0000     -11.220108      -305.3147
   6   2.0000     -11.217073      -305.2321
   7   2.0000     -11.214630      -305.1656
   8   2.0000     -11.207556      -304.9731
   9   2.0000      -1.371766       -37.3276
  10   2.0000      -1.153629       -31.3918
  11   2.0000      -1.049225       -28.5509
  12   2.0000      -0.976540       -26.5730
  13   2.0000      -0.958858       -26.0918
  14   2.0000      -0.868166       -23.6240
  15   2.0000      -0.852845       -23.2071
  16   2.0000      -0.771390       -20.9906
  17   2.0000      -0.724751       -19.7215
  18   2.0000      -0.675554       -18.3828
  19   2.0000      -0.655098       -17.8261
  20   2.0000      -0.631071       -17.1723
  21   2.0000      -0.610895       -16.6233
  22   2.0000      -0.586728       -15.9657
  23   2.0000      -0.571626       -15.5547
  24   2.0000      -0.547946       -14.9104
  25   2.0000      -0.544985       -14.8298
  26   2.0000      -0.531229       -14.4555
  27   2.0000      -0.518839       -14.1183
  28   2.0000      -0.516060       -14.0427
  29   2.0000      -0.493928       -13.4405
  30   2.0000      -0.481996       -13.1158
  31   2.0000      -0.452578       -12.3153
  32   2.0000      -0.420981       -11.4555
  33   2.0000      -0.392082       -10.6691
  34   2.0000      -0.377846       -10.2817
  35   0.0000       0.134649         3.6640
  36   0.0000       0.156517         4.2591
  37   0.0000       0.164239         4.4692
  38   0.0000       0.167351         4.5539
  39   0.0000       0.189722         5.1626

MULLIKEN ATOMIC CHARGES
-----------------------
   0 C :   -0.373935
   1 C :    0.094847
   2 O :   -0.313244
   3 C :   -0.100262
   4 C :   -0.208292
   5 C :    0.154124
   6 C :   -0.427871
   7 C :   -0.359255
   8 C :   -0.147229
   9 H :    0.129573
  10 H :    0.137155
  11 H :    0.120104
  12 H :    0.067480
  13 H :    0.096394
  14 H :    0.121817
  15 H :    0.114987
  16 H :    0.117601
  17 H :    0.135098
  18 H :    0.125877
  19 H :    0.129454
  20 H :    0.128664
  21 H :    0.139630
  22 H :    0.117282
Sum of atomic charges:   -0.0000000

LOEWDIN ATOMIC CHARGES
----------------------
   0 C :   -0.285003
   1 C :   -0.334154
   2 O :    0.178443
   3 C :   -0.310426
   4 C :   -0.222677
   5 C :   -0.243335
   6 C :   -0.270656
   7 C :   -0.187958
   8 C :   -0.176795
   9 H :    0.126715
  10 H :    0.125452
  11 H :    0.126164
  12 H :    0.137331
  13 H :    0.120449
  14 H :    0.128034
  15 H :    0.145013
  16 H :    0.141668
  17 H :    0.126986
  18 H :    0.126839
  19 H :    0.125078
  20 H :    0.132223
  21 H :    0.139603
  22 H :    0.151004

  Mayer bond orders larger than 0.1
B(  0-C ,  1-C ) :   0.9048 B(  0-C ,  9-H ) :   0.9390 B(  0-C , 10-H ) :   0.9391
B(  0-C , 11-H ) :   0.9327 B(  1-C ,  2-O ) :   0.9314 B(  1-C ,  8-C ) :   0.9212
B(  1-C , 12-H ) :   0.9367 B(  2-O ,  3-C ) :   0.9408 B(  3-C ,  4-C ) :   0.9578
B(  3-C , 13-H ) :   0.9419 B(  3-C , 14-H ) :   0.9303 B(  4-C ,  5-C ) :   0.8827
B(  4-C , 15-H ) :   0.9285 B(  4-C , 16-H ) :   0.9173 B(  5-C ,  6-C ) :   0.8950
B(  5-C ,  7-C ) :   0.8750 B(  5-C ,  8-C ) :   0.8619 B(  6-C , 17-H ) :   0.9418
B(  6-C , 18-H ) :   0.9324 B(  6-C , 19-H ) :   0.9403 B(  7-C ,  8-C ) :   0.8923
B(  7-C , 20-H ) :   0.9270 B(  7-C , 21-H ) :   0.9167 B(  8-C , 22-H ) :   0.9154

MP2 TOTAL ENERGY:     -387.620777513 Eh
FINAL SINGLE POINT ENERGY      -387.620777513135

DIPOLE MOMENT
-------------
                                X             Y             Z
Electronic contribution:     -0.22248       0.69164      -3.03193
Nuclear contribution   :      0.11127      -1.05897       3.40299
                        -----------------------------------------
Total Dipole Moment    :     -0.11121      -0.36733       0.37106
                        -----------------------------------------
Magnitude (a.u.)       :      0.53384
Magnitude (Debye)      :      1.35690

                             ****ORCA TERMINATED NORMALLY****
TOTAL RUN TIME: 0 days 0 hours 21 minutes 15 seconds 321 msec
