                         Program Version 3.0.3 - RELEASE   -
|  1> ! RI-MP2 RIJK def2-TZVP def2-TZVP/C def2-TZVP/JK TIGHTSCF
|  2> % maxcore 2000
|  3> % mp2 density relaxed end
|  4> *xyz 0 1
|  5>  C        0.0602333878     1.5899809399     0.0565893810
|  6>  C        0.0859250623     0.0584013765     0.0187262908
|  7>  C        0.7124417323    -0.5326016859    -1.2448075493
|  8>  C        2.1061386142    -0.2030959116    -1.7344024100
|  9>  C        1.8086137725    -1.5636622663    -1.1481790251
| 10>  N        2.3004615928    -1.8056376429     0.1829010325
| 11>  C        1.2543886784    -1.9284448105     1.1936236731
| 12>  C        0.6205121686    -0.5448519517     1.3258376122
| 13>  O        0.5167499357     0.0233582934     2.3861307637
| 14>  H        1.0754519911     1.9962809892     0.0276378984
| 15>  H       -0.4872182787     1.9873316364    -0.8030965788
| 16>  H       -0.4159243308     1.9384369910     0.9749334142
| 17>  H       -0.9598711692    -0.2926541100     0.0240782279
| 18>  H       -0.0052511252    -0.7014149824    -2.0417968475
| 19>  H        2.2506737669    -0.0998448638    -2.8044145347
| 20>  H        2.7316249705     0.4342905212    -1.1198725518
| 21>  H        1.7494098051    -2.4196510141    -1.8209587476
| 22>  H        2.9650876187    -2.5656659071     0.2192562720
| 23>  H        0.4710950104    -2.6716790363     0.9492369390
| 24>  H        1.6941818566    -2.1942444653     2.1570128400
| 25> *
| 26>
| 27>                          ****END OF INPUT****

CARTESIAN COORDINATES (ANGSTROEM)
---------------------------------
  C      0.060233    1.589981    0.056589
  C      0.085925    0.058401    0.018726
  C      0.712442   -0.532602   -1.244808
  C      2.106139   -0.203096   -1.734402
  C      1.808614   -1.563662   -1.148179
  N      2.300462   -1.805638    0.182901
  C      1.254389   -1.928445    1.193624
  C      0.620512   -0.544852    1.325838
  O      0.516750    0.023358    2.386131
  H      1.075452    1.996281    0.027638
  H     -0.487218    1.987332   -0.803097
  H     -0.415924    1.938437    0.974933
  H     -0.959871   -0.292654    0.024078
  H     -0.005251   -0.701415   -2.041797
  H      2.250674   -0.099845   -2.804415
  H      2.731625    0.434291   -1.119873
  H      1.749410   -2.419651   -1.820959
  H      2.965088   -2.565666    0.219256
  H      0.471095   -2.671679    0.949237
  H      1.694182   -2.194244    2.157013

 Total Charge           Charge          ....    0
 Multiplicity           Mult            ....    1
 Number of Electrons    NEL             ....   68
 Basis Dimension        Dim             ....  345

ORBITAL ENERGIES
----------------

  NO   OCC          E(Eh)            E(eV)
   0   2.0000     -20.540158      -558.9261
   1   2.0000     -15.557998      -423.3546
   2   2.0000     -11.323446      -308.1266
   3   2.0000     -11.266369      -306.5735
   4   2.0000     -11.264005      -306.5092
   5   2.0000     -11.245803      -306.0138
   6   2.0000     -11.241383      -305.8936
   7   2.0000     -11.226717      -305.4945
   8   2.0000     -11.213287      -305.1290
   9   2.0000      -1.385563       -37.7031
  10   2.0000      -1.240608       -33.7587
  11   2.0000      -1.124339       -30.5948
  12   2.0000      -1.052680       -28.6449
  13   2.0000      -0.960093       -26.1255
  14   2.0000      -0.881646       -23.9908
  15   2.0000      -0.814230       -22.1563
  16   2.0000      -0.808215       -21.9926
  17   2.0000      -0.720859       -19.6156
  18   2.0000      -0.696742       -18.9593
  19   2.0000      -0.660858       -17.9829
  20   2.0000      -0.641146       -17.4465
  21   2.0000      -0.621983       -16.9250
  22   2.0000      -0.612995       -16.6804
  23   2.0000      -0.602688       -16.4000
  24   2.0000      -0.559454       -15.2235
  25   2.0000      -0.543933       -14.8012
  26   2.0000      -0.520775       -14.1710
  27   2.0000      -0.518234       -14.1019
  28   2.0000      -0.506556       -13.7841
  29   2.0000      -0.487601       -13.2683
  30   2.0000      -0.450031       -12.2460
  31   2.0000      -0.420950       -11.4546
  32   2.0000      -0.390620       -10.6293
  33   2.0000      -0.365125        -9.9356
  34   0.0000       0.118693         3.2298
  35   0.0000       0.146329         3.9818
  36   0.0000       0.156115         4.2481
  37   0.0000       0.160253         4.3607
  38   0.0000       0.172439         4.6923

MULLIKEN ATOMIC CHARGES
-----------------------
   0 C :   -0.387946
   1 C :   -0.008508
   2 C :   -0.131423
   3 C :   -0.268309
   4 C :   -0.026757
   5 N :   -0.386027
   6 C :   -0.106637
   7 C :    0.116120
   8 O :   -0.277079
   9 H :    0.123734
  10 H :    0.129593
  11 H :    0.155917
  12 H :    0.108983
  13 H :    0.123590
  14 H :    0.129867
  15 H :    0.136442
  16 H :    0.113374
  17 H :    0.215430
  18 H :    0.107623
  19 H :    0.132013
Sum of atomic charges:    0.0000000

LOEWDIN ATOMIC CHARGES
----------------------
   0 C :   -0.279295
   1 C :   -0.232458
   2 C :   -0.184031
   3 C :   -0.204291
   4 C :   -0.262904
   5 N :    0.014227
   6 C :   -0.265354
   7 C :   -0.293914
   8 O :    0.156892
   9 H :    0.126092
  10 H :    0.124128
  11 H :    0.130454
  12 H :    0.177202
  13 H :    0.150503
  14 H :    0.130753
  15 H :    0.138601
  16 H :    0.133253
  17 H :    0.172371
  18 H :    0.127690
  19 H :    0.140081

  Mayer bond orders larger than 0.1
B(  0-C ,  1-C ) :   0.9066 B(  0-C ,  9-H ) :   0.9337 B(  0-C , 10-H ) :   0.9397
B(  0-C , 11-H ) :   0.9301 B(  1-C ,  2-C ) :   0.8942 B(  1-C ,  7-C ) :   0.8978
B(  1-C , 12-H ) :   0.8893 B(  2-C ,  3-C ) :   0.8877 B(  2-C ,  4-C ) :   0.8975
B(  2-C , 13-H ) :   0.9254 B(  3-C ,  4-C ) :   0.8702 B(  3-C , 14-H ) :   0.9262
B(  3-C , 15-H ) :   0.9251 B(  4-C ,  5-N ) :   1.0250 B(  4-C , 16-H ) :   0.9306
B(  5-N ,  6-C ) :   0.9299 B(  5-N , 17-H ) :   0.8860 B(  6-C ,  7-C ) :   0.9314
B(  6-C , 18-H ) :   0.9138 B(  6-C , 19-H ) :   0.9186 B(  7-C ,  8-O ) :   2.0440

MP2 TOTAL ENERGY:     -402.457102631 Eh
FINAL SINGLE POINT ENERGY      -402.457102631411

DIPOLE MOMENT
-------------
                                X             Y             Z
Electronic contribution:      0.42139      -2.03774       4.40719
Nuclear contribution   :     -0.45784       1.22578      -5.43139
                        -----------------------------------------
Total Dipole Moment    :     -0.03646      -0.81196      -1.02420
                        -----------------------------------------
Magnitude (a.u.)       :      1.30751
Magnitude (Debye)      :      3.32343

                             ****ORCA TERMINATED NORMALLY****
TOTAL RUN TIME: 0 days 0 hours 19 minutes 35 seconds 402 msec
