                         Program Version 3.0.3 - RELEASE   -
|  1> ! RI-MP2 RIJK def2-TZVP def2-TZVP/C def2-TZVP/JK TIGHTSCF
|  2> % maxcore 2000
|  3> % mp2 density relaxed end
|  4> *xyz 0 1
|  5>  C        0.4738676338     1.0178217199    -0.5265494853
|  6>  N       -0.3519463281     0.1529277675     0.3266750255
|  7>  C        0.3302115379    -0.5396865816     1.3377049144
|  8>  C        0.5805656973    -0.3174244046     2.6621666066
|  9>  N        1.2799981083    -1.3806681450     3.2227619559
| 10>  C        1.4531049300    -2.2138156456     2.2356370490
| 11>  O        2.0944956324    -3.3961796641     2.2791918327
| 12>  N        0.9133185247    -1.7825066239     1.0682818307
| 13>  H        1.2187684221     0.4094774723    -1.0478724747
| 14>  H       -0.1626701993     1.4878781197    -1.2817575996
| 15>  H        1.0086629882     1.8028690048     0.0289571391
| 16>  H       -1.1213191836     0.6772172978     0.7231447434
| 17>  H        0.2945828264     0.5381793184     3.2547944660
| 18>  H        2.3988646540    -3.4980374539     3.1899225357
| 19>  H        0.8515098159    -2.2918702118     0.2032074207
| 20> *
| 21>
| 22>                          ****END OF INPUT****

CARTESIAN COORDINATES (ANGSTROEM)
---------------------------------
  C      0.473868    1.017822   -0.526549
  N     -0.351946    0.152928    0.326675
  C      0.330212   -0.539687    1.337705
  C      0.580566   -0.317424    2.662167
  N      1.279998   -1.380668    3.222762
  C      1.453105   -2.213816    2.235637
  O      2.094496   -3.396180    2.279192
  N      0.913319   -1.782507    1.068282
  H      1.218768    0.409477   -1.047872
  H     -0.162670    1.487878   -1.281758
  H      1.008663    1.802869    0.028957
  H     -1.121319    0.677217    0.723145
  H      0.294583    0.538179    3.254794
  H      2.398865   -3.498037    3.189923
  H      0.851510   -2.291870    0.203207

 Total Charge           Charge          ....    0
 Multiplicity           Mult            ....    1
 Number of Electrons    NEL             ....   60
 Basis Dimension        Dim             ....  290

ORBITAL ENERGIES
----------------

  NO   OCC          E(Eh)            E(eV)
   0   2.0000     -20.605452      -560.7029
   1   2.0000     -15.607093      -424.6906
   2   2.0000     -15.568195      -423.6321
   3   2.0000     -15.532436      -422.6591
   4   2.0000     -11.354448      -308.9702
   5   2.0000     -11.284808      -307.0752
   6   2.0000     -11.257823      -306.3409
   7   2.0000     -11.235781      -305.7411
   8   2.0000      -1.439715       -39.1766
   9   2.0000      -1.325970       -36.0815
  10   2.0000      -1.220698       -33.2169
  11   2.0000      -1.161172       -31.5971
  12   2.0000      -0.988461       -26.8974
  13   2.0000      -0.910797       -24.7841
  14   2.0000      -0.837853       -22.7991
  15   2.0000      -0.810400       -22.0521
  16   2.0000      -0.755178       -20.5494
  17   2.0000      -0.685700       -18.6588
  18   2.0000      -0.658064       -17.9068
  19   2.0000      -0.642091       -17.4722
  20   2.0000      -0.629262       -17.1231
  21   2.0000      -0.600631       -16.3440
  22   2.0000      -0.589184       -16.0325
  23   2.0000      -0.559395       -15.2219
  24   2.0000      -0.538387       -14.6503
  25   2.0000      -0.531487       -14.4625
  26   2.0000      -0.453373       -12.3369
  27   2.0000      -0.408750       -11.1226
  28   2.0000      -0.397245       -10.8096
  29   2.0000      -0.293592        -7.9891
  30   0.0000       0.129135         3.5139
  31   0.0000       0.147540         4.0148
  32   0.0000       0.159000         4.3266
  33   0.0000       0.174751         4.7552
  34   0.0000       0.190660         5.1881

MULLIKEN ATOMIC CHARGES
-----------------------
   0 C :   -0.269690
   1 N :   -0.361525
   2 C :    0.139461
   3 C :   -0.148761
   4 N :   -0.321218
   5 C :    0.334471
   6 O :   -0.433843
   7 N :   -0.293609
   8 H :    0.128988
   9 H :    0.135051
  10 H :    0.124284
  11 H :    0.229549
  12 H :    0.129345
  13 H :    0.351786
  14 H :    0.255711
Sum of atomic charges:   -0.0000000

LOEWDIN ATOMIC CHARGES
----------------------
   0 C :   -0.331097
   1 N :   -0.003251
   2 C :   -0.322952
   3 C :   -0.255415
   4 N :    0.068873
   5 C :   -0.482246
   6 O :    0.069395
   7 N :    0.203412
   8 H :    0.115471
   9 H :    0.114991
  10 H :    0.104297
  11 H :    0.183165
  12 H :    0.131661
  13 H :    0.206701
  14 H :    0.196995

  Mayer bond orders larger than 0.1
B(  0-C ,  1-N ) :   0.8843 B(  0-C ,  8-H ) :   0.9432 B(  0-C ,  9-H ) :   0.9353
B(  0-C , 10-H ) :   0.9283 B(  1-N ,  2-C ) :   1.0870 B(  1-N , 11-H ) :   0.8836
B(  2-C ,  3-C ) :   1.5486 B(  2-C ,  7-N ) :   1.0378 B(  3-C ,  4-N ) :   1.2129
B(  3-C , 12-H ) :   0.9478 B(  4-N ,  5-C ) :   1.5833 B(  5-C ,  6-O ) :   1.1050
B(  5-C ,  7-N ) :   1.1826 B(  6-O , 13-H ) :   0.8130 B(  7-N , 14-H ) :   0.8560

MP2 TOTAL ENERGY:     -395.362286321 Eh
FINAL SINGLE POINT ENERGY      -395.362286321308

DIPOLE MOMENT
-------------
                                X             Y             Z
Electronic contribution:      1.29401      -5.94091       4.57459
Nuclear contribution   :     -1.45931       6.23190      -5.38196
                        -----------------------------------------
Total Dipole Moment    :     -0.16530       0.29099      -0.80737
                        -----------------------------------------
Magnitude (a.u.)       :      0.87398
Magnitude (Debye)      :      2.22149

                             ****ORCA TERMINATED NORMALLY****
TOTAL RUN TIME: 0 days 0 hours 10 minutes 20 seconds 136 msec
