                         Program Version 3.0.3 - RELEASE   -
|  1> ! RI-MP2 RIJK def2-TZVP def2-TZVP/C def2-TZVP/JK TIGHTSCF
|  2> % maxcore 2000
|  3> % mp2 density relaxed end
|  4> *xyz 0 1
|  5>  C       -0.0258157076     1.5388906192     0.0029188426
|  6>  C        0.1424442880     0.0334884093    -0.0490598641
|  7>  C        0.7381523813    -0.7545272672    -1.1755177333
|  8>  C        1.9138852634    -0.0045823087    -1.8124960566
|  9>  C        2.6162788164    -0.0644926672    -0.4258045562
| 10>  O        3.7437680725     0.1322970282    -0.0722601580
| 11>  C        1.4321124528    -0.7345633052     0.2231302624
| 12>  O        1.5090391462    -1.7348966895     1.1644235595
| 13>  H        0.8204937480     2.0725740013    -0.4356486455
| 14>  H       -0.9292912765     1.8447740374    -0.5357497370
| 15>  H       -0.1261980224     1.8799199235     1.0387055715
| 16>  H       -0.6799094240    -0.5089388788     0.4173808095
| 17>  H        0.2329586273    -1.6015687574    -1.6203362725
| 18>  H        2.4768808662    -0.6041055394    -2.5337865155
| 19>  H        1.7174003717     0.9801068944    -2.2432584162
| 20>  H        1.3357591966    -1.3598688999     2.0345855595
| 21> *
| 22>
| 23>                          ****END OF INPUT****

CARTESIAN COORDINATES (ANGSTROEM)
---------------------------------
  C     -0.025816    1.538891    0.002919
  C      0.142444    0.033488   -0.049060
  C      0.738152   -0.754527   -1.175518
  C      1.913885   -0.004582   -1.812496
  C      2.616279   -0.064493   -0.425805
  O      3.743768    0.132297   -0.072260
  C      1.432112   -0.734563    0.223130
  O      1.509039   -1.734897    1.164424
  H      0.820494    2.072574   -0.435649
  H     -0.929291    1.844774   -0.535750
  H     -0.126198    1.879920    1.038706
  H     -0.679909   -0.508939    0.417381
  H      0.232959   -1.601569   -1.620336
  H      2.476881   -0.604106   -2.533787
  H      1.717400    0.980107   -2.243258
  H      1.335759   -1.359869    2.034586

 Total Charge           Charge          ....    0
 Multiplicity           Mult            ....    1
 Number of Electrons    NEL             ....   60
 Basis Dimension        Dim             ....  296

ORBITAL ENERGIES
----------------

  NO   OCC          E(Eh)            E(eV)
   0   2.0000     -20.583750      -560.1123
   1   2.0000     -20.548137      -559.1432
   2   2.0000     -11.333904      -308.4112
   3   2.0000     -11.305818      -307.6470
   4   2.0000     -11.263405      -306.4928
   5   2.0000     -11.259188      -306.3781
   6   2.0000     -11.247786      -306.0678
   7   2.0000     -11.235509      -305.7338
   8   2.0000      -1.403290       -38.1855
   9   2.0000      -1.384614       -37.6773
  10   2.0000      -1.201946       -32.7066
  11   2.0000      -1.023344       -27.8466
  12   2.0000      -0.953055       -25.9339
  13   2.0000      -0.880902       -23.9706
  14   2.0000      -0.785049       -21.3623
  15   2.0000      -0.756642       -20.5893
  16   2.0000      -0.697204       -18.9719
  17   2.0000      -0.655880       -17.8474
  18   2.0000      -0.646570       -17.5941
  19   2.0000      -0.644258       -17.5311
  20   2.0000      -0.586677       -15.9643
  21   2.0000      -0.583077       -15.8663
  22   2.0000      -0.574254       -15.6262
  23   2.0000      -0.553754       -15.0684
  24   2.0000      -0.535225       -14.5642
  25   2.0000      -0.520299       -14.1581
  26   2.0000      -0.500584       -13.6216
  27   2.0000      -0.439806       -11.9677
  28   2.0000      -0.393214       -10.6999
  29   2.0000      -0.388879       -10.5819
  30   0.0000       0.123229         3.3532
  31   0.0000       0.135840         3.6964
  32   0.0000       0.146798         3.9946
  33   0.0000       0.161142         4.3849
  34   0.0000       0.171057         4.6547

MULLIKEN ATOMIC CHARGES
-----------------------
   0 C :   -0.377908
   1 C :   -0.155289
   2 C :   -0.132217
   3 C :   -0.236571
   4 C :    0.078861
   5 O :   -0.258049
   6 C :    0.217873
   7 O :   -0.447954
   8 H :    0.140636
   9 H :    0.137610
  10 H :    0.135637
  11 H :    0.130095
  12 H :    0.153516
  13 H :    0.139702
  14 H :    0.136830
  15 H :    0.337226
Sum of atomic charges:   -0.0000000

LOEWDIN ATOMIC CHARGES
----------------------
   0 C :   -0.287108
   1 C :   -0.199010
   2 C :   -0.129139
   3 C :   -0.187613
   4 C :   -0.294035
   5 O :    0.160799
   6 C :   -0.279532
   7 O :    0.046930
   8 H :    0.129518
   9 H :    0.128530
  10 H :    0.128462
  11 H :    0.163540
  12 H :    0.143161
  13 H :    0.149486
  14 H :    0.133966
  15 H :    0.192046

  Mayer bond orders larger than 0.1
B(  0-C ,  1-C ) :   0.8939 B(  0-C ,  8-H ) :   0.9327 B(  0-C ,  9-H ) :   0.9322
B(  0-C , 10-H ) :   0.9370 B(  1-C ,  2-C ) :   0.9035 B(  1-C ,  6-C ) :   0.8512
B(  1-C , 11-H ) :   0.9268 B(  2-C ,  3-C ) :   0.9261 B(  2-C ,  6-C ) :   0.8198
B(  2-C , 12-H ) :   0.9000 B(  3-C ,  4-C ) :   0.9206 B(  3-C ,  6-C ) :  -0.1359
B(  3-C , 13-H ) :   0.9051 B(  3-C , 14-H ) :   0.9061 B(  4-C ,  5-O ) :   2.0273
B(  4-C ,  6-C ) :   0.8843 B(  6-C ,  7-O ) :   1.0164 B(  7-O , 15-H ) :   0.8307

MP2 TOTAL ENERGY:     -383.087355034 Eh
FINAL SINGLE POINT ENERGY      -383.087355034194

DIPOLE MOMENT
-------------
                                X             Y             Z
Electronic contribution:      5.48705      -3.76048       1.87223
Nuclear contribution   :     -6.85211       4.04053      -1.92115
                        -----------------------------------------
Total Dipole Moment    :     -1.36506       0.28006      -0.04892
                        -----------------------------------------
Magnitude (a.u.)       :      1.39435
Magnitude (Debye)      :      3.54415

                             ****ORCA TERMINATED NORMALLY****
TOTAL RUN TIME: 0 days 0 hours 12 minutes 50 seconds 64 msec
