                         Program Version 3.0.3 - RELEASE   -
|  1> ! RI-MP2 RIJK def2-TZVP def2-TZVP/C def2-TZVP/JK TIGHTSCF
|  2> % maxcore 2000
|  3> % mp2 density relaxed end
|  4> *xyz 0 1
|  5>  C       -0.0896736551     1.5022212872     0.0182685794
|  6>  C        1.3048993531     0.9303553172     0.1178562578
|  7>  C        2.0503973866     0.8523520600     1.4336518635
|  8>  C        2.8626186445    -0.4468263366     1.5618913228
|  9>  C        2.0748071126    -1.7345633580     1.6046355005
| 10>  C        0.7764501963    -1.9541818467     1.3834182853
| 11>  C       -0.2871732575    -0.9414548092     1.0022093543
| 12>  C        0.1317954423     0.0126120805    -0.1074030266
| 13>  H       -0.5529797938     1.8655413959     0.9310869068
| 14>  H       -0.3575113224     2.0678790290    -0.8676925586
| 15>  H        1.9485546129     1.0935280636    -0.7437396756
| 16>  H        2.7264560607     1.7108679985     1.5312224354
| 17>  H        1.3498669138     0.9245967825     2.2729536248
| 18>  H        3.5861370914    -0.5050020216     0.7333647182
| 19>  H        3.4816728405    -0.3985648495     2.4691021445
| 20>  H        2.6804108899    -2.6026934363     1.8645370990
| 21>  H        0.4239999404    -2.9773271834     1.4998657585
| 22>  H       -1.1936637566    -1.4741992150     0.6935673072
| 23>  H       -0.5846885239    -0.3689046874     1.8903187520
| 24>  H        0.0421051743    -0.4054420105    -1.1062352390
| 25> *
| 26>
| 27>                          ****END OF INPUT****

CARTESIAN COORDINATES (ANGSTROEM)
---------------------------------
  C     -0.089674    1.502221    0.018269
  C      1.304899    0.930355    0.117856
  C      2.050397    0.852352    1.433652
  C      2.862619   -0.446826    1.561891
  C      2.074807   -1.734563    1.604636
  C      0.776450   -1.954182    1.383418
  C     -0.287173   -0.941455    1.002209
  C      0.131795    0.012612   -0.107403
  H     -0.552980    1.865541    0.931087
  H     -0.357511    2.067879   -0.867693
  H      1.948555    1.093528   -0.743740
  H      2.726456    1.710868    1.531222
  H      1.349867    0.924597    2.272954
  H      3.586137   -0.505002    0.733365
  H      3.481673   -0.398565    2.469102
  H      2.680411   -2.602693    1.864537
  H      0.424000   -2.977327    1.499866
  H     -1.193664   -1.474199    0.693567
  H     -0.584689   -0.368905    1.890319
  H      0.042105   -0.405442   -1.106235

 Total Charge           Charge          ....    0
 Multiplicity           Mult            ....    1
 Number of Electrons    NEL             ....   60
 Basis Dimension        Dim             ....  320

ORBITAL ENERGIES
----------------

  NO   OCC          E(Eh)            E(eV)
   0   2.0000     -11.223638      -305.4107
   1   2.0000     -11.223217      -305.3993
   2   2.0000     -11.223033      -305.3942
   3   2.0000     -11.221698      -305.3579
   4   2.0000     -11.220646      -305.3293
   5   2.0000     -11.219927      -305.3097
   6   2.0000     -11.218497      -305.2708
   7   2.0000     -11.217871      -305.2538
   8   2.0000      -1.154254       -31.4088
   9   2.0000      -1.069800       -29.1107
  10   2.0000      -1.024562       -27.8797
  11   2.0000      -0.930489       -25.3199
  12   2.0000      -0.876092       -23.8397
  13   2.0000      -0.803557       -21.8659
  14   2.0000      -0.741877       -20.1875
  15   2.0000      -0.712804       -19.3964
  16   2.0000      -0.668003       -18.1773
  17   2.0000      -0.640158       -17.4196
  18   2.0000      -0.612824       -16.6758
  19   2.0000      -0.582472       -15.8499
  20   2.0000      -0.555845       -15.1253
  21   2.0000      -0.543195       -14.7811
  22   2.0000      -0.528781       -14.3889
  23   2.0000      -0.507363       -13.8060
  24   2.0000      -0.494143       -13.4463
  25   2.0000      -0.472578       -12.8595
  26   2.0000      -0.465620       -12.6702
  27   2.0000      -0.398230       -10.8364
  28   2.0000      -0.387576       -10.5465
  29   2.0000      -0.338536        -9.2120
  30   0.0000       0.137733         3.7479
  31   0.0000       0.153140         4.1672
  32   0.0000       0.160575         4.3695
  33   0.0000       0.168092         4.5740
  34   0.0000       0.172219         4.6863

MULLIKEN ATOMIC CHARGES
-----------------------
   0 C :   -0.303401
   1 C :   -0.108513
   2 C :   -0.234684
   3 C :   -0.124466
   4 C :   -0.231277
   5 C :   -0.141845
   6 C :   -0.247584
   7 C :   -0.045831
   8 H :    0.123356
   9 H :    0.129526
  10 H :    0.114011
  11 H :    0.123561
  12 H :    0.115690
  13 H :    0.110063
  14 H :    0.123329
  15 H :    0.113052
  16 H :    0.115324
  17 H :    0.130946
  18 H :    0.126228
  19 H :    0.112517
Sum of atomic charges:   -0.0000000

LOEWDIN ATOMIC CHARGES
----------------------
   0 C :   -0.209963
   1 C :   -0.210831
   2 C :   -0.241709
   3 C :   -0.252466
   4 C :   -0.177315
   5 C :   -0.176775
   6 C :   -0.237971
   7 C :   -0.202527
   8 H :    0.132873
   9 H :    0.130367
  10 H :    0.147178
  11 H :    0.140419
  12 H :    0.143522
  13 H :    0.146242
  14 H :    0.143747
  15 H :    0.144405
  16 H :    0.141898
  17 H :    0.144591
  18 H :    0.147697
  19 H :    0.146616

  Mayer bond orders larger than 0.1
B(  0-C ,  1-C ) :   0.8916 B(  0-C ,  7-C ) :   0.8965 B(  0-C ,  8-H ) :   0.9212
B(  0-C ,  9-H ) :   0.9320 B(  1-C ,  2-C ) :   0.9307 B(  1-C ,  7-C ) :   0.8738
B(  1-C , 10-H ) :   0.9254 B(  2-C ,  3-C ) :   0.9189 B(  2-C , 11-H ) :   0.9305
B(  2-C , 12-H ) :   0.9327 B(  3-C ,  4-C ) :   0.9356 B(  3-C , 13-H ) :   0.9119
B(  3-C , 14-H ) :   0.9248 B(  4-C ,  5-C ) :   1.8258 B(  4-C , 15-H ) :   0.9275
B(  5-C ,  6-C ) :   0.9115 B(  5-C , 16-H ) :   0.9289 B(  6-C ,  7-C ) :   0.9071
B(  6-C , 17-H ) :   0.9340 B(  6-C , 18-H ) :   0.9255 B(  7-C , 19-H ) :   0.9259

MP2 TOTAL ENERGY:     -311.284393314 Eh
FINAL SINGLE POINT ENERGY      -311.284393314432

DIPOLE MOMENT
-------------
                                X             Y             Z
Electronic contribution:     -0.20752      -1.25412      -0.55557
Nuclear contribution   :      0.26180       1.33284       0.53876
                        -----------------------------------------
Total Dipole Moment    :      0.05427       0.07872      -0.01680
                        -----------------------------------------
Magnitude (a.u.)       :      0.09708
Magnitude (Debye)      :      0.24676

                             ****ORCA TERMINATED NORMALLY****
TOTAL RUN TIME: 0 days 0 hours 14 minutes 12 seconds 584 msec
