                         Program Version 3.0.3 - RELEASE   -
|  1> ! RI-MP2 RIJK def2-TZVP def2-TZVP/C def2-TZVP/JK TIGHTSCF
|  2> % maxcore 2000
|  3> % mp2 density relaxed end
|  4> *xyz 0 1
|  5>  C        0.0920086006     1.5512294053    -0.0087838569
|  6>  C        0.0071356199     0.0223792953    -0.0048840797
|  7>  C       -1.4340222363    -0.4969883625     0.0119654194
|  8>  C       -1.5081807722    -2.0286856140     0.0331558746
|  9>  N       -2.8729508671    -2.5469816336     0.0189316075
| 10>  C       -3.5349020075    -2.7275785926    -1.2589555564
| 11>  C       -3.4856488637    -2.7738907371     1.2273336743
| 12>  N       -4.7647521866    -3.3294746737     1.1581541638
| 13>  O       -2.9749314648    -2.4762576528     2.2961544170
| 14>  H        1.1313454806     1.8942880192    -0.0184985331
| 15>  H       -0.4065077093     1.9730750663    -0.8887213957
| 16>  H       -0.3911897239     1.9744217818     0.8784897960
| 17>  H        0.5295935018    -0.3757095778    -0.8856244641
| 18>  H        0.5424578937    -0.3718875657     0.8687226211
| 19>  H       -1.9581300989    -0.1210225995     0.8978634947
| 20>  H       -1.9736505664    -0.1108281796    -0.8639543027
| 21>  H       -0.9762642778    -2.4483084637    -0.8300658116
| 22>  H       -1.0257505424    -2.4026215681     0.9386286919
| 23>  H       -3.4118456983    -3.7436769134    -1.6649118140
| 24>  H       -4.6026086510    -2.5106149746    -1.1742602577
| 25>  H       -3.1155633503    -2.0285558109    -1.9876890383
| 26>  H       -4.9438405394    -4.0132858504     0.4381262257
| 27>  H       -5.0742997707    -3.6225365580     2.0730767344
| 28> *
| 29>
| 30>                          ****END OF INPUT****

CARTESIAN COORDINATES (ANGSTROEM)
---------------------------------
  C      0.092009    1.551229   -0.008784
  C      0.007136    0.022379   -0.004884
  C     -1.434022   -0.496988    0.011965
  C     -1.508181   -2.028686    0.033156
  N     -2.872951   -2.546982    0.018932
  C     -3.534902   -2.727579   -1.258956
  C     -3.485649   -2.773891    1.227334
  N     -4.764752   -3.329475    1.158154
  O     -2.974931   -2.476258    2.296154
  H      1.131345    1.894288   -0.018499
  H     -0.406508    1.973075   -0.888721
  H     -0.391190    1.974422    0.878490
  H      0.529594   -0.375710   -0.885624
  H      0.542458   -0.371888    0.868723
  H     -1.958130   -0.121023    0.897863
  H     -1.973651   -0.110828   -0.863954
  H     -0.976264   -2.448308   -0.830066
  H     -1.025751   -2.402622    0.938629
  H     -3.411846   -3.743677   -1.664912
  H     -4.602609   -2.510615   -1.174260
  H     -3.115563   -2.028556   -1.987689
  H     -4.943841   -4.013286    0.438126
  H     -5.074300   -3.622537    2.073077

 Total Charge           Charge          ....    0
 Multiplicity           Mult            ....    1
 Number of Electrons    NEL             ....   72
 Basis Dimension        Dim             ....  363

ORBITAL ENERGIES
----------------

  NO   OCC          E(Eh)            E(eV)
   0   2.0000     -20.499123      -557.8095
   1   2.0000     -15.577267      -423.8790
   2   2.0000     -15.573424      -423.7744
   3   2.0000     -11.366238      -309.2911
   4   2.0000     -11.269420      -306.6565
   5   2.0000     -11.253720      -306.2293
   6   2.0000     -11.217877      -305.2539
   7   2.0000     -11.213888      -305.1454
   8   2.0000     -11.210263      -305.0468
   9   2.0000      -1.383020       -37.6339
  10   2.0000      -1.246073       -33.9074
  11   2.0000      -1.189812       -32.3764
  12   2.0000      -1.066052       -29.0088
  13   2.0000      -0.985660       -26.8212
  14   2.0000      -0.948222       -25.8024
  15   2.0000      -0.874415       -23.7940
  16   2.0000      -0.796710       -21.6796
  17   2.0000      -0.757539       -20.6137
  18   2.0000      -0.729478       -19.8501
  19   2.0000      -0.681193       -18.5362
  20   2.0000      -0.644587       -17.5401
  21   2.0000      -0.638739       -17.3810
  22   2.0000      -0.619702       -16.8629
  23   2.0000      -0.591174       -16.0867
  24   2.0000      -0.580224       -15.7887
  25   2.0000      -0.566906       -15.4263
  26   2.0000      -0.560255       -15.2453
  27   2.0000      -0.551203       -14.9990
  28   2.0000      -0.527066       -14.3422
  29   2.0000      -0.495383       -13.4800
  30   2.0000      -0.484868       -13.1939
  31   2.0000      -0.471720       -12.8362
  32   2.0000      -0.463990       -12.6258
  33   2.0000      -0.437426       -11.9030
  34   2.0000      -0.416137       -11.3237
  35   2.0000      -0.367634       -10.0038
  36   0.0000       0.122653         3.3375
  37   0.0000       0.141902         3.8613
  38   0.0000       0.159337         4.3358
  39   0.0000       0.172124         4.6837
  40   0.0000       0.185085         5.0364

MULLIKEN ATOMIC CHARGES
-----------------------
   0 C :   -0.383501
   1 C :   -0.193599
   2 C :   -0.252863
   3 C :   -0.149591
   4 N :   -0.114976
   5 C :   -0.378038
   6 C :    0.349666
   7 N :   -0.531323
   8 O :   -0.418247
   9 H :    0.131623
  10 H :    0.118824
  11 H :    0.127975
  12 H :    0.100026
  13 H :    0.114501
  14 H :    0.141603
  15 H :    0.096363
  16 H :    0.130246
  17 H :    0.143841
  18 H :    0.142491
  19 H :    0.162183
  20 H :    0.148519
  21 H :    0.253498
  22 H :    0.260778
Sum of atomic charges:    0.0000000

LOEWDIN ATOMIC CHARGES
----------------------
   0 C :   -0.320874
   1 C :   -0.295630
   2 C :   -0.271507
   3 C :   -0.258436
   4 N :    0.151081
   5 C :   -0.307228
   6 C :   -0.554950
   7 N :   -0.073763
   8 O :    0.040268
   9 H :    0.119920
  10 H :    0.119205
  11 H :    0.121931
  12 H :    0.132583
  13 H :    0.137268
  14 H :    0.145272
  15 H :    0.132215
  16 H :    0.133119
  17 H :    0.147202
  18 H :    0.112442
  19 H :    0.124780
  20 H :    0.125059
  21 H :    0.164984
  22 H :    0.175059

  Mayer bond orders larger than 0.1
B(  0-C ,  1-C ) :   0.9224 B(  0-C ,  9-H ) :   0.9422 B(  0-C , 10-H ) :   0.9392
B(  0-C , 11-H ) :   0.9404 B(  1-C ,  2-C ) :   0.9288 B(  1-C , 12-H ) :   0.9315
B(  1-C , 13-H ) :   0.9348 B(  2-C ,  3-C ) :   0.9371 B(  2-C , 14-H ) :   0.9301
B(  2-C , 15-H ) :   0.9278 B(  3-C ,  4-N ) :   0.8646 B(  3-C , 16-H ) :   0.9382
B(  3-C , 17-H ) :   0.9080 B(  4-N ,  5-C ) :   0.8833 B(  4-N ,  6-C ) :   1.1604
B(  5-C , 18-H ) :   0.9294 B(  5-C , 19-H ) :   0.9274 B(  5-C , 20-H ) :   0.9318
B(  6-C ,  7-N ) :   1.0630 B(  6-C ,  8-O ) :   1.8861 B(  7-N , 21-H ) :   0.8689
B(  7-N , 22-H ) :   0.8716

MP2 TOTAL ENERGY:     -420.947665866 Eh
FINAL SINGLE POINT ENERGY      -420.947665866197

DIPOLE MOMENT
-------------
                                X             Y             Z
Electronic contribution:     -6.33886      -7.33032       5.87601
Nuclear contribution   :      6.04231       6.78856      -7.19499
                        -----------------------------------------
Total Dipole Moment    :     -0.29656      -0.54176      -1.31898
                        -----------------------------------------
Magnitude (a.u.)       :      1.45642
Magnitude (Debye)      :      3.70193

                             ****ORCA TERMINATED NORMALLY****
TOTAL RUN TIME: 0 days 0 hours 18 minutes 31 seconds 406 msec
