                         Program Version 3.0.3 - RELEASE   -
|  1> ! RI-MP2 RIJK def2-TZVP def2-TZVP/C def2-TZVP/JK TIGHTSCF
|  2> % maxcore 2000
|  3> % mp2 density relaxed end
|  4> *xyz 0 1
|  5>  N       -0.1083110539    -1.2061938729    -0.0475086579
|  6>  C       -0.0796525499    -0.0506934498    -0.0139826028
|  7>  C        0.0036816105     1.4027402060     0.0268256424
|  8>  C       -0.1721574937     2.1016976848     1.3837464946
|  9>  C        0.9406049881     1.8016660820     2.3019391860
| 10>  N        1.1527841430     2.8317247413     1.2614093300
| 11>  C        1.3974896453     2.0717026218     0.0097336966
| 12>  C        2.7223045938     1.5167349796    -0.3949083529
| 13>  C        2.0962690194     2.6701736261    -1.1601927154
| 14>  H       -0.6507771071     1.8275458696    -0.7385840366
| 15>  H       -1.0812244198     2.6076712954     1.6873901526
| 16>  H        0.8802195932     2.2190244848     3.3017162794
| 17>  H        1.4732347299     0.8572371363     2.2256614022
| 18>  H        3.5684477058     1.7363528100     0.2474708190
| 19>  H        2.7453424603     0.5372848212    -0.8610199225
| 20>  H        1.7018478060     2.4786989747    -2.1527704854
| 21>  H        2.5201644389     3.6582024892    -1.0179124793
| 22> *
| 23>
| 24>                          ****END OF INPUT****

CARTESIAN COORDINATES (ANGSTROEM)
---------------------------------
  N     -0.108311   -1.206194   -0.047509
  C     -0.079653   -0.050693   -0.013983
  C      0.003682    1.402740    0.026826
  C     -0.172157    2.101698    1.383746
  C      0.940605    1.801666    2.301939
  N      1.152784    2.831725    1.261409
  C      1.397490    2.071703    0.009734
  C      2.722305    1.516735   -0.394908
  C      2.096269    2.670174   -1.160193
  H     -0.650777    1.827546   -0.738584
  H     -1.081224    2.607671    1.687390
  H      0.880220    2.219024    3.301716
  H      1.473235    0.857237    2.225661
  H      3.568448    1.736353    0.247471
  H      2.745342    0.537285   -0.861020
  H      1.701848    2.478699   -2.152770
  H      2.520164    3.658202   -1.017912

 Total Charge           Charge          ....    0
 Multiplicity           Mult            ....    1
 Number of Electrons    NEL             ....   64
 Basis Dimension        Dim             ....  327

ORBITAL ENERGIES
----------------

  NO   OCC          E(Eh)            E(eV)
   0   2.0000     -15.585033      -424.0903
   1   2.0000     -15.575228      -423.8235
   2   2.0000     -11.297578      -307.4227
   3   2.0000     -11.293961      -307.3243
   4   2.0000     -11.293584      -307.3141
   5   2.0000     -11.277483      -306.8759
   6   2.0000     -11.275830      -306.8309
   7   2.0000     -11.242835      -305.9331
   8   2.0000     -11.242194      -305.9156
   9   2.0000      -1.323891       -36.0249
  10   2.0000      -1.222126       -33.2557
  11   2.0000      -1.152390       -31.3581
  12   2.0000      -1.046416       -28.4744
  13   2.0000      -0.931266       -25.3410
  14   2.0000      -0.855341       -23.2750
  15   2.0000      -0.835753       -22.7420
  16   2.0000      -0.774299       -21.0697
  17   2.0000      -0.710620       -19.3369
  18   2.0000      -0.696507       -18.9529
  19   2.0000      -0.688983       -18.7482
  20   2.0000      -0.621975       -16.9248
  21   2.0000      -0.599310       -16.3081
  22   2.0000      -0.565068       -15.3763
  23   2.0000      -0.558763       -15.2047
  24   2.0000      -0.535380       -14.5684
  25   2.0000      -0.516691       -14.0599
  26   2.0000      -0.502526       -13.6744
  27   2.0000      -0.475972       -12.9519
  28   2.0000      -0.458846       -12.4858
  29   2.0000      -0.435228       -11.8432
  30   2.0000      -0.412660       -11.2291
  31   2.0000      -0.393141       -10.6979
  32   0.0000       0.132574         3.6075
  33   0.0000       0.142929         3.8893
  34   0.0000       0.147914         4.0249
  35   0.0000       0.165620         4.5067
  36   0.0000       0.172626         4.6974

MULLIKEN ATOMIC CHARGES
-----------------------
   0 N :   -0.048357
   1 C :   -0.236542
   2 C :    0.070562
   3 C :   -0.075654
   4 C :   -0.161445
   5 N :   -0.218792
   6 C :    0.026770
   7 C :   -0.263245
   8 C :   -0.252629
   9 H :    0.151389
  10 H :    0.144489
  11 H :    0.139277
  12 H :    0.151444
  13 H :    0.143134
  14 H :    0.151478
  15 H :    0.138979
  16 H :    0.139141
Sum of atomic charges:    0.0000000

LOEWDIN ATOMIC CHARGES
----------------------
   0 N :    0.065602
   1 C :   -0.166991
   2 C :   -0.170741
   3 C :   -0.170472
   4 C :   -0.227747
   5 N :    0.151670
   6 C :   -0.248003
   7 C :   -0.197027
   8 C :   -0.192031
   9 H :    0.179830
  10 H :    0.138063
  11 H :    0.136852
  12 H :    0.136575
  13 H :    0.142132
  14 H :    0.141887
  15 H :    0.137381
  16 H :    0.143020

  Mayer bond orders larger than 0.1
B(  0-N ,  1-C ) :   2.8586 B(  1-C ,  2-C ) :   0.9356 B(  2-C ,  3-C ) :   0.9134
B(  2-C ,  6-C ) :   0.8692 B(  2-C ,  9-H ) :   0.8988 B(  3-C ,  4-C ) :   0.9490
B(  3-C ,  5-N ) :   0.8738 B(  3-C , 10-H ) :   0.9004 B(  4-C ,  5-N ) :   0.8704
B(  4-C , 11-H ) :   0.9274 B(  4-C , 12-H ) :   0.9049 B(  5-N ,  6-C ) :   0.9503
B(  6-C ,  7-C ) :   0.8909 B(  6-C ,  8-C ) :   0.8682 B(  7-C ,  8-C ) :   0.9320
B(  7-C , 13-H ) :   0.9189 B(  7-C , 14-H ) :   0.9128 B(  8-C , 15-H ) :   0.9233
B(  8-C , 16-H ) :   0.9112

MP2 TOTAL ENERGY:     -380.139954935 Eh
FINAL SINGLE POINT ENERGY      -380.139954935492

DIPOLE MOMENT
-------------
                                X             Y             Z
Electronic contribution:     -3.61541      -2.91667       0.33719
Nuclear contribution   :      3.66369       3.86711      -0.31898
                        -----------------------------------------
Total Dipole Moment    :      0.04828       0.95044       0.01821
                        -----------------------------------------
Magnitude (a.u.)       :      0.95184
Magnitude (Debye)      :      2.41939

                             ****ORCA TERMINATED NORMALLY****
TOTAL RUN TIME: 0 days 0 hours 18 minutes 58 seconds 472 msec
