                         Program Version 3.0.3 - RELEASE   -
|  1> ! RI-MP2 RIJK def2-TZVP def2-TZVP/C def2-TZVP/JK TIGHTSCF
|  2> % maxcore 2000
|  3> % mp2 density relaxed end
|  4> *xyz 0 1
|  5>  C       -0.0424958629     1.5718579547     0.0639262603
|  6>  C       -0.0013800375     0.0387623826     0.0345387734
|  7>  C        0.7984705289    -0.5163187800     1.2195260662
|  8>  C       -1.4538058304    -0.5467429992     0.0146469533
|  9>  C       -2.1880552489    -0.1003471662    -1.2578802192
| 10>  O       -3.0083856570     0.7742529560    -1.2772821136
| 11>  C       -1.4513790812    -2.0083540710     0.0606627650
| 12>  N       -1.4557083114    -3.1643756659     0.0576225519
| 13>  H        0.9755381995     1.9709141799     0.0396702315
| 14>  H       -0.5909191551     1.9939514090    -0.7818081199
| 15>  H       -0.5204585303     1.9310082010     0.9822128209
| 16>  H        0.4873006592    -0.2859920471    -0.8936852443
| 17>  H        0.8632659398    -1.6069503942     1.1923444253
| 18>  H        1.8160602740    -0.1147997544     1.2044399915
| 19>  H        0.3391062937    -0.2253892827     2.1710345591
| 20>  H       -2.0123287069    -0.1562541976     0.8724646585
| 21>  H       -1.8715663535    -0.6376747649    -2.1776762597
| 22> *
| 23>
| 24>                          ****END OF INPUT****

CARTESIAN COORDINATES (ANGSTROEM)
---------------------------------
  C     -0.042496    1.571858    0.063926
  C     -0.001380    0.038762    0.034539
  C      0.798471   -0.516319    1.219526
  C     -1.453806   -0.546743    0.014647
  C     -2.188055   -0.100347   -1.257880
  O     -3.008386    0.774253   -1.277282
  C     -1.451379   -2.008354    0.060663
  N     -1.455708   -3.164376    0.057623
  H      0.975538    1.970914    0.039670
  H     -0.590919    1.993951   -0.781808
  H     -0.520459    1.931008    0.982213
  H      0.487301   -0.285992   -0.893685
  H      0.863266   -1.606950    1.192344
  H      1.816060   -0.114800    1.204440
  H      0.339106   -0.225389    2.171035
  H     -2.012329   -0.156254    0.872465
  H     -1.871566   -0.637675   -2.177676

 Total Charge           Charge          ....    0
 Multiplicity           Mult            ....    1
 Number of Electrons    NEL             ....   60
 Basis Dimension        Dim             ....  302

ORBITAL ENERGIES
----------------

  NO   OCC          E(Eh)            E(eV)
   0   2.0000     -20.586106      -560.1764
   1   2.0000     -15.586414      -424.1279
   2   2.0000     -11.362738      -309.1958
   3   2.0000     -11.303731      -307.5902
   4   2.0000     -11.288157      -307.1664
   5   2.0000     -11.276979      -306.8622
   6   2.0000     -11.238828      -305.8241
   7   2.0000     -11.238209      -305.8072
   8   2.0000      -1.427114       -38.8338
   9   2.0000      -1.236401       -33.6442
  10   2.0000      -1.138888       -30.9907
  11   2.0000      -1.031542       -28.0697
  12   2.0000      -0.957882       -26.0653
  13   2.0000      -0.846421       -23.0323
  14   2.0000      -0.822230       -22.3740
  15   2.0000      -0.747190       -20.3321
  16   2.0000      -0.682668       -18.5763
  17   2.0000      -0.669922       -18.2295
  18   2.0000      -0.641755       -17.4630
  19   2.0000      -0.608341       -16.5538
  20   2.0000      -0.585113       -15.9217
  21   2.0000      -0.568255       -15.4630
  22   2.0000      -0.559495       -15.2246
  23   2.0000      -0.553255       -15.0548
  24   2.0000      -0.524772       -14.2798
  25   2.0000      -0.508713       -13.8428
  26   2.0000      -0.506543       -13.7837
  27   2.0000      -0.490556       -13.3487
  28   2.0000      -0.467608       -12.7243
  29   2.0000      -0.436678       -11.8826
  30   0.0000       0.101711         2.7677
  31   0.0000       0.122513         3.3337
  32   0.0000       0.140494         3.8230
  33   0.0000       0.156425         4.2565
  34   0.0000       0.165352         4.4995

MULLIKEN ATOMIC CHARGES
-----------------------
   0 C :   -0.397296
   1 C :   -0.088421
   2 C :   -0.401645
   3 C :    0.088792
   4 C :    0.082890
   5 O :   -0.234302
   6 C :   -0.209744
   7 N :   -0.044357
   8 H :    0.142714
   9 H :    0.151644
  10 H :    0.132036
  11 H :    0.106383
  12 H :    0.162902
  13 H :    0.140457
  14 H :    0.130609
  15 H :    0.133885
  16 H :    0.103453
Sum of atomic charges:    0.0000000

LOEWDIN ATOMIC CHARGES
----------------------
   0 C :   -0.283439
   1 C :   -0.264969
   2 C :   -0.282035
   3 C :   -0.216354
   4 C :   -0.254535
   5 O :    0.160926
   6 C :   -0.174333
   7 N :    0.072646
   8 H :    0.129562
   9 H :    0.128330
  10 H :    0.129206
  11 H :    0.158464
  12 H :    0.132651
  13 H :    0.129061
  14 H :    0.128189
  15 H :    0.183341
  16 H :    0.123290

  Mayer bond orders larger than 0.1
B(  0-C ,  1-C ) :   0.9341 B(  0-C ,  8-H ) :   0.9377 B(  0-C ,  9-H ) :   0.9311
B(  0-C , 10-H ) :   0.9253 B(  1-C ,  2-C ) :   0.9216 B(  1-C ,  3-C ) :   0.8929
B(  1-C , 11-H ) :   0.9132 B(  2-C , 12-H ) :   0.9320 B(  2-C , 13-H ) :   0.9351
B(  2-C , 14-H ) :   0.9288 B(  3-C ,  4-C ) :   0.8191 B(  3-C ,  6-C ) :   0.9011
B(  3-C , 15-H ) :   0.8875 B(  4-C ,  5-O ) :   1.9990 B(  4-C , 16-H ) :   0.9255
B(  6-C ,  7-N ) :   2.8621

MP2 TOTAL ENERGY:     -363.268978329 Eh
FINAL SINGLE POINT ENERGY      -363.268978328695

DIPOLE MOMENT
-------------
                                X             Y             Z
Electronic contribution:     -7.79299      -5.40040      -3.45172
Nuclear contribution   :      8.69120       6.32520       3.59972
                        -----------------------------------------
Total Dipole Moment    :      0.89821       0.92480       0.14800
                        -----------------------------------------
Magnitude (a.u.)       :      1.29767
Magnitude (Debye)      :      3.29841

                             ****ORCA TERMINATED NORMALLY****
TOTAL RUN TIME: 0 days 0 hours 12 minutes 29 seconds 90 msec
