                         Program Version 3.0.3 - RELEASE   -
|  1> ! RI-MP2 RIJK def2-TZVP def2-TZVP/C def2-TZVP/JK TIGHTSCF
|  2> % maxcore 2000
|  3> % mp2 density relaxed end
|  4> *xyz 0 1
|  5>  O       -0.1191886829     1.4862557803    -0.3383323321
|  6>  C        0.0018446924     0.0745089838    -0.2355449327
|  7>  C       -1.3707456423    -0.4849580227     0.1282062596
|  8>  C       -1.3968376883    -1.9935565999     0.2359271621
|  9>  C       -1.5646706963    -2.8257127283    -1.0182880004
| 10>  C       -2.6654648517    -2.7946366050     0.0167494645
| 11>  C       -2.7133314275    -3.9283006965     1.0300626306
| 12>  C       -1.2539301090    -4.0742400844     1.5204774055
| 13>  C       -0.6390707610    -2.6623798408     1.3833284433
| 14>  H        0.7438254518     1.8462396488    -0.5618724984
| 15>  H        0.3402064451    -0.3693820053    -1.1855790391
| 16>  H        0.7383236662    -0.2046185667     0.5347737250
| 17>  H       -1.6877431876    -0.0315131379     1.0765575635
| 18>  H       -2.0848758738    -0.1501403980    -0.6334299344
| 19>  H       -1.7447742388    -2.2855427846    -1.9421845027
| 20>  H       -0.9811107783    -3.7317897033    -1.1491297236
| 21>  H       -3.5916208969    -2.2927341439    -0.2443605726
| 22>  H       -3.3709836385    -3.6422993160     1.8601598863
| 23>  H       -3.1063191478    -4.8640564582     0.6172273536
| 24>  H       -1.1912289617    -4.4591402168     2.5417251557
| 25>  H       -0.7125721469    -4.7841651030     0.8871528971
| 26>  H        0.4449254367    -2.7012194004     1.2274481668
| 27>  H       -0.8088456829    -2.0804461312     2.2990401524
| 28> *
| 29>
| 30>                          ****END OF INPUT****

CARTESIAN COORDINATES (ANGSTROEM)
---------------------------------
  O     -0.119189    1.486256   -0.338332
  C      0.001845    0.074509   -0.235545
  C     -1.370746   -0.484958    0.128206
  C     -1.396838   -1.993557    0.235927
  C     -1.564671   -2.825713   -1.018288
  C     -2.665465   -2.794637    0.016749
  C     -2.713331   -3.928301    1.030063
  C     -1.253930   -4.074240    1.520477
  C     -0.639071   -2.662380    1.383328
  H      0.743825    1.846240   -0.561872
  H      0.340206   -0.369382   -1.185579
  H      0.738324   -0.204619    0.534774
  H     -1.687743   -0.031513    1.076558
  H     -2.084876   -0.150140   -0.633430
  H     -1.744774   -2.285543   -1.942185
  H     -0.981111   -3.731790   -1.149130
  H     -3.591621   -2.292734   -0.244361
  H     -3.370984   -3.642299    1.860160
  H     -3.106319   -4.864056    0.617227
  H     -1.191229   -4.459140    2.541725
  H     -0.712572   -4.784165    0.887153
  H      0.444925   -2.701219    1.227448
  H     -0.808846   -2.080446    2.299040

 Total Charge           Charge          ....    0
 Multiplicity           Mult            ....    1
 Number of Electrons    NEL             ....   70
 Basis Dimension        Dim             ....  363

ORBITAL ENERGIES
----------------

  NO   OCC          E(Eh)            E(eV)
   0   2.0000     -20.551195      -559.2265
   1   2.0000     -11.269773      -306.6661
   2   2.0000     -11.228279      -305.5370
   3   2.0000     -11.221057      -305.3405
   4   2.0000     -11.218589      -305.2733
   5   2.0000     -11.217763      -305.2509
   6   2.0000     -11.217026      -305.2308
   7   2.0000     -11.216832      -305.2255
   8   2.0000     -11.215819      -305.1980
   9   2.0000      -1.354802       -36.8660
  10   2.0000      -1.174370       -31.9562
  11   2.0000      -1.035958       -28.1899
  12   2.0000      -1.007520       -27.4160
  13   2.0000      -0.945835       -25.7375
  14   2.0000      -0.855976       -23.2923
  15   2.0000      -0.826220       -22.4826
  16   2.0000      -0.758447       -20.6384
  17   2.0000      -0.730006       -19.8645
  18   2.0000      -0.696435       -18.9510
  19   2.0000      -0.653494       -17.7825
  20   2.0000      -0.639524       -17.4023
  21   2.0000      -0.623138       -16.9564
  22   2.0000      -0.585257       -15.9257
  23   2.0000      -0.572837       -15.5877
  24   2.0000      -0.561753       -15.2861
  25   2.0000      -0.549631       -14.9562
  26   2.0000      -0.516056       -14.0426
  27   2.0000      -0.494805       -13.4643
  28   2.0000      -0.485999       -13.2247
  29   2.0000      -0.470472       -12.8022
  30   2.0000      -0.469187       -12.7672
  31   2.0000      -0.456228       -12.4146
  32   2.0000      -0.438576       -11.9343
  33   2.0000      -0.395431       -10.7602
  34   2.0000      -0.377330       -10.2677
  35   0.0000       0.134152         3.6504
  36   0.0000       0.143689         3.9100
  37   0.0000       0.160179         4.3587
  38   0.0000       0.169489         4.6120
  39   0.0000       0.172259         4.6874

MULLIKEN ATOMIC CHARGES
-----------------------
   0 O :   -0.463270
   1 C :   -0.096806
   2 C :   -0.172669
   3 C :    0.089623
   4 C :   -0.330764
   5 C :   -0.090053
   6 C :   -0.237158
   7 C :   -0.236696
   8 C :   -0.274737
   9 H :    0.314180
  10 H :    0.099714
  11 H :    0.099352
  12 H :    0.113222
  13 H :    0.109512
  14 H :    0.129503
  15 H :    0.126877
  16 H :    0.120858
  17 H :    0.111246
  18 H :    0.114642
  19 H :    0.125395
  20 H :    0.117714
  21 H :    0.118832
  22 H :    0.111483
Sum of atomic charges:   -0.0000000

LOEWDIN ATOMIC CHARGES
----------------------
   0 O :   -0.053238
   1 C :   -0.344385
   2 C :   -0.228712
   3 C :   -0.226714
   4 C :   -0.189157
   5 C :   -0.183389
   6 C :   -0.236017
   7 C :   -0.248894
   8 C :   -0.211781
   9 H :    0.170942
  10 H :    0.115625
  11 H :    0.114414
  12 H :    0.144243
  13 H :    0.146921
  14 H :    0.136461
  15 H :    0.133754
  16 H :    0.143512
  17 H :    0.138924
  18 H :    0.134530
  19 H :    0.132727
  20 H :    0.133403
  21 H :    0.134834
  22 H :    0.141996

  Mayer bond orders larger than 0.1
B(  0-O ,  1-C ) :   1.0225 B(  0-O ,  2-C ) :  -0.1023 B(  0-O ,  9-H ) :   0.8495
B(  1-C ,  2-C ) :   0.9271 B(  1-C , 10-H ) :   0.9312 B(  1-C , 11-H ) :   0.9352
B(  2-C ,  3-C ) :   0.8933 B(  2-C , 12-H ) :   0.9223 B(  2-C , 13-H ) :   0.9221
B(  3-C ,  4-C ) :   0.8735 B(  3-C ,  5-C ) :   0.8176 B(  3-C ,  8-C ) :   0.9282
B(  4-C ,  5-C ) :   0.9074 B(  4-C , 14-H ) :   0.9263 B(  4-C , 15-H ) :   0.9158
B(  5-C ,  6-C ) :   0.9366 B(  5-C , 16-H ) :   0.9273 B(  6-C ,  7-C ) :   0.9439
B(  6-C , 17-H ) :   0.9299 B(  6-C , 18-H ) :   0.9310 B(  7-C ,  8-C ) :   0.9305
B(  7-C , 19-H ) :   0.9314 B(  7-C , 20-H ) :   0.9400 B(  8-C , 21-H ) :   0.9303
B(  8-C , 22-H ) :   0.9272

MP2 TOTAL ENERGY:     -387.622809119 Eh
FINAL SINGLE POINT ENERGY      -387.622809118880

DIPOLE MOMENT
-------------
                                X             Y             Z
Electronic contribution:     -0.05192       3.54255      -1.17889
Nuclear contribution   :      0.54270      -3.85317       1.16694
                        -----------------------------------------
Total Dipole Moment    :      0.49077      -0.31061      -0.01195
                        -----------------------------------------
Magnitude (a.u.)       :      0.58093
Magnitude (Debye)      :      1.47661

                             ****ORCA TERMINATED NORMALLY****
TOTAL RUN TIME: 0 days 0 hours 19 minutes 47 seconds 420 msec
