                         Program Version 3.0.3 - RELEASE   -
|  1> ! RI-MP2 RIJK def2-TZVP def2-TZVP/C def2-TZVP/JK TIGHTSCF
|  2> % maxcore 2000
|  3> % mp2 density relaxed end
|  4> *xyz 0 1
|  5>  O        0.7822530191    -0.1464814626     0.5690494668
|  6>  C       -0.1547641962     0.3398184496    -0.4159755197
|  7>  C       -1.5167182014    -0.2377060085    -0.2005731909
|  8>  C       -1.7326762591    -1.4937259758     0.3055913477
|  9>  O       -0.8762545280    -2.4466835608     0.7420744759
| 10>  N       -3.0847784345    -1.7331191411     0.3480937645
| 11>  C       -3.7416148678    -0.6226223778    -0.1333035320
| 12>  O       -5.1007201593    -0.6776886809    -0.1614769725
| 13>  C       -2.8197015668     0.3248196043    -0.4801450572
| 14>  H        0.4676384662     0.1700098032     1.4242015075
| 15>  H       -0.1842865354     1.4385854743    -0.4112270680
| 16>  H        0.2889481213     0.0375921850    -1.3728671754
| 17>  H       -0.0064499338    -2.0118263613     0.7557988648
| 18>  H       -3.5243134322    -2.5595740040     0.7146009354
| 19>  H       -5.4243770133     0.1440759751    -0.5418734457
| 20>  H       -3.0272233988     1.2997783314    -0.8944593311
| 21> *
| 22>
| 23>                          ****END OF INPUT****

CARTESIAN COORDINATES (ANGSTROEM)
---------------------------------
  O      0.782253   -0.146481    0.569049
  C     -0.154764    0.339818   -0.415976
  C     -1.516718   -0.237706   -0.200573
  C     -1.732676   -1.493726    0.305591
  O     -0.876255   -2.446684    0.742074
  N     -3.084778   -1.733119    0.348094
  C     -3.741615   -0.622622   -0.133304
  O     -5.100720   -0.677689   -0.161477
  C     -2.819702    0.324820   -0.480145
  H      0.467638    0.170010    1.424202
  H     -0.184287    1.438585   -0.411227
  H      0.288948    0.037592   -1.372867
  H     -0.006450   -2.011826    0.755799
  H     -3.524313   -2.559574    0.714601
  H     -5.424377    0.144076   -0.541873
  H     -3.027223    1.299778   -0.894459

 Total Charge           Charge          ....    0
 Multiplicity           Mult            ....    1
 Number of Electrons    NEL             ....   68
 Basis Dimension        Dim             ....  321

ORBITAL ENERGIES
----------------

  NO   OCC          E(Eh)            E(eV)
   0   2.0000     -20.599210      -560.5330
   1   2.0000     -20.583480      -560.1050
   2   2.0000     -20.570815      -559.7603
   3   2.0000     -15.601767      -424.5457
   4   2.0000     -11.320520      -308.0470
   5   2.0000     -11.314017      -307.8701
   6   2.0000     -11.286880      -307.1316
   7   2.0000     -11.209963      -305.0386
   8   2.0000     -11.207857      -304.9813
   9   2.0000      -1.422136       -38.6983
  10   2.0000      -1.408087       -38.3160
  11   2.0000      -1.367260       -37.2050
  12   2.0000      -1.277575       -34.7646
  13   2.0000      -1.066045       -29.0085
  14   2.0000      -0.975964       -26.5573
  15   2.0000      -0.919771       -25.0282
  16   2.0000      -0.820171       -22.3180
  17   2.0000      -0.786649       -21.4058
  18   2.0000      -0.761150       -20.7120
  19   2.0000      -0.703941       -19.1552
  20   2.0000      -0.673809       -18.3353
  21   2.0000      -0.652563       -17.7571
  22   2.0000      -0.637127       -17.3371
  23   2.0000      -0.619531       -16.8583
  24   2.0000      -0.606702       -16.5092
  25   2.0000      -0.602583       -16.3971
  26   2.0000      -0.581451       -15.8221
  27   2.0000      -0.565882       -15.3984
  28   2.0000      -0.539020       -14.6675
  29   2.0000      -0.504644       -13.7321
  30   2.0000      -0.495365       -13.4796
  31   2.0000      -0.465362       -12.6631
  32   2.0000      -0.355163        -9.6645
  33   2.0000      -0.267476        -7.2784
  34   0.0000       0.130350         3.5470
  35   0.0000       0.135543         3.6883
  36   0.0000       0.160277         4.3614
  37   0.0000       0.171194         4.6584
  38   0.0000       0.188938         5.1413

MULLIKEN ATOMIC CHARGES
-----------------------
   0 O :   -0.507872
   1 C :   -0.019894
   2 C :   -0.089377
   3 C :    0.180637
   4 O :   -0.441841
   5 N :   -0.282459
   6 C :    0.269526
   7 O :   -0.440589
   8 C :   -0.330465
   9 H :    0.327709
  10 H :    0.123632
  11 H :    0.128303
  12 H :    0.355442
  13 H :    0.254254
  14 H :    0.341923
  15 H :    0.131071
Sum of atomic charges:   -0.0000000

LOEWDIN ATOMIC CHARGES
----------------------
   0 O :   -0.064127
   1 C :   -0.294613
   2 C :   -0.222631
   3 C :   -0.344929
   4 O :    0.056053
   5 N :    0.210396
   6 C :   -0.364748
   7 O :    0.053290
   8 C :   -0.196685
   9 H :    0.176766
  10 H :    0.126030
  11 H :    0.134156
  12 H :    0.196485
  13 H :    0.198024
  14 H :    0.199349
  15 H :    0.137185

  Mayer bond orders larger than 0.1
B(  0-O ,  1-C ) :   0.8261 B(  0-O ,  9-H ) :   0.8364 B(  1-C ,  2-C ) :   0.9099
B(  1-C , 10-H ) :   0.9509 B(  1-C , 11-H ) :   0.9243 B(  2-C ,  3-C ) :   1.4794
B(  2-C ,  8-C ) :   1.0926 B(  3-C ,  4-O ) :   1.1292 B(  3-C ,  5-N ) :   1.1262
B(  4-O , 12-H ) :   0.7865 B(  5-N ,  6-C ) :   1.0905 B(  5-N , 13-H ) :   0.8630
B(  6-C ,  7-O ) :   1.0982 B(  6-C ,  8-C ) :   1.5440 B(  7-O , 14-H ) :   0.8310
B(  8-C , 15-H ) :   0.9064

MP2 TOTAL ENERGY:     -474.301142996 Eh
FINAL SINGLE POINT ENERGY      -474.301142995651

DIPOLE MOMENT
-------------
                                X             Y             Z
Electronic contribution:     -2.87520      -2.91970       0.97419
Nuclear contribution   :      2.39914       3.59482      -0.89343
                        -----------------------------------------
Total Dipole Moment    :     -0.47606       0.67512       0.08076
                        -----------------------------------------
Magnitude (a.u.)       :      0.83002
Magnitude (Debye)      :      2.10976

                             ****ORCA TERMINATED NORMALLY****
TOTAL RUN TIME: 0 days 0 hours 13 minutes 13 seconds 870 msec
