                         Program Version 3.0.3 - RELEASE   -
|  1> ! RI-MP2 RIJK def2-TZVP def2-TZVP/C def2-TZVP/JK TIGHTSCF
|  2> % maxcore 2000
|  3> % mp2 density relaxed end
|  4> *xyz 0 1
|  5>  N        0.0019213287     1.4263799019     0.1490756979
|  6>  C        0.0096390068    -0.0191485352    -0.0297696267
|  7>  C        0.8437699269    -0.6144903324     1.0235334726
|  8>  N        1.5222947479    -1.1003730108     1.8229806249
|  9>  C       -1.4271155871    -0.5377832108    -0.2092380793
| 10>  C       -1.3150065278    -0.4553030724    -1.6881170159
| 11>  C        0.2472545847    -0.5604894429    -1.4893917542
| 12>  C        0.0007349240    -2.0680351701    -1.3492697113
| 13>  N       -1.4444189899    -1.7832060212    -1.0329001897
| 14>  H        0.9366044943     1.8045672472     0.0255944372
| 15>  H       -0.6000993497     1.8515972178    -0.5501372428
| 16>  H       -2.2664975299    -0.3546018733     0.4478960701
| 17>  H       -1.9707242172    -0.0856775062    -2.4641633997
| 18>  H        1.0428915434    -0.1240150820    -2.0905737573
| 19>  H        0.0389409370    -2.6060248054    -2.2989256088
| 20>  H        0.5524878181    -2.6188984542    -0.5812996770
| 21> *
| 22>
| 23>                          ****END OF INPUT****

CARTESIAN COORDINATES (ANGSTROEM)
---------------------------------
  N      0.001921    1.426380    0.149076
  C      0.009639   -0.019149   -0.029770
  C      0.843770   -0.614490    1.023533
  N      1.522295   -1.100373    1.822981
  C     -1.427116   -0.537783   -0.209238
  C     -1.315007   -0.455303   -1.688117
  C      0.247255   -0.560489   -1.489392
  C      0.000735   -2.068035   -1.349270
  N     -1.444419   -1.783206   -1.032900
  H      0.936604    1.804567    0.025594
  H     -0.600099    1.851597   -0.550137
  H     -2.266498   -0.354602    0.447896
  H     -1.970724   -0.085678   -2.464163
  H      1.042892   -0.124015   -2.090574
  H      0.038941   -2.606025   -2.298926
  H      0.552488   -2.618898   -0.581300

 Total Charge           Charge          ....    0
 Multiplicity           Mult            ....    1
 Number of Electrons    NEL             ....   64
 Basis Dimension        Dim             ....  321

ORBITAL ENERGIES
----------------

  NO   OCC          E(Eh)            E(eV)
   0   2.0000     -15.587734      -424.1638
   1   2.0000     -15.578232      -423.9052
   2   2.0000     -15.574967      -423.8164
   3   2.0000     -11.330930      -308.3303
   4   2.0000     -11.290911      -307.2413
   5   2.0000     -11.289903      -307.2139
   6   2.0000     -11.275895      -306.8327
   7   2.0000     -11.275209      -306.8140
   8   2.0000     -11.273314      -306.7625
   9   2.0000      -1.349678       -36.7266
  10   2.0000      -1.235616       -33.6228
  11   2.0000      -1.206704       -32.8361
  12   2.0000      -1.033306       -28.1177
  13   2.0000      -1.010534       -27.4980
  14   2.0000      -0.926559       -25.2129
  15   2.0000      -0.826678       -22.4950
  16   2.0000      -0.781850       -21.2752
  17   2.0000      -0.739546       -20.1241
  18   2.0000      -0.695221       -18.9179
  19   2.0000      -0.660687       -17.9782
  20   2.0000      -0.652717       -17.7613
  21   2.0000      -0.617658       -16.8073
  22   2.0000      -0.581052       -15.8112
  23   2.0000      -0.565137       -15.3781
  24   2.0000      -0.556956       -15.1555
  25   2.0000      -0.504556       -13.7297
  26   2.0000      -0.478531       -13.0215
  27   2.0000      -0.470096       -12.7920
  28   2.0000      -0.462609       -12.5882
  29   2.0000      -0.447663       -12.1815
  30   2.0000      -0.422248       -11.4900
  31   2.0000      -0.390684       -10.6311
  32   0.0000       0.116977         3.1831
  33   0.0000       0.142245         3.8707
  34   0.0000       0.152216         4.1420
  35   0.0000       0.161884         4.4051
  36   0.0000       0.175144         4.7659

MULLIKEN ATOMIC CHARGES
-----------------------
   0 N :   -0.532956
   1 C :    0.253106
   2 C :   -0.222595
   3 N :   -0.038537
   4 C :   -0.081967
   5 C :   -0.162689
   6 C :   -0.060701
   7 C :   -0.144920
   8 N :   -0.222247
   9 H :    0.243966
  10 H :    0.238332
  11 H :    0.154107
  12 H :    0.157381
  13 H :    0.148222
  14 H :    0.130525
  15 H :    0.140973
Sum of atomic charges:    0.0000000

LOEWDIN ATOMIC CHARGES
----------------------
   0 N :   -0.088447
   1 C :   -0.307772
   2 C :   -0.145816
   3 N :    0.073817
   4 C :   -0.161809
   5 C :   -0.167896
   6 C :   -0.140941
   7 C :   -0.216562
   8 N :    0.140173
   9 H :    0.165109
  10 H :    0.165826
  11 H :    0.146248
  12 H :    0.133452
  13 H :    0.136136
  14 H :    0.136764
  15 H :    0.131718

  Mayer bond orders larger than 0.1
B(  0-N ,  1-C ) :   0.9088 B(  0-N ,  9-H ) :   0.8787 B(  0-N , 10-H ) :   0.8815
B(  1-C ,  2-C ) :   0.9040 B(  1-C ,  4-C ) :   0.8527 B(  1-C ,  6-C ) :   0.9023
B(  2-C ,  3-N ) :   2.8686 B(  4-C ,  5-C ) :   0.8623 B(  4-C ,  8-N ) :   0.9116
B(  4-C , 11-H ) :   0.9357 B(  5-C ,  6-C ) :   0.8591 B(  5-C ,  8-N ) :   0.8845
B(  5-C , 12-H ) :   0.9017 B(  6-C ,  7-C ) :   0.9259 B(  6-C , 13-H ) :   0.8980
B(  7-C ,  8-N ) :   0.8950 B(  7-C , 14-H ) :   0.9235 B(  7-C , 15-H ) :   0.9176

MP2 TOTAL ENERGY:     -396.173106529 Eh
FINAL SINGLE POINT ENERGY      -396.173106529248

DIPOLE MOMENT
-------------
                                X             Y             Z
Electronic contribution:      0.78344      -1.06291       3.24631
Nuclear contribution   :     -0.99143       1.99459      -4.90267
                        -----------------------------------------
Total Dipole Moment    :     -0.20799       0.93167      -1.65636
                        -----------------------------------------
Magnitude (a.u.)       :      1.91175
Magnitude (Debye)      :      4.85929

                             ****ORCA TERMINATED NORMALLY****
TOTAL RUN TIME: 0 days 0 hours 19 minutes 19 seconds 67 msec
