                         Program Version 3.0.3 - RELEASE   -
|  1> ! RI-MP2 RIJK def2-TZVP def2-TZVP/C def2-TZVP/JK TIGHTSCF
|  2> % maxcore 2000
|  3> % mp2 density relaxed end
|  4> *xyz 0 1
|  5>  C        0.0674139452     1.5312044436    -0.1243159962
|  6>  C        0.0268461737     0.0025301178     0.0007675265
|  7>  C        0.7212217223    -0.4581436083     1.2897875701
|  8>  C       -1.4255325186    -0.5056794501    -0.0946927689
|  9>  C       -1.5355183278    -2.0122960794    -0.2023287188
| 10>  N       -1.7164273045    -2.7935027671     1.0149033047
| 11>  C       -2.8095086430    -2.7859911772     0.0184261283
| 12>  C       -4.0727479411    -2.1259387046     0.4485041202
| 13>  O       -5.1450678957    -2.3434886258    -0.0586572664
| 14>  H        1.0969741600     1.9022355438    -0.0929120779
| 15>  H       -0.3837008980     1.8699173929    -1.0629915660
| 16>  H       -0.4802861276     2.0053573650     0.6988783760
| 17>  H        0.5798281284    -0.4179682924    -0.8528268658
| 18>  H        0.7324483571    -1.5471842343     1.3835520588
| 19>  H        1.7573754537    -0.1052632356     1.3202021904
| 20>  H        0.2064864316    -0.0602137182     2.1719650041
| 21>  H       -1.9900126319    -0.1589557667     0.7782798406
| 22>  H       -1.9001726784    -0.0608173180    -0.9791003984
| 23>  H       -0.9009016207    -2.4453021818    -0.9772096257
| 24>  H       -1.2168063930    -3.6773178890     0.9729026425
| 25>  H       -2.9640907602    -3.6579236728    -0.6126893884
| 26>  H       -3.9538337413    -1.4125993518     1.2922387803
| 27> *
| 28>
| 29>                          ****END OF INPUT****

CARTESIAN COORDINATES (ANGSTROEM)
---------------------------------
  C      0.067414    1.531204   -0.124316
  C      0.026846    0.002530    0.000768
  C      0.721222   -0.458144    1.289788
  C     -1.425533   -0.505679   -0.094693
  C     -1.535518   -2.012296   -0.202329
  N     -1.716427   -2.793503    1.014903
  C     -2.809509   -2.785991    0.018426
  C     -4.072748   -2.125939    0.448504
  O     -5.145068   -2.343489   -0.058657
  H      1.096974    1.902236   -0.092912
  H     -0.383701    1.869917   -1.062992
  H     -0.480286    2.005357    0.698878
  H      0.579828   -0.417968   -0.852827
  H      0.732448   -1.547184    1.383552
  H      1.757375   -0.105263    1.320202
  H      0.206486   -0.060214    2.171965
  H     -1.990013   -0.158956    0.778280
  H     -1.900173   -0.060817   -0.979100
  H     -0.900902   -2.445302   -0.977210
  H     -1.216806   -3.677318    0.972903
  H     -2.964091   -3.657924   -0.612689
  H     -3.953834   -1.412599    1.292239

 Total Charge           Charge          ....    0
 Multiplicity           Mult            ....    1
 Number of Electrons    NEL             ....   70
 Basis Dimension        Dim             ....  357

ORBITAL ENERGIES
----------------

  NO   OCC          E(Eh)            E(eV)
   0   2.0000     -20.554988      -559.3297
   1   2.0000     -15.580760      -423.9740
   2   2.0000     -11.330595      -308.3212
   3   2.0000     -11.284860      -307.0766
   4   2.0000     -11.275811      -306.8304
   5   2.0000     -11.236806      -305.7690
   6   2.0000     -11.233869      -305.6891
   7   2.0000     -11.218070      -305.2592
   8   2.0000     -11.214833      -305.1711
   9   2.0000      -1.393896       -37.9299
  10   2.0000      -1.285281       -34.9743
  11   2.0000      -1.095057       -29.7980
  12   2.0000      -0.980584       -26.6830
  13   2.0000      -0.952764       -25.9260
  14   2.0000      -0.932838       -25.3838
  15   2.0000      -0.846812       -23.0429
  16   2.0000      -0.792852       -21.5746
  17   2.0000      -0.763643       -20.7798
  18   2.0000      -0.725721       -19.7479
  19   2.0000      -0.662505       -18.0277
  20   2.0000      -0.644965       -17.5504
  21   2.0000      -0.627680       -17.0800
  22   2.0000      -0.603015       -16.4089
  23   2.0000      -0.589478       -16.0405
  24   2.0000      -0.559197       -15.2165
  25   2.0000      -0.543143       -14.7797
  26   2.0000      -0.538310       -14.6482
  27   2.0000      -0.526580       -14.3290
  28   2.0000      -0.499090       -13.5809
  29   2.0000      -0.492983       -13.4147
  30   2.0000      -0.477046       -12.9811
  31   2.0000      -0.469191       -12.7673
  32   2.0000      -0.459387       -12.5006
  33   2.0000      -0.428073       -11.6485
  34   2.0000      -0.400725       -10.9043
  35   0.0000       0.121555         3.3077
  36   0.0000       0.125964         3.4277
  37   0.0000       0.136680         3.7193
  38   0.0000       0.160325         4.3627
  39   0.0000       0.174347         4.7442

MULLIKEN ATOMIC CHARGES
-----------------------
   0 C :   -0.392319
   1 C :   -0.030764
   2 C :   -0.389603
   3 C :   -0.241501
   4 C :   -0.031739
   5 N :   -0.397713
   6 C :    0.026325
   7 C :    0.037499
   8 O :   -0.267957
   9 H :    0.133122
  10 H :    0.129550
  11 H :    0.124740
  12 H :    0.081392
  13 H :    0.126759
  14 H :    0.129400
  15 H :    0.121887
  16 H :    0.118475
  17 H :    0.126473
  18 H :    0.132201
  19 H :    0.228849
  20 H :    0.137254
  21 H :    0.097671
Sum of atomic charges:   -0.0000000

LOEWDIN ATOMIC CHARGES
----------------------
   0 C :   -0.295159
   1 C :   -0.306844
   2 C :   -0.291393
   3 C :   -0.231180
   4 C :   -0.251142
   5 N :    0.016059
   6 C :   -0.247839
   7 C :   -0.285605
   8 O :    0.131437
   9 H :    0.123463
  10 H :    0.122108
  11 H :    0.124153
  12 H :    0.148792
  13 H :    0.122137
  14 H :    0.122289
  15 H :    0.125776
  16 H :    0.146910
  17 H :    0.148387
  18 H :    0.144374
  19 H :    0.170984
  20 H :    0.145547
  21 H :    0.116746

  Mayer bond orders larger than 0.1
B(  0-C ,  1-C ) :   0.9219 B(  0-C ,  9-H ) :   0.9421 B(  0-C , 10-H ) :   0.9392
B(  0-C , 11-H ) :   0.9323 B(  1-C ,  2-C ) :   0.9285 B(  1-C ,  3-C ) :   0.9261
B(  1-C , 12-H ) :   0.9292 B(  2-C , 13-H ) :   0.9369 B(  2-C , 14-H ) :   0.9381
B(  2-C , 15-H ) :   0.9293 B(  3-C ,  4-C ) :   0.9086 B(  3-C , 16-H ) :   0.9272
B(  3-C , 17-H ) :   0.9313 B(  4-C ,  5-N ) :   0.8885 B(  4-C ,  6-C ) :   0.8301
B(  4-C , 18-H ) :   0.9177 B(  5-N ,  6-C ) :   0.8712 B(  5-N , 19-H ) :   0.8632
B(  6-C ,  7-C ) :   0.8583 B(  6-C , 20-H ) :   0.9154 B(  6-C , 21-H ) :  -0.1004
B(  7-C ,  8-O ) :   1.9917 B(  7-C , 21-H ) :   0.9618

MP2 TOTAL ENERGY:     -403.645364475 Eh
FINAL SINGLE POINT ENERGY      -403.645364475082

DIPOLE MOMENT
-------------
                                X             Y             Z
Electronic contribution:    -11.34899      -8.18506      -0.82711
Nuclear contribution   :     12.62283       8.10654       0.58724
                        -----------------------------------------
Total Dipole Moment    :      1.27384      -0.07852      -0.23987
                        -----------------------------------------
Magnitude (a.u.)       :      1.29860
Magnitude (Debye)      :      3.30079

                             ****ORCA TERMINATED NORMALLY****
TOTAL RUN TIME: 0 days 0 hours 19 minutes 30 seconds 459 msec
