                         Program Version 3.0.3 - RELEASE   -
|  1> ! RI-MP2 RIJK def2-TZVP def2-TZVP/C def2-TZVP/JK TIGHTSCF
|  2> % maxcore 2000
|  3> % mp2 density relaxed end
|  4> *xyz 0 1
|  5>  C        0.0524815630     1.4742130014     0.2450867711
|  6>  O        1.4619276444     1.4760013832    -0.1291381532
|  7>  C        1.2739182145     0.2227839138    -0.8028613786
|  8>  C        2.1886777966    -0.9897120972    -0.7486482412
|  9>  C        1.2881976438    -1.9838871118    -1.5796802982
| 10>  C        0.1455225866    -1.0992678904    -2.1932648661
| 11>  C       -0.9338453224    -0.7660821981    -1.1207784697
| 12>  C       -0.0569799971    -0.0372982903    -0.0797009772
| 13>  C        0.8616972829     0.2578277339    -2.2950645045
| 14>  H       -0.0841439206     1.7706875021     1.2890898340
| 15>  H       -0.5374799777     2.1367113798    -0.4020415928
| 16>  H        3.1557479073    -0.8189675229    -1.2320918718
| 17>  H        2.3717677011    -1.3353980265     0.2719293843
| 18>  H        1.8680328215    -2.4536912062    -2.3782114431
| 19>  H        0.8868270807    -2.7883947869    -0.9562794609
| 20>  H       -0.2622771382    -1.5164849860    -3.1157369515
| 21>  H       -1.7150147064    -0.1301190053    -1.5517650051
| 22>  H       -1.4217481876    -1.6548480167    -0.7100149073
| 23>  H        0.0758126128    -0.6219892256     0.8335714900
| 24>  H        0.1978527216     1.0889153665    -2.5455888214
| 25>  H        1.7194526132     0.2657762132    -2.9735086469
| 26> *
| 27>
| 28>                          ****END OF INPUT****

CARTESIAN COORDINATES (ANGSTROEM)
---------------------------------
  C      0.052482    1.474213    0.245087
  O      1.461928    1.476001   -0.129138
  C      1.273918    0.222784   -0.802861
  C      2.188678   -0.989712   -0.748648
  C      1.288198   -1.983887   -1.579680
  C      0.145523   -1.099268   -2.193265
  C     -0.933845   -0.766082   -1.120778
  C     -0.056980   -0.037298   -0.079701
  C      0.861697    0.257828   -2.295065
  H     -0.084144    1.770688    1.289090
  H     -0.537480    2.136711   -0.402042
  H      3.155748   -0.818968   -1.232092
  H      2.371768   -1.335398    0.271929
  H      1.868033   -2.453691   -2.378211
  H      0.886827   -2.788395   -0.956279
  H     -0.262277   -1.516485   -3.115737
  H     -1.715015   -0.130119   -1.551765
  H     -1.421748   -1.654848   -0.710015
  H      0.075813   -0.621989    0.833571
  H      0.197853    1.088915   -2.545589
  H      1.719453    0.265776   -2.973509

 Total Charge           Charge          ....    0
 Multiplicity           Mult            ....    1
 Number of Electrons    NEL             ....   68
 Basis Dimension        Dim             ....  351

ORBITAL ENERGIES
----------------

  NO   OCC          E(Eh)            E(eV)
   0   2.0000     -20.544413      -559.0419
   1   2.0000     -11.277933      -306.8882
   2   2.0000     -11.275063      -306.8101
   3   2.0000     -11.231966      -305.6373
   4   2.0000     -11.226977      -305.5016
   5   2.0000     -11.225727      -305.4676
   6   2.0000     -11.223204      -305.3989
   7   2.0000     -11.221261      -305.3460
   8   2.0000     -11.215177      -305.1805
   9   2.0000      -1.374118       -37.3916
  10   2.0000      -1.157408       -31.4947
  11   2.0000      -1.022020       -27.8106
  12   2.0000      -0.972129       -26.4530
  13   2.0000      -0.946298       -25.7501
  14   2.0000      -0.903861       -24.5953
  15   2.0000      -0.820324       -22.3221
  16   2.0000      -0.759023       -20.6541
  17   2.0000      -0.714938       -19.4545
  18   2.0000      -0.682030       -18.5590
  19   2.0000      -0.659360       -17.9421
  20   2.0000      -0.628703       -17.1079
  21   2.0000      -0.613868       -16.7042
  22   2.0000      -0.591489       -16.0952
  23   2.0000      -0.559340       -15.2204
  24   2.0000      -0.533638       -14.5210
  25   2.0000      -0.515288       -14.0217
  26   2.0000      -0.510615       -13.8945
  27   2.0000      -0.500646       -13.6233
  28   2.0000      -0.474302       -12.9064
  29   2.0000      -0.466917       -12.7055
  30   2.0000      -0.457076       -12.4377
  31   2.0000      -0.445471       -12.1219
  32   2.0000      -0.403280       -10.9738
  33   2.0000      -0.390922       -10.6375
  34   0.0000       0.130921         3.5625
  35   0.0000       0.156005         4.2451
  36   0.0000       0.162967         4.4346
  37   0.0000       0.167162         4.5487
  38   0.0000       0.183468         4.9924

MULLIKEN ATOMIC CHARGES
-----------------------
   0 C :   -0.022677
   1 O :   -0.317694
   2 C :    0.264416
   3 C :   -0.271583
   4 C :   -0.262332
   5 C :   -0.010405
   6 C :   -0.291230
   7 C :   -0.146980
   8 C :   -0.310165
   9 H :    0.109278
  10 H :    0.083330
  11 H :    0.122001
  12 H :    0.116299
  13 H :    0.125469
  14 H :    0.117519
  15 H :    0.117914
  16 H :    0.117288
  17 H :    0.121759
  18 H :    0.092936
  19 H :    0.121039
  20 H :    0.123818
Sum of atomic charges:   -0.0000000

LOEWDIN ATOMIC CHARGES
----------------------
   0 C :   -0.237746
   1 O :    0.151682
   2 C :   -0.314092
   3 C :   -0.207604
   4 C :   -0.205107
   5 C :   -0.222142
   6 C :   -0.214952
   7 C :   -0.178203
   8 C :   -0.184604
   9 H :    0.117572
  10 H :    0.116862
  11 H :    0.135106
  12 H :    0.134986
  13 H :    0.135220
  14 H :    0.133365
  15 H :    0.139236
  16 H :    0.136959
  17 H :    0.133038
  18 H :    0.150246
  19 H :    0.140093
  20 H :    0.140084

  Mayer bond orders larger than 0.1
B(  0-C ,  1-O ) :   0.9286 B(  0-C ,  7-C ) :   0.9721 B(  0-C ,  9-H ) :   0.9121
B(  0-C , 10-H ) :   0.8976 B(  1-O ,  2-C ) :   1.0131 B(  2-C ,  3-C ) :   0.9094
B(  2-C ,  7-C ) :   0.8999 B(  2-C ,  8-C ) :   0.9082 B(  3-C ,  4-C ) :   0.9439
B(  3-C , 11-H ) :   0.9276 B(  3-C , 12-H ) :   0.9233 B(  4-C ,  5-C ) :   0.9035
B(  4-C , 13-H ) :   0.9237 B(  4-C , 14-H ) :   0.9246 B(  5-C ,  6-C ) :   0.8996
B(  5-C ,  8-C ) :   0.9172 B(  5-C , 15-H ) :   0.9210 B(  6-C ,  7-C ) :   0.9384
B(  6-C , 16-H ) :   0.9153 B(  6-C , 17-H ) :   0.9218 B(  7-C , 18-H ) :   0.9021
B(  8-C , 19-H ) :   0.9192 B(  8-C , 20-H ) :   0.9221

MP2 TOTAL ENERGY:     -386.412085335 Eh
FINAL SINGLE POINT ENERGY      -386.412085334941

DIPOLE MOMENT
-------------
                                X             Y             Z
Electronic contribution:      1.52446       3.50783       1.70214
Nuclear contribution   :     -2.06076      -4.06552      -1.87023
                        -----------------------------------------
Total Dipole Moment    :     -0.53629      -0.55770      -0.16809
                        -----------------------------------------
Magnitude (a.u.)       :      0.79176
Magnitude (Debye)      :      2.01250

                             ****ORCA TERMINATED NORMALLY****
TOTAL RUN TIME: 0 days 0 hours 21 minutes 16 seconds 961 msec
