                         Program Version 3.0.3 - RELEASE   -
|  1> ! RI-MP2 RIJK def2-TZVP def2-TZVP/C def2-TZVP/JK TIGHTSCF
|  2> % maxcore 2000
|  3> % mp2 density relaxed end
|  4> *xyz 0 1
|  5>  O       -0.2133331203     1.5681704975     0.0115798620
|  6>  C        0.0206249489     0.1716747223     0.1513482067
|  7>  C       -1.3233441319    -0.5149363853    -0.0041307015
|  8>  C       -2.0152959773    -0.6516465234    -1.3867522453
|  9>  N       -2.2738171907    -2.1269959434    -1.1677288869
| 10>  C       -0.9411519940    -2.7855095271    -1.0931274678
| 11>  C        0.1680558555    -2.4299999660    -1.9331792144
| 12>  C        1.0877868044    -2.2022891401    -2.6753613998
| 13>  C       -1.4375216616    -2.0339288234     0.0940671631
| 14>  H        0.6375703729     2.0152738315    -0.0057495407
| 15>  H        0.7291122632    -0.1930584119    -0.6023142924
| 16>  H        0.4365191506    -0.0677956163     1.1447416232
| 17>  H       -2.0176374133    -0.0544426884     0.7049444539
| 18>  H       -2.9642431644    -0.1221051116    -1.4716010450
| 19>  H       -1.4004860902    -0.4427615592    -2.2658116638
| 20>  H       -1.0725971927    -3.8620500236    -1.0002536933
| 21>  H        1.9027519192    -1.9916493279    -3.3230140731
| 22>  H       -1.7085711283    -2.5788027840     0.9944742152
| 23> *
| 24>
| 25>                          ****END OF INPUT****

CARTESIAN COORDINATES (ANGSTROEM)
---------------------------------
  O     -0.213333    1.568170    0.011580
  C      0.020625    0.171675    0.151348
  C     -1.323344   -0.514936   -0.004131
  C     -2.015296   -0.651647   -1.386752
  N     -2.273817   -2.126996   -1.167729
  C     -0.941152   -2.785510   -1.093127
  C      0.168056   -2.430000   -1.933179
  C      1.087787   -2.202289   -2.675361
  C     -1.437522   -2.033929    0.094067
  H      0.637570    2.015274   -0.005750
  H      0.729112   -0.193058   -0.602314
  H      0.436519   -0.067796    1.144742
  H     -2.017637   -0.054443    0.704944
  H     -2.964243   -0.122105   -1.471601
  H     -1.400486   -0.442762   -2.265812
  H     -1.072597   -3.862050   -1.000254
  H      1.902752   -1.991649   -3.323014
  H     -1.708571   -2.578803    0.994474

 Total Charge           Charge          ....    0
 Multiplicity           Mult            ....    1
 Number of Electrons    NEL             ....   66
 Basis Dimension        Dim             ....  333

ORBITAL ENERGIES
----------------

  NO   OCC          E(Eh)            E(eV)
   0   2.0000     -20.559337      -559.4480
   1   2.0000     -15.571691      -423.7273
   2   2.0000     -11.288959      -307.1882
   3   2.0000     -11.277221      -306.8688
   4   2.0000     -11.275343      -306.8177
   5   2.0000     -11.253630      -306.2268
   6   2.0000     -11.244993      -305.9918
   7   2.0000     -11.239825      -305.8512
   8   2.0000     -11.234639      -305.7101
   9   2.0000      -1.362854       -37.0851
  10   2.0000      -1.298689       -35.3391
  11   2.0000      -1.059069       -28.8187
  12   2.0000      -1.031238       -28.0614
  13   2.0000      -0.964325       -26.2406
  14   2.0000      -0.884883       -24.0789
  15   2.0000      -0.864573       -23.5262
  16   2.0000      -0.747698       -20.3459
  17   2.0000      -0.731828       -19.9141
  18   2.0000      -0.711025       -19.3480
  19   2.0000      -0.685077       -18.6419
  20   2.0000      -0.656277       -17.8582
  21   2.0000      -0.627944       -17.0872
  22   2.0000      -0.611048       -16.6275
  23   2.0000      -0.566810       -15.4237
  24   2.0000      -0.563230       -15.3263
  25   2.0000      -0.506873       -13.7927
  26   2.0000      -0.490027       -13.3343
  27   2.0000      -0.473253       -12.8779
  28   2.0000      -0.456786       -12.4298
  29   2.0000      -0.445810       -12.1311
  30   2.0000      -0.410673       -11.1750
  31   2.0000      -0.396988       -10.8026
  32   2.0000      -0.357829        -9.7370
  33   0.0000       0.131838         3.5875
  34   0.0000       0.143430         3.9029
  35   0.0000       0.157263         4.2794
  36   0.0000       0.161100         4.3838
  37   0.0000       0.171592         4.6693

MULLIKEN ATOMIC CHARGES
-----------------------
   0 O :   -0.470078
   1 C :   -0.102271
   2 C :   -0.037843
   3 C :   -0.162923
   4 N :   -0.205988
   5 C :   -0.253584
   6 C :    0.004720
   7 C :   -0.126084
   8 C :   -0.012277
   9 H :    0.316708
  10 H :    0.122025
  11 H :    0.097575
  12 H :    0.110324
  13 H :    0.131765
  14 H :    0.130999
  15 H :    0.133586
  16 H :    0.191959
  17 H :    0.131388
Sum of atomic charges:    0.0000000

LOEWDIN ATOMIC CHARGES
----------------------
   0 O :   -0.048625
   1 C :   -0.329788
   2 C :   -0.228893
   3 C :   -0.206087
   4 N :    0.129781
   5 C :   -0.236562
   6 C :   -0.100225
   7 C :   -0.089265
   8 C :   -0.163915
   9 H :    0.172615
  10 H :    0.125019
  11 H :    0.118907
  12 H :    0.162017
  13 H :    0.129864
  14 H :    0.131559
  15 H :    0.170041
  16 H :    0.128295
  17 H :    0.135262

  Mayer bond orders larger than 0.1
B(  0-O ,  1-C ) :   1.0137 B(  0-O ,  9-H ) :   0.8481 B(  1-C ,  2-C ) :   0.9256
B(  1-C , 10-H ) :   0.9190 B(  1-C , 11-H ) :   0.9344 B(  2-C ,  3-C ) :   0.9614
B(  2-C ,  8-C ) :   0.9064 B(  2-C , 12-H ) :   0.9256 B(  3-C ,  4-N ) :   0.9125
B(  3-C , 13-H ) :   0.9202 B(  3-C , 14-H ) :   0.9260 B(  4-N ,  5-C ) :   0.9477
B(  4-N ,  8-C ) :   0.8555 B(  5-C ,  6-C ) :   1.0953 B(  5-C ,  7-C ) :  -0.1115
B(  5-C ,  8-C ) :   0.9448 B(  5-C , 15-H ) :   0.9364 B(  6-C ,  7-C ) :   2.5574
B(  7-C , 16-H ) :   0.9035 B(  8-C , 17-H ) :   0.8995

MP2 TOTAL ENERGY:     -401.158745004 Eh
FINAL SINGLE POINT ENERGY      -401.158745004291

DIPOLE MOMENT
-------------
                                X             Y             Z
Electronic contribution:     -0.35524      -2.44151      -1.39973
Nuclear contribution   :      1.33140       2.61732       1.69617
                        -----------------------------------------
Total Dipole Moment    :      0.97616       0.17581       0.29643
                        -----------------------------------------
Magnitude (a.u.)       :      1.03522
Magnitude (Debye)      :      2.63132

                             ****ORCA TERMINATED NORMALLY****
TOTAL RUN TIME: 0 days 0 hours 29 minutes 7 seconds 669 msec
