                         Program Version 3.0.3 - RELEASE   -
|  1> ! RI-MP2 RIJK def2-TZVP def2-TZVP/C def2-TZVP/JK TIGHTSCF
|  2> % maxcore 2000
|  3> % mp2 density relaxed end
|  4> *xyz 0 1
|  5>  C       -0.0931390824     1.5896507029    -0.0471843306
|  6>  C       -0.2511257117     0.0976456338    -0.2991401410
|  7>  C       -0.0568745873    -0.8796901031     0.8294179202
|  8>  C       -1.4370216412    -0.6429251821     0.2643958105
|  9>  C        1.3362426971     2.0383207892    -0.0333695951
| 10>  C        2.1114986717     2.5783539258    -1.0340503834
| 11>  N        3.3230952463     2.7553351625    -0.4548783322
| 12>  N        3.3173474580     2.3587079240     0.8299391097
| 13>  N        2.1176680645     1.9244858899     1.0844409420
| 14>  H       -0.6478983438     2.1545959857    -0.8057799126
| 15>  H       -0.5392889061     1.8373029325     0.9224869840
| 16>  H        0.0978549158    -0.2256634337    -1.2766621382
| 17>  H        0.4318001219    -1.8236707518     0.6156696605
| 18>  H        0.1742457075    -0.4721606468     1.8073983212
| 19>  H       -2.1434718944    -0.0818972425     0.8679988805
| 20>  H       -1.8916826598    -1.4236051331    -0.3356216490
| 21>  H        1.9110936086     2.8424612293    -2.0587279184
| 22>  H        4.1672462350     3.1380467775    -0.8493620681
| 23> *
| 24>
| 25>                          ****END OF INPUT****

CARTESIAN COORDINATES (ANGSTROEM)
---------------------------------
  C     -0.093139    1.589651   -0.047184
  C     -0.251126    0.097646   -0.299140
  C     -0.056875   -0.879690    0.829418
  C     -1.437022   -0.642925    0.264396
  C      1.336243    2.038321   -0.033370
  C      2.111499    2.578354   -1.034050
  N      3.323095    2.755335   -0.454878
  N      3.317347    2.358708    0.829939
  N      2.117668    1.924486    1.084441
  H     -0.647898    2.154596   -0.805780
  H     -0.539289    1.837303    0.922487
  H      0.097855   -0.225663   -1.276662
  H      0.431800   -1.823671    0.615670
  H      0.174246   -0.472161    1.807398
  H     -2.143472   -0.081897    0.867999
  H     -1.891683   -1.423605   -0.335622
  H      1.911094    2.842461   -2.058728
  H      4.167246    3.138047   -0.849362

 Total Charge           Charge          ....    0
 Multiplicity           Mult            ....    1
 Number of Electrons    NEL             ....   66
 Basis Dimension        Dim             ....  333

ORBITAL ENERGIES
----------------

  NO   OCC          E(Eh)            E(eV)
   0   2.0000     -15.655233      -426.0006
   1   2.0000     -15.638138      -425.5354
   2   2.0000     -15.589720      -424.2179
   3   2.0000     -11.279577      -306.9329
   4   2.0000     -11.256372      -306.3015
   5   2.0000     -11.235533      -305.7344
   6   2.0000     -11.229932      -305.5820
   7   2.0000     -11.220633      -305.3290
   8   2.0000     -11.217049      -305.2314
   9   2.0000      -1.433397       -39.0047
  10   2.0000      -1.198527       -32.6136
  11   2.0000      -1.144162       -31.1342
  12   2.0000      -1.091407       -29.6987
  13   2.0000      -0.973576       -26.4923
  14   2.0000      -0.866907       -23.5897
  15   2.0000      -0.819876       -22.3100
  16   2.0000      -0.815160       -22.1816
  17   2.0000      -0.779766       -21.2185
  18   2.0000      -0.742480       -20.2039
  19   2.0000      -0.663375       -18.0514
  20   2.0000      -0.642782       -17.4910
  21   2.0000      -0.634595       -17.2682
  22   2.0000      -0.614513       -16.7218
  23   2.0000      -0.588096       -16.0029
  24   2.0000      -0.543343       -14.7851
  25   2.0000      -0.514507       -14.0004
  26   2.0000      -0.508119       -13.8266
  27   2.0000      -0.499262       -13.5856
  28   2.0000      -0.436702       -11.8833
  29   2.0000      -0.416121       -11.3232
  30   2.0000      -0.413781       -11.2595
  31   2.0000      -0.404235       -10.9998
  32   2.0000      -0.346362        -9.4250
  33   0.0000       0.126684         3.4472
  34   0.0000       0.137420         3.7394
  35   0.0000       0.144505         3.9322
  36   0.0000       0.164935         4.4881
  37   0.0000       0.172061         4.6820

MULLIKEN ATOMIC CHARGES
-----------------------
   0 C :   -0.274882
   1 C :   -0.085207
   2 C :   -0.267589
   3 C :   -0.260857
   4 C :    0.074506
   5 C :   -0.153694
   6 N :   -0.060046
   7 N :   -0.154527
   8 N :   -0.148078
   9 H :    0.130395
  10 H :    0.138496
  11 H :    0.112897
  12 H :    0.126893
  13 H :    0.144766
  14 H :    0.125537
  15 H :    0.127560
  16 H :    0.161602
  17 H :    0.262230
Sum of atomic charges:    0.0000000

LOEWDIN ATOMIC CHARGES
----------------------
   0 C :   -0.214092
   1 C :   -0.228524
   2 C :   -0.224935
   3 C :   -0.232455
   4 C :   -0.274893
   5 C :   -0.231903
   6 N :    0.120088
   7 N :   -0.054959
   8 N :    0.028540
   9 H :    0.148991
  10 H :    0.158037
  11 H :    0.145166
  12 H :    0.130577
  13 H :    0.137637
  14 H :    0.131581
  15 H :    0.129707
  16 H :    0.141322
  17 H :    0.190115

  Mayer bond orders larger than 0.1
B(  0-C ,  1-C ) :   0.9126 B(  0-C ,  4-C ) :   0.9036 B(  0-C ,  9-H ) :   0.9376
B(  0-C , 10-H ) :   0.9355 B(  1-C ,  2-C ) :   0.9025 B(  1-C ,  3-C ) :   0.8921
B(  1-C , 11-H ) :   0.9229 B(  2-C ,  3-C ) :   0.8997 B(  2-C , 12-H ) :   0.9324
B(  2-C , 13-H ) :   0.9262 B(  3-C , 14-H ) :   0.9277 B(  3-C , 15-H ) :   0.9298
B(  4-C ,  5-C ) :   1.4306 B(  4-C ,  8-N ) :   1.3643 B(  5-C ,  6-N ) :   1.1988
B(  5-C ,  7-N ) :   0.1337 B(  5-C , 16-H ) :   0.9030 B(  6-N ,  7-N ) :   1.0590
B(  6-N , 17-H ) :   0.8636 B(  7-N ,  8-N ) :   1.2905

MP2 TOTAL ENERGY:     -397.425372668 Eh
FINAL SINGLE POINT ENERGY      -397.425372667777

DIPOLE MOMENT
-------------
                                X             Y             Z
Electronic contribution:      8.32941       5.96075       0.48172
Nuclear contribution   :     -8.35118      -5.51232      -2.09907
                        -----------------------------------------
Total Dipole Moment    :     -0.02177       0.44844      -1.61736
                        -----------------------------------------
Magnitude (a.u.)       :      1.67852
Magnitude (Debye)      :      4.26645

                             ****ORCA TERMINATED NORMALLY****
TOTAL RUN TIME: 0 days 0 hours 15 minutes 37 seconds 480 msec
