                         Program Version 3.0.3 - RELEASE   -
|  1> ! RI-MP2 RIJK def2-TZVP def2-TZVP/C def2-TZVP/JK TIGHTSCF
|  2> % maxcore 2000
|  3> % mp2 density relaxed end
|  4> *xyz 0 1
|  5>  O        0.3087441551     0.7860309530     1.0295659502
|  6>  C       -0.0671452146     0.2113893777    -0.2060864991
|  7>  C       -1.4370119844    -0.4111226036    -0.0866834674
|  8>  C       -2.1618432144    -0.3818569668     1.1011744980
|  9>  C       -3.4205447165    -0.9785824775     1.1331813509
| 10>  N       -3.9895153353    -1.5856744186     0.0896509157
| 11>  C       -3.2841786713    -1.6077992037    -1.0463575151
| 12>  C       -2.0222896587    -1.0435367367    -1.1848760621
| 13>  H        1.1816014437     1.1749373751     0.9283047104
| 14>  H       -0.0892246437     0.9660754253    -1.0096148677
| 15>  H        0.6490656379    -0.5650276297    -0.5221540315
| 16>  H       -1.7500281118     0.0968823405     1.9797577930
| 17>  H       -4.0017461398    -0.9655797790     2.0528035984
| 18>  H       -3.7543848357    -2.1042618996    -1.8922968904
| 19>  H       -1.5049160706    -1.0981568464    -2.1384210636
| 20> *
| 21>
| 22>                          ****END OF INPUT****

CARTESIAN COORDINATES (ANGSTROEM)
---------------------------------
  O      0.308744    0.786031    1.029566
  C     -0.067145    0.211389   -0.206086
  C     -1.437012   -0.411123   -0.086683
  C     -2.161843   -0.381857    1.101174
  C     -3.420545   -0.978582    1.133181
  N     -3.989515   -1.585674    0.089651
  C     -3.284179   -1.607799   -1.046358
  C     -2.022290   -1.043537   -1.184876
  H      1.181601    1.174937    0.928305
  H     -0.089225    0.966075   -1.009615
  H      0.649066   -0.565028   -0.522154
  H     -1.750028    0.096882    1.979758
  H     -4.001746   -0.965580    2.052804
  H     -3.754385   -2.104262   -1.892297
  H     -1.504916   -1.098157   -2.138421

 Total Charge           Charge          ....    0
 Multiplicity           Mult            ....    1
 Number of Electrons    NEL             ....   58
 Basis Dimension        Dim             ....  290

ORBITAL ENERGIES
----------------

  NO   OCC          E(Eh)            E(eV)
   0   2.0000     -20.574222      -559.8530
   1   2.0000     -15.556216      -423.3061
   2   2.0000     -11.300240      -307.4952
   3   2.0000     -11.268712      -306.6372
   4   2.0000     -11.267444      -306.6027
   5   2.0000     -11.261567      -306.4428
   6   2.0000     -11.235052      -305.7213
   7   2.0000     -11.228944      -305.5551
   8   2.0000      -1.381633       -37.5961
   9   2.0000      -1.251842       -34.0644
  10   2.0000      -1.102299       -29.9951
  11   2.0000      -1.026789       -27.9404
  12   2.0000      -0.954005       -25.9598
  13   2.0000      -0.854227       -23.2447
  14   2.0000      -0.818451       -22.2712
  15   2.0000      -0.724988       -19.7279
  16   2.0000      -0.694582       -18.9005
  17   2.0000      -0.652074       -17.7438
  18   2.0000      -0.646935       -17.6040
  19   2.0000      -0.642652       -17.4874
  20   2.0000      -0.592674       -16.1275
  21   2.0000      -0.583014       -15.8646
  22   2.0000      -0.535052       -14.5595
  23   2.0000      -0.526134       -14.3168
  24   2.0000      -0.505268       -13.7490
  25   2.0000      -0.474007       -12.8984
  26   2.0000      -0.413269       -11.2456
  27   2.0000      -0.367486        -9.9998
  28   2.0000      -0.342555        -9.3214
  29   0.0000       0.108608         2.9554
  30   0.0000       0.124105         3.3771
  31   0.0000       0.125514         3.4154
  32   0.0000       0.156527         4.2593
  33   0.0000       0.177013         4.8168

MULLIKEN ATOMIC CHARGES
-----------------------
   0 O :   -0.467194
   1 C :   -0.091967
   2 C :    0.070502
   3 C :   -0.122056
   4 C :   -0.043167
   5 N :   -0.241336
   6 C :   -0.045151
   7 C :   -0.153591
   8 H :    0.320069
   9 H :    0.117072
  10 H :    0.117068
  11 H :    0.158622
  12 H :    0.127318
  13 H :    0.126649
  14 H :    0.127161
Sum of atomic charges:   -0.0000000

LOEWDIN ATOMIC CHARGES
----------------------
   0 O :   -0.034692
   1 C :   -0.302135
   2 C :   -0.143611
   3 C :   -0.111688
   4 C :   -0.212654
   5 N :    0.126343
   6 C :   -0.217467
   7 C :   -0.122496
   8 H :    0.177106
   9 H :    0.128474
  10 H :    0.128470
  11 H :    0.157110
  12 H :    0.138488
  13 H :    0.138090
  14 H :    0.150661

  Mayer bond orders larger than 0.1
B(  0-O ,  1-C ) :   1.0283 B(  0-O ,  2-C ) :  -0.1011 B(  0-O ,  8-H ) :   0.8450
B(  1-C ,  2-C ) :   0.8919 B(  1-C ,  9-H ) :   0.9339 B(  1-C , 10-H ) :   0.9339
B(  2-C ,  3-C ) :   1.3641 B(  2-C ,  7-C ) :   1.2840 B(  3-C ,  4-C ) :   1.2886
B(  3-C , 11-H ) :   0.9092 B(  4-C ,  5-N ) :   1.4005 B(  4-C , 12-H ) :   0.9492
B(  5-N ,  6-C ) :   1.3880 B(  6-C ,  7-C ) :   1.3407 B(  6-C , 13-H ) :   0.9471
B(  7-C , 14-H ) :   0.9232

MP2 TOTAL ENERGY:     -362.084585284 Eh
FINAL SINGLE POINT ENERGY      -362.084585283832

DIPOLE MOMENT
-------------
                                X             Y             Z
Electronic contribution:     -2.52956      -0.93945       0.88033
Nuclear contribution   :      3.91069       1.44899      -1.37223
                        -----------------------------------------
Total Dipole Moment    :      1.38113       0.50954      -0.49190
                        -----------------------------------------
Magnitude (a.u.)       :      1.55213
Magnitude (Debye)      :      3.94521

                             ****ORCA TERMINATED NORMALLY****
TOTAL RUN TIME: 0 days 0 hours 11 minutes 5 seconds 411 msec
