                         Program Version 3.0.3 - RELEASE   -
|  1> ! RI-MP2 RIJK def2-TZVP def2-TZVP/C def2-TZVP/JK TIGHTSCF
|  2> % maxcore 2000
|  3> % mp2 density relaxed end
|  4> *xyz 0 1
|  5>  C       -0.1469132609     1.5341243878     0.0298434414
|  6>  C        0.0580793731     0.0232382854     0.0119751176
|  7>  C        1.0733504338    -0.5754520843    -0.9767753159
|  8>  C        2.4317668282    -0.0258351321    -0.4917715384
|  9>  C        2.2416334028    -0.0251599885     1.0568209074
| 10>  C        0.8084204534    -0.5917009904     1.2179311738
| 11>  O        0.1811475555    -0.3597595747     2.4533661579
| 12>  C        0.8419824611    -2.0654560350     0.7581986725
| 13>  O        1.0322986403    -1.9809308647    -0.6635859904
| 14>  H        0.7924380865     2.0914111996     0.0794161254
| 15>  H       -0.6798816210     1.8634564972    -0.8679199648
| 16>  H       -0.7460210411     1.8174808187     0.9003996660
| 17>  H       -0.9107440059    -0.4720007475    -0.1130570534
| 18>  H        0.8719920356    -0.4622961572    -2.0427418471
| 19>  H        3.2406587385    -0.6789430494    -0.8252914689
| 20>  H        2.6291769735     0.9775171071    -0.8801395780
| 21>  H        2.9803422067    -0.6458048432     1.5747452076
| 22>  H        2.2971195283     0.9804138487     1.4820142445
| 23>  H        0.7657271191    -0.6658302162     3.1545428676
| 24>  H        1.6628951296    -2.6375802599     1.2119623718
| 25>  H       -0.1063543670    -2.5684606415     0.9885249135
| 26> *
| 27>
| 28>                          ****END OF INPUT****

CARTESIAN COORDINATES (ANGSTROEM)
---------------------------------
  C     -0.146913    1.534124    0.029843
  C      0.058079    0.023238    0.011975
  C      1.073350   -0.575452   -0.976775
  C      2.431767   -0.025835   -0.491772
  C      2.241633   -0.025160    1.056821
  C      0.808420   -0.591701    1.217931
  O      0.181148   -0.359760    2.453366
  C      0.841982   -2.065456    0.758199
  O      1.032299   -1.980931   -0.663586
  H      0.792438    2.091411    0.079416
  H     -0.679882    1.863456   -0.867920
  H     -0.746021    1.817481    0.900400
  H     -0.910744   -0.472001   -0.113057
  H      0.871992   -0.462296   -2.042742
  H      3.240659   -0.678943   -0.825291
  H      2.629177    0.977517   -0.880140
  H      2.980342   -0.645805    1.574745
  H      2.297120    0.980414    1.482014
  H      0.765727   -0.665830    3.154543
  H      1.662895   -2.637580    1.211962
  H     -0.106354   -2.568461    0.988525

 Total Charge           Charge          ....    0
 Multiplicity           Mult            ....    1
 Number of Electrons    NEL             ....   70
 Basis Dimension        Dim             ....  351

ORBITAL ENERGIES
----------------

  NO   OCC          E(Eh)            E(eV)
   0   2.0000     -20.565468      -559.6148
   1   2.0000     -20.547017      -559.1128
   2   2.0000     -11.286123      -307.1110
   3   2.0000     -11.276337      -306.8447
   4   2.0000     -11.268641      -306.6353
   5   2.0000     -11.226558      -305.4902
   6   2.0000     -11.225493      -305.4612
   7   2.0000     -11.223717      -305.4129
   8   2.0000     -11.215977      -305.2023
   9   2.0000      -1.383749       -37.6537
  10   2.0000      -1.363143       -37.0930
  11   2.0000      -1.116985       -30.3947
  12   2.0000      -1.007468       -27.4146
  13   2.0000      -0.998251       -27.1638
  14   2.0000      -0.912924       -24.8419
  15   2.0000      -0.866191       -23.5702
  16   2.0000      -0.771984       -21.0067
  17   2.0000      -0.761291       -20.7158
  18   2.0000      -0.711891       -19.3715
  19   2.0000      -0.670722       -18.2513
  20   2.0000      -0.647692       -17.6246
  21   2.0000      -0.626054       -17.0358
  22   2.0000      -0.588921       -16.0254
  23   2.0000      -0.569897       -15.5077
  24   2.0000      -0.562467       -15.3055
  25   2.0000      -0.552866       -15.0442
  26   2.0000      -0.546493       -14.8708
  27   2.0000      -0.536213       -14.5911
  28   2.0000      -0.516564       -14.0564
  29   2.0000      -0.495257       -13.4766
  30   2.0000      -0.484984       -13.1971
  31   2.0000      -0.471870       -12.8402
  32   2.0000      -0.443000       -12.0546
  33   2.0000      -0.411850       -11.2070
  34   2.0000      -0.396229       -10.7819
  35   0.0000       0.127204         3.4614
  36   0.0000       0.143608         3.9078
  37   0.0000       0.166897         4.5415
  38   0.0000       0.172439         4.6923
  39   0.0000       0.185805         5.0560

MULLIKEN ATOMIC CHARGES
-----------------------
   0 C :   -0.449879
   1 C :   -0.072083
   2 C :    0.106913
   3 C :   -0.277865
   4 C :   -0.328750
   5 C :    0.208254
   6 O :   -0.461837
   7 C :   -0.055191
   8 O :   -0.329317
   9 H :    0.128800
  10 H :    0.138592
  11 H :    0.152849
  12 H :    0.106568
  13 H :    0.120702
  14 H :    0.122328
  15 H :    0.123057
  16 H :    0.117492
  17 H :    0.135976
  18 H :    0.321907
  19 H :    0.091095
  20 H :    0.100388
Sum of atomic charges:    0.0000000

LOEWDIN ATOMIC CHARGES
----------------------
   0 C :   -0.282245
   1 C :   -0.212094
   2 C :   -0.268116
   3 C :   -0.225832
   4 C :   -0.218110
   5 C :   -0.369788
   6 O :    0.023577
   7 C :   -0.256931
   8 O :    0.155527
   9 H :    0.124519
  10 H :    0.126477
  11 H :    0.133005
  12 H :    0.161749
  13 H :    0.138676
  14 H :    0.138322
  15 H :    0.134904
  16 H :    0.133500
  17 H :    0.137154
  18 H :    0.180942
  19 H :    0.120807
  20 H :    0.123958

  Mayer bond orders larger than 0.1
B(  0-C ,  1-C ) :   0.8905 B(  0-C ,  9-H ) :   0.9316 B(  0-C , 10-H ) :   0.9404
B(  0-C , 11-H ) :   0.9366 B(  1-C ,  2-C ) :   0.9471 B(  1-C ,  5-C ) :   0.8827
B(  1-C , 12-H ) :   0.9128 B(  2-C ,  3-C ) :   0.9092 B(  2-C ,  8-O ) :   0.9164
B(  2-C , 13-H ) :   0.9202 B(  3-C ,  4-C ) :   0.9475 B(  3-C , 14-H ) :   0.9152
B(  3-C , 15-H ) :   0.9211 B(  4-C ,  5-C ) :   0.9000 B(  4-C , 16-H ) :   0.9120
B(  4-C , 17-H ) :   0.9329 B(  5-C ,  6-O ) :   1.0184 B(  5-C ,  7-C ) :   0.9557
B(  6-O , 18-H ) :   0.8386 B(  7-C ,  8-O ) :   0.9499 B(  7-C , 19-H ) :   0.9093
B(  7-C , 20-H ) :   0.9177

MP2 TOTAL ENERGY:     -423.545945966 Eh
FINAL SINGLE POINT ENERGY      -423.545945966259

DIPOLE MOMENT
-------------
                                X             Y             Z
Electronic contribution:     -0.99989      -4.40082       0.58098
Nuclear contribution   :      1.44775       4.74907      -0.23403
                        -----------------------------------------
Total Dipole Moment    :      0.44786       0.34825       0.34695
                        -----------------------------------------
Magnitude (a.u.)       :      0.66500
Magnitude (Debye)      :      1.69031

                             ****ORCA TERMINATED NORMALLY****
TOTAL RUN TIME: 0 days 0 hours 19 minutes 59 seconds 905 msec
