                         Program Version 3.0.3 - RELEASE   -
|  1> ! RI-MP2 RIJK def2-TZVP def2-TZVP/C def2-TZVP/JK TIGHTSCF
|  2> % maxcore 2000
|  3> % mp2 density relaxed end
|  4> *xyz 0 1
|  5>  C        0.0922747561     1.5622486337     0.1501550803
|  6>  C       -0.0315042446     0.0654411110     0.0061020036
|  7>  C       -1.1897588297    -0.6102575764    -0.0553169233
|  8>  C       -2.5619234331     0.0138114261     0.0095798272
|  9>  C       -1.2179099815    -2.1268876540    -0.1892439621
| 10>  C       -0.5018077299    -2.7015661561    -1.4206524627
| 11>  O        0.9054960839    -2.7548490616    -1.3033448531
| 12>  C        1.5568007234    -1.5007334058    -1.3112695327
| 13>  C        1.3103035082    -0.6519711819    -0.0549754322
| 14>  H        0.6509240186     1.9867042874    -0.6948794448
| 15>  H       -0.8627238042     2.0843753643     0.2105445389
| 16>  H        0.6673230700     1.8132719616     1.0516094959
| 17>  H       -3.1369255706    -0.2223316108    -0.8959240013
| 18>  H       -3.1325612296    -0.4042166079     0.8497817854
| 19>  H       -2.5532417759     1.0980326843     0.1221830335
| 20>  H       -0.7806740966    -2.6033192763     0.6994738880
| 21>  H       -2.2611463493    -2.4604788578    -0.2311073792
| 22>  H       -0.8127551632    -3.7415540596    -1.5670760355
| 23>  H       -0.7918075283    -2.1313164275    -2.3192406050
| 24>  H        2.6238472664    -1.7369065547    -1.3843254694
| 25>  H        1.2745140865    -0.9260929574    -2.2095201136
| 26>  H        2.1135706856     0.0916571335     0.0012420280
| 27>  H        1.4400050077    -1.3077402239     0.8174498241
| 28> *
| 29>
| 30>                          ****END OF INPUT****

CARTESIAN COORDINATES (ANGSTROEM)
---------------------------------
  C      0.092275    1.562249    0.150155
  C     -0.031504    0.065441    0.006102
  C     -1.189759   -0.610258   -0.055317
  C     -2.561923    0.013811    0.009580
  C     -1.217910   -2.126888   -0.189244
  C     -0.501808   -2.701566   -1.420652
  O      0.905496   -2.754849   -1.303345
  C      1.556801   -1.500733   -1.311270
  C      1.310304   -0.651971   -0.054975
  H      0.650924    1.986704   -0.694879
  H     -0.862724    2.084375    0.210545
  H      0.667323    1.813272    1.051609
  H     -3.136926   -0.222332   -0.895924
  H     -3.132561   -0.404217    0.849782
  H     -2.553242    1.098033    0.122183
  H     -0.780674   -2.603319    0.699474
  H     -2.261146   -2.460479   -0.231107
  H     -0.812755   -3.741554   -1.567076
  H     -0.791808   -2.131316   -2.319241
  H      2.623847   -1.736907   -1.384325
  H      1.274514   -0.926093   -2.209520
  H      2.113571    0.091657    0.001242
  H      1.440005   -1.307740    0.817450

 Total Charge           Charge          ....    0
 Multiplicity           Mult            ....    1
 Number of Electrons    NEL             ....   70
 Basis Dimension        Dim             ....  363

ORBITAL ENERGIES
----------------

  NO   OCC          E(Eh)            E(eV)
   0   2.0000     -20.545514      -559.0719
   1   2.0000     -11.269269      -306.6524
   2   2.0000     -11.269248      -306.6518
   3   2.0000     -11.225705      -305.4670
   4   2.0000     -11.224080      -305.4228
   5   2.0000     -11.220549      -305.3267
   6   2.0000     -11.220543      -305.3265
   7   2.0000     -11.218281      -305.2649
   8   2.0000     -11.218279      -305.2649
   9   2.0000      -1.367729       -37.2178
  10   2.0000      -1.111281       -30.2395
  11   2.0000      -1.047058       -28.4919
  12   2.0000      -0.974698       -26.5229
  13   2.0000      -0.972400       -26.4604
  14   2.0000      -0.879418       -23.9302
  15   2.0000      -0.866860       -23.5885
  16   2.0000      -0.796294       -21.6683
  17   2.0000      -0.674069       -18.3423
  18   2.0000      -0.666475       -18.1357
  19   2.0000      -0.659545       -17.9471
  20   2.0000      -0.642728       -17.4895
  21   2.0000      -0.597086       -16.2475
  22   2.0000      -0.583289       -15.8721
  23   2.0000      -0.569312       -15.4918
  24   2.0000      -0.563802       -15.3418
  25   2.0000      -0.552619       -15.0375
  26   2.0000      -0.533313       -14.5122
  27   2.0000      -0.533134       -14.5073
  28   2.0000      -0.501232       -13.6392
  29   2.0000      -0.499515       -13.5925
  30   2.0000      -0.496209       -13.5025
  31   2.0000      -0.456413       -12.4196
  32   2.0000      -0.442039       -12.0285
  33   2.0000      -0.415114       -11.2958
  34   2.0000      -0.321436        -8.7467
  35   0.0000       0.135139         3.6773
  36   0.0000       0.149085         4.0568
  37   0.0000       0.167419         4.5557
  38   0.0000       0.168190         4.5767
  39   0.0000       0.171461         4.6657

MULLIKEN ATOMIC CHARGES
-----------------------
   0 C :   -0.418113
   1 C :    0.005796
   2 C :    0.005726
   3 C :   -0.418122
   4 C :   -0.221492
   5 C :   -0.063333
   6 O :   -0.306710
   7 C :   -0.063337
   8 C :   -0.221508
   9 H :    0.136708
  10 H :    0.118106
  11 H :    0.141617
  12 H :    0.136720
  13 H :    0.141611
  14 H :    0.118110
  15 H :    0.116607
  16 H :    0.125111
  17 H :    0.120605
  18 H :    0.091787
  19 H :    0.120607
  20 H :    0.091782
  21 H :    0.125118
  22 H :    0.116602
Sum of atomic charges:    0.0000000

LOEWDIN ATOMIC CHARGES
----------------------
   0 C :   -0.276865
   1 C :   -0.180137
   2 C :   -0.180131
   3 C :   -0.276866
   4 C :   -0.229304
   5 C :   -0.318918
   6 O :    0.152559
   7 C :   -0.318933
   8 C :   -0.229303
   9 H :    0.129569
  10 H :    0.121136
  11 H :    0.130765
  12 H :    0.129568
  13 H :    0.130767
  14 H :    0.121137
  15 H :    0.149607
  16 H :    0.147852
  17 H :    0.129020
  18 H :    0.120998
  19 H :    0.129022
  20 H :    0.120996
  21 H :    0.147853
  22 H :    0.149607

  Mayer bond orders larger than 0.1
B(  0-C ,  1-C ) :   0.8841 B(  0-C ,  9-H ) :   0.9322 B(  0-C , 10-H ) :   0.9503
B(  0-C , 11-H ) :   0.9332 B(  1-C ,  2-C ) :   1.7252 B(  1-C ,  8-C ) :   0.9258
B(  2-C ,  3-C ) :   0.8841 B(  2-C ,  4-C ) :   0.9258 B(  3-C , 12-H ) :   0.9322
B(  3-C , 13-H ) :   0.9332 B(  3-C , 14-H ) :   0.9503 B(  4-C ,  5-C ) :   0.9188
B(  4-C , 15-H ) :   0.9062 B(  4-C , 16-H ) :   0.9292 B(  5-C ,  6-O ) :   0.9446
B(  5-C , 17-H ) :   0.9310 B(  5-C , 18-H ) :   0.9381 B(  6-O ,  7-C ) :   0.9446
B(  7-C ,  8-C ) :   0.9188 B(  7-C , 19-H ) :   0.9310 B(  7-C , 20-H ) :   0.9381
B(  8-C , 21-H ) :   0.9292 B(  8-C , 22-H ) :   0.9062

MP2 TOTAL ENERGY:     -387.618718546 Eh
FINAL SINGLE POINT ENERGY      -387.618718545549

DIPOLE MOMENT
-------------
                                X             Y             Z
Electronic contribution:      2.67513      -4.48994      -1.05246
Nuclear contribution   :     -2.94658       4.94947       1.11589
                        -----------------------------------------
Total Dipole Moment    :     -0.27145       0.45953       0.06343
                        -----------------------------------------
Magnitude (a.u.)       :      0.53747
Magnitude (Debye)      :      1.36614

                             ****ORCA TERMINATED NORMALLY****
TOTAL RUN TIME: 0 days 0 hours 19 minutes 36 seconds 180 msec
