                         Program Version 3.0.3 - RELEASE   -
|  1> ! RI-MP2 RIJK def2-TZVP def2-TZVP/C def2-TZVP/JK TIGHTSCF
|  2> % maxcore 2000
|  3> % mp2 density relaxed end
|  4> *xyz 0 1
|  5>  C        0.1002141332     1.6308545202     0.1146576729
|  6>  C        0.0694165006     0.1762332988     0.0815679812
|  7>  C        0.0292988220    -1.0281392573     0.0631959442
|  8>  C        0.0168909159    -2.4744990641     0.0072380248
|  9>  C        0.1089729695    -3.2520338964     1.3693744863
| 10>  O       -1.0742622776    -3.9975530067     1.0707767070
| 11>  C       -1.3377022826    -3.2207017141    -0.1151764354
| 12>  C        1.0803318277    -2.9680463336    -0.9729703518
| 13>  O        0.8995877965    -3.8155734942    -1.8048362172
| 14>  H        1.1196012575     2.0012289789     0.2678204323
| 15>  H       -0.2706764713     2.0563312245    -0.8240691220
| 16>  H       -0.5216454592     2.0219195523     0.9271483999
| 17>  H        0.9897998575    -3.8927618109     1.5005413769
| 18>  H       -0.0056020870    -2.5986308830     2.2423480254
| 19>  H       -2.2139296136    -2.5738558963    -0.0024593361
| 20>  H       -1.4259541632    -3.8449651251    -1.0083205883
| 21>  H        2.0678241641    -2.4754786229    -0.8408496699
| 22> *
| 23>
| 24>                          ****END OF INPUT****

CARTESIAN COORDINATES (ANGSTROEM)
---------------------------------
  C      0.100214    1.630855    0.114658
  C      0.069417    0.176233    0.081568
  C      0.029299   -1.028139    0.063196
  C      0.016891   -2.474499    0.007238
  C      0.108973   -3.252034    1.369374
  O     -1.074262   -3.997553    1.070777
  C     -1.337702   -3.220702   -0.115176
  C      1.080332   -2.968046   -0.972970
  O      0.899588   -3.815573   -1.804836
  H      1.119601    2.001229    0.267820
  H     -0.270676    2.056331   -0.824069
  H     -0.521645    2.021920    0.927148
  H      0.989800   -3.892762    1.500541
  H     -0.005602   -2.598631    2.242348
  H     -2.213930   -2.573856   -0.002459
  H     -1.425954   -3.844965   -1.008321
  H      2.067824   -2.475479   -0.840850

 Total Charge           Charge          ....    0
 Multiplicity           Mult            ....    1
 Number of Electrons    NEL             ....   66
 Basis Dimension        Dim             ....  327

ORBITAL ENERGIES
----------------

  NO   OCC          E(Eh)            E(eV)
   0   2.0000     -20.570067      -559.7400
   1   2.0000     -20.562287      -559.5283
   2   2.0000     -11.345410      -308.7243
   3   2.0000     -11.303970      -307.5967
   4   2.0000     -11.291483      -307.2569
   5   2.0000     -11.283236      -307.0325
   6   2.0000     -11.261052      -306.4288
   7   2.0000     -11.248531      -306.0881
   8   2.0000     -11.237844      -305.7973
   9   2.0000      -1.412941       -38.4481
  10   2.0000      -1.393818       -37.9277
  11   2.0000      -1.108216       -30.1561
  12   2.0000      -1.051827       -28.6217
  13   2.0000      -0.960312       -26.1314
  14   2.0000      -0.952090       -25.9077
  15   2.0000      -0.872540       -23.7430
  16   2.0000      -0.783819       -21.3288
  17   2.0000      -0.733760       -19.9666
  18   2.0000      -0.698394       -19.0043
  19   2.0000      -0.667077       -18.1521
  20   2.0000      -0.648085       -17.6353
  21   2.0000      -0.621838       -16.9211
  22   2.0000      -0.615050       -16.7364
  23   2.0000      -0.601032       -16.3549
  24   2.0000      -0.600340       -16.3361
  25   2.0000      -0.581265       -15.8170
  26   2.0000      -0.545815       -14.8524
  27   2.0000      -0.506394       -13.7797
  28   2.0000      -0.493049       -13.4165
  29   2.0000      -0.450587       -12.2611
  30   2.0000      -0.427917       -11.6442
  31   2.0000      -0.385560       -10.4916
  32   2.0000      -0.381197       -10.3729
  33   0.0000       0.116669         3.1747
  34   0.0000       0.124213         3.3800
  35   0.0000       0.154584         4.2064
  36   0.0000       0.161934         4.4064
  37   0.0000       0.169108         4.6017

MULLIKEN ATOMIC CHARGES
-----------------------
   0 C :   -0.486676
   1 C :    0.077425
   2 C :   -0.104073
   3 C :    0.051353
   4 C :   -0.035098
   5 O :   -0.321253
   6 C :   -0.050930
   7 C :    0.071218
   8 O :   -0.254911
   9 H :    0.166270
  10 H :    0.168236
  11 H :    0.167967
  12 H :    0.107304
  13 H :    0.109412
  14 H :    0.108218
  15 H :    0.129230
  16 H :    0.096309
Sum of atomic charges:    0.0000000

LOEWDIN ATOMIC CHARGES
----------------------
   0 C :   -0.290245
   1 C :   -0.081984
   2 C :   -0.055977
   3 C :   -0.252478
   4 C :   -0.210949
   5 O :    0.126128
   6 C :   -0.204762
   7 C :   -0.238330
   8 O :    0.153967
   9 H :    0.143245
  10 H :    0.143632
  11 H :    0.143498
  12 H :    0.123025
  13 H :    0.125312
  14 H :    0.124601
  15 H :    0.128389
  16 H :    0.122929

  Mayer bond orders larger than 0.1
B(  0-C ,  1-C ) :   0.8350 B(  0-C ,  9-H ) :   0.9463 B(  0-C , 10-H ) :   0.9467
B(  0-C , 11-H ) :   0.9486 B(  1-C ,  2-C ) :   2.6371 B(  1-C ,  3-C ) :  -0.1154
B(  2-C ,  3-C ) :   1.0976 B(  3-C ,  4-C ) :   0.9137 B(  3-C ,  6-C ) :   0.9158
B(  3-C ,  7-C ) :   0.8594 B(  4-C ,  5-O ) :   0.9768 B(  4-C , 12-H ) :   0.8990
B(  4-C , 13-H ) :   0.9049 B(  5-O ,  6-C ) :   0.9542 B(  6-C , 14-H ) :   0.9119
B(  6-C , 15-H ) :   0.8961 B(  7-C ,  8-O ) :   1.9936 B(  7-C , 16-H ) :   0.9311

MP2 TOTAL ENERGY:     -421.061662903 Eh
FINAL SINGLE POINT ENERGY      -421.061662902839

DIPOLE MOMENT
-------------
                                X             Y             Z
Electronic contribution:      0.40661      -6.03069      -1.88006
Nuclear contribution   :     -0.11064       7.42923       2.28646
                        -----------------------------------------
Total Dipole Moment    :      0.29597       1.39853       0.40639
                        -----------------------------------------
Magnitude (a.u.)       :      1.48615
Magnitude (Debye)      :      3.77750

                             ****ORCA TERMINATED NORMALLY****
TOTAL RUN TIME: 0 days 0 hours 14 minutes 39 seconds 755 msec
