                         Program Version 3.0.3 - RELEASE   -
|  1> ! RI-MP2 RIJK def2-TZVP def2-TZVP/C def2-TZVP/JK TIGHTSCF
|  2> % maxcore 2000
|  3> % mp2 density relaxed end
|  4> *xyz 0 1
|  5>  C       -0.0330308906     1.5132382817    -0.0316882376
|  6>  C       -0.0464981985     0.0158523789     0.0631521893
|  7>  C       -1.2569708962    -0.8016993914    -0.3603769058
|  8>  O       -1.0406359092    -2.1160315160     0.1329109250
|  9>  C       -0.2082126510    -2.0661973717     1.2793754143
| 10>  C        0.6165371787    -0.8000809306     1.1057920184
| 11>  O        1.1790152614    -0.6803129780    -0.2058135802
| 12>  C        1.3653911769    -0.2512432493     2.2055096985
| 13>  N        1.9512536403     0.1740403798     3.1067833057
| 14>  H        0.8708397149     1.9201460461     0.4261400223
| 15>  H       -0.0587988589     1.8250242398    -1.0807956077
| 16>  H       -0.9063259554     1.9397813412     0.4710445643
| 17>  H       -2.1676609290    -0.3486067575     0.0630291663
| 18>  H       -1.3686735742    -0.8662459669    -1.4472481446
| 19>  H       -0.7845815172    -2.0008447409     2.2155085529
| 20>  H        0.3999732080    -2.9749011751     1.2979406789
| 21> *
| 22>
| 23>                          ****END OF INPUT****

CARTESIAN COORDINATES (ANGSTROEM)
---------------------------------
  C     -0.033031    1.513238   -0.031688
  C     -0.046498    0.015852    0.063152
  C     -1.256971   -0.801699   -0.360377
  O     -1.040636   -2.116032    0.132911
  C     -0.208213   -2.066197    1.279375
  C      0.616537   -0.800081    1.105792
  O      1.179015   -0.680313   -0.205814
  C      1.365391   -0.251243    2.205510
  N      1.951254    0.174040    3.106783
  H      0.870840    1.920146    0.426140
  H     -0.058799    1.825024   -1.080796
  H     -0.906326    1.939781    0.471045
  H     -2.167661   -0.348607    0.063029
  H     -1.368674   -0.866246   -1.447248
  H     -0.784582   -2.000845    2.215509
  H      0.399973   -2.974901    1.297941

 Total Charge           Charge          ....    0
 Multiplicity           Mult            ....    1
 Number of Electrons    NEL             ....   66
 Basis Dimension        Dim             ....  321

ORBITAL ENERGIES
----------------

  NO   OCC          E(Eh)            E(eV)
   0   2.0000     -20.605714      -560.7100
   1   2.0000     -20.583368      -560.1019
   2   2.0000     -15.593696      -424.3260
   3   2.0000     -11.347719      -308.7871
   4   2.0000     -11.332370      -308.3695
   5   2.0000     -11.312978      -307.8418
   6   2.0000     -11.306894      -307.6762
   7   2.0000     -11.292645      -307.2885
   8   2.0000     -11.253619      -306.2265
   9   2.0000      -1.467699       -39.9381
  10   2.0000      -1.394774       -37.9537
  11   2.0000      -1.236576       -33.6489
  12   2.0000      -1.067773       -29.0556
  13   2.0000      -1.049855       -28.5680
  14   2.0000      -0.972140       -26.4533
  15   2.0000      -0.898960       -24.4619
  16   2.0000      -0.834128       -22.6978
  17   2.0000      -0.747171       -20.3315
  18   2.0000      -0.701133       -19.0788
  19   2.0000      -0.679243       -18.4831
  20   2.0000      -0.671322       -18.2676
  21   2.0000      -0.610542       -16.6137
  22   2.0000      -0.598723       -16.2921
  23   2.0000      -0.595681       -16.2093
  24   2.0000      -0.582542       -15.8518
  25   2.0000      -0.567458       -15.4413
  26   2.0000      -0.559428       -15.2228
  27   2.0000      -0.538216       -14.6456
  28   2.0000      -0.521057       -14.1787
  29   2.0000      -0.488218       -13.2851
  30   2.0000      -0.480122       -13.0648
  31   2.0000      -0.449342       -12.2272
  32   2.0000      -0.425604       -11.5813
  33   0.0000       0.121390         3.3032
  34   0.0000       0.141218         3.8427
  35   0.0000       0.147052         4.0015
  36   0.0000       0.162172         4.4129
  37   0.0000       0.171942         4.6788

MULLIKEN ATOMIC CHARGES
-----------------------
   0 C :   -0.399673
   1 C :    0.117367
   2 C :   -0.005643
   3 O :   -0.312523
   4 C :   -0.020553
   5 C :    0.248164
   6 O :   -0.303684
   7 C :   -0.226699
   8 N :   -0.037145
   9 H :    0.164968
  10 H :    0.151942
  11 H :    0.143519
  12 H :    0.101513
  13 H :    0.129111
  14 H :    0.113915
  15 H :    0.135420
Sum of atomic charges:   -0.0000000

LOEWDIN ATOMIC CHARGES
----------------------
   0 C :   -0.253246
   1 C :   -0.289725
   2 C :   -0.254594
   3 O :    0.169514
   4 C :   -0.244720
   5 C :   -0.287028
   6 O :    0.242314
   7 C :   -0.139620
   8 N :    0.089945
   9 H :    0.142930
  10 H :    0.138456
  11 H :    0.138402
  12 H :    0.132046
  13 H :    0.138705
  14 H :    0.135749
  15 H :    0.140873

  Mayer bond orders larger than 0.1
B(  0-C ,  1-C ) :   0.8981 B(  0-C ,  9-H ) :   0.9296 B(  0-C , 10-H ) :   0.9328
B(  0-C , 11-H ) :   0.9255 B(  1-C ,  2-C ) :   0.9559 B(  1-C ,  5-C ) :   0.8912
B(  1-C ,  6-O ) :   0.8635 B(  2-C ,  3-O ) :   0.9453 B(  2-C , 12-H ) :   0.9124
B(  2-C , 13-H ) :   0.9113 B(  3-O ,  4-C ) :   0.9511 B(  4-C ,  5-C ) :   0.9396
B(  4-C , 14-H ) :   0.9185 B(  4-C , 15-H ) :   0.9069 B(  5-C ,  6-O ) :   0.8889
B(  5-C ,  7-C ) :   0.8908 B(  7-C ,  8-N ) :   2.8510

MP2 TOTAL ENERGY:     -437.162234147 Eh
FINAL SINGLE POINT ENERGY      -437.162234146598

DIPOLE MOMENT
-------------
                                X             Y             Z
Electronic contribution:      4.25072      -2.92685       2.64432
Nuclear contribution   :     -5.37668       3.25889      -3.19767
                        -----------------------------------------
Total Dipole Moment    :     -1.12596       0.33203      -0.55335
                        -----------------------------------------
Magnitude (a.u.)       :      1.29778
Magnitude (Debye)      :      3.29869

                             ****ORCA TERMINATED NORMALLY****
TOTAL RUN TIME: 0 days 0 hours 16 minutes 23 seconds 112 msec
