                         Program Version 3.0.3 - RELEASE   -
|  1> ! RI-MP2 RIJK def2-TZVP def2-TZVP/C def2-TZVP/JK TIGHTSCF
|  2> % maxcore 2000
|  3> % mp2 density relaxed end
|  4> *xyz 0 1
|  5>  O       -0.0188651551     0.2460188332     0.9777513810
|  6>  C       -0.0141864800     1.1546270249     0.1921334206
|  7>  C       -1.3400617502     1.8537382319    -0.1707827143
|  8>  O       -1.5763377553     2.3218913548    -1.4787013026
|  9>  C       -0.5957714450     3.1405383661    -2.0893189320
| 10>  C        0.6109933060     2.3038415867    -2.5969537278
| 11>  C        1.3226588029     2.6322418124    -1.2623486391
| 12>  C        0.3798548128     3.8522145619    -1.1110182346
| 13>  O        1.1747382416     1.6105105699    -0.2699343181
| 14>  H       -2.1146897895     1.1131454331     0.0294246148
| 15>  H       -1.4639443315     2.6598341825     0.5701697403
| 16>  H       -1.1298117693     3.7567515570    -2.8152138608
| 17>  H        0.4191830157     1.2507116180    -2.8116937909
| 18>  H        1.1160155801     2.7700141619    -3.4471125082
| 19>  H        2.3960111936     2.8192802013    -1.2820453131
| 20>  H        0.8221355856     4.7312912460    -1.5862703144
| 21>  H        0.0406316176     4.1318524884    -0.1126437108
| 22> *
| 23>
| 24>                          ****END OF INPUT****

CARTESIAN COORDINATES (ANGSTROEM)
---------------------------------
  O     -0.018865    0.246019    0.977751
  C     -0.014186    1.154627    0.192133
  C     -1.340062    1.853738   -0.170783
  O     -1.576338    2.321891   -1.478701
  C     -0.595771    3.140538   -2.089319
  C      0.610993    2.303842   -2.596954
  C      1.322659    2.632242   -1.262349
  C      0.379855    3.852215   -1.111018
  O      1.174738    1.610511   -0.269934
  H     -2.114690    1.113145    0.029425
  H     -1.463944    2.659834    0.570170
  H     -1.129812    3.756752   -2.815214
  H      0.419183    1.250712   -2.811694
  H      1.116016    2.770014   -3.447113
  H      2.396011    2.819280   -1.282045
  H      0.822136    4.731291   -1.586270
  H      0.040632    4.131852   -0.112644

 Total Charge           Charge          ....    0
 Multiplicity           Mult            ....    1
 Number of Electrons    NEL             ....   68
 Basis Dimension        Dim             ....  327

ORBITAL ENERGIES
----------------

  NO   OCC          E(Eh)            E(eV)
   0   2.0000     -20.603932      -560.6615
   1   2.0000     -20.581136      -560.0412
   2   2.0000     -20.541098      -558.9517
   3   2.0000     -11.384761      -309.7951
   4   2.0000     -11.314561      -307.8848
   5   2.0000     -11.307932      -307.7045
   6   2.0000     -11.305953      -307.6506
   7   2.0000     -11.251189      -306.1604
   8   2.0000     -11.242585      -305.9263
   9   2.0000      -1.460936       -39.7541
  10   2.0000      -1.400876       -38.1198
  11   2.0000      -1.365155       -37.1478
  12   2.0000      -1.146290       -31.1921
  13   2.0000      -1.001725       -27.2583
  14   2.0000      -0.939503       -25.5652
  15   2.0000      -0.934329       -25.4244
  16   2.0000      -0.808638       -22.0042
  17   2.0000      -0.759874       -20.6772
  18   2.0000      -0.721828       -19.6419
  19   2.0000      -0.705146       -19.1880
  20   2.0000      -0.687557       -18.7094
  21   2.0000      -0.649731       -17.6801
  22   2.0000      -0.639490       -17.4014
  23   2.0000      -0.620987       -16.8979
  24   2.0000      -0.612135       -16.6570
  25   2.0000      -0.576628       -15.6908
  26   2.0000      -0.565114       -15.3775
  27   2.0000      -0.534193       -14.5361
  28   2.0000      -0.521781       -14.1984
  29   2.0000      -0.501899       -13.6574
  30   2.0000      -0.458683       -12.4814
  31   2.0000      -0.454998       -12.3811
  32   2.0000      -0.440660       -11.9910
  33   2.0000      -0.418817       -11.3966
  34   0.0000       0.124099         3.3769
  35   0.0000       0.137684         3.7466
  36   0.0000       0.160604         4.3702
  37   0.0000       0.167272         4.5517
  38   0.0000       0.169761         4.6194

MULLIKEN ATOMIC CHARGES
-----------------------
   0 O :   -0.283001
   1 C :    0.226235
   2 C :   -0.104187
   3 O :   -0.308897
   4 C :    0.109880
   5 C :   -0.283185
   6 C :    0.099949
   7 C :   -0.328132
   8 O :   -0.221491
   9 H :    0.164285
  10 H :    0.123295
  11 H :    0.121728
  12 H :    0.139032
  13 H :    0.127948
  14 H :    0.133885
  15 H :    0.138086
  16 H :    0.144568
Sum of atomic charges:   -0.0000000

LOEWDIN ATOMIC CHARGES
----------------------
   0 O :    0.141524
   1 C :   -0.475787
   2 C :   -0.294741
   3 O :    0.185777
   4 C :   -0.290845
   5 C :   -0.201098
   6 C :   -0.266854
   7 C :   -0.207729
   8 O :    0.281201
   9 H :    0.151476
  10 H :    0.137842
  11 H :    0.133527
  12 H :    0.139041
  13 H :    0.143496
  14 H :    0.138166
  15 H :    0.149864
  16 H :    0.135141

  Mayer bond orders larger than 0.1
B(  0-O ,  1-C ) :   2.0052 B(  1-C ,  2-C ) :   0.8997 B(  1-C ,  8-O ) :   1.1227
B(  2-C ,  3-O ) :   0.9330 B(  2-C ,  9-H ) :   0.9169 B(  2-C , 10-H ) :   0.9113
B(  3-O ,  4-C ) :   0.9203 B(  4-C ,  5-C ) :   0.9050 B(  4-C ,  7-C ) :   0.8884
B(  4-C , 11-H ) :   0.9367 B(  5-C ,  6-C ) :   0.9193 B(  5-C , 12-H ) :   0.9135
B(  5-C , 13-H ) :   0.9124 B(  6-C ,  7-C ) :   0.8944 B(  6-C ,  8-O ) :   0.8303
B(  6-C , 14-H ) :   0.9378 B(  7-C , 15-H ) :   0.9090 B(  7-C , 16-H ) :   0.9223

MP2 TOTAL ENERGY:     -458.228017309 Eh
FINAL SINGLE POINT ENERGY      -458.228017309080

DIPOLE MOMENT
-------------
                                X             Y             Z
Electronic contribution:     -0.07578      -4.52525       3.44177
Nuclear contribution   :      0.20807       5.96766      -4.37017
                        -----------------------------------------
Total Dipole Moment    :      0.13230       1.44241      -0.92840
                        -----------------------------------------
Magnitude (a.u.)       :      1.72046
Magnitude (Debye)      :      4.37307

                             ****ORCA TERMINATED NORMALLY****
TOTAL RUN TIME: 0 days 0 hours 17 minutes 6 seconds 895 msec
