                         Program Version 3.0.3 - RELEASE   -
|  1> ! RI-MP2 RIJK def2-TZVP def2-TZVP/C def2-TZVP/JK TIGHTSCF
|  2> % maxcore 2000
|  3> % mp2 density relaxed end
|  4> *xyz 0 1
|  5>  N       -0.0049922389     1.4395487341     0.1494059440
|  6>  C        0.0277469139     0.0426208325     0.0324817706
|  7>  C       -1.0376089097    -0.8256424282     0.0089473252
|  8>  O       -0.6145553209    -2.1435345716    -0.0203190555
|  9>  C        0.7269197755    -2.0746219638    -0.0264428670
| 10>  C        1.1876301872    -0.7907348807     0.0063672947
| 11>  C        2.6880710924    -0.8379293673     0.0162613906
| 12>  C        2.9558593913    -2.3395416907    -0.0235360332
| 13>  C        1.8021705727    -3.0434571589    -0.0459532767
| 14>  H        0.7206435785     1.8908532446    -0.3927396441
| 15>  H       -0.9016933686     1.8355371884    -0.1018132766
| 16>  H       -2.1042553069    -0.6783307206     0.0196681405
| 17>  H        3.1519992013    -0.3341469126    -0.8429334061
| 18>  H        3.1296368858    -0.3824016078     0.9128255415
| 19>  H        3.9547592787    -2.7545365265    -0.0329687063
| 20>  H        1.6947138178    -4.1189145710    -0.0732460017
| 21> *
| 22>
| 23>                          ****END OF INPUT****

CARTESIAN COORDINATES (ANGSTROEM)
---------------------------------
  N     -0.004992    1.439549    0.149406
  C      0.027747    0.042621    0.032482
  C     -1.037609   -0.825642    0.008947
  O     -0.614555   -2.143535   -0.020319
  C      0.726920   -2.074622   -0.026443
  C      1.187630   -0.790735    0.006367
  C      2.688071   -0.837929    0.016261
  C      2.955859   -2.339542   -0.023536
  C      1.802171   -3.043457   -0.045953
  H      0.720644    1.890853   -0.392740
  H     -0.901693    1.835537   -0.101813
  H     -2.104255   -0.678331    0.019668
  H      3.151999   -0.334147   -0.842933
  H      3.129637   -0.382402    0.912826
  H      3.954759   -2.754537   -0.032969
  H      1.694714   -4.118915   -0.073246

 Total Charge           Charge          ....    0
 Multiplicity           Mult            ....    1
 Number of Electrons    NEL             ....   64
 Basis Dimension        Dim             ....  321

ORBITAL ENERGIES
----------------

  NO   OCC          E(Eh)            E(eV)
   0   2.0000     -20.610067      -560.8284
   1   2.0000     -15.564550      -423.5329
   2   2.0000     -11.277848      -306.8859
   3   2.0000     -11.270459      -306.6848
   4   2.0000     -11.260337      -306.4093
   5   2.0000     -11.244345      -305.9742
   6   2.0000     -11.241946      -305.9089
   7   2.0000     -11.240284      -305.8637
   8   2.0000     -11.212042      -305.0952
   9   2.0000      -1.443867       -39.2896
  10   2.0000      -1.212314       -32.9887
  11   2.0000      -1.152094       -31.3501
  12   2.0000      -1.033863       -28.1328
  13   2.0000      -0.960961       -26.1491
  14   2.0000      -0.947067       -25.7710
  15   2.0000      -0.799704       -21.7611
  16   2.0000      -0.770834       -20.9754
  17   2.0000      -0.752017       -20.4634
  18   2.0000      -0.696320       -18.9478
  19   2.0000      -0.657636       -17.8952
  20   2.0000      -0.638803       -17.3827
  21   2.0000      -0.627157       -17.0658
  22   2.0000      -0.595753       -16.2113
  23   2.0000      -0.585213       -15.9245
  24   2.0000      -0.577722       -15.7206
  25   2.0000      -0.537429       -14.6242
  26   2.0000      -0.507421       -13.8076
  27   2.0000      -0.496093       -13.4994
  28   2.0000      -0.493527       -13.4295
  29   2.0000      -0.405601       -11.0370
  30   2.0000      -0.339958        -9.2507
  31   2.0000      -0.269432        -7.3316
  32   0.0000       0.111353         3.0301
  33   0.0000       0.125981         3.4281
  34   0.0000       0.156093         4.2475
  35   0.0000       0.174620         4.7516
  36   0.0000       0.185250         5.0409

MULLIKEN ATOMIC CHARGES
-----------------------
   0 N :   -0.523667
   1 C :    0.048671
   2 C :   -0.074685
   3 O :   -0.230759
   4 C :    0.192584
   5 C :   -0.039475
   6 C :   -0.151502
   7 C :   -0.156442
   8 C :   -0.236097
   9 H :    0.248912
  10 H :    0.240871
  11 H :    0.135073
  12 H :    0.131799
  13 H :    0.142317
  14 H :    0.134517
  15 H :    0.137883
Sum of atomic charges:   -0.0000000

LOEWDIN ATOMIC CHARGES
----------------------
   0 N :   -0.091202
   1 C :   -0.265100
   2 C :   -0.232191
   3 O :    0.345795
   4 C :   -0.236804
   5 C :   -0.117185
   6 C :   -0.197151
   7 C :   -0.143093
   8 C :   -0.118700
   9 H :    0.167950
  10 H :    0.166945
  11 H :    0.128256
  12 H :    0.155138
  13 H :    0.158715
  14 H :    0.134620
  15 H :    0.144006

  Mayer bond orders larger than 0.1
B(  0-N ,  1-C ) :   0.9650 B(  0-N ,  9-H ) :   0.8781 B(  0-N , 10-H ) :   0.8853
B(  1-C ,  2-C ) :   1.4844 B(  1-C ,  5-C ) :   1.1849 B(  2-C ,  3-O ) :   0.9798
B(  2-C , 11-H ) :   0.9530 B(  3-O ,  4-C ) :   1.1023 B(  4-C ,  5-C ) :   1.4179
B(  4-C ,  8-C ) :   1.0768 B(  5-C ,  6-C ) :   0.9627 B(  6-C ,  7-C ) :   0.9724
B(  6-C , 12-H ) :   0.8825 B(  6-C , 13-H ) :   0.8857 B(  7-C ,  8-C ) :   1.6842
B(  7-C , 14-H ) :   0.9301 B(  8-C , 15-H ) :   0.9255

MP2 TOTAL ENERGY:     -400.069324332 Eh
FINAL SINGLE POINT ENERGY      -400.069324332062

DIPOLE MOMENT
-------------
                                X             Y             Z
Electronic contribution:     -3.34067      -2.60248       0.10305
Nuclear contribution   :      3.59572       3.17869      -0.52636
                        -----------------------------------------
Total Dipole Moment    :      0.25505       0.57620      -0.42331
                        -----------------------------------------
Magnitude (a.u.)       :      0.75911
Magnitude (Debye)      :      1.92951

                             ****ORCA TERMINATED NORMALLY****
TOTAL RUN TIME: 0 days 0 hours 17 minutes 13 seconds 506 msec
