                         Program Version 3.0.3 - RELEASE   -
|  1> ! RI-MP2 RIJK def2-TZVP def2-TZVP/C def2-TZVP/JK TIGHTSCF
|  2> % maxcore 2000
|  3> % mp2 density relaxed end
|  4> *xyz 0 1
|  5>  C        0.6437421215     0.3231406277    -1.1414128997
|  6>  O        0.1042359801     0.3259799814     0.1668241901
|  7>  C        0.6118304193    -0.6621723294     1.0856531417
|  8>  C        2.0775592470    -0.3291208798     1.3980939024
|  9>  O        2.2125741463     0.9905748153     1.8860982103
| 10>  C       -0.2769099887    -0.5598672409     2.3601827025
| 11>  C       -0.9723725322    -1.9271363973     2.5190596062
| 12>  C       -0.0185418120    -2.9095065754     1.8225605517
| 13>  C        0.4420900729    -2.1197092495     0.5868942062
| 14>  H        0.5488551756    -0.6557483322    -1.6291122600
| 15>  H        0.0668144959     1.0531885532    -1.7150270437
| 16>  H        1.7008324714     0.6215579864    -1.1661954135
| 17>  H        2.4521718938    -1.0082565875     2.1719898007
| 18>  H        2.6996111978    -0.4888910038     0.5021985121
| 19>  H        1.5931261748     1.5220962188     1.3700154929
| 20>  H        0.3492705790    -0.3297307086     3.2264319950
| 21>  H       -0.9842409178     0.2639386917     2.2475493270
| 22>  H       -1.1719684472    -2.1834901964     3.5630921898
| 23>  H       -1.9362400809    -1.9235921344     1.9965923469
| 24>  H        0.8373303800    -3.1323771809     2.4719516322
| 25>  H       -0.4854129125    -3.8644254535     1.5646926324
| 26>  H       -0.3515829919    -2.1356997231    -0.1688728426
| 27>  H        1.3475990778    -2.5249127717     0.1243058493
| 28> *
| 29>
| 30>                          ****END OF INPUT****

CARTESIAN COORDINATES (ANGSTROEM)
---------------------------------
  C      0.643742    0.323141   -1.141413
  O      0.104236    0.325980    0.166824
  C      0.611830   -0.662172    1.085653
  C      2.077559   -0.329121    1.398094
  O      2.212574    0.990575    1.886098
  C     -0.276910   -0.559867    2.360183
  C     -0.972373   -1.927136    2.519060
  C     -0.018542   -2.909507    1.822561
  C      0.442090   -2.119709    0.586894
  H      0.548855   -0.655748   -1.629112
  H      0.066814    1.053189   -1.715027
  H      1.700832    0.621558   -1.166195
  H      2.452172   -1.008257    2.171990
  H      2.699611   -0.488891    0.502199
  H      1.593126    1.522096    1.370015
  H      0.349271   -0.329731    3.226432
  H     -0.984241    0.263939    2.247549
  H     -1.171968   -2.183490    3.563092
  H     -1.936240   -1.923592    1.996592
  H      0.837330   -3.132377    2.471952
  H     -0.485413   -3.864425    1.564693
  H     -0.351583   -2.135700   -0.168873
  H      1.347599   -2.524913    0.124306

 Total Charge           Charge          ....    0
 Multiplicity           Mult            ....    1
 Number of Electrons    NEL             ....   72
 Basis Dimension        Dim             ....  363

ORBITAL ENERGIES
----------------

  NO   OCC          E(Eh)            E(eV)
   0   2.0000     -20.559046      -559.4401
   1   2.0000     -20.547561      -559.1276
   2   2.0000     -11.284989      -307.0802
   3   2.0000     -11.274123      -306.7845
   4   2.0000     -11.270111      -306.6753
   5   2.0000     -11.224546      -305.4354
   6   2.0000     -11.223157      -305.3976
   7   2.0000     -11.218244      -305.2640
   8   2.0000     -11.212685      -305.1127
   9   2.0000      -1.381427       -37.5906
  10   2.0000      -1.347638       -36.6711
  11   2.0000      -1.121332       -30.5130
  12   2.0000      -0.997082       -27.1320
  13   2.0000      -0.971523       -26.4365
  14   2.0000      -0.925714       -25.1900
  15   2.0000      -0.880420       -23.9574
  16   2.0000      -0.791238       -21.5307
  17   2.0000      -0.757910       -20.6238
  18   2.0000      -0.692880       -18.8542
  19   2.0000      -0.676917       -18.4199
  20   2.0000      -0.644512       -17.5381
  21   2.0000      -0.637094       -17.3362
  22   2.0000      -0.619735       -16.8638
  23   2.0000      -0.607984       -16.5441
  24   2.0000      -0.588460       -16.0128
  25   2.0000      -0.569541       -15.4980
  26   2.0000      -0.555149       -15.1064
  27   2.0000      -0.518504       -14.1092
  28   2.0000      -0.497446       -13.5362
  29   2.0000      -0.482004       -13.1160
  30   2.0000      -0.480213       -13.0673
  31   2.0000      -0.472850       -12.8669
  32   2.0000      -0.466970       -12.7069
  33   2.0000      -0.457676       -12.4540
  34   2.0000      -0.437826       -11.9139
  35   2.0000      -0.409953       -11.1554
  36   0.0000       0.131161         3.5691
  37   0.0000       0.150171         4.0864
  38   0.0000       0.161202         4.3865
  39   0.0000       0.167179         4.5492
  40   0.0000       0.188729         5.1356

MULLIKEN ATOMIC CHARGES
-----------------------
   0 C :   -0.233827
   1 O :   -0.340969
   2 C :    0.184767
   3 C :   -0.058698
   4 O :   -0.477023
   5 C :   -0.265957
   6 C :   -0.212982
   7 C :   -0.225672
   8 C :   -0.286460
   9 H :    0.119655
  10 H :    0.146720
  11 H :    0.125157
  12 H :    0.111743
  13 H :    0.103017
  14 H :    0.326417
  15 H :    0.139761
  16 H :    0.124589
  17 H :    0.122369
  18 H :    0.111725
  19 H :    0.109523
  20 H :    0.124349
  21 H :    0.122478
  22 H :    0.129317
Sum of atomic charges:   -0.0000000

LOEWDIN ATOMIC CHARGES
----------------------
   0 C :   -0.359575
   1 O :    0.153321
   2 C :   -0.344925
   3 C :   -0.322281
   4 O :   -0.040065
   5 C :   -0.209043
   6 C :   -0.256267
   7 C :   -0.257872
   8 C :   -0.223672
   9 H :    0.105102
  10 H :    0.115087
  11 H :    0.103313
  12 H :    0.132912
  13 H :    0.117948
  14 H :    0.178091
  15 H :    0.145180
  16 H :    0.141130
  17 H :    0.131948
  18 H :    0.137638
  19 H :    0.136164
  20 H :    0.132539
  21 H :    0.146726
  22 H :    0.136600

  Mayer bond orders larger than 0.1
B(  0-C ,  1-O ) :   0.8968 B(  0-C ,  9-H ) :   0.9311 B(  0-C , 10-H ) :   0.9405
B(  0-C , 11-H ) :   0.9309 B(  1-O ,  2-C ) :   0.9367 B(  2-C ,  3-C ) :   0.9695
B(  2-C ,  5-C ) :   0.8812 B(  2-C ,  8-C ) :   0.8984 B(  3-C ,  4-O ) :   0.9234
B(  3-C , 12-H ) :   0.9266 B(  3-C , 13-H ) :   0.9114 B(  4-O , 14-H ) :   0.8271
B(  5-C ,  6-C ) :   0.9288 B(  5-C , 15-H ) :   0.9296 B(  5-C , 16-H ) :   0.9255
B(  6-C ,  7-C ) :   0.9359 B(  6-C , 17-H ) :   0.9347 B(  6-C , 18-H ) :   0.9284
B(  7-C ,  8-C ) :   0.9380 B(  7-C , 19-H ) :   0.9303 B(  7-C , 20-H ) :   0.9321
B(  8-C , 21-H ) :   0.9270 B(  8-C , 22-H ) :   0.9209

MP2 TOTAL ENERGY:     -424.731656441 Eh
FINAL SINGLE POINT ENERGY      -424.731656440823

DIPOLE MOMENT
-------------
                                X             Y             Z
Electronic contribution:      0.97508       3.94451       0.99819
Nuclear contribution   :     -1.18445      -4.53550      -1.59776
                        -----------------------------------------
Total Dipole Moment    :     -0.20937      -0.59099      -0.59957
                        -----------------------------------------
Magnitude (a.u.)       :      0.86752
Magnitude (Debye)      :      2.20506

                             ****ORCA TERMINATED NORMALLY****
TOTAL RUN TIME: 0 days 0 hours 20 minutes 13 seconds 742 msec
