                         Program Version 3.0.3 - RELEASE   -
|  1> ! RI-MP2 RIJK def2-TZVP def2-TZVP/C def2-TZVP/JK TIGHTSCF
|  2> % maxcore 2000
|  3> % mp2 density relaxed end
|  4> *xyz 0 1
|  5>  C       -0.2541785797     1.4589494108    -0.2053560343
|  6>  N       -0.2047334545     0.0313917260     0.0287673027
|  7>  C       -1.3281399236    -0.6213324465     0.7291843751
|  8>  C       -0.3097529728    -1.5969347987     1.3663684224
|  9>  O       -0.1641258214    -2.8327431008     0.7152132754
| 10>  C        0.7609132569    -0.5004633913     1.0062563770
| 11>  C        2.0790644904    -0.9791535139     0.4422586692
| 12>  O        3.1005336387    -1.0454443300     1.0748402324
| 13>  H        0.6879770952     1.7968956650    -0.6488604543
| 14>  H       -1.0595649566     1.6904568959    -0.9099494601
| 15>  H       -0.4276035004     2.0401382762     0.7190244310
| 16>  H       -1.8118812658     0.0240841166     1.4805932615
| 17>  H       -2.0981830753    -1.0577701551     0.0825734661
| 18>  H       -0.4172079240    -1.8149851256     2.4282415681
| 19>  H       -0.1918121327    -2.6738697083    -0.2353695912
| 20>  H        0.9522560502     0.1580566207     1.8684344024
| 21>  H        2.0268039356    -1.2859029010    -0.6273098836
| 22> *
| 23>
| 24>                          ****END OF INPUT****

CARTESIAN COORDINATES (ANGSTROEM)
---------------------------------
  C     -0.254179    1.458949   -0.205356
  N     -0.204733    0.031392    0.028767
  C     -1.328140   -0.621332    0.729184
  C     -0.309753   -1.596935    1.366368
  O     -0.164126   -2.832743    0.715213
  C      0.760913   -0.500463    1.006256
  C      2.079064   -0.979154    0.442259
  O      3.100534   -1.045444    1.074840
  H      0.687977    1.796896   -0.648860
  H     -1.059565    1.690457   -0.909949
  H     -0.427604    2.040138    0.719024
  H     -1.811881    0.024084    1.480593
  H     -2.098183   -1.057770    0.082573
  H     -0.417208   -1.814985    2.428242
  H     -0.191812   -2.673870   -0.235370
  H      0.952256    0.158057    1.868434
  H      2.026804   -1.285903   -0.627310

 Total Charge           Charge          ....    0
 Multiplicity           Mult            ....    1
 Number of Electrons    NEL             ....   62
 Basis Dimension        Dim             ....  302

ORBITAL ENERGIES
----------------

  NO   OCC          E(Eh)            E(eV)
   0   2.0000     -20.575181      -559.8791
   1   2.0000     -20.560434      -559.4779
   2   2.0000     -15.571880      -423.7324
   3   2.0000     -11.331492      -308.3456
   4   2.0000     -11.306738      -307.6720
   5   2.0000     -11.275124      -306.8117
   6   2.0000     -11.270789      -306.6938
   7   2.0000     -11.260728      -306.4200
   8   2.0000      -1.399495       -38.0822
   9   2.0000      -1.387006       -37.7424
  10   2.0000      -1.267804       -34.4987
  11   2.0000      -1.037081       -28.2204
  12   2.0000      -0.978547       -26.6276
  13   2.0000      -0.893822       -24.3221
  14   2.0000      -0.833408       -22.6782
  15   2.0000      -0.778199       -21.1759
  16   2.0000      -0.722412       -19.6578
  17   2.0000      -0.684416       -18.6239
  18   2.0000      -0.657042       -17.8790
  19   2.0000      -0.639764       -17.4089
  20   2.0000      -0.631427       -17.1820
  21   2.0000      -0.593182       -16.1413
  22   2.0000      -0.591639       -16.0993
  23   2.0000      -0.583693       -15.8831
  24   2.0000      -0.555166       -15.1068
  25   2.0000      -0.528403       -14.3786
  26   2.0000      -0.514776       -14.0078
  27   2.0000      -0.479369       -13.0443
  28   2.0000      -0.447933       -12.1889
  29   2.0000      -0.415272       -11.3001
  30   2.0000      -0.384664       -10.4672
  31   0.0000       0.113633         3.0921
  32   0.0000       0.131269         3.5720
  33   0.0000       0.143926         3.9164
  34   0.0000       0.168554         4.5866
  35   0.0000       0.175970         4.7884

MULLIKEN ATOMIC CHARGES
-----------------------
   0 C :   -0.344705
   1 N :   -0.173528
   2 C :   -0.181018
   3 C :    0.095698
   4 O :   -0.455281
   5 C :   -0.011199
   6 C :    0.074182
   7 O :   -0.253075
   8 H :    0.142651
   9 H :    0.142512
  10 H :    0.114957
  11 H :    0.103990
  12 H :    0.124653
  13 H :    0.132057
  14 H :    0.323981
  15 H :    0.092849
  16 H :    0.071276
Sum of atomic charges:   -0.0000000

LOEWDIN ATOMIC CHARGES
----------------------
   0 C :   -0.333049
   1 N :    0.079370
   2 C :   -0.244892
   3 C :   -0.291636
   4 O :    0.001029
   5 C :   -0.246909
   6 C :   -0.278662
   7 O :    0.142935
   8 H :    0.121281
   9 H :    0.120850
  10 H :    0.104881
  11 H :    0.125360
  12 H :    0.123082
  13 H :    0.137413
  14 H :    0.182022
  15 H :    0.147000
  16 H :    0.109926

  Mayer bond orders larger than 0.1
B(  0-C ,  1-N ) :   0.9274 B(  0-C ,  8-H ) :   0.9332 B(  0-C ,  9-H ) :   0.9351
B(  0-C , 10-H ) :   0.9315 B(  1-N ,  2-C ) :   0.9204 B(  1-N ,  5-C ) :   0.9155
B(  2-C ,  3-C ) :   0.9348 B(  2-C , 11-H ) :   0.9158 B(  2-C , 12-H ) :   0.9156
B(  3-C ,  4-O ) :   0.9624 B(  3-C ,  5-C ) :   0.8880 B(  3-C , 13-H ) :   0.9299
B(  4-O , 14-H ) :   0.8332 B(  5-C ,  6-C ) :   0.8545 B(  5-C , 15-H ) :   0.8833
B(  6-C ,  7-O ) :   2.0059 B(  6-C , 16-H ) :   0.9338

MP2 TOTAL ENERGY:     -400.321478668 Eh
FINAL SINGLE POINT ENERGY      -400.321478668227

DIPOLE MOMENT
-------------
                                X             Y             Z
Electronic contribution:      4.90881      -4.70302       1.08310
Nuclear contribution   :     -6.06563       5.49005      -1.47355
                        -----------------------------------------
Total Dipole Moment    :     -1.15683       0.78703      -0.39044
                        -----------------------------------------
Magnitude (a.u.)       :      1.45262
Magnitude (Debye)      :      3.69228

                             ****ORCA TERMINATED NORMALLY****
TOTAL RUN TIME: 0 days 0 hours 11 minutes 44 seconds 474 msec
