                         Program Version 3.0.3 - RELEASE   -
|  1> ! RI-MP2 RIJK def2-TZVP def2-TZVP/C def2-TZVP/JK TIGHTSCF
|  2> % maxcore 2000
|  3> % mp2 density relaxed end
|  4> *xyz 0 1
|  5>  C       -0.0371257812     1.6589654981    -0.2249217466
|  6>  C        0.2584227980     0.2413585143     0.2051072918
|  7>  C        0.5832777690    -0.8949596821    -0.6840893248
|  8>  C        1.4198903219    -0.4900979037    -1.8954637649
|  9>  C        2.4112419491     0.1305511438    -0.8934420216
| 10>  N        1.6155117307    -0.3482151004     0.3040793723
| 11>  C        3.8046263718    -0.4982537029    -0.8657914049
| 12>  C        4.6355811451    -0.1735259561     0.3567870001
| 13>  O        4.2030837929    -1.2009876340    -1.7651776899
| 14>  H        0.4038085449     1.9210604448    -1.1888742283
| 15>  H       -1.1199786157     1.7945256371    -0.3130221249
| 16>  H        0.3264368513     2.3734334811     0.5218601119
| 17>  H       -0.3060442915    -0.0545671314     1.0884658629
| 18>  H        0.1396137561    -1.8760813228    -0.5428938459
| 19>  H        1.8758710678    -1.3343816717    -2.4133279471
| 20>  H        0.9460032378     0.1670133878    -2.6295242131
| 21>  H        2.5371934936     1.2209357019    -0.9160917113
| 22>  H        4.0737757138    -0.4390147123     1.2571914554
| 23>  H        5.5835998312    -0.7108409877     0.3189311187
| 24>  H        4.8264146335     0.9051952663     0.4049002402
| 25> *
| 26>
| 27>                          ****END OF INPUT****

CARTESIAN COORDINATES (ANGSTROEM)
---------------------------------
  C     -0.037126    1.658965   -0.224922
  C      0.258423    0.241359    0.205107
  C      0.583278   -0.894960   -0.684089
  C      1.419890   -0.490098   -1.895464
  C      2.411242    0.130551   -0.893442
  N      1.615512   -0.348215    0.304079
  C      3.804626   -0.498254   -0.865791
  C      4.635581   -0.173526    0.356787
  O      4.203084   -1.200988   -1.765178
  H      0.403809    1.921060   -1.188874
  H     -1.119979    1.794526   -0.313022
  H      0.326437    2.373433    0.521860
  H     -0.306044   -0.054567    1.088466
  H      0.139614   -1.876081   -0.542894
  H      1.875871   -1.334382   -2.413328
  H      0.946003    0.167013   -2.629524
  H      2.537193    1.220936   -0.916092
  H      4.073776   -0.439015    1.257191
  H      5.583600   -0.710841    0.318931
  H      4.826415    0.905195    0.404900

 Total Charge           Charge          ....    0
 Multiplicity           Mult            ....    1
 Number of Electrons    NEL             ....   68
 Basis Dimension        Dim             ....  345

ORBITAL ENERGIES
----------------

  NO   OCC          E(Eh)            E(eV)
   0   2.0000     -20.544351      -559.0402
   1   2.0000     -15.567960      -423.6257
   2   2.0000     -11.327260      -308.2304
   3   2.0000     -11.271803      -306.7214
   4   2.0000     -11.270732      -306.6922
   5   2.0000     -11.267558      -306.6058
   6   2.0000     -11.233183      -305.6704
   7   2.0000     -11.232714      -305.6577
   8   2.0000     -11.225768      -305.4687
   9   2.0000      -1.388474       -37.7823
  10   2.0000      -1.294755       -35.2321
  11   2.0000      -1.050819       -28.5942
  12   2.0000      -1.006370       -27.3847
  13   2.0000      -0.983666       -26.7669
  14   2.0000      -0.935910       -25.4674
  15   2.0000      -0.811243       -22.0750
  16   2.0000      -0.772792       -21.0287
  17   2.0000      -0.719799       -19.5867
  18   2.0000      -0.691512       -18.8170
  19   2.0000      -0.653248       -17.7758
  20   2.0000      -0.634890       -17.2762
  21   2.0000      -0.617442       -16.8015
  22   2.0000      -0.592625       -16.1261
  23   2.0000      -0.588463       -16.0129
  24   2.0000      -0.577056       -15.7025
  25   2.0000      -0.558333       -15.1930
  26   2.0000      -0.531433       -14.4610
  27   2.0000      -0.526806       -14.3351
  28   2.0000      -0.498656       -13.5691
  29   2.0000      -0.483378       -13.1534
  30   2.0000      -0.457652       -12.4534
  31   2.0000      -0.430734       -11.7209
  32   2.0000      -0.410435       -11.1685
  33   2.0000      -0.373688       -10.1686
  34   0.0000       0.128838         3.5059
  35   0.0000       0.147464         4.0127
  36   0.0000       0.156060         4.2466
  37   0.0000       0.159897         4.3510
  38   0.0000       0.172978         4.7070

MULLIKEN ATOMIC CHARGES
-----------------------
   0 C :   -0.407616
   1 C :   -0.008541
   2 C :   -0.061348
   3 C :   -0.268273
   4 C :    0.034443
   5 N :   -0.277870
   6 C :    0.161585
   7 C :   -0.412147
   8 O :   -0.286106
   9 H :    0.139870
  10 H :    0.141559
  11 H :    0.141205
  12 H :    0.119748
  13 H :    0.131665
  14 H :    0.156487
  15 H :    0.125485
  16 H :    0.115711
  17 H :    0.169115
  18 H :    0.149131
  19 H :    0.135897
Sum of atomic charges:   -0.0000000

LOEWDIN ATOMIC CHARGES
----------------------
   0 C :   -0.294542
   1 C :   -0.272239
   2 C :   -0.190279
   3 C :   -0.210205
   4 C :   -0.222839
   5 N :    0.126912
   6 C :   -0.326690
   7 C :   -0.278552
   8 O :    0.154493
   9 H :    0.126909
  10 H :    0.133128
  11 H :    0.129955
  12 H :    0.152685
  13 H :    0.132672
  14 H :    0.148661
  15 H :    0.129823
  16 H :    0.147715
  17 H :    0.143020
  18 H :    0.132198
  19 H :    0.137175

  Mayer bond orders larger than 0.1
B(  0-C ,  1-C ) :   0.8900 B(  0-C ,  9-H ) :   0.9381 B(  0-C , 10-H ) :   0.9271
B(  0-C , 11-H ) :   0.9370 B(  1-C ,  2-C ) :   0.9405 B(  1-C ,  5-N ) :   0.9049
B(  1-C , 12-H ) :   0.9270 B(  2-C ,  3-C ) :   0.9315 B(  2-C ,  5-N ) :   0.8395
B(  2-C , 13-H ) :   0.9049 B(  3-C ,  4-C ) :   0.9353 B(  3-C , 14-H ) :   0.9138
B(  3-C , 15-H ) :   0.9281 B(  4-C ,  5-N ) :   0.8768 B(  4-C ,  6-C ) :   0.8612
B(  4-C , 16-H ) :   0.9033 B(  6-C ,  7-C ) :   0.9392 B(  6-C ,  8-O ) :   2.0157
B(  7-C , 17-H ) :   0.9104 B(  7-C , 18-H ) :   0.9362 B(  7-C , 19-H ) :   0.9073

MP2 TOTAL ENERGY:     -402.427787380 Eh
FINAL SINGLE POINT ENERGY      -402.427787379855

DIPOLE MOMENT
-------------
                                X             Y             Z
Electronic contribution:      3.08542      -4.56645      -1.89890
Nuclear contribution   :     -3.83910       5.38795       2.15517
                        -----------------------------------------
Total Dipole Moment    :     -0.75368       0.82150       0.25626
                        -----------------------------------------
Magnitude (a.u.)       :      1.14393
Magnitude (Debye)      :      2.90763

                             ****ORCA TERMINATED NORMALLY****
TOTAL RUN TIME: 0 days 0 hours 20 minutes 46 seconds 11 msec
