                         Program Version 3.0.3 - RELEASE   -
|  1> ! RI-MP2 RIJK def2-TZVP def2-TZVP/C def2-TZVP/JK TIGHTSCF
|  2> % maxcore 2000
|  3> % mp2 density relaxed end
|  4> *xyz 0 1
|  5>  O        0.0078977448     1.3787970509    -0.1703562576
|  6>  C        0.0340492297    -0.0038149387    -0.0372989715
|  7>  C       -0.3774827771    -0.6279538303     1.2985535101
|  8>  C       -1.3039482509    -0.6734635449     0.1193514533
|  9>  C        1.0850723007    -0.7540738827    -0.7804573689
| 10>  O        1.1304631111    -1.9465292699    -0.9281478690
| 11>  O        2.0494859300     0.1160221327    -1.2365206892
| 12>  C        3.1159860949    -0.4036494784    -1.9306366549
| 13>  N        4.0228366483     0.3898092379    -2.2870866209
| 14>  H        0.9139049741     1.7025618964    -0.1088023307
| 15>  H        0.1162601971    -1.5431562832     1.6029101934
| 16>  H       -0.5886716592     0.0891358413     2.0829523646
| 17>  H       -2.1512041661     0.0019251449     0.1123058704
| 18>  H       -1.4416841501    -1.6199774790    -0.3886814597
| 19>  H        3.0321697531    -1.4786569603    -2.0890077894
| 20>  H        4.7464296098    -0.1170556769    -2.7950063602
| 21> *
| 22>
| 23>                          ****END OF INPUT****

CARTESIAN COORDINATES (ANGSTROEM)
---------------------------------
  O      0.007898    1.378797   -0.170356
  C      0.034049   -0.003815   -0.037299
  C     -0.377483   -0.627954    1.298554
  C     -1.303948   -0.673464    0.119351
  C      1.085072   -0.754074   -0.780457
  O      1.130463   -1.946529   -0.928148
  O      2.049486    0.116022   -1.236521
  C      3.115986   -0.403649   -1.930637
  N      4.022837    0.389809   -2.287087
  H      0.913905    1.702562   -0.108802
  H      0.116260   -1.543156    1.602910
  H     -0.588672    0.089136    2.082952
  H     -2.151204    0.001925    0.112306
  H     -1.441684   -1.619977   -0.388681
  H      3.032170   -1.478657   -2.089008
  H      4.746430   -0.117056   -2.795006

 Total Charge           Charge          ....    0
 Multiplicity           Mult            ....    1
 Number of Electrons    NEL             ....   68
 Basis Dimension        Dim             ....  321

ORBITAL ENERGIES
----------------

  NO   OCC          E(Eh)            E(eV)
   0   2.0000     -20.639908      -561.6405
   1   2.0000     -20.580287      -560.0181
   2   2.0000     -20.569841      -559.7338
   3   2.0000     -15.566771      -423.5934
   4   2.0000     -11.411186      -310.5142
   5   2.0000     -11.357095      -309.0423
   6   2.0000     -11.318441      -307.9904
   7   2.0000     -11.251149      -306.1593
   8   2.0000     -11.248427      -306.0853
   9   2.0000      -1.500099       -40.8198
  10   2.0000      -1.400871       -38.1196
  11   2.0000      -1.395087       -37.9622
  12   2.0000      -1.225318       -33.3426
  13   2.0000      -1.154797       -31.4236
  14   2.0000      -0.968898       -26.3650
  15   2.0000      -0.852990       -23.2110
  16   2.0000      -0.840393       -22.8683
  17   2.0000      -0.803396       -21.8615
  18   2.0000      -0.771138       -20.9837
  19   2.0000      -0.707159       -19.2428
  20   2.0000      -0.690545       -18.7907
  21   2.0000      -0.679872       -18.5003
  22   2.0000      -0.660882       -17.9835
  23   2.0000      -0.634729       -17.2718
  24   2.0000      -0.608066       -16.5463
  25   2.0000      -0.584234       -15.8978
  26   2.0000      -0.562269       -15.3001
  27   2.0000      -0.553423       -15.0594
  28   2.0000      -0.523973       -14.2580
  29   2.0000      -0.495520       -13.4838
  30   2.0000      -0.465654       -12.6711
  31   2.0000      -0.443795       -12.0763
  32   2.0000      -0.438371       -11.9287
  33   2.0000      -0.407320       -11.0837
  34   0.0000       0.121466         3.3053
  35   0.0000       0.142991         3.8910
  36   0.0000       0.156348         4.2545
  37   0.0000       0.164868         4.4863
  38   0.0000       0.169276         4.6062

MULLIKEN ATOMIC CHARGES
-----------------------
   0 O :   -0.452729
   1 C :    0.211009
   2 C :   -0.285488
   3 C :   -0.271591
   4 C :    0.300642
   5 O :   -0.325582
   6 O :   -0.231468
   7 C :    0.046166
   8 N :   -0.314412
   9 H :    0.339285
  10 H :    0.149999
  11 H :    0.144964
  12 H :    0.151025
  13 H :    0.157068
  14 H :    0.144062
  15 H :    0.237050
Sum of atomic charges:   -0.0000000

LOEWDIN ATOMIC CHARGES
----------------------
   0 O :    0.044467
   1 C :   -0.340269
   2 C :   -0.187073
   3 C :   -0.182671
   4 C :   -0.415216
   5 O :    0.139697
   6 O :    0.283699
   7 C :   -0.348137
   8 N :   -0.052066
   9 H :    0.187748
  10 H :    0.139936
  11 H :    0.140928
  12 H :    0.145467
  13 H :    0.144221
  14 H :    0.124037
  15 H :    0.175233

  Mayer bond orders larger than 0.1
B(  0-O ,  1-C ) :   1.0310 B(  0-O ,  9-H ) :   0.8197 B(  1-C ,  2-C ) :   0.8206
B(  1-C ,  3-C ) :   0.8489 B(  1-C ,  4-C ) :   0.9532 B(  2-C ,  3-C ) :   0.9267
B(  2-C , 10-H ) :   0.9103 B(  2-C , 11-H ) :   0.9221 B(  3-C , 12-H ) :   0.9224
B(  3-C , 13-H ) :   0.9171 B(  4-C ,  5-O ) :   1.8979 B(  4-C ,  6-O ) :   0.9973
B(  6-O ,  7-C ) :   0.9433 B(  7-C ,  8-N ) :   1.9798 B(  7-C , 14-H ) :   0.9273
B(  8-N , 15-H ) :   0.8500

MP2 TOTAL ENERGY:     -474.280883492 Eh
FINAL SINGLE POINT ENERGY      -474.280883491544

DIPOLE MOMENT
-------------
                                X             Y             Z
Electronic contribution:      3.06765       0.52354      -2.71327
Nuclear contribution   :     -2.90222      -1.02660       2.92461
                        -----------------------------------------
Total Dipole Moment    :      0.16543      -0.50306       0.21134
                        -----------------------------------------
Magnitude (a.u.)       :      0.57018
Magnitude (Debye)      :      1.44928

                             ****ORCA TERMINATED NORMALLY****
TOTAL RUN TIME: 0 days 0 hours 12 minutes 35 seconds 432 msec
