                         Program Version 3.0.3 - RELEASE   -
|  1> ! RI-MP2 RIJK def2-TZVP def2-TZVP/C def2-TZVP/JK TIGHTSCF
|  2> % maxcore 2000
|  3> % mp2 density relaxed end
|  4> *xyz 0 1
|  5>  C       -0.9121850094     2.2545694702     0.4229229181
|  6>  C       -0.4821000824     0.8059565199     0.3197728682
|  7>  C        0.8320729107     0.4671417471    -0.2923400105
|  8>  N        0.6333672071     0.3231779800     1.1584736042
|  9>  C       -1.5991353833    -0.2118220614     0.2446697254
| 10>  O       -2.9229635028     0.2537279592     0.0554428231
| 11>  C       -2.3725680794    -0.5374716268    -0.9915452824
| 12>  C       -2.0735980915     0.1179142949    -2.3012750448
| 13>  O       -1.9922456052     1.3048733308    -2.4903294700
| 14>  H       -0.0325150184     2.9051445291     0.4647994773
| 15>  H       -1.5191926100     2.5380934983    -0.4380195889
| 16>  H       -1.5061519637     2.4181606435     1.3282937844
| 17>  H        0.9620373040    -0.4698799335    -0.8283096682
| 18>  H        1.4397056251     1.2872289118    -0.6664864548
| 19>  H        1.0576168094     1.1064948238     1.6495618397
| 20>  H       -1.4942774386    -1.0241043746     0.9649720754
| 21>  H       -2.7828768900    -1.5452891196    -1.0767523940
| 22>  H       -1.9127028116    -0.6117171929    -3.1268769323
| 23> *
| 24>
| 25>                          ****END OF INPUT****

CARTESIAN COORDINATES (ANGSTROEM)
---------------------------------
  C     -0.912185    2.254569    0.422923
  C     -0.482100    0.805957    0.319773
  C      0.832073    0.467142   -0.292340
  N      0.633367    0.323178    1.158474
  C     -1.599135   -0.211822    0.244670
  O     -2.922964    0.253728    0.055443
  C     -2.372568   -0.537472   -0.991545
  C     -2.073598    0.117914   -2.301275
  O     -1.992246    1.304873   -2.490329
  H     -0.032515    2.905145    0.464799
  H     -1.519193    2.538093   -0.438020
  H     -1.506152    2.418161    1.328294
  H      0.962037   -0.469880   -0.828310
  H      1.439706    1.287229   -0.666486
  H      1.057617    1.106495    1.649562
  H     -1.494277   -1.024104    0.964972
  H     -2.782877   -1.545289   -1.076752
  H     -1.912703   -0.611717   -3.126877

 Total Charge           Charge          ....    0
 Multiplicity           Mult            ....    1
 Number of Electrons    NEL             ....   68
 Basis Dimension        Dim             ....  333

ORBITAL ENERGIES
----------------

  NO   OCC          E(Eh)            E(eV)
   0   2.0000     -20.592082      -560.3390
   1   2.0000     -20.570169      -559.7427
   2   2.0000     -15.564506      -423.5317
   3   2.0000     -11.347080      -308.7698
   4   2.0000     -11.311392      -307.7986
   5   2.0000     -11.307529      -307.6935
   6   2.0000     -11.279296      -306.9252
   7   2.0000     -11.263539      -306.4965
   8   2.0000     -11.218995      -305.2844
   9   2.0000      -1.443650       -39.2837
  10   2.0000      -1.403968       -38.2039
  11   2.0000      -1.273277       -34.6476
  12   2.0000      -1.006041       -27.3758
  13   2.0000      -0.992551       -27.0087
  14   2.0000      -0.927967       -25.2513
  15   2.0000      -0.888825       -24.1861
  16   2.0000      -0.814463       -22.1627
  17   2.0000      -0.763245       -20.7690
  18   2.0000      -0.732229       -19.9250
  19   2.0000      -0.686660       -18.6850
  20   2.0000      -0.671232       -18.2652
  21   2.0000      -0.656681       -17.8692
  22   2.0000      -0.622040       -16.9266
  23   2.0000      -0.579144       -15.7593
  24   2.0000      -0.576579       -15.6895
  25   2.0000      -0.556280       -15.1372
  26   2.0000      -0.544569       -14.8185
  27   2.0000      -0.533519       -14.5178
  28   2.0000      -0.495546       -13.4845
  29   2.0000      -0.481762       -13.1094
  30   2.0000      -0.468495       -12.7484
  31   2.0000      -0.439622       -11.9627
  32   2.0000      -0.430686       -11.7195
  33   2.0000      -0.391546       -10.6545
  34   0.0000       0.100711         2.7405
  35   0.0000       0.140055         3.8111
  36   0.0000       0.146426         3.9844
  37   0.0000       0.168273         4.5789
  38   0.0000       0.178203         4.8492

MULLIKEN ATOMIC CHARGES
-----------------------
   0 C :   -0.388690
   1 C :    0.109868
   2 C :   -0.208526
   3 N :   -0.380209
   4 C :    0.042081
   5 O :   -0.309121
   6 C :    0.024911
   7 C :    0.108009
   8 O :   -0.265221
   9 H :    0.118128
  10 H :    0.172442
  11 H :    0.139629
  12 H :    0.119540
  13 H :    0.133608
  14 H :    0.221439
  15 H :    0.149526
  16 H :    0.129968
  17 H :    0.082619
Sum of atomic charges:    0.0000000

LOEWDIN ATOMIC CHARGES
----------------------
   0 C :   -0.268799
   1 C :   -0.316723
   2 C :   -0.242164
   3 N :    0.006504
   4 C :   -0.208804
   5 O :    0.209261
   6 C :   -0.270829
   7 C :   -0.284790
   8 O :    0.150754
   9 H :    0.126436
  10 H :    0.138164
  11 H :    0.131185
  12 H :    0.126483
  13 H :    0.125162
  14 H :    0.167167
  15 H :    0.150490
  16 H :    0.143907
  17 H :    0.116595

  Mayer bond orders larger than 0.1
B(  0-C ,  1-C ) :   0.9555 B(  0-C ,  9-H ) :   0.9210 B(  0-C , 10-H ) :   0.9153
B(  0-C , 11-H ) :   0.9324 B(  1-C ,  2-C ) :   0.9378 B(  1-C ,  3-N ) :   0.8842
B(  1-C ,  4-C ) :   0.8451 B(  2-C ,  3-N ) :   0.9496 B(  2-C , 12-H ) :   0.9104
B(  2-C , 13-H ) :   0.9178 B(  3-N , 14-H ) :   0.8688 B(  4-C ,  5-O ) :   0.9035
B(  4-C ,  6-C ) :   0.9544 B(  4-C , 15-H ) :   0.9382 B(  5-O ,  6-C ) :   0.9125
B(  6-C ,  7-C ) :   0.8755 B(  6-C , 16-H ) :   0.9015 B(  7-C ,  8-O ) :   1.9589
B(  7-C , 17-H ) :   0.9318

MP2 TOTAL ENERGY:     -438.313570108 Eh
FINAL SINGLE POINT ENERGY      -438.313570107814

DIPOLE MOMENT
-------------
                                X             Y             Z
Electronic contribution:     -4.34644      -1.97134      -2.20901
Nuclear contribution   :      4.83427       1.49215       2.06110
                        -----------------------------------------
Total Dipole Moment    :      0.48783      -0.47919      -0.14791
                        -----------------------------------------
Magnitude (a.u.)       :      0.69962
Magnitude (Debye)      :      1.77830

                             ****ORCA TERMINATED NORMALLY****
TOTAL RUN TIME: 0 days 0 hours 17 minutes 57 seconds 267 msec
