                         Program Version 3.0.3 - RELEASE   -
|  1> ! RI-MP2 RIJK def2-TZVP def2-TZVP/C def2-TZVP/JK TIGHTSCF
|  2> % maxcore 2000
|  3> % mp2 density relaxed end
|  4> *xyz 0 1
|  5>  C       -0.1068472438     1.3992566763    -0.0100055835
|  6>  O        0.0133074019    -0.0090274110    -0.0273310867
|  7>  C        0.6558276641    -0.5659413147     1.0315809003
|  8>  C        0.8035809151    -1.9046598824     1.2070827968
|  9>  O        0.3291413758    -2.9829393331     0.5552371937
| 10>  O        1.5089899543    -2.1369119344     2.3789217750
| 11>  C        1.7929772009    -0.9318287844     2.9173709858
| 12>  N        2.5839881938    -0.9636839635     4.0606619176
| 13>  C        1.2991554794     0.0818454978     2.1511071391
| 14>  H        0.8751827395     1.8912921519    -0.0225946147
| 15>  H       -0.6536356783     1.6733519196    -0.9141485249
| 16>  H       -0.6670997355     1.7482636059     0.8678274614
| 17>  H        1.0139639430    -3.3503025167    -0.0181336737
| 18>  H        2.3581453697    -1.7477880517     4.6612741199
| 19>  H        2.5373088325    -0.0987862078     4.5821282458
| 20>  H        1.3797357876     1.1371640180     2.3497527181
| 21> *
| 22>
| 23>                          ****END OF INPUT****

CARTESIAN COORDINATES (ANGSTROEM)
---------------------------------
  C     -0.106847    1.399257   -0.010006
  O      0.013307   -0.009027   -0.027331
  C      0.655828   -0.565941    1.031581
  C      0.803581   -1.904660    1.207083
  O      0.329141   -2.982939    0.555237
  O      1.508990   -2.136912    2.378922
  C      1.792977   -0.931829    2.917371
  N      2.583988   -0.963684    4.060662
  C      1.299155    0.081845    2.151107
  H      0.875183    1.891292   -0.022595
  H     -0.653636    1.673352   -0.914149
  H     -0.667100    1.748264    0.867827
  H      1.013964   -3.350303   -0.018134
  H      2.358145   -1.747788    4.661274
  H      2.537309   -0.098786    4.582128
  H      1.379736    1.137164    2.349753

 Total Charge           Charge          ....    0
 Multiplicity           Mult            ....    1
 Number of Electrons    NEL             ....   68
 Basis Dimension        Dim             ....  321

ORBITAL ENERGIES
----------------

  NO   OCC          E(Eh)            E(eV)
   0   2.0000     -20.614495      -560.9489
   1   2.0000     -20.584140      -560.1229
   2   2.0000     -20.577529      -559.9430
   3   2.0000     -15.579860      -423.9496
   4   2.0000     -11.332027      -308.3601
   5   2.0000     -11.312572      -307.8307
   6   2.0000     -11.283246      -307.0327
   7   2.0000     -11.281585      -306.9875
   8   2.0000     -11.215007      -305.1759
   9   2.0000      -1.469979       -40.0002
  10   2.0000      -1.402386       -38.1609
  11   2.0000      -1.386134       -37.7186
  12   2.0000      -1.217524       -33.1305
  13   2.0000      -1.074831       -29.2476
  14   2.0000      -0.979206       -26.6455
  15   2.0000      -0.926856       -25.2210
  16   2.0000      -0.808995       -22.0139
  17   2.0000      -0.791536       -21.5388
  18   2.0000      -0.750337       -20.4177
  19   2.0000      -0.708283       -19.2734
  20   2.0000      -0.676336       -18.4040
  21   2.0000      -0.654060       -17.7979
  22   2.0000      -0.646616       -17.5953
  23   2.0000      -0.635740       -17.2994
  24   2.0000      -0.628537       -17.1034
  25   2.0000      -0.601739       -16.3742
  26   2.0000      -0.580312       -15.7911
  27   2.0000      -0.552484       -15.0339
  28   2.0000      -0.509643       -13.8681
  29   2.0000      -0.500836       -13.6284
  30   2.0000      -0.491318       -13.3694
  31   2.0000      -0.479652       -13.0520
  32   2.0000      -0.369517       -10.0551
  33   2.0000      -0.271383        -7.3847
  34   0.0000       0.127862         3.4793
  35   0.0000       0.143079         3.8934
  36   0.0000       0.148642         4.0447
  37   0.0000       0.173928         4.7328
  38   0.0000       0.185029         5.0349

MULLIKEN ATOMIC CHARGES
-----------------------
   0 C :   -0.231143
   1 O :   -0.293140
   2 C :    0.185164
   3 C :    0.152077
   4 O :   -0.431706
   5 O :   -0.212279
   6 C :    0.276980
   7 N :   -0.508963
   8 C :   -0.344381
   9 H :    0.126937
  10 H :    0.149667
  11 H :    0.128104
  12 H :    0.346947
  13 H :    0.259480
  14 H :    0.251556
  15 H :    0.144700
Sum of atomic charges:    0.0000000

LOEWDIN ATOMIC CHARGES
----------------------
   0 C :   -0.332050
   1 O :    0.222245
   2 C :   -0.293912
   3 C :   -0.389452
   4 O :    0.067916
   5 O :    0.344737
   6 C :   -0.365838
   7 N :   -0.082009
   8 C :   -0.192217
   9 H :    0.107351
  10 H :    0.116429
  11 H :    0.108129
  12 H :    0.198797
  13 H :    0.174280
  14 H :    0.173998
  15 H :    0.141596

  Mayer bond orders larger than 0.1
B(  0-C ,  1-O ) :   0.8815 B(  0-C ,  9-H ) :   0.9365 B(  0-C , 10-H ) :   0.9403
B(  0-C , 11-H ) :   0.9348 B(  1-O ,  2-C ) :   1.0600 B(  2-C ,  3-C ) :   1.5316
B(  2-C ,  8-C ) :   1.1279 B(  3-C ,  4-O ) :   1.1854 B(  3-C ,  5-O ) :   1.0048
B(  4-O , 12-H ) :   0.8246 B(  5-O ,  6-C ) :   1.0847 B(  6-C ,  7-N ) :   1.0377
B(  6-C ,  8-C ) :   1.5151 B(  7-N , 13-H ) :   0.8677 B(  7-N , 14-H ) :   0.8789
B(  8-C , 15-H ) :   0.8962

MP2 TOTAL ENERGY:     -474.265795303 Eh
FINAL SINGLE POINT ENERGY      -474.265795302737

DIPOLE MOMENT
-------------
                                X             Y             Z
Electronic contribution:      0.36215      -6.34818       0.01154
Nuclear contribution   :     -0.00041       7.10969       0.47547
                        -----------------------------------------
Total Dipole Moment    :      0.36175       0.76152       0.48701
                        -----------------------------------------
Magnitude (a.u.)       :      0.97363
Magnitude (Debye)      :      2.47476

                             ****ORCA TERMINATED NORMALLY****
TOTAL RUN TIME: 0 days 0 hours 13 minutes 38 seconds 552 msec
