                         Program Version 3.0.3 - RELEASE   -
|  1> ! RI-MP2 RIJK def2-TZVP def2-TZVP/C def2-TZVP/JK TIGHTSCF
|  2> % maxcore 2000
|  3> % mp2 density relaxed end
|  4> *xyz 0 1
|  5>  C        0.5415222244     1.3343940004     0.0163407888
|  6>  C       -0.0500877497    -0.0794928138    -0.0141717959
|  7>  O       -1.4790206019     0.0265010160    -0.0140183394
|  8>  C        0.4545027013    -0.9195731453    -1.2328061508
|  9>  C        1.4448917506    -1.9399252433    -0.6979362995
| 10>  C        2.6113851325    -1.4497357237     0.1246915235
| 11>  C        1.3612981946    -1.9404928129     0.8133391172
| 12>  C        0.3201734381    -0.9203673325     1.2404887282
| 13>  H        1.6337416138     1.3264904589     0.0644353622
| 14>  H        0.2608387767     1.8882233257    -0.8887693585
| 15>  H        0.1620043224     1.8811221163     0.8847663081
| 16>  H       -1.7303155572     0.6157842202    -0.7334695904
| 17>  H       -0.4119703539    -1.4389318612    -1.6551998529
| 18>  H        0.8750044628    -0.2841920606    -2.0218305018
| 19>  H        1.5705923283    -2.8639162541    -1.2517508244
| 20>  H        3.4826571732    -2.0946286553     0.1717056134
| 21>  H        2.8548782631    -0.3925629012     0.1390467828
| 22>  H        1.4248339026    -2.8648929794     1.3767743840
| 23>  H        0.6518970803    -0.2834791896     2.0678664803
| 24>  H       -0.5886154919    -1.4333826245     1.5691678951
| 25> *
| 26>
| 27>                          ****END OF INPUT****

CARTESIAN COORDINATES (ANGSTROEM)
---------------------------------
  C      0.541522    1.334394    0.016341
  C     -0.050088   -0.079493   -0.014172
  O     -1.479021    0.026501   -0.014018
  C      0.454503   -0.919573   -1.232806
  C      1.444892   -1.939925   -0.697936
  C      2.611385   -1.449736    0.124692
  C      1.361298   -1.940493    0.813339
  C      0.320173   -0.920367    1.240489
  H      1.633742    1.326490    0.064435
  H      0.260839    1.888223   -0.888769
  H      0.162004    1.881122    0.884766
  H     -1.730316    0.615784   -0.733470
  H     -0.411970   -1.438932   -1.655200
  H      0.875004   -0.284192   -2.021831
  H      1.570592   -2.863916   -1.251751
  H      3.482657   -2.094629    0.171706
  H      2.854878   -0.392563    0.139047
  H      1.424834   -2.864893    1.376774
  H      0.651897   -0.283479    2.067866
  H     -0.588615   -1.433383    1.569168

 Total Charge           Charge          ....    0
 Multiplicity           Mult            ....    1
 Number of Electrons    NEL             ....   62
 Basis Dimension        Dim             ....  320

ORBITAL ENERGIES
----------------

  NO   OCC          E(Eh)            E(eV)
   0   2.0000     -20.548043      -559.1407
   1   2.0000     -11.284245      -307.0599
   2   2.0000     -11.225660      -305.4657
   3   2.0000     -11.224271      -305.4279
   4   2.0000     -11.220029      -305.3125
   5   2.0000     -11.217806      -305.2520
   6   2.0000     -11.217224      -305.2362
   7   2.0000     -11.214310      -305.1569
   8   2.0000      -1.355942       -36.8971
   9   2.0000      -1.165660       -31.7192
  10   2.0000      -1.034338       -28.1458
  11   2.0000      -0.964152       -26.2359
  12   2.0000      -0.942680       -25.6516
  13   2.0000      -0.813797       -22.1446
  14   2.0000      -0.765647       -20.8343
  15   2.0000      -0.751515       -20.4498
  16   2.0000      -0.691162       -18.8075
  17   2.0000      -0.650475       -17.7003
  18   2.0000      -0.610821       -16.6213
  19   2.0000      -0.593416       -16.1477
  20   2.0000      -0.585143       -15.9226
  21   2.0000      -0.583611       -15.8809
  22   2.0000      -0.556743       -15.1497
  23   2.0000      -0.525581       -14.3018
  24   2.0000      -0.506864       -13.7925
  25   2.0000      -0.492742       -13.4082
  26   2.0000      -0.487689       -13.2707
  27   2.0000      -0.451148       -12.2764
  28   2.0000      -0.423667       -11.5286
  29   2.0000      -0.402063       -10.9407
  30   2.0000      -0.390527       -10.6268
  31   0.0000       0.133149         3.6232
  32   0.0000       0.156117         4.2482
  33   0.0000       0.175127         4.7654
  34   0.0000       0.179175         4.8756
  35   0.0000       0.184355         5.0166

MULLIKEN ATOMIC CHARGES
-----------------------
   0 C :   -0.462496
   1 C :    0.216665
   2 O :   -0.467180
   3 C :   -0.227851
   4 C :   -0.110442
   5 C :   -0.300218
   6 C :   -0.114040
   7 C :   -0.198971
   8 H :    0.118628
   9 H :    0.123074
  10 H :    0.145130
  11 H :    0.309446
  12 H :    0.117610
  13 H :    0.109976
  14 H :    0.121574
  15 H :    0.129067
  16 H :    0.122613
  17 H :    0.121816
  18 H :    0.115740
  19 H :    0.129860
Sum of atomic charges:    0.0000000

LOEWDIN ATOMIC CHARGES
----------------------
   0 C :   -0.286819
   1 C :   -0.362840
   2 O :   -0.006541
   3 C :   -0.202553
   4 C :   -0.202024
   5 C :   -0.210591
   6 C :   -0.200368
   7 C :   -0.190164
   8 H :    0.122984
   9 H :    0.121427
  10 H :    0.127925
  11 H :    0.171146
  12 H :    0.145187
  13 H :    0.136825
  14 H :    0.141782
  15 H :    0.133753
  16 H :    0.128478
  17 H :    0.142166
  18 H :    0.139855
  19 H :    0.150371

  Mayer bond orders larger than 0.1
B(  0-C ,  1-C ) :   0.9491 B(  0-C ,  8-H ) :   0.9266 B(  0-C ,  9-H ) :   0.9258
B(  0-C , 10-H ) :   0.9439 B(  1-C ,  2-O ) :   0.9633 B(  1-C ,  3-C ) :   0.9173
B(  1-C ,  7-C ) :   0.8710 B(  2-O , 11-H ) :   0.8452 B(  3-C ,  4-C ) :   0.9371
B(  3-C , 12-H ) :   0.9191 B(  3-C , 13-H ) :   0.9180 B(  4-C ,  5-C ) :   0.8856
B(  4-C ,  6-C ) :   0.8566 B(  4-C , 14-H ) :   0.9287 B(  5-C ,  6-C ) :   0.8858
B(  5-C , 15-H ) :   0.9335 B(  5-C , 16-H ) :   0.9249 B(  6-C ,  7-C ) :   0.9474
B(  6-C , 17-H ) :   0.9326 B(  7-C , 18-H ) :   0.9284 B(  7-C , 19-H ) :   0.9211

MP2 TOTAL ENERGY:     -348.407224895 Eh
FINAL SINGLE POINT ENERGY      -348.407224895460

DIPOLE MOMENT
-------------
                                X             Y             Z
Electronic contribution:     -2.49709      -1.90830       0.14485
Nuclear contribution   :      2.81256       2.12311      -0.51140
                        -----------------------------------------
Total Dipole Moment    :      0.31546       0.21480      -0.36654
                        -----------------------------------------
Magnitude (a.u.)       :      0.52916
Magnitude (Debye)      :      1.34502

                             ****ORCA TERMINATED NORMALLY****
TOTAL RUN TIME: 0 days 0 hours 15 minutes 9 seconds 437 msec
