                         Program Version 3.0.3 - RELEASE   -
|  1> ! RI-MP2 RIJK def2-TZVP def2-TZVP/C def2-TZVP/JK TIGHTSCF
|  2> % maxcore 2000
|  3> % mp2 density relaxed end
|  4> *xyz 0 1
|  5>  C        0.1055489436     1.4419149182     0.3486518628
|  6>  C        1.2650228329     2.2391478394    -0.1828624198
|  7>  C        2.1794247082     1.8416620326    -1.0617839541
|  8>  C        2.1924667385     0.4640632446    -1.6889600468
|  9>  O        2.3037727547    -0.5610915857    -0.7027384310
| 10>  C        1.0003555688    -1.0065185573    -0.4319590613
| 11>  C       -0.0871491613     0.0151481033    -0.1428788927
| 12>  C        0.1412606990    -0.5043443337    -1.5528417919
| 13>  O        0.9914868190     0.2059848492    -2.4149139077
| 14>  H        0.1810476520     1.4229575140     1.4466041051
| 15>  H       -0.8170586916     2.0063858026     0.1443829722
| 16>  H        1.3319011008     3.2488533066     0.2182375739
| 17>  H        2.9722686466     2.5183993599    -1.3662750329
| 18>  H        3.0333187551     0.3577736138    -2.3810446194
| 19>  H        0.9865621103    -2.0037978851    -0.0099665588
| 20>  H       -0.9571314130    -0.4571337854     0.3123233498
| 21>  H       -0.6082393736    -1.0715767170    -2.0907368573
| 22> *
| 23>
| 24>                          ****END OF INPUT****

CARTESIAN COORDINATES (ANGSTROEM)
---------------------------------
  C      0.105549    1.441915    0.348652
  C      1.265023    2.239148   -0.182862
  C      2.179425    1.841662   -1.061784
  C      2.192467    0.464063   -1.688960
  O      2.303773   -0.561092   -0.702738
  C      1.000356   -1.006519   -0.431959
  C     -0.087149    0.015148   -0.142879
  C      0.141261   -0.504344   -1.552842
  O      0.991487    0.205985   -2.414914
  H      0.181048    1.422958    1.446604
  H     -0.817059    2.006386    0.144383
  H      1.331901    3.248853    0.218238
  H      2.972269    2.518399   -1.366275
  H      3.033319    0.357774   -2.381045
  H      0.986562   -2.003798   -0.009967
  H     -0.957131   -0.457134    0.312323
  H     -0.608239   -1.071577   -2.090737

 Total Charge           Charge          ....    0
 Multiplicity           Mult            ....    1
 Number of Electrons    NEL             ....   66
 Basis Dimension        Dim             ....  327

ORBITAL ENERGIES
----------------

  NO   OCC          E(Eh)            E(eV)
   0   2.0000     -20.568014      -559.6841
   1   2.0000     -20.567993      -559.6835
   2   2.0000     -11.338997      -308.5498
   3   2.0000     -11.286396      -307.1185
   4   2.0000     -11.285669      -307.0987
   5   2.0000     -11.243939      -305.9631
   6   2.0000     -11.243327      -305.9465
   7   2.0000     -11.239427      -305.8404
   8   2.0000     -11.224192      -305.4258
   9   2.0000      -1.446574       -39.3633
  10   2.0000      -1.337580       -36.3974
  11   2.0000      -1.138157       -30.9708
  12   2.0000      -1.088470       -29.6188
  13   2.0000      -0.963762       -26.2253
  14   2.0000      -0.920613       -25.0512
  15   2.0000      -0.830916       -22.6104
  16   2.0000      -0.775889       -21.1130
  17   2.0000      -0.748893       -20.3784
  18   2.0000      -0.732016       -19.9192
  19   2.0000      -0.665941       -18.1212
  20   2.0000      -0.635514       -17.2932
  21   2.0000      -0.628758       -17.1094
  22   2.0000      -0.606953       -16.5160
  23   2.0000      -0.595698       -16.2098
  24   2.0000      -0.572542       -15.5797
  25   2.0000      -0.557027       -15.1575
  26   2.0000      -0.520598       -14.1662
  27   2.0000      -0.516409       -14.0522
  28   2.0000      -0.509151       -13.8547
  29   2.0000      -0.461521       -12.5586
  30   2.0000      -0.412099       -11.2138
  31   2.0000      -0.375546       -10.2191
  32   2.0000      -0.351633        -9.5684
  33   0.0000       0.133016         3.6196
  34   0.0000       0.144561         3.9337
  35   0.0000       0.162528         4.4226
  36   0.0000       0.169237         4.6052
  37   0.0000       0.191366         5.2073

MULLIKEN ATOMIC CHARGES
-----------------------
   0 C :   -0.126700
   1 C :   -0.144710
   2 C :   -0.278643
   3 C :    0.367610
   4 O :   -0.320146
   5 C :   -0.004446
   6 C :   -0.179908
   7 C :   -0.004446
   8 O :   -0.320145
   9 H :    0.127140
  10 H :    0.127140
  11 H :    0.123491
  12 H :    0.117192
  13 H :    0.123189
  14 H :    0.136283
  15 H :    0.120814
  16 H :    0.136284
Sum of atomic charges:    0.0000000

LOEWDIN ATOMIC CHARGES
----------------------
   0 C :   -0.227638
   1 C :   -0.150531
   2 C :   -0.158974
   3 C :   -0.339834
   4 O :    0.209255
   5 C :   -0.266012
   6 C :   -0.189685
   7 C :   -0.266013
   8 O :    0.209255
   9 H :    0.154660
  10 H :    0.154660
  11 H :    0.148052
  12 H :    0.144461
  13 H :    0.139403
  14 H :    0.138537
  15 H :    0.161868
  16 H :    0.138537

  Mayer bond orders larger than 0.1
B(  0-C ,  1-C ) :   0.9443 B(  0-C ,  6-C ) :   0.8901 B(  0-C ,  9-H ) :   0.9120
B(  0-C , 10-H ) :   0.9120 B(  1-C ,  2-C ) :   1.8431 B(  1-C , 11-H ) :   0.9266
B(  2-C ,  3-C ) :   0.8979 B(  2-C , 12-H ) :   0.9252 B(  3-C ,  4-O ) :   0.9132
B(  3-C ,  8-O ) :   0.9132 B(  3-C , 13-H ) :   0.9316 B(  4-O ,  5-C ) :   0.9902
B(  5-C ,  6-C ) :   0.8436 B(  5-C ,  7-C ) :   0.9112 B(  5-C , 14-H ) :   0.9320
B(  6-C ,  7-C ) :   0.8436 B(  6-C , 15-H ) :   0.9048 B(  7-C ,  8-O ) :   0.9902
B(  7-C , 16-H ) :   0.9320

MP2 TOTAL ENERGY:     -421.091920538 Eh
FINAL SINGLE POINT ENERGY      -421.091920537977

DIPOLE MOMENT
-------------
                                X             Y             Z
Electronic contribution:      2.22683      -2.23466      -2.70792
Nuclear contribution   :     -2.73704       2.34654       3.14909
                        -----------------------------------------
Total Dipole Moment    :     -0.51021       0.11187       0.44117
                        -----------------------------------------
Magnitude (a.u.)       :      0.68371
Magnitude (Debye)      :      1.73785

                             ****ORCA TERMINATED NORMALLY****
TOTAL RUN TIME: 0 days 0 hours 16 minutes 13 seconds 411 msec
