                         Program Version 3.0.3 - RELEASE   -
|  1> ! RI-MP2 RIJK def2-TZVP def2-TZVP/C def2-TZVP/JK TIGHTSCF
|  2> % maxcore 2000
|  3> % mp2 density relaxed end
|  4> *xyz 0 1
|  5>  C        0.0211349477     1.5680407397    -0.0270428469
|  6>  C        0.0000327881     0.0565152518     0.0558240822
|  7>  C        0.2957903340    -0.7569826202    -1.2755464997
|  8>  C       -0.8850911933    -1.6565076026    -0.9594196944
|  9>  C       -0.9197480588    -2.0454889389     0.5700287046
| 10>  C        0.3014625494    -1.8363660576     1.3876385648
| 11>  C        0.7976093986    -0.6146626895     1.1484260743
| 12>  C       -1.3954415887    -0.7075243730     0.0717439850
| 13>  O       -2.6502164013    -0.1551090793     0.1858529868
| 14>  H        1.0329390064     1.9359477126    -0.2316935038
| 15>  H       -0.6364640907     1.9298752881    -0.8234685081
| 16>  H       -0.3123000448     2.0223964294     0.9127742550
| 17>  H        0.0782147750    -0.1396803543    -2.1518865830
| 18>  H        1.2925648778    -1.1996538550    -1.3682690639
| 19>  H       -1.4367782746    -2.2774129048    -1.6546362083
| 20>  H       -1.6512597407    -2.8109923880     0.8027223502
| 21>  H        0.7221705576    -2.5849182671     2.0479422893
| 22>  H        1.7085892487    -0.1961621022     1.5609064850
| 23>  H       -2.8181347703     0.0267948708     1.1180048508
| 24> *
| 25>
| 26>                          ****END OF INPUT****

CARTESIAN COORDINATES (ANGSTROEM)
---------------------------------
  C      0.021135    1.568041   -0.027043
  C      0.000033    0.056515    0.055824
  C      0.295790   -0.756983   -1.275546
  C     -0.885091   -1.656508   -0.959420
  C     -0.919748   -2.045489    0.570029
  C      0.301463   -1.836366    1.387639
  C      0.797609   -0.614663    1.148426
  C     -1.395442   -0.707524    0.071744
  O     -2.650216   -0.155109    0.185853
  H      1.032939    1.935948   -0.231694
  H     -0.636464    1.929875   -0.823469
  H     -0.312300    2.022396    0.912774
  H      0.078215   -0.139680   -2.151887
  H      1.292565   -1.199654   -1.368269
  H     -1.436778   -2.277413   -1.654636
  H     -1.651260   -2.810992    0.802722
  H      0.722171   -2.584918    2.047942
  H      1.708589   -0.196162    1.560906
  H     -2.818135    0.026795    1.118005

 Total Charge           Charge          ....    0
 Multiplicity           Mult            ....    1
 Number of Electrons    NEL             ....   66
 Basis Dimension        Dim             ....  339

ORBITAL ENERGIES
----------------

  NO   OCC          E(Eh)            E(eV)
   0   2.0000     -20.572050      -559.7939
   1   2.0000     -11.284252      -307.0601
   2   2.0000     -11.240880      -305.8799
   3   2.0000     -11.233171      -305.6701
   4   2.0000     -11.231671      -305.6293
   5   2.0000     -11.224477      -305.4335
   6   2.0000     -11.223534      -305.4079
   7   2.0000     -11.217986      -305.2569
   8   2.0000     -11.215848      -305.1987
   9   2.0000      -1.382716       -37.6256
  10   2.0000      -1.208575       -32.8870
  11   2.0000      -1.038486       -28.2586
  12   2.0000      -1.024236       -27.8709
  13   2.0000      -0.934878       -25.4393
  14   2.0000      -0.857059       -23.3218
  15   2.0000      -0.796124       -21.6636
  16   2.0000      -0.769969       -20.9519
  17   2.0000      -0.724216       -19.7069
  18   2.0000      -0.678078       -18.4514
  19   2.0000      -0.643716       -17.5164
  20   2.0000      -0.633106       -17.2277
  21   2.0000      -0.593793       -16.1579
  22   2.0000      -0.588013       -16.0006
  23   2.0000      -0.563107       -15.3229
  24   2.0000      -0.555305       -15.1106
  25   2.0000      -0.529610       -14.4114
  26   2.0000      -0.523765       -14.2524
  27   2.0000      -0.493475       -13.4281
  28   2.0000      -0.472486       -12.8570
  29   2.0000      -0.439904       -11.9704
  30   2.0000      -0.395236       -10.7549
  31   2.0000      -0.379809       -10.3351
  32   2.0000      -0.324679        -8.8350
  33   0.0000       0.132380         3.6022
  34   0.0000       0.145972         3.9721
  35   0.0000       0.161137         4.3848
  36   0.0000       0.166421         4.5286
  37   0.0000       0.180406         4.9091

MULLIKEN ATOMIC CHARGES
-----------------------
   0 C :   -0.423499
   1 C :    0.229213
   2 C :   -0.223144
   3 C :   -0.144637
   4 C :   -0.169446
   5 C :   -0.153825
   6 C :   -0.281682
   7 C :    0.131105
   8 O :   -0.448756
   9 H :    0.137094
  10 H :    0.144557
  11 H :    0.125831
  12 H :    0.118084
  13 H :    0.109785
  14 H :    0.136813
  15 H :    0.132533
  16 H :    0.125590
  17 H :    0.122687
  18 H :    0.331696
Sum of atomic charges:   -0.0000000

LOEWDIN ATOMIC CHARGES
----------------------
   0 C :   -0.272513
   1 C :   -0.199989
   2 C :   -0.164995
   3 C :   -0.131069
   4 C :   -0.151001
   5 C :   -0.142783
   6 C :   -0.127056
   7 C :   -0.268907
   8 O :    0.042479
   9 H :    0.129650
  10 H :    0.131370
  11 H :    0.127344
  12 H :    0.143845
  13 H :    0.127635
  14 H :    0.139555
  15 H :    0.150850
  16 H :    0.136994
  17 H :    0.138158
  18 H :    0.190434

  Mayer bond orders larger than 0.1
B(  0-C ,  1-C ) :   0.8596 B(  0-C ,  9-H ) :   0.9403 B(  0-C , 10-H ) :   0.9420
B(  0-C , 11-H ) :   0.9384 B(  1-C ,  2-C ) :   0.8844 B(  1-C ,  6-C ) :   0.9154
B(  1-C ,  7-C ) :   0.8452 B(  2-C ,  3-C ) :   0.9736 B(  2-C , 12-H ) :   0.9157
B(  2-C , 13-H ) :   0.9053 B(  3-C ,  4-C ) :   0.7942 B(  3-C ,  7-C ) :   0.8814
B(  3-C , 14-H ) :   0.9142 B(  4-C ,  5-C ) :   0.9561 B(  4-C ,  7-C ) :   0.9216
B(  4-C , 15-H ) :   0.9312 B(  5-C ,  6-C ) :   1.7647 B(  5-C , 16-H ) :   0.9288
B(  6-C , 17-H ) :   0.9281 B(  7-C ,  8-O ) :   1.0156 B(  8-O , 18-H ) :   0.8319

MP2 TOTAL ENERGY:     -385.186530878 Eh
FINAL SINGLE POINT ENERGY      -385.186530878195

DIPOLE MOMENT
-------------
                                X             Y             Z
Electronic contribution:     -3.00374      -2.87286       1.26030
Nuclear contribution   :      3.13154       2.89029      -0.94080
                        -----------------------------------------
Total Dipole Moment    :      0.12780       0.01744       0.31950
                        -----------------------------------------
Magnitude (a.u.)       :      0.34455
Magnitude (Debye)      :      0.87578

                             ****ORCA TERMINATED NORMALLY****
TOTAL RUN TIME: 0 days 0 hours 20 minutes 46 seconds 495 msec
