                         Program Version 3.0.3 - RELEASE   -
|  1> ! RI-MP2 RIJK def2-TZVP def2-TZVP/C def2-TZVP/JK TIGHTSCF
|  2> % maxcore 2000
|  3> % mp2 density relaxed end
|  4> *xyz 0 1
|  5>  C        0.0888940128     1.4890126249     0.0291660270
|  6>  C       -0.0039873671    -0.0049093460    -0.0003057561
|  7>  C       -0.1208168629    -0.7822843764    -1.0874592389
|  8>  C       -0.0674613324    -2.2280174047    -0.7320815776
|  9>  N        1.2344188258    -2.6170851312    -0.1036427655
| 10>  C        0.0714598921    -2.2820086195     0.7467106000
| 11>  C        0.0715311637    -0.8562207058     1.2352298884
| 12>  C        0.7305980121    -0.4164432948     2.4923756253
| 13>  N       -0.7309472609    -0.5685196544     2.4450228120
| 14>  H        1.0875186125     1.8213093649     0.3384885122
| 15>  H       -0.1123280516     1.9127146971    -0.9578818031
| 16>  H       -0.6256864419     1.9340443100     0.7333604111
| 17>  H       -0.1885007772    -0.4185451641    -2.1061363315
| 18>  H       -0.6106071567    -2.9735425865    -1.3023968912
| 19>  H        1.3122364019    -3.6334149259    -0.1353971350
| 20>  H       -0.3920912323    -3.0437104671     1.3632291727
| 21>  H        1.2511931704    -1.1477781670     3.1043404065
| 22>  H        1.1537851814     0.5841797792     2.5282703451
| 23>  H       -1.1774522398     0.3423405171     2.3629568687
| 24> *
| 25>
| 26>                          ****END OF INPUT****

CARTESIAN COORDINATES (ANGSTROEM)
---------------------------------
  C      0.088894    1.489013    0.029166
  C     -0.003987   -0.004909   -0.000306
  C     -0.120817   -0.782284   -1.087459
  C     -0.067461   -2.228017   -0.732082
  N      1.234419   -2.617085   -0.103643
  C      0.071460   -2.282009    0.746711
  C      0.071531   -0.856221    1.235230
  C      0.730598   -0.416443    2.492376
  N     -0.730947   -0.568520    2.445023
  H      1.087519    1.821309    0.338489
  H     -0.112328    1.912715   -0.957882
  H     -0.625686    1.934044    0.733360
  H     -0.188501   -0.418545   -2.106136
  H     -0.610607   -2.973543   -1.302397
  H      1.312236   -3.633415   -0.135397
  H     -0.392091   -3.043710    1.363229
  H      1.251193   -1.147778    3.104340
  H      1.153785    0.584180    2.528270
  H     -1.177452    0.342341    2.362957

 Total Charge           Charge          ....    0
 Multiplicity           Mult            ....    1
 Number of Electrons    NEL             ....   66
 Basis Dimension        Dim             ....  339

ORBITAL ENERGIES
----------------

  NO   OCC          E(Eh)            E(eV)
   0   2.0000     -15.558706      -423.3739
   1   2.0000     -15.557656      -423.3453
   2   2.0000     -11.267243      -306.5973
   3   2.0000     -11.259435      -306.3848
   4   2.0000     -11.255444      -306.2762
   5   2.0000     -11.255132      -306.2677
   6   2.0000     -11.239534      -305.8433
   7   2.0000     -11.231239      -305.6175
   8   2.0000     -11.223995      -305.4204
   9   2.0000      -1.281717       -34.8773
  10   2.0000      -1.246300       -33.9135
  11   2.0000      -1.089282       -29.6409
  12   2.0000      -0.975137       -26.5348
  13   2.0000      -0.927275       -25.2324
  14   2.0000      -0.876673       -23.8555
  15   2.0000      -0.856478       -23.3060
  16   2.0000      -0.771150       -20.9841
  17   2.0000      -0.736233       -20.0339
  18   2.0000      -0.703495       -19.1431
  19   2.0000      -0.653325       -17.7779
  20   2.0000      -0.635398       -17.2901
  21   2.0000      -0.589464       -16.0401
  22   2.0000      -0.578921       -15.7532
  23   2.0000      -0.568327       -15.4650
  24   2.0000      -0.530478       -14.4350
  25   2.0000      -0.517737       -14.0883
  26   2.0000      -0.502454       -13.6725
  27   2.0000      -0.495434       -13.4815
  28   2.0000      -0.468367       -12.7449
  29   2.0000      -0.451406       -12.2834
  30   2.0000      -0.417649       -11.3648
  31   2.0000      -0.368667       -10.0319
  32   2.0000      -0.329886        -8.9766
  33   0.0000       0.133683         3.6377
  34   0.0000       0.139939         3.8079
  35   0.0000       0.146979         3.9995
  36   0.0000       0.173564         4.7229
  37   0.0000       0.174956         4.7608

MULLIKEN ATOMIC CHARGES
-----------------------
   0 C :   -0.439214
   1 C :    0.075088
   2 C :   -0.254609
   3 C :    0.026220
   4 N :   -0.390001
   5 C :   -0.081833
   6 C :    0.158275
   7 C :   -0.225027
   8 N :   -0.385676
   9 H :    0.151357
  10 H :    0.146143
  11 H :    0.128698
  12 H :    0.129795
  13 H :    0.134565
  14 H :    0.215118
  15 H :    0.143587
  16 H :    0.124860
  17 H :    0.127535
  18 H :    0.215119
Sum of atomic charges:   -0.0000000

LOEWDIN ATOMIC CHARGES
----------------------
   0 C :   -0.270714
   1 C :   -0.140723
   2 C :   -0.111189
   3 C :   -0.226601
   4 N :    0.006007
   5 C :   -0.196628
   6 C :   -0.241673
   7 C :   -0.230337
   8 N :    0.013975
   9 H :    0.134350
  10 H :    0.134657
  11 H :    0.126163
  12 H :    0.139825
  13 H :    0.135766
  14 H :    0.167335
  15 H :    0.142701
  16 H :    0.129300
  17 H :    0.123448
  18 H :    0.164338

  Mayer bond orders larger than 0.1
B(  0-C ,  1-C ) :   0.8504 B(  0-C ,  9-H ) :   0.9300 B(  0-C , 10-H ) :   0.9428
B(  0-C , 11-H ) :   0.9380 B(  1-C ,  2-C ) :   1.7693 B(  1-C ,  6-C ) :   0.9785
B(  2-C ,  3-C ) :   0.9569 B(  2-C , 12-H ) :   0.9163 B(  3-C ,  4-N ) :   0.8928
B(  3-C ,  5-C ) :   0.9167 B(  3-C , 13-H ) :   0.9170 B(  4-N ,  5-C ) :   0.9806
B(  4-N , 14-H ) :   0.8688 B(  5-C ,  6-C ) :   0.8915 B(  5-C , 15-H ) :   0.9286
B(  6-C ,  7-C ) :   0.9079 B(  6-C ,  8-N ) :   0.8525 B(  7-C ,  8-N ) :   0.9709
B(  7-C , 16-H ) :   0.9096 B(  7-C , 17-H ) :   0.9190 B(  8-N , 18-H ) :   0.8694

MP2 TOTAL ENERGY:     -381.349165195 Eh
FINAL SINGLE POINT ENERGY      -381.349165194637

DIPOLE MOMENT
-------------
                                X             Y             Z
Electronic contribution:     -0.37462      -3.91456      -0.35820
Nuclear contribution   :      0.21084       4.12644       0.11615
                        -----------------------------------------
Total Dipole Moment    :     -0.16379       0.21187      -0.24205
                        -----------------------------------------
Magnitude (a.u.)       :      0.36098
Magnitude (Debye)      :      0.91753

                             ****ORCA TERMINATED NORMALLY****
TOTAL RUN TIME: 0 days 0 hours 19 minutes 53 seconds 472 msec
