                         Program Version 3.0.3 - RELEASE   -
|  1> ! RI-MP2 RIJK def2-TZVP def2-TZVP/C def2-TZVP/JK TIGHTSCF
|  2> % maxcore 2000
|  3> % mp2 density relaxed end
|  4> *xyz 0 1
|  5>  C       -0.1385597612     1.5548082124     0.0290868370
|  6>  C        0.0375636775     0.0247091590     0.0125479945
|  7>  C        0.7549470805    -0.4987234328    -1.1883611735
|  8>  C        2.0343714765    -0.9155064027    -1.3135429575
|  9>  N        2.2368619633    -1.2761231660    -2.6439885716
| 10>  C        1.0797122691    -1.1095474123    -3.3835652261
| 11>  O        0.8900895924    -1.3459114955    -4.5641058534
| 12>  N        0.1654726376    -0.6087805861    -2.4565651847
| 13>  C       -1.2088620445    -0.3555816511    -2.8244574809
| 14>  H        0.8340261672     2.0539681679    -0.0096195271
| 15>  H       -0.7253525420     1.9043269479    -0.8255087518
| 16>  H       -0.6535418189     1.8735942995     0.9407220603
| 17>  H        0.6048197420    -0.2817366015     0.8978319194
| 18>  H       -0.9454298881    -0.4557336974     0.1008678632
| 19>  H        2.8147264873    -0.9783584445    -0.5749000341
| 20>  H        3.0751514036    -1.6516332070    -3.0489136089
| 21>  H       -1.3086334783    -0.6442053292    -3.8725560895
| 22>  H       -1.9020576265    -0.9509152243    -2.2204986860
| 23>  H       -1.4707530875     0.7026281139    -2.7204579596
| 24> *
| 25>
| 26>                          ****END OF INPUT****

CARTESIAN COORDINATES (ANGSTROEM)
---------------------------------
  C     -0.138560    1.554808    0.029087
  C      0.037564    0.024709    0.012548
  C      0.754947   -0.498723   -1.188361
  C      2.034371   -0.915506   -1.313543
  N      2.236862   -1.276123   -2.643989
  C      1.079712   -1.109547   -3.383565
  O      0.890090   -1.345911   -4.564106
  N      0.165473   -0.608781   -2.456565
  C     -1.208862   -0.355582   -2.824457
  H      0.834026    2.053968   -0.009620
  H     -0.725353    1.904327   -0.825509
  H     -0.653542    1.873594    0.940722
  H      0.604820   -0.281737    0.897832
  H     -0.945430   -0.455734    0.100868
  H      2.814726   -0.978358   -0.574900
  H      3.075151   -1.651633   -3.048914
  H     -1.308633   -0.644205   -3.872556
  H     -1.902058   -0.950915   -2.220499
  H     -1.470753    0.702628   -2.720458

 Total Charge           Charge          ....    0
 Multiplicity           Mult            ....    1
 Number of Electrons    NEL             ....   68
 Basis Dimension        Dim             ....  339

ORBITAL ENERGIES
----------------

  NO   OCC          E(Eh)            E(eV)
   0   2.0000     -20.498511      -557.7928
   1   2.0000     -15.597257      -424.4230
   2   2.0000     -15.595187      -424.3666
   3   2.0000     -11.363933      -309.2283
   4   2.0000     -11.271506      -306.7133
   5   2.0000     -11.263122      -306.4851
   6   2.0000     -11.261590      -306.4435
   7   2.0000     -11.248432      -306.0854
   8   2.0000     -11.228852      -305.5526
   9   2.0000      -1.390323       -37.8326
  10   2.0000      -1.299557       -35.3627
  11   2.0000      -1.208251       -32.8782
  12   2.0000      -1.075497       -29.2658
  13   2.0000      -0.998946       -27.1827
  14   2.0000      -0.952651       -25.9230
  15   2.0000      -0.879681       -23.9373
  16   2.0000      -0.812349       -22.1051
  17   2.0000      -0.783980       -21.3332
  18   2.0000      -0.707029       -19.2392
  19   2.0000      -0.657790       -17.8994
  20   2.0000      -0.652965       -17.7681
  21   2.0000      -0.624874       -17.0037
  22   2.0000      -0.614928       -16.7330
  23   2.0000      -0.599770       -16.3206
  24   2.0000      -0.590476       -16.0677
  25   2.0000      -0.576413       -15.6850
  26   2.0000      -0.547894       -14.9089
  27   2.0000      -0.541738       -14.7415
  28   2.0000      -0.516649       -14.0587
  29   2.0000      -0.502416       -13.6714
  30   2.0000      -0.471198       -12.8220
  31   2.0000      -0.428950       -11.6723
  32   2.0000      -0.423429       -11.5221
  33   2.0000      -0.292206        -7.9513
  34   0.0000       0.127726         3.4756
  35   0.0000       0.143787         3.9126
  36   0.0000       0.156547         4.2598
  37   0.0000       0.163858         4.4588
  38   0.0000       0.177039         4.8175

MULLIKEN ATOMIC CHARGES
-----------------------
   0 C :   -0.371386
   1 C :   -0.229866
   2 C :    0.045174
   3 C :   -0.103185
   4 N :   -0.293463
   5 C :    0.267028
   6 O :   -0.408301
   7 N :   -0.073654
   8 C :   -0.344783
   9 H :    0.130883
  10 H :    0.122167
  11 H :    0.132319
  12 H :    0.131716
  13 H :    0.124127
  14 H :    0.154362
  15 H :    0.251813
  16 H :    0.188844
  17 H :    0.141493
  18 H :    0.134711
Sum of atomic charges:   -0.0000000

LOEWDIN ATOMIC CHARGES
----------------------
   0 C :   -0.305942
   1 C :   -0.256500
   2 C :   -0.223924
   3 C :   -0.219303
   4 N :    0.160223
   5 C :   -0.502211
   6 O :    0.026156
   7 N :    0.228650
   8 C :   -0.276816
   9 H :    0.123614
  10 H :    0.118816
  11 H :    0.121666
  12 H :    0.151231
  13 H :    0.144735
  14 H :    0.138654
  15 H :    0.192332
  16 H :    0.141285
  17 H :    0.120231
  18 H :    0.117102

  Mayer bond orders larger than 0.1
B(  0-C ,  1-C ) :   0.9078 B(  0-C ,  9-H ) :   0.9356 B(  0-C , 10-H ) :   0.9392
B(  0-C , 11-H ) :   0.9342 B(  1-C ,  2-C ) :   0.9125 B(  1-C , 12-H ) :   0.9440
B(  1-C , 13-H ) :   0.9344 B(  2-C ,  3-C ) :   1.6260 B(  2-C ,  7-N ) :   1.0745
B(  3-C ,  4-N ) :   1.0412 B(  3-C , 14-H ) :   0.9125 B(  4-N ,  5-C ) :   1.1126
B(  4-N , 15-H ) :   0.8690 B(  5-C ,  6-O ) :   1.9330 B(  5-C ,  7-N ) :   1.0910
B(  7-N ,  8-C ) :   0.8641 B(  8-C , 16-H ) :   0.9183 B(  8-C , 17-H ) :   0.9335
B(  8-C , 18-H ) :   0.9306

MP2 TOTAL ENERGY:     -418.564415823 Eh
FINAL SINGLE POINT ENERGY      -418.564415822572

DIPOLE MOMENT
-------------
                                X             Y             Z
Electronic contribution:      5.63131      -5.73612      -7.12280
Nuclear contribution   :     -5.55813       6.06499       8.66024
                        -----------------------------------------
Total Dipole Moment    :      0.07317       0.32887       1.53743
                        -----------------------------------------
Magnitude (a.u.)       :      1.57392
Magnitude (Debye)      :      4.00058

                             ****ORCA TERMINATED NORMALLY****
TOTAL RUN TIME: 0 days 0 hours 17 minutes 52 seconds 410 msec
