                         Program Version 3.0.3 - RELEASE   -
|  1> ! RI-MP2 RIJK def2-TZVP def2-TZVP/C def2-TZVP/JK TIGHTSCF
|  2> % maxcore 2000
|  3> % mp2 density relaxed end
|  4> *xyz 0 1
|  5>  O       -0.1642489392     1.4466187982    -0.0482488103
|  6>  C        0.0106442604     0.0335666255     0.0052593693
|  7>  C       -1.3808880269    -0.5775837008    -0.0209352607
|  8>  N       -2.0629372214    -0.2173438325    -1.2659506184
|  9>  C       -3.4384809951    -0.6960210673    -1.3227118081
| 10>  C       -3.4308162022    -2.2258462729    -1.3505617600
| 11>  C       -2.6835226569    -2.7865482997    -0.1253039276
| 12>  C       -1.3429369860    -2.1038226219     0.0942032880
| 13>  O       -0.3317535158    -2.7078538548     0.3685109497
| 14>  H        0.6975799128     1.8517729604    -0.1772921594
| 15>  H        0.5806415509    -0.3351749162    -0.8576724852
| 16>  H        0.5317871079    -0.2788975945     0.9185967510
| 17>  H       -1.9318381617    -0.2083531482     0.8714089652
| 18>  H       -2.0131024906     0.7907325933    -1.3664288478
| 19>  H       -4.0487922560    -0.3487681008    -0.4650750275
| 20>  H       -3.9059474994    -0.3039330765    -2.2316107572
| 21>  H       -4.4540430410    -2.6148903561    -1.3741524873
| 22>  H       -2.9290757831    -2.5563317419    -2.2664306989
| 23>  H       -3.2833759677    -2.5925416977     0.7766061335
| 24>  H       -2.5217049491    -3.8653299656    -0.1866687583
| 25> *
| 26>
| 27>                          ****END OF INPUT****

CARTESIAN COORDINATES (ANGSTROEM)
---------------------------------
  O     -0.164249    1.446619   -0.048249
  C      0.010644    0.033567    0.005259
  C     -1.380888   -0.577584   -0.020935
  N     -2.062937   -0.217344   -1.265951
  C     -3.438481   -0.696021   -1.322712
  C     -3.430816   -2.225846   -1.350562
  C     -2.683523   -2.786548   -0.125304
  C     -1.342937   -2.103823    0.094203
  O     -0.331754   -2.707854    0.368511
  H      0.697580    1.851773   -0.177292
  H      0.580642   -0.335175   -0.857672
  H      0.531787   -0.278898    0.918597
  H     -1.931838   -0.208353    0.871409
  H     -2.013102    0.790733   -1.366429
  H     -4.048792   -0.348768   -0.465075
  H     -3.905947   -0.303933   -2.231611
  H     -4.454043   -2.614890   -1.374152
  H     -2.929076   -2.556332   -2.266431
  H     -3.283376   -2.592542    0.776606
  H     -2.521705   -3.865330   -0.186669

 Total Charge           Charge          ....    0
 Multiplicity           Mult            ....    1
 Number of Electrons    NEL             ....   70
 Basis Dimension        Dim             ....  345

ORBITAL ENERGIES
----------------

  NO   OCC          E(Eh)            E(eV)
   0   2.0000     -20.563093      -559.5502
   1   2.0000     -20.545722      -559.0775
   2   2.0000     -15.549647      -423.1274
   3   2.0000     -11.327429      -308.2350
   4   2.0000     -11.276532      -306.8500
   5   2.0000     -11.266049      -306.5648
   6   2.0000     -11.257587      -306.3345
   7   2.0000     -11.237240      -305.7808
   8   2.0000     -11.233866      -305.6890
   9   2.0000      -1.389854       -37.8198
  10   2.0000      -1.366999       -37.1979
  11   2.0000      -1.224550       -33.3217
  12   2.0000      -1.065827       -29.0026
  13   2.0000      -1.026474       -27.9318
  14   2.0000      -0.934215       -25.4213
  15   2.0000      -0.855196       -23.2711
  16   2.0000      -0.822065       -22.3695
  17   2.0000      -0.739236       -20.1156
  18   2.0000      -0.701995       -19.1023
  19   2.0000      -0.679399       -18.4874
  20   2.0000      -0.658857       -17.9284
  21   2.0000      -0.632145       -17.2016
  22   2.0000      -0.627416       -17.0728
  23   2.0000      -0.609699       -16.5907
  24   2.0000      -0.584983       -15.9182
  25   2.0000      -0.579354       -15.7650
  26   2.0000      -0.566634       -15.4189
  27   2.0000      -0.533019       -14.5042
  28   2.0000      -0.514195       -13.9920
  29   2.0000      -0.493460       -13.4277
  30   2.0000      -0.483295       -13.1511
  31   2.0000      -0.472205       -12.8493
  32   2.0000      -0.452637       -12.3169
  33   2.0000      -0.411524       -11.1981
  34   2.0000      -0.374897       -10.2015
  35   0.0000       0.121210         3.2983
  36   0.0000       0.138351         3.7647
  37   0.0000       0.157372         4.2823
  38   0.0000       0.162504         4.4220
  39   0.0000       0.169014         4.5991

MULLIKEN ATOMIC CHARGES
-----------------------
   0 O :   -0.484579
   1 C :   -0.076337
   2 C :    0.048990
   3 N :   -0.364653
   4 C :   -0.157119
   5 C :   -0.202697
   6 C :   -0.188590
   7 C :    0.120194
   8 O :   -0.280339
   9 H :    0.322885
  10 H :    0.109535
  11 H :    0.113774
  12 H :    0.094187
  13 H :    0.222232
  14 H :    0.097341
  15 H :    0.126129
  16 H :    0.121881
  17 H :    0.114961
  18 H :    0.122471
  19 H :    0.139734
Sum of atomic charges:    0.0000000

LOEWDIN ATOMIC CHARGES
----------------------
   0 O :   -0.055280
   1 C :   -0.319908
   2 C :   -0.281875
   3 N :    0.008387
   4 C :   -0.309728
   5 C :   -0.259572
   6 C :   -0.227557
   7 C :   -0.293373
   8 O :    0.156809
   9 H :    0.174487
  10 H :    0.124711
  11 H :    0.124995
  12 H :    0.149021
  13 H :    0.175977
  14 H :    0.118935
  15 H :    0.133217
  16 H :    0.137572
  17 H :    0.142162
  18 H :    0.154463
  19 H :    0.146557

  Mayer bond orders larger than 0.1
B(  0-O ,  1-C ) :   0.9970 B(  0-O ,  9-H ) :   0.8469 B(  1-C ,  2-C ) :   0.9171
B(  1-C , 10-H ) :   0.9309 B(  1-C , 11-H ) :   0.9285 B(  2-C ,  3-N ) :   0.9016
B(  2-C ,  7-C ) :   0.8633 B(  2-C , 12-H ) :   0.8888 B(  3-N ,  4-C ) :   0.9422
B(  3-N , 13-H ) :   0.8670 B(  4-C ,  5-C ) :   0.9362 B(  4-C , 14-H ) :   0.9314
B(  4-C , 15-H ) :   0.9237 B(  5-C ,  6-C ) :   0.9117 B(  5-C , 16-H ) :   0.9283
B(  5-C , 17-H ) :   0.9237 B(  6-C ,  7-C ) :   0.9526 B(  6-C , 18-H ) :   0.9075
B(  6-C , 19-H ) :   0.9235 B(  7-C ,  8-O ) :   2.0169

MP2 TOTAL ENERGY:     -439.588876002 Eh
FINAL SINGLE POINT ENERGY      -439.588876001729

DIPOLE MOMENT
-------------
                                X             Y             Z
Electronic contribution:      4.68587      -0.40538       1.70336
Nuclear contribution   :     -5.21182       0.91920      -1.82384
                        -----------------------------------------
Total Dipole Moment    :     -0.52595       0.51382      -0.12047
                        -----------------------------------------
Magnitude (a.u.)       :      0.74509
Magnitude (Debye)      :      1.89386

                             ****ORCA TERMINATED NORMALLY****
TOTAL RUN TIME: 0 days 0 hours 18 minutes 54 seconds 833 msec
