                         Program Version 3.0.3 - RELEASE   -
|  1> ! RI-MP2 RIJK def2-TZVP def2-TZVP/C def2-TZVP/JK TIGHTSCF
|  2> % maxcore 2000
|  3> % mp2 density relaxed end
|  4> *xyz 0 1
|  5>  N        0.0829638688     1.3926655779     0.1531676270
|  6>  C        0.0011257476     0.0073615315     0.0319339611
|  7>  C       -1.0787712006    -0.8573641128    -0.0031420794
|  8>  N       -0.6297338438    -2.1738041463    -0.0319943845
|  9>  C        0.6712201693    -2.0994460615    -0.0239319572
| 10>  N        1.1120525822    -0.7957855159     0.0166504351
| 11>  C       -2.4368505159    -0.4708716208    -0.0033386413
| 12>  C       -3.5803864589    -0.0879977861    -0.0064755461
| 13>  H        0.5821736461     1.8370465795    -0.6107370066
| 14>  H       -0.8480591541     1.7899544982     0.2099366254
| 15>  H        1.3573549775    -2.9321301020    -0.0585617238
| 16>  H        2.0629414521    -0.4788970345     0.1085003592
| 17>  H       -4.5944155904     0.2255247127    -0.0043687690
| 18> *
| 19>
| 20>                          ****END OF INPUT****

CARTESIAN COORDINATES (ANGSTROEM)
---------------------------------
  N      0.082964    1.392666    0.153168
  C      0.001126    0.007362    0.031934
  C     -1.078771   -0.857364   -0.003142
  N     -0.629734   -2.173804   -0.031994
  C      0.671220   -2.099446   -0.023932
  N      1.112053   -0.795786    0.016650
  C     -2.436851   -0.470872   -0.003339
  C     -3.580386   -0.087998   -0.006476
  H      0.582174    1.837047   -0.610737
  H     -0.848059    1.789954    0.209937
  H      1.357355   -2.932130   -0.058562
  H      2.062941   -0.478897    0.108500
  H     -4.594416    0.225525   -0.004369

 Total Charge           Charge          ....    0
 Multiplicity           Mult            ....    1
 Number of Electrons    NEL             ....   56
 Basis Dimension        Dim             ....  278

ORBITAL ENERGIES
----------------

  NO   OCC          E(Eh)            E(eV)
   0   2.0000     -15.625736      -425.1979
   1   2.0000     -15.585796      -424.1111
   2   2.0000     -15.553680      -423.2371
   3   2.0000     -11.317016      -307.9517
   4   2.0000     -11.299056      -307.4629
   5   2.0000     -11.256559      -306.3065
   6   2.0000     -11.232097      -305.6409
   7   2.0000     -11.218552      -305.2723
   8   2.0000      -1.355115       -36.8746
   9   2.0000      -1.226680       -33.3797
  10   2.0000      -1.171342       -31.8738
  11   2.0000      -1.045996       -28.4630
  12   2.0000      -0.980497       -26.6807
  13   2.0000      -0.846421       -23.0323
  14   2.0000      -0.837359       -22.7857
  15   2.0000      -0.762762       -20.7558
  16   2.0000      -0.715997       -19.4833
  17   2.0000      -0.690611       -18.7925
  18   2.0000      -0.646861       -17.6020
  19   2.0000      -0.628840       -17.1116
  20   2.0000      -0.611702       -16.6452
  21   2.0000      -0.602591       -16.3973
  22   2.0000      -0.491258       -13.3678
  23   2.0000      -0.450294       -12.2531
  24   2.0000      -0.442551       -12.0424
  25   2.0000      -0.391226       -10.6458
  26   2.0000      -0.382829       -10.4173
  27   2.0000      -0.288824        -7.8593
  28   0.0000       0.115321         3.1380
  29   0.0000       0.138981         3.7819
  30   0.0000       0.150834         4.1044
  31   0.0000       0.164986         4.4895
  32   0.0000       0.169701         4.6178

MULLIKEN ATOMIC CHARGES
-----------------------
   0 N :   -0.521330
   1 C :    0.143436
   2 C :   -0.057262
   3 N :   -0.285592
   4 C :    0.042746
   5 N :   -0.291480
   6 C :    0.011845
   7 C :   -0.156810
   8 H :    0.256449
   9 H :    0.266881
  10 H :    0.152600
  11 H :    0.249559
  12 H :    0.188958
Sum of atomic charges:    0.0000000

LOEWDIN ATOMIC CHARGES
----------------------
   0 N :   -0.085782
   1 C :   -0.296140
   2 C :   -0.250818
   3 N :    0.124031
   4 C :   -0.309912
   5 N :    0.187684
   6 C :   -0.082013
   7 C :   -0.091491
   8 H :    0.170371
   9 H :    0.182158
  10 H :    0.130929
  11 H :    0.194720
  12 H :    0.126263

  Mayer bond orders larger than 0.1
B(  0-N ,  1-C ) :   1.0727 B(  0-N ,  8-H ) :   0.8665 B(  0-N ,  9-H ) :   0.8731
B(  1-C ,  2-C ) :   1.4007 B(  1-C ,  5-N ) :   1.1608 B(  2-C ,  3-N ) :   1.2412
B(  2-C ,  6-C ) :   1.2012 B(  2-C ,  7-C ) :  -0.1617 B(  3-N ,  4-C ) :   1.5965
B(  4-C ,  5-N ) :   1.1199 B(  4-C , 10-H ) :   0.9248 B(  5-N , 11-H ) :   0.8629
B(  6-C ,  7-C ) :   2.6200 B(  7-C , 12-H ) :   0.8774

MP2 TOTAL ENERGY:     -357.018598744 Eh
FINAL SINGLE POINT ENERGY      -357.018598744251

DIPOLE MOMENT
-------------
                                X             Y             Z
Electronic contribution:     -0.47954      -2.05550       0.05959
Nuclear contribution   :      1.75865       3.20850      -0.39900
                        -----------------------------------------
Total Dipole Moment    :      1.27911       1.15300      -0.33941
                        -----------------------------------------
Magnitude (a.u.)       :      1.75520
Magnitude (Debye)      :      4.46137

                             ****ORCA TERMINATED NORMALLY****
TOTAL RUN TIME: 0 days 0 hours 10 minutes 24 seconds 76 msec
