                         Program Version 3.0.3 - RELEASE   -
|  1> ! RI-MP2 RIJK def2-TZVP def2-TZVP/C def2-TZVP/JK TIGHTSCF
|  2> % maxcore 2000
|  3> % mp2 density relaxed end
|  4> *xyz 0 1
|  5>  C       -0.7344127888     1.3981278317    -0.2586615663
|  6>  C       -0.0867906043     0.0380207623     0.0394175846
|  7>  C        0.5286036485    -0.6072701884    -1.1857485058
|  8>  C        1.7821976371     0.0504693530    -1.6860177824
|  9>  O        2.4005368767     0.8909319305    -1.0822261552
| 10>  C        0.5211978663    -2.0692607527    -1.4959838498
| 11>  C       -0.7476319654    -2.7702078362    -1.0187226442
| 12>  C       -1.5164965192    -1.7182292647    -1.8546923189
| 13>  N       -0.2378529840    -1.1033067573    -2.3741484489
| 14>  H        0.0062330153     2.1026954827    -0.6443279382
| 15>  H       -1.5352054189     1.3096229523    -0.9998530391
| 16>  H       -1.1643502820     1.8254972218     0.6519430516
| 17>  H        0.7230345019     0.1774163031     0.7631674784
| 18>  H       -0.8132993012    -0.6292272303     0.5102785444
| 19>  H        2.1068967032    -0.3156117279    -2.6843629895
| 20>  H        1.4137598720    -2.5785123166    -1.8503551539
| 21>  H       -0.8394250558    -3.7784309319    -1.4261949819
| 22>  H       -0.9195135932    -2.8116521237     0.0599763688
| 23>  H       -2.0672228543    -2.1437606970    -2.6951710383
| 24>  H       -2.1671309538    -1.0203130810    -1.3227786854
| 25> *
| 26>
| 27>                          ****END OF INPUT****

CARTESIAN COORDINATES (ANGSTROEM)
---------------------------------
  C     -0.734413    1.398128   -0.258662
  C     -0.086791    0.038021    0.039418
  C      0.528604   -0.607270   -1.185749
  C      1.782198    0.050469   -1.686018
  O      2.400537    0.890932   -1.082226
  C      0.521198   -2.069261   -1.495984
  C     -0.747632   -2.770208   -1.018723
  C     -1.516497   -1.718229   -1.854692
  N     -0.237853   -1.103307   -2.374148
  H      0.006233    2.102695   -0.644328
  H     -1.535205    1.309623   -0.999853
  H     -1.164350    1.825497    0.651943
  H      0.723035    0.177416    0.763167
  H     -0.813299   -0.629227    0.510279
  H      2.106897   -0.315612   -2.684363
  H      1.413760   -2.578512   -1.850355
  H     -0.839425   -3.778431   -1.426195
  H     -0.919514   -2.811652    0.059976
  H     -2.067223   -2.143761   -2.695171
  H     -2.167131   -1.020313   -1.322779

 Total Charge           Charge          ....    0
 Multiplicity           Mult            ....    1
 Number of Electrons    NEL             ....   68
 Basis Dimension        Dim             ....  345

ORBITAL ENERGIES
----------------

  NO   OCC          E(Eh)            E(eV)
   0   2.0000     -20.555007      -559.3302
   1   2.0000     -15.577444      -423.8838
   2   2.0000     -11.329926      -308.3030
   3   2.0000     -11.282392      -307.0095
   4   2.0000     -11.280221      -306.9504
   5   2.0000     -11.269506      -306.6588
   6   2.0000     -11.247238      -306.0529
   7   2.0000     -11.233796      -305.6871
   8   2.0000     -11.215852      -305.1988
   9   2.0000      -1.395650       -37.9776
  10   2.0000      -1.306724       -35.5578
  11   2.0000      -1.065912       -29.0049
  12   2.0000      -1.019552       -27.7434
  13   2.0000      -0.956229       -26.0203
  14   2.0000      -0.892814       -24.2947
  15   2.0000      -0.857065       -23.3219
  16   2.0000      -0.768006       -20.8985
  17   2.0000      -0.744527       -20.2596
  18   2.0000      -0.704937       -19.1823
  19   2.0000      -0.674177       -18.3453
  20   2.0000      -0.636633       -17.3237
  21   2.0000      -0.620966       -16.8973
  22   2.0000      -0.601233       -16.3604
  23   2.0000      -0.582941       -15.8626
  24   2.0000      -0.570081       -15.5127
  25   2.0000      -0.538379       -14.6500
  26   2.0000      -0.533447       -14.5158
  27   2.0000      -0.514939       -14.0122
  28   2.0000      -0.496562       -13.5122
  29   2.0000      -0.493257       -13.4222
  30   2.0000      -0.457852       -12.4588
  31   2.0000      -0.434662       -11.8278
  32   2.0000      -0.422132       -11.4868
  33   2.0000      -0.379512       -10.3270
  34   0.0000       0.129888         3.5344
  35   0.0000       0.137499         3.7415
  36   0.0000       0.147984         4.0268
  37   0.0000       0.161229         4.3873
  38   0.0000       0.171525         4.6674

MULLIKEN ATOMIC CHARGES
-----------------------
   0 C :   -0.431850
   1 C :   -0.187826
   2 C :    0.236860
   3 C :    0.016023
   4 O :   -0.275964
   5 C :   -0.098548
   6 C :   -0.249543
   7 C :   -0.164382
   8 N :   -0.282323
   9 H :    0.153359
  10 H :    0.127130
  11 H :    0.135844
  12 H :    0.135832
  13 H :    0.122472
  14 H :    0.104717
  15 H :    0.135857
  16 H :    0.133252
  17 H :    0.128398
  18 H :    0.135345
  19 H :    0.125347
Sum of atomic charges:   -0.0000000

LOEWDIN ATOMIC CHARGES
----------------------
   0 C :   -0.306070
   1 C :   -0.247304
   2 C :   -0.271457
   3 C :   -0.254377
   4 O :    0.137192
   5 C :   -0.178150
   6 C :   -0.232189
   7 C :   -0.237118
   8 N :    0.136732
   9 H :    0.128695
  10 H :    0.120570
  11 H :    0.122768
  12 H :    0.154962
  13 H :    0.141725
  14 H :    0.125217
  15 H :    0.136255
  16 H :    0.139381
  17 H :    0.129542
  18 H :    0.130325
  19 H :    0.123302

  Mayer bond orders larger than 0.1
B(  0-C ,  1-C ) :   0.9165 B(  0-C ,  9-H ) :   0.9359 B(  0-C , 10-H ) :   0.9360
B(  0-C , 11-H ) :   0.9390 B(  1-C ,  2-C ) :   0.8769 B(  1-C , 12-H ) :   0.9092
B(  1-C , 13-H ) :   0.9449 B(  2-C ,  3-C ) :   0.8089 B(  2-C ,  5-C ) :   0.8669
B(  2-C ,  8-N ) :   0.7885 B(  3-C ,  4-O ) :   1.9906 B(  3-C , 14-H ) :   0.9607
B(  5-C ,  6-C ) :   0.9211 B(  5-C ,  8-N ) :   0.8643 B(  5-C , 15-H ) :   0.8976
B(  6-C ,  7-C ) :   0.9741 B(  6-C , 16-H ) :   0.9285 B(  6-C , 17-H ) :   0.9202
B(  7-C ,  8-N ) :   0.9156 B(  7-C , 18-H ) :   0.9218 B(  7-C , 19-H ) :   0.9333

MP2 TOTAL ENERGY:     -402.420635574 Eh
FINAL SINGLE POINT ENERGY      -402.420635573909

DIPOLE MOMENT
-------------
                                X             Y             Z
Electronic contribution:      6.26395      -0.04932      -3.01634
Nuclear contribution   :     -7.10550      -0.98114       3.31141
                        -----------------------------------------
Total Dipole Moment    :     -0.84155      -1.03045       0.29506
                        -----------------------------------------
Magnitude (a.u.)       :      1.36275
Magnitude (Debye)      :      3.46385

                             ****ORCA TERMINATED NORMALLY****
TOTAL RUN TIME: 0 days 0 hours 19 minutes 58 seconds 534 msec
