                         Program Version 3.0.3 - RELEASE   -
|  1> ! RI-MP2 RIJK def2-TZVP def2-TZVP/C def2-TZVP/JK TIGHTSCF
|  2> % maxcore 2000
|  3> % mp2 density relaxed end
|  4> *xyz 0 1
|  5>  O       -0.1008400126     0.0278553802     0.2310256716
|  6>  C        0.0626954826     1.1603971828    -0.1315107539
|  7>  C        1.4170414575     1.8904405574    -0.0892013538
|  8>  N        1.4860360266     2.9275550445    -1.1215529304
|  9>  C        1.8810851093     4.2175938206    -0.5364403835
| 10>  C        1.8006794394     3.9504450298     0.9524732525
| 11>  C        1.5571027900     2.6586433134     1.1979638588
| 12>  C        1.9932122877     4.9697829454     1.9214080651
| 13>  N        2.1581318430     5.8240547792     2.6859082902
| 14>  H       -0.7564793453     1.7983582287    -0.5301819146
| 15>  H        2.1946891971     1.1146161149    -0.1653030077
| 16>  H        2.0701580295     2.6594221668    -1.8998157699
| 17>  H        2.8961628589     4.5339936920    -0.8202437981
| 18>  H        1.1998383212     5.0245613009    -0.8368761836
| 19>  H        1.4602218051     2.1983404834     2.1720211472
| 20> *
| 21>
| 22>                          ****END OF INPUT****

CARTESIAN COORDINATES (ANGSTROEM)
---------------------------------
  O     -0.100840    0.027855    0.231026
  C      0.062695    1.160397   -0.131511
  C      1.417041    1.890441   -0.089201
  N      1.486036    2.927555   -1.121553
  C      1.881085    4.217594   -0.536440
  C      1.800679    3.950445    0.952473
  C      1.557103    2.658643    1.197964
  C      1.993212    4.969783    1.921408
  N      2.158132    5.824055    2.685908
  H     -0.756479    1.798358   -0.530182
  H      2.194689    1.114616   -0.165303
  H      2.070158    2.659422   -1.899816
  H      2.896163    4.533994   -0.820244
  H      1.199838    5.024561   -0.836876
  H      1.460222    2.198340    2.172021

 Total Charge           Charge          ....    0
 Multiplicity           Mult            ....    1
 Number of Electrons    NEL             ....   64
 Basis Dimension        Dim             ....  315

ORBITAL ENERGIES
----------------

  NO   OCC          E(Eh)            E(eV)
   0   2.0000     -20.575741      -559.8944
   1   2.0000     -15.588771      -424.1920
   2   2.0000     -15.583521      -424.0492
   3   2.0000     -11.345697      -308.7321
   4   2.0000     -11.305045      -307.6259
   5   2.0000     -11.300473      -307.5015
   6   2.0000     -11.298176      -307.4390
   7   2.0000     -11.291265      -307.2510
   8   2.0000     -11.290448      -307.2287
   9   2.0000      -1.415764       -38.5249
  10   2.0000      -1.275723       -34.7142
  11   2.0000      -1.232206       -33.5300
  12   2.0000      -1.105635       -30.0858
  13   2.0000      -1.046442       -28.4751
  14   2.0000      -0.900158       -24.4945
  15   2.0000      -0.876430       -23.8489
  16   2.0000      -0.802239       -21.8300
  17   2.0000      -0.766472       -20.8568
  18   2.0000      -0.691758       -18.8237
  19   2.0000      -0.671284       -18.2666
  20   2.0000      -0.648773       -17.6540
  21   2.0000      -0.619689       -16.8626
  22   2.0000      -0.597790       -16.2667
  23   2.0000      -0.595741       -16.2109
  24   2.0000      -0.578733       -15.7481
  25   2.0000      -0.565918       -15.3994
  26   2.0000      -0.527656       -14.3582
  27   2.0000      -0.520999       -14.1771
  28   2.0000      -0.475973       -12.9519
  29   2.0000      -0.452648       -12.3172
  30   2.0000      -0.422078       -11.4853
  31   2.0000      -0.377586       -10.2746
  32   0.0000       0.067184         1.8282
  33   0.0000       0.112585         3.0636
  34   0.0000       0.124278         3.3818
  35   0.0000       0.147390         4.0107
  36   0.0000       0.156984         4.2718

MULLIKEN ATOMIC CHARGES
-----------------------
   0 O :   -0.249887
   1 C :    0.078361
   2 C :    0.115291
   3 N :   -0.393677
   4 C :   -0.114809
   5 C :    0.145428
   6 C :   -0.224761
   7 C :   -0.194882
   8 N :   -0.042842
   9 H :    0.093482
  10 H :    0.119720
  11 H :    0.227916
  12 H :    0.133583
  13 H :    0.134819
  14 H :    0.172257
Sum of atomic charges:    0.0000000

LOEWDIN ATOMIC CHARGES
----------------------
   0 O :    0.145071
   1 C :   -0.268522
   2 C :   -0.276058
   3 N :    0.022847
   4 C :   -0.224501
   5 C :   -0.158083
   6 C :   -0.055759
   7 C :   -0.149484
   8 N :    0.086060
   9 H :    0.115565
  10 H :    0.157017
  11 H :    0.172293
  12 H :    0.136591
  13 H :    0.139700
  14 H :    0.157265

  Mayer bond orders larger than 0.1
B(  0-O ,  1-C ) :   2.0084 B(  1-C ,  2-C ) :   0.8085 B(  1-C ,  9-H ) :   0.9303
B(  2-C ,  3-N ) :   0.9342 B(  2-C ,  6-C ) :   0.9347 B(  2-C , 10-H ) :   0.8966
B(  3-N ,  4-C ) :   0.9578 B(  3-N , 11-H ) :   0.8802 B(  4-C ,  5-C ) :   0.9375
B(  4-C , 12-H ) :   0.9169 B(  4-C , 13-H ) :   0.9086 B(  5-C ,  6-C ) :   1.6744
B(  5-C ,  7-C ) :   0.9089 B(  6-C , 14-H ) :   0.9190 B(  7-C ,  8-N ) :   2.8342

MP2 TOTAL ENERGY:     -416.110955848 Eh
FINAL SINGLE POINT ENERGY      -416.110955847577

DIPOLE MOMENT
-------------
                                X             Y             Z
Electronic contribution:     -0.44435       0.43715       3.68982
Nuclear contribution   :      0.96585      -0.68080      -4.87184
                        -----------------------------------------
Total Dipole Moment    :      0.52150      -0.24365      -1.18202
                        -----------------------------------------
Magnitude (a.u.)       :      1.31472
Magnitude (Debye)      :      3.34176

                             ****ORCA TERMINATED NORMALLY****
TOTAL RUN TIME: 0 days 0 hours 15 minutes 0 seconds 837 msec
