                         Program Version 3.0.3 - RELEASE   -
|  1> ! RI-MP2 RIJK def2-TZVP def2-TZVP/C def2-TZVP/JK TIGHTSCF
|  2> % maxcore 2000
|  3> % mp2 density relaxed end
|  4> *xyz 0 1
|  5>  N       -0.0858630733     1.3625814963    -0.0496150774
|  6>  C        0.1130870377     0.0099344732     0.0381680991
|  7>  O        1.2170677011    -0.4952154760     0.1212773052
|  8>  C       -1.1709396355    -0.7826514338     0.0518780809
|  9>  O       -2.3506641929    -0.0278422504    -0.1243929508
| 10>  C       -1.3290691037    -2.1406587918    -0.6210411192
| 11>  C       -0.1264245026    -3.0379417046    -0.3271410676
| 12>  O       -0.2854211947    -2.8302861168     1.1104274710
| 13>  C       -1.4266866595    -2.0391214277     0.8768259057
| 14>  H        0.7350352371     1.9224436686    -0.2180524550
| 15>  H       -0.9737506437     1.6951062948    -0.3883092439
| 16>  H       -2.6236281825     0.3029174964     0.7394819110
| 17>  H       -2.0877885748    -2.2790503236    -1.3787414062
| 18>  H       -0.3158854592    -4.0871572553    -0.5751527005
| 19>  H        0.8519414347    -2.7113795756    -0.6787992697
| 20>  H       -2.2575267882    -2.0901823738     1.5743823375
| 21> *
| 22>
| 23>                          ****END OF INPUT****

CARTESIAN COORDINATES (ANGSTROEM)
---------------------------------
  N     -0.085863    1.362581   -0.049615
  C      0.113087    0.009934    0.038168
  O      1.217068   -0.495215    0.121277
  C     -1.170940   -0.782651    0.051878
  O     -2.350664   -0.027842   -0.124393
  C     -1.329069   -2.140659   -0.621041
  C     -0.126425   -3.037942   -0.327141
  O     -0.285421   -2.830286    1.110427
  C     -1.426687   -2.039121    0.876826
  H      0.735035    1.922444   -0.218052
  H     -0.973751    1.695106   -0.388309
  H     -2.623628    0.302917    0.739482
  H     -2.087789   -2.279050   -1.378741
  H     -0.315885   -4.087157   -0.575153
  H      0.851941   -2.711380   -0.678799
  H     -2.257527   -2.090182    1.574382

 Total Charge           Charge          ....    0
 Multiplicity           Mult            ....    1
 Number of Electrons    NEL             ....   68
 Basis Dimension        Dim             ....  321

ORBITAL ENERGIES
----------------

  NO   OCC          E(Eh)            E(eV)
   0   2.0000     -20.595357      -560.4281
   1   2.0000     -20.561493      -559.5067
   2   2.0000     -20.518687      -558.3419
   3   2.0000     -15.582124      -424.0111
   4   2.0000     -11.356629      -309.0296
   5   2.0000     -11.315121      -307.9001
   6   2.0000     -11.309375      -307.7437
   7   2.0000     -11.286939      -307.1332
   8   2.0000     -11.255694      -306.2830
   9   2.0000      -1.420369       -38.6502
  10   2.0000      -1.393076       -37.9075
  11   2.0000      -1.379194       -37.5298
  12   2.0000      -1.210615       -32.9425
  13   2.0000      -1.119973       -30.4760
  14   2.0000      -0.958316       -26.0771
  15   2.0000      -0.905745       -24.6466
  16   2.0000      -0.792535       -21.5660
  17   2.0000      -0.771038       -20.9810
  18   2.0000      -0.746499       -20.3133
  19   2.0000      -0.730626       -19.8813
  20   2.0000      -0.680504       -18.5175
  21   2.0000      -0.667328       -18.1589
  22   2.0000      -0.642930       -17.4950
  23   2.0000      -0.629968       -17.1423
  24   2.0000      -0.587879       -15.9970
  25   2.0000      -0.576776       -15.6949
  26   2.0000      -0.570233       -15.5168
  27   2.0000      -0.535117       -14.5613
  28   2.0000      -0.506088       -13.7713
  29   2.0000      -0.489383       -13.3168
  30   2.0000      -0.454113       -12.3570
  31   2.0000      -0.420226       -11.4349
  32   2.0000      -0.406523       -11.0620
  33   2.0000      -0.380428       -10.3520
  34   0.0000       0.120909         3.2901
  35   0.0000       0.151399         4.1198
  36   0.0000       0.160148         4.3578
  37   0.0000       0.163013         4.4358
  38   0.0000       0.186901         5.0858

MULLIKEN ATOMIC CHARGES
-----------------------
   0 N :   -0.485159
   1 C :    0.261217
   2 O :   -0.355684
   3 C :    0.169450
   4 O :   -0.492177
   5 C :   -0.221384
   6 C :    0.007047
   7 O :   -0.316634
   8 C :    0.024522
   9 H :    0.256203
  10 H :    0.273052
  11 H :    0.338102
  12 H :    0.148358
  13 H :    0.115826
  14 H :    0.139688
  15 H :    0.137574
Sum of atomic charges:   -0.0000000

LOEWDIN ATOMIC CHARGES
----------------------
   0 N :   -0.024608
   1 C :   -0.447687
   2 O :    0.096035
   3 C :   -0.287059
   4 O :    0.027595
   5 C :   -0.149684
   6 C :   -0.217796
   7 O :    0.168768
   8 C :   -0.232618
   9 H :    0.173309
  10 H :    0.171700
  11 H :    0.186578
  12 H :    0.144757
  13 H :    0.126622
  14 H :    0.129447
  15 H :    0.134641

  Mayer bond orders larger than 0.1
B(  0-N ,  1-C ) :   1.1675 B(  0-N ,  9-H ) :   0.8617 B(  0-N , 10-H ) :   0.8543
B(  1-C ,  2-O ) :   1.9331 B(  1-C ,  3-C ) :   0.8881 B(  3-C ,  4-O ) :   0.9050
B(  3-C ,  5-C ) :   0.8537 B(  3-C ,  8-C ) :   0.8227 B(  4-O , 11-H ) :   0.8329
B(  5-C ,  6-C ) :   0.9851 B(  5-C ,  8-C ) :   0.9217 B(  5-C , 12-H ) :   0.9090
B(  6-C ,  7-O ) :   0.8947 B(  6-C , 13-H ) :   0.9136 B(  6-C , 14-H ) :   0.9047
B(  7-O ,  8-C ) :   1.0088 B(  8-C , 15-H ) :   0.9192

MP2 TOTAL ENERGY:     -474.246234374 Eh
FINAL SINGLE POINT ENERGY      -474.246234373647

DIPOLE MOMENT
-------------
                                X             Y             Z
Electronic contribution:      1.10781       0.47555       1.30551
Nuclear contribution   :     -2.28546       0.22307      -1.68792
                        -----------------------------------------
Total Dipole Moment    :     -1.17765       0.69863      -0.38240
                        -----------------------------------------
Magnitude (a.u.)       :      1.42168
Magnitude (Debye)      :      3.61362

                             ****ORCA TERMINATED NORMALLY****
TOTAL RUN TIME: 0 days 0 hours 16 minutes 16 seconds 759 msec
