                         Program Version 3.0.3 - RELEASE   -
|  1> ! RI-MP2 RIJK def2-TZVP def2-TZVP/C def2-TZVP/JK TIGHTSCF
|  2> % maxcore 2000
|  3> % mp2 density relaxed end
|  4> *xyz 0 1
|  5>  O       -0.0072325585     1.4635892485     0.2072997680
|  6>  C        0.0302060126     0.0631010419     0.0487785711
|  7>  C        0.3475974404    -0.7318634335     1.3608430416
|  8>  C       -1.0989573159    -1.2594293709     1.3585400547
|  9>  C       -1.4089026824    -0.4828515727     0.1006288262
| 10>  N       -1.4596934940    -1.9237278913     0.1202589599
| 11>  C       -0.5556819664    -2.7762429060    -0.6314701314
| 12>  C       -0.8169360944    -4.2351403704    -0.2861339194
| 13>  O        0.0064258621    -5.1069294714    -0.3790232709
| 14>  H        0.8979704086     1.7851216831     0.2681887311
| 15>  H        0.6127386098    -0.2194971983    -0.8395978199
| 16>  H        1.1555655436    -1.4700316627     1.3486649313
| 17>  H        0.5139205932    -0.0259687807     2.1774551186
| 18>  H       -1.7141994552    -1.4397704123     2.2330571036
| 19>  H       -2.2882315541     0.0826311423    -0.1884375417
| 20>  H       -0.7852505350    -2.6576485190    -1.7003427657
| 21>  H        0.5175979616    -2.5806055263    -0.5070940416
| 22>  H       -1.8580426660    -4.4336617903     0.0517567145
| 23> *
| 24>
| 25>                          ****END OF INPUT****

CARTESIAN COORDINATES (ANGSTROEM)
---------------------------------
  O     -0.007233    1.463589    0.207300
  C      0.030206    0.063101    0.048779
  C      0.347597   -0.731863    1.360843
  C     -1.098957   -1.259429    1.358540
  C     -1.408903   -0.482852    0.100629
  N     -1.459693   -1.923728    0.120259
  C     -0.555682   -2.776243   -0.631470
  C     -0.816936   -4.235140   -0.286134
  O      0.006426   -5.106929   -0.379023
  H      0.897970    1.785122    0.268189
  H      0.612739   -0.219497   -0.839598
  H      1.155566   -1.470032    1.348665
  H      0.513921   -0.025969    2.177455
  H     -1.714199   -1.439770    2.233057
  H     -2.288232    0.082631   -0.188438
  H     -0.785251   -2.657649   -1.700343
  H      0.517598   -2.580606   -0.507094
  H     -1.858043   -4.433662    0.051757

 Total Charge           Charge          ....    0
 Multiplicity           Mult            ....    1
 Number of Electrons    NEL             ....   68
 Basis Dimension        Dim             ....  333

ORBITAL ENERGIES
----------------

  NO   OCC          E(Eh)            E(eV)
   0   2.0000     -20.572739      -559.8127
   1   2.0000     -20.558380      -559.4220
   2   2.0000     -15.579128      -423.9296
   3   2.0000     -11.331244      -308.3388
   4   2.0000     -11.300343      -307.4980
   5   2.0000     -11.274002      -306.7812
   6   2.0000     -11.273587      -306.7699
   7   2.0000     -11.270518      -306.6864
   8   2.0000     -11.241186      -305.8882
   9   2.0000      -1.398084       -38.0438
  10   2.0000      -1.382364       -37.6160
  11   2.0000      -1.307040       -35.5664
  12   2.0000      -1.082417       -29.4541
  13   2.0000      -1.000763       -27.2321
  14   2.0000      -0.913193       -24.8493
  15   2.0000      -0.841274       -22.8922
  16   2.0000      -0.786518       -21.4022
  17   2.0000      -0.766268       -20.8512
  18   2.0000      -0.723531       -19.6883
  19   2.0000      -0.696749       -18.9595
  20   2.0000      -0.672441       -18.2980
  21   2.0000      -0.649599       -17.6765
  22   2.0000      -0.637052       -17.3351
  23   2.0000      -0.625095       -17.0097
  24   2.0000      -0.600845       -16.3498
  25   2.0000      -0.554901       -15.0996
  26   2.0000      -0.546555       -14.8725
  27   2.0000      -0.515664       -14.0319
  28   2.0000      -0.493089       -13.4176
  29   2.0000      -0.475637       -12.9427
  30   2.0000      -0.459154       -12.4942
  31   2.0000      -0.423482       -11.5235
  32   2.0000      -0.414516       -11.2796
  33   2.0000      -0.391209       -10.6453
  34   0.0000       0.126162         3.4330
  35   0.0000       0.126950         3.4545
  36   0.0000       0.151996         4.1360
  37   0.0000       0.154388         4.2011
  38   0.0000       0.170872         4.6497

MULLIKEN ATOMIC CHARGES
-----------------------
   0 O :   -0.458501
   1 C :    0.038593
   2 C :   -0.244214
   3 C :   -0.096049
   4 C :   -0.056585
   5 N :   -0.218229
   6 C :   -0.079585
   7 C :    0.078831
   8 O :   -0.263340
   9 H :    0.320415
  10 H :    0.096749
  11 H :    0.129712
  12 H :    0.122153
  13 H :    0.141508
  14 H :    0.144282
  15 H :    0.142301
  16 H :    0.112984
  17 H :    0.088975
Sum of atomic charges:   -0.0000000

LOEWDIN ATOMIC CHARGES
----------------------
   0 O :   -0.008477
   1 C :   -0.314451
   2 C :   -0.220019
   3 C :   -0.208216
   4 C :   -0.194380
   5 N :    0.146234
   6 C :   -0.287707
   7 C :   -0.288320
   8 O :    0.133067
   9 H :    0.178162
  10 H :    0.122569
  11 H :    0.125984
  12 H :    0.143375
  13 H :    0.132512
  14 H :    0.137913
  15 H :    0.152521
  16 H :    0.136050
  17 H :    0.113183

  Mayer bond orders larger than 0.1
B(  0-O ,  1-C ) :   1.0643 B(  0-O ,  9-H ) :   0.8418 B(  1-C ,  2-C ) :   0.9306
B(  1-C ,  4-C ) :   0.8537 B(  1-C , 10-H ) :   0.9637 B(  2-C ,  3-C ) :   0.8968
B(  2-C , 11-H ) :   0.9166 B(  2-C , 12-H ) :   0.9078 B(  3-C ,  4-C ) :   0.8443
B(  3-C ,  5-N ) :   0.9186 B(  3-C , 13-H ) :   0.9194 B(  4-C ,  5-N ) :   0.9187
B(  4-C , 14-H ) :   0.9205 B(  5-N ,  6-C ) :   0.8628 B(  6-C ,  7-C ) :   0.8753
B(  6-C , 15-H ) :   0.9009 B(  6-C , 16-H ) :   0.8857 B(  7-C ,  8-O ) :   2.0113
B(  7-C , 17-H ) :   0.9410

MP2 TOTAL ENERGY:     -438.306347117 Eh
FINAL SINGLE POINT ENERGY      -438.306347117382

DIPOLE MOMENT
-------------
                                X             Y             Z
Electronic contribution:     -1.22750      -2.74280      -0.87273
Nuclear contribution   :      1.59428       3.62141       0.98287
                        -----------------------------------------
Total Dipole Moment    :      0.36678       0.87861       0.11014
                        -----------------------------------------
Magnitude (a.u.)       :      0.95844
Magnitude (Debye)      :      2.43616

                             ****ORCA TERMINATED NORMALLY****
TOTAL RUN TIME: 0 days 0 hours 15 minutes 49 seconds 511 msec
