                         Program Version 3.0.3 - RELEASE   -
|  1> ! RI-MP2 RIJK def2-TZVP def2-TZVP/C def2-TZVP/JK TIGHTSCF
|  2> % maxcore 2000
|  3> % mp2 density relaxed end
|  4> *xyz 0 1
|  5>  C       -0.0404661158     1.5428614367     0.0237623494
|  6>  C       -0.0089180990     0.0447050593    -0.0422259070
|  7>  C       -0.8839905033    -0.8705328819     0.8305122687
|  8>  O       -1.5359378545    -1.9776483609     0.2612388858
|  9>  C       -0.5185186298    -2.8758014337    -0.2013407293
| 10>  C        0.7558782374    -2.0250260815    -0.2438707450
| 11>  C        0.5708678145    -1.0444182421     0.9489302036
| 12>  C        0.5578366314    -0.7823642852    -1.1467537151
| 13>  O        0.9373905095    -0.5086198715    -2.2531557909
| 14>  H        0.9241205439     1.9695107730    -0.2684237950
| 15>  H       -0.8002181417     1.9413003883    -0.6566827308
| 16>  H       -0.2784067946     1.8927628203     1.0331480681
| 17>  H       -1.4754863958    -0.3697223268     1.5885342137
| 18>  H       -0.4146064448    -3.7210107328     0.4937453449
| 19>  H       -0.8113413559    -3.2564503474    -1.1842796063
| 20>  H        1.6902344633    -2.5698117765    -0.3667683360
| 21>  H        1.2156630552    -0.9025347672     1.8044949413
| 22> *
| 23>
| 24>                          ****END OF INPUT****

CARTESIAN COORDINATES (ANGSTROEM)
---------------------------------
  C     -0.040466    1.542861    0.023762
  C     -0.008918    0.044705   -0.042226
  C     -0.883991   -0.870533    0.830512
  O     -1.535938   -1.977648    0.261239
  C     -0.518519   -2.875801   -0.201341
  C      0.755878   -2.025026   -0.243871
  C      0.570868   -1.044418    0.948930
  C      0.557837   -0.782364   -1.146754
  O      0.937391   -0.508620   -2.253156
  H      0.924121    1.969511   -0.268424
  H     -0.800218    1.941300   -0.656683
  H     -0.278407    1.892763    1.033148
  H     -1.475486   -0.369722    1.588534
  H     -0.414606   -3.721011    0.493745
  H     -0.811341   -3.256450   -1.184280
  H      1.690234   -2.569812   -0.366768
  H      1.215663   -0.902535    1.804495

 Total Charge           Charge          ....    0
 Multiplicity           Mult            ....    1
 Number of Electrons    NEL             ....   66
 Basis Dimension        Dim             ....  327

ORBITAL ENERGIES
----------------

  NO   OCC          E(Eh)            E(eV)
   0   2.0000     -20.572677      -559.8110
   1   2.0000     -20.543257      -559.0104
   2   2.0000     -11.333573      -308.4022
   3   2.0000     -11.310564      -307.7761
   4   2.0000     -11.293837      -307.3209
   5   2.0000     -11.265710      -306.5556
   6   2.0000     -11.261576      -306.4431
   7   2.0000     -11.260115      -306.4033
   8   2.0000     -11.234977      -305.7193
   9   2.0000      -1.408227       -38.3198
  10   2.0000      -1.385811       -37.7098
  11   2.0000      -1.202500       -32.7217
  12   2.0000      -1.047727       -28.5101
  13   2.0000      -0.988194       -26.8901
  14   2.0000      -0.896207       -24.3870
  15   2.0000      -0.848867       -23.0988
  16   2.0000      -0.811989       -22.0953
  17   2.0000      -0.722905       -19.6713
  18   2.0000      -0.689702       -18.7677
  19   2.0000      -0.682981       -18.5848
  20   2.0000      -0.642140       -17.4735
  21   2.0000      -0.631465       -17.1830
  22   2.0000      -0.591622       -16.0988
  23   2.0000      -0.585908       -15.9434
  24   2.0000      -0.578513       -15.7421
  25   2.0000      -0.562442       -15.3048
  26   2.0000      -0.538132       -14.6433
  27   2.0000      -0.522671       -14.2226
  28   2.0000      -0.513778       -13.9806
  29   2.0000      -0.486272       -13.2321
  30   2.0000      -0.413617       -11.2551
  31   2.0000      -0.398183       -10.8351
  32   2.0000      -0.389554       -10.6003
  33   0.0000       0.134811         3.6684
  34   0.0000       0.143408         3.9023
  35   0.0000       0.159662         4.3446
  36   0.0000       0.168175         4.5763
  37   0.0000       0.180015         4.8985

MULLIKEN ATOMIC CHARGES
-----------------------
   0 C :   -0.426307
   1 C :    0.012814
   2 C :    0.037940
   3 O :   -0.309564
   4 C :   -0.047007
   5 C :   -0.048010
   6 C :   -0.193742
   7 C :    0.129176
   8 O :   -0.274042
   9 H :    0.148726
  10 H :    0.153904
  11 H :    0.134771
  12 H :    0.138934
  13 H :    0.105525
  14 H :    0.126578
  15 H :    0.145760
  16 H :    0.164542
Sum of atomic charges:   -0.0000000

LOEWDIN ATOMIC CHARGES
----------------------
   0 C :   -0.265252
   1 C :   -0.151242
   2 C :   -0.235620
   3 O :    0.180462
   4 C :   -0.257241
   5 C :   -0.160729
   6 C :   -0.095950
   7 C :   -0.276534
   8 O :    0.148078
   9 H :    0.135537
  10 H :    0.138796
  11 H :    0.131821
  12 H :    0.152323
  13 H :    0.125065
  14 H :    0.133649
  15 H :    0.154336
  16 H :    0.142503

  Mayer bond orders larger than 0.1
B(  0-C ,  1-C ) :   0.8793 B(  0-C ,  9-H ) :   0.9361 B(  0-C , 10-H ) :   0.9339
B(  0-C , 11-H ) :   0.9385 B(  1-C ,  2-C ) :   0.7983 B(  1-C ,  6-C ) :   0.7535
B(  1-C ,  7-C ) :   0.9190 B(  2-C ,  3-O ) :   0.9962 B(  2-C ,  6-C ) :   0.9264
B(  2-C , 12-H ) :   0.9392 B(  3-O ,  4-C ) :   0.9255 B(  4-C ,  5-C ) :   0.9283
B(  4-C , 13-H ) :   0.9250 B(  4-C , 14-H ) :   0.9125 B(  5-C ,  6-C ) :   0.8722
B(  5-C ,  7-C ) :   0.8749 B(  5-C , 15-H ) :   0.8946 B(  6-C , 16-H ) :   0.8855
B(  7-C ,  8-O ) :   2.0448

MP2 TOTAL ENERGY:     -421.110041024 Eh
FINAL SINGLE POINT ENERGY      -421.110041024338

DIPOLE MOMENT
-------------
                                X             Y             Z
Electronic contribution:     -0.06233      -2.41911      -2.68353
Nuclear contribution   :      0.30077       2.36068       3.92485
                        -----------------------------------------
Total Dipole Moment    :      0.23844      -0.05843       1.24133
                        -----------------------------------------
Magnitude (a.u.)       :      1.26537
Magnitude (Debye)      :      3.21632

                             ****ORCA TERMINATED NORMALLY****
TOTAL RUN TIME: 0 days 0 hours 18 minutes 37 seconds 893 msec
