                         Program Version 3.0.3 - RELEASE   -
|  1> ! RI-MP2 RIJK def2-TZVP def2-TZVP/C def2-TZVP/JK TIGHTSCF
|  2> % maxcore 2000
|  3> % mp2 density relaxed end
|  4> *xyz 0 1
|  5>  O       -0.6095642077     0.5759342095     0.5813323779
|  6>  C        0.1688381979     0.9286760240    -0.2653595507
|  7>  C        1.2699505884     1.9556644644    -0.0436877197
|  8>  C        1.2584225569     3.0273572510    -1.0930370620
|  9>  N        1.7754031892     2.8346302025    -2.4721476949
| 10>  C        2.3159840691     3.9219814698    -1.6178182212
| 11>  C        1.3104263992     5.1178651089    -1.6286247714
| 12>  N        0.1612601141     4.7669166225    -2.4964151110
| 13>  C        0.2441163450     4.2296975955    -1.1189387763
| 14>  H        0.1292969435     0.5145262279    -1.2976794104
| 15>  H        1.1537429775     2.3703368863     0.9632764306
| 16>  H        2.2323105341     1.4239151556    -0.0810713357
| 17>  H        2.4560439636     2.0743734674    -2.4228104121
| 18>  H        3.3677739995     3.9800371169    -1.3682391705
| 19>  H        1.5495437775     6.1419630405    -1.3755042454
| 20>  H       -0.4808577194     5.5595648320    -2.4551729672
| 21>  H       -0.5275775484     4.4069670354    -0.3809408500
| 22> *
| 23>
| 24>                          ****END OF INPUT****

CARTESIAN COORDINATES (ANGSTROEM)
---------------------------------
  O     -0.609564    0.575934    0.581332
  C      0.168838    0.928676   -0.265360
  C      1.269951    1.955664   -0.043688
  C      1.258423    3.027357   -1.093037
  N      1.775403    2.834630   -2.472148
  C      2.315984    3.921981   -1.617818
  C      1.310426    5.117865   -1.628625
  N      0.161260    4.766917   -2.496415
  C      0.244116    4.229698   -1.118939
  H      0.129297    0.514526   -1.297679
  H      1.153743    2.370337    0.963276
  H      2.232311    1.423915   -0.081071
  H      2.456044    2.074373   -2.422810
  H      3.367774    3.980037   -1.368239
  H      1.549544    6.141963   -1.375504
  H     -0.480858    5.559565   -2.455173
  H     -0.527578    4.406967   -0.380941

 Total Charge           Charge          ....    0
 Multiplicity           Mult            ....    1
 Number of Electrons    NEL             ....   66
 Basis Dimension        Dim             ....  327

ORBITAL ENERGIES
----------------

  NO   OCC          E(Eh)            E(eV)
   0   2.0000     -20.563080      -559.5498
   1   2.0000     -15.571230      -423.7147
   2   2.0000     -15.568017      -423.6273
   3   2.0000     -11.337530      -308.5099
   4   2.0000     -11.284668      -307.0714
   5   2.0000     -11.275069      -306.8102
   6   2.0000     -11.272842      -306.7496
   7   2.0000     -11.271717      -306.7190
   8   2.0000     -11.258897      -306.3702
   9   2.0000      -1.401972       -38.1496
  10   2.0000      -1.324011       -36.0282
  11   2.0000      -1.228789       -33.4371
  12   2.0000      -1.050890       -28.5962
  13   2.0000      -0.978208       -26.6184
  14   2.0000      -0.879206       -23.9244
  15   2.0000      -0.826064       -22.4783
  16   2.0000      -0.797642       -21.7049
  17   2.0000      -0.755363       -20.5545
  18   2.0000      -0.729264       -19.8443
  19   2.0000      -0.676204       -18.4005
  20   2.0000      -0.646146       -17.5825
  21   2.0000      -0.643686       -17.5156
  22   2.0000      -0.615376       -16.7452
  23   2.0000      -0.581993       -15.8368
  24   2.0000      -0.578345       -15.7376
  25   2.0000      -0.530220       -14.4280
  26   2.0000      -0.517065       -14.0701
  27   2.0000      -0.480630       -13.0786
  28   2.0000      -0.469876       -12.7860
  29   2.0000      -0.462000       -12.5717
  30   2.0000      -0.432004       -11.7554
  31   2.0000      -0.394322       -10.7301
  32   2.0000      -0.338378        -9.2077
  33   0.0000       0.117924         3.2089
  34   0.0000       0.129382         3.5207
  35   0.0000       0.142418         3.8754
  36   0.0000       0.156242         4.2516
  37   0.0000       0.164875         4.4865

MULLIKEN ATOMIC CHARGES
-----------------------
   0 O :   -0.259794
   1 C :    0.110124
   2 C :   -0.163804
   3 C :    0.147139
   4 N :   -0.351137
   5 C :   -0.139101
   6 C :   -0.052859
   7 N :   -0.341338
   8 C :   -0.174073
   9 H :    0.094562
  10 H :    0.128178
  11 H :    0.132915
  12 H :    0.211831
  13 H :    0.146028
  14 H :    0.145648
  15 H :    0.217924
  16 H :    0.147758
Sum of atomic charges:    0.0000000

LOEWDIN ATOMIC CHARGES
----------------------
   0 O :    0.136031
   1 C :   -0.282141
   2 C :   -0.233641
   3 C :   -0.245732
   4 N :    0.037768
   5 C :   -0.194658
   6 C :   -0.214452
   7 N :    0.017271
   8 C :   -0.194778
   9 H :    0.115828
  10 H :    0.154745
  11 H :    0.158596
  12 H :    0.172177
  13 H :    0.132367
  14 H :    0.130791
  15 H :    0.175175
  16 H :    0.134654

  Mayer bond orders larger than 0.1
B(  0-O ,  1-C ) :   1.9937 B(  1-C ,  2-C ) :   0.8844 B(  1-C ,  9-H ) :   0.9342
B(  2-C ,  3-C ) :   0.9080 B(  2-C , 10-H ) :   0.8844 B(  2-C , 11-H ) :   0.9206
B(  3-C ,  4-N ) :   0.9296 B(  3-C ,  5-C ) :   0.9412 B(  3-C ,  6-C ) :  -0.1222
B(  3-C ,  8-C ) :   0.8417 B(  4-N ,  5-C ) :   1.0343 B(  4-N , 12-H ) :   0.8613
B(  5-C ,  6-C ) :   0.8787 B(  5-C , 13-H ) :   0.9228 B(  6-C ,  7-N ) :   0.9709
B(  6-C ,  8-C ) :   1.0179 B(  6-C , 14-H ) :   0.9257 B(  7-N ,  8-C ) :   1.0096
B(  7-N , 15-H ) :   0.8630 B(  8-C , 16-H ) :   0.9350

MP2 TOTAL ENERGY:     -417.186781058 Eh
FINAL SINGLE POINT ENERGY      -417.186781058256

DIPOLE MOMENT
-------------
                                X             Y             Z
Electronic contribution:     -1.83239      -1.55107       0.01667
Nuclear contribution   :      2.82726       2.27185       0.45857
                        -----------------------------------------
Total Dipole Moment    :      0.99487       0.72078       0.47525
                        -----------------------------------------
Magnitude (a.u.)       :      1.31725
Magnitude (Debye)      :      3.34819

                             ****ORCA TERMINATED NORMALLY****
TOTAL RUN TIME: 0 days 0 hours 16 minutes 48 seconds 540 msec
