                         Program Version 3.0.3 - RELEASE   -
|  1> ! RI-MP2 RIJK def2-TZVP def2-TZVP/C def2-TZVP/JK TIGHTSCF
|  2> % maxcore 2000
|  3> % mp2 density relaxed end
|  4> *xyz 0 1
|  5>  C       -0.1503079644     1.6959441370    -0.0388229658
|  6>  C        0.0046156698     0.1784646502    -0.0614790417
|  7>  C        0.8192938955    -0.4248580770    -1.2490963574
|  8>  C        1.7796660837    -0.9272927090    -0.1574577136
|  9>  O        1.0304225832    -0.2577585801     0.8798900766
| 10>  C       -1.2665196168    -0.4916357673     0.1923167364
| 11>  C       -2.3219042520    -1.0490140750     0.3965783282
| 12>  C       -3.5065197378    -1.6763331619     0.6279540295
| 13>  C       -4.5581234791    -2.2338406935     0.8320119381
| 14>  H        0.8177273374     2.1671739774    -0.2293060786
| 15>  H       -0.8649951483     2.0207351509    -0.8011109052
| 16>  H       -0.5131675059     2.0219557252     0.9395334184
| 17>  H        0.3050954265    -1.1881450540    -1.8316990893
| 18>  H        1.2311453509     0.3335372402    -1.9169027440
| 19>  H        1.7896168518    -2.0142191696    -0.0138488650
| 20>  H        2.8119970356    -0.5646813524    -0.2098924723
| 21>  H       -5.4824924903    -2.7232267813     1.0144014356
| 22> *
| 23>
| 24>                          ****END OF INPUT****

CARTESIAN COORDINATES (ANGSTROEM)
---------------------------------
  C     -0.150308    1.695944   -0.038823
  C      0.004616    0.178465   -0.061479
  C      0.819294   -0.424858   -1.249096
  C      1.779666   -0.927293   -0.157458
  O      1.030423   -0.257759    0.879890
  C     -1.266520   -0.491636    0.192317
  C     -2.321904   -1.049014    0.396578
  C     -3.506520   -1.676333    0.627954
  C     -4.558123   -2.233841    0.832012
  H      0.817727    2.167174   -0.229306
  H     -0.864995    2.020735   -0.801111
  H     -0.513168    2.021956    0.939533
  H      0.305095   -1.188145   -1.831699
  H      1.231145    0.333537   -1.916903
  H      1.789617   -2.014219   -0.013849
  H      2.811997   -0.564681   -0.209892
  H     -5.482492   -2.723227    1.014401

 Total Charge           Charge          ....    0
 Multiplicity           Mult            ....    1
 Number of Electrons    NEL             ....   64
 Basis Dimension        Dim             ....  327

ORBITAL ENERGIES
----------------

  NO   OCC          E(Eh)            E(eV)
   0   2.0000     -20.557718      -559.4039
   1   2.0000     -11.324351      -308.1513
   2   2.0000     -11.286213      -307.1135
   3   2.0000     -11.259547      -306.3878
   4   2.0000     -11.254610      -306.2535
   5   2.0000     -11.250816      -306.1503
   6   2.0000     -11.249665      -306.1190
   7   2.0000     -11.243914      -305.9624
   8   2.0000     -11.230352      -305.5934
   9   2.0000      -1.388485       -37.7826
  10   2.0000      -1.097352       -29.8605
  11   2.0000      -1.059673       -28.8352
  12   2.0000      -1.012009       -27.5382
  13   2.0000      -0.996129       -27.1061
  14   2.0000      -0.898774       -24.4569
  15   2.0000      -0.842305       -22.9203
  16   2.0000      -0.784859       -21.3571
  17   2.0000      -0.712149       -19.3786
  18   2.0000      -0.697508       -18.9801
  19   2.0000      -0.670501       -18.2453
  20   2.0000      -0.637151       -17.3377
  21   2.0000      -0.590699       -16.0737
  22   2.0000      -0.562671       -15.3110
  23   2.0000      -0.558989       -15.2109
  24   2.0000      -0.541756       -14.7419
  25   2.0000      -0.496130       -13.5004
  26   2.0000      -0.486198       -13.2301
  27   2.0000      -0.472503       -12.8575
  28   2.0000      -0.464129       -12.6296
  29   2.0000      -0.432703       -11.7745
  30   2.0000      -0.358148        -9.7457
  31   2.0000      -0.353212        -9.6114
  32   0.0000       0.106310         2.8928
  33   0.0000       0.114591         3.1182
  34   0.0000       0.134345         3.6557
  35   0.0000       0.156425         4.2566
  36   0.0000       0.161418         4.3924

MULLIKEN ATOMIC CHARGES
-----------------------
   0 C :   -0.393121
   1 C :    0.225650
   2 C :   -0.306065
   3 C :   -0.029792
   4 O :   -0.328630
   5 C :   -0.215157
   6 C :    0.099999
   7 C :   -0.004699
   8 C :   -0.141828
   9 H :    0.134971
  10 H :    0.137089
  11 H :    0.145669
  12 H :    0.144157
  13 H :    0.130371
  14 H :    0.103956
  15 H :    0.102781
  16 H :    0.194649
Sum of atomic charges:   -0.0000000

LOEWDIN ATOMIC CHARGES
----------------------
   0 C :   -0.250483
   1 C :   -0.330753
   2 C :   -0.188727
   3 C :   -0.269092
   4 O :    0.162140
   5 C :    0.025946
   6 C :   -0.045528
   7 C :   -0.097054
   8 C :   -0.044427
   9 H :    0.129536
  10 H :    0.133620
  11 H :    0.135691
  12 H :    0.136802
  13 H :    0.135386
  14 H :    0.119492
  15 H :    0.116959
  16 H :    0.130493

  Mayer bond orders larger than 0.1
B(  0-C ,  1-C ) :   0.9105 B(  0-C ,  9-H ) :   0.9344 B(  0-C , 10-H ) :   0.9260
B(  0-C , 11-H ) :   0.9317 B(  1-C ,  2-C ) :   0.8704 B(  1-C ,  4-O ) :   0.9140
B(  1-C ,  5-C ) :   1.1496 B(  1-C ,  6-C ) :  -0.1571 B(  2-C ,  3-C ) :   0.9844
B(  2-C , 12-H ) :   0.9286 B(  2-C , 13-H ) :   0.9278 B(  3-C ,  4-O ) :   0.9523
B(  3-C , 14-H ) :   0.9154 B(  3-C , 15-H ) :   0.9175 B(  5-C ,  6-C ) :   2.5448
B(  5-C ,  8-C ) :   0.1211 B(  6-C ,  7-C ) :   1.2680 B(  7-C ,  8-C ) :   2.5365
B(  8-C , 16-H ) :   0.8875

MP2 TOTAL ENERGY:     -383.918760610 Eh
FINAL SINGLE POINT ENERGY      -383.918760610026

DIPOLE MOMENT
-------------
                                X             Y             Z
Electronic contribution:     -5.87339      -3.94930       3.17403
Nuclear contribution   :      5.98255       4.00591      -3.94353
                        -----------------------------------------
Total Dipole Moment    :      0.10916       0.05661      -0.76949
                        -----------------------------------------
Magnitude (a.u.)       :      0.77926
Magnitude (Debye)      :      1.98071

                             ****ORCA TERMINATED NORMALLY****
TOTAL RUN TIME: 0 days 0 hours 15 minutes 38 seconds 873 msec
