                         Program Version 3.0.3 - RELEASE   -
|  1> ! RI-MP2 RIJK def2-TZVP def2-TZVP/C def2-TZVP/JK TIGHTSCF
|  2> % maxcore 2000
|  3> % mp2 density relaxed end
|  4> *xyz 0 1
|  5>  C       -0.1914036464     1.4728156428     0.0271784899
|  6>  C       -0.0186707888    -0.0088385383    -0.0395612408
|  7>  C        0.0889611158    -0.8026159158    -1.1002215116
|  8>  C        0.1979866202    -2.2382443750    -0.6851646737
|  9>  O        0.2754272127    -2.2004454199     0.7426885939
| 10>  C        0.0228602388    -0.8811598086     1.2154294306
| 11>  C        1.1120099642    -0.4956159881     2.2249874725
| 12>  C       -1.3077090870    -0.8433241541     1.8847800826
| 13>  N       -2.3435669136    -0.7904443959     2.3949506856
| 14>  H        0.6441121877     1.9522832160     0.5506610009
| 15>  H       -0.2569532520     1.9057615800    -0.9735551512
| 16>  H       -1.1040537780     1.7351299708     0.5754479429
| 17>  H        0.0819083974    -0.4850665375    -2.1356141712
| 18>  H       -0.6721518947    -2.8321028413    -1.0052582414
| 19>  H        1.0972554512    -2.7373650763    -1.0707460333
| 20>  H        2.0780114710    -0.4764831029     1.7144360846
| 21>  H        0.9135162270     0.4854865391     2.6644522314
| 22>  H        1.1484574844    -1.2357159548     3.0274992983
| 23> *
| 24>
| 25>                          ****END OF INPUT****

CARTESIAN COORDINATES (ANGSTROEM)
---------------------------------
  C     -0.191404    1.472816    0.027178
  C     -0.018671   -0.008839   -0.039561
  C      0.088961   -0.802616   -1.100222
  C      0.197987   -2.238244   -0.685165
  O      0.275427   -2.200445    0.742689
  C      0.022860   -0.881160    1.215429
  C      1.112010   -0.495616    2.224987
  C     -1.307709   -0.843324    1.884780
  N     -2.343567   -0.790444    2.394951
  H      0.644112    1.952283    0.550661
  H     -0.256953    1.905762   -0.973555
  H     -1.104054    1.735130    0.575448
  H      0.081908   -0.485067   -2.135614
  H     -0.672152   -2.832103   -1.005258
  H      1.097255   -2.737365   -1.070746
  H      2.078011   -0.476483    1.714436
  H      0.913516    0.485487    2.664452
  H      1.148457   -1.235716    3.027499

 Total Charge           Charge          ....    0
 Multiplicity           Mult            ....    1
 Number of Electrons    NEL             ....   66
 Basis Dimension        Dim             ....  333

ORBITAL ENERGIES
----------------

  NO   OCC          E(Eh)            E(eV)
   0   2.0000     -20.578591      -559.9719
   1   2.0000     -15.570115      -423.6844
   2   2.0000     -11.345964      -308.7394
   3   2.0000     -11.296750      -307.4002
   4   2.0000     -11.268105      -306.6207
   5   2.0000     -11.262095      -306.4572
   6   2.0000     -11.248175      -306.0784
   7   2.0000     -11.244432      -305.9765
   8   2.0000     -11.241468      -305.8959
   9   2.0000      -1.408588       -38.3296
  10   2.0000      -1.216163       -33.0935
  11   2.0000      -1.120382       -30.4871
  12   2.0000      -1.068752       -29.0822
  13   2.0000      -0.985108       -26.8061
  14   2.0000      -0.930943       -25.3323
  15   2.0000      -0.860486       -23.4150
  16   2.0000      -0.780162       -21.2293
  17   2.0000      -0.716462       -19.4959
  18   2.0000      -0.679962       -18.5027
  19   2.0000      -0.642865       -17.4933
  20   2.0000      -0.627237       -17.0680
  21   2.0000      -0.595163       -16.1952
  22   2.0000      -0.582980       -15.8637
  23   2.0000      -0.578356       -15.7379
  24   2.0000      -0.563067       -15.3218
  25   2.0000      -0.557607       -15.1733
  26   2.0000      -0.550836       -14.9890
  27   2.0000      -0.519069       -14.1246
  28   2.0000      -0.507315       -13.8048
  29   2.0000      -0.472534       -12.8583
  30   2.0000      -0.460295       -12.5253
  31   2.0000      -0.449010       -12.2182
  32   2.0000      -0.370729       -10.0881
  33   0.0000       0.123814         3.3692
  34   0.0000       0.135546         3.6884
  35   0.0000       0.151124         4.1123
  36   0.0000       0.160372         4.3639
  37   0.0000       0.172874         4.7042

MULLIKEN ATOMIC CHARGES
-----------------------
   0 C :   -0.455081
   1 C :   -0.005499
   2 C :   -0.214377
   3 C :    0.014428
   4 O :   -0.327019
   5 C :    0.415549
   6 C :   -0.414501
   7 C :   -0.252535
   8 N :   -0.050791
   9 H :    0.153238
  10 H :    0.146208
  11 H :    0.168923
  12 H :    0.141576
  13 H :    0.116430
  14 H :    0.120669
  15 H :    0.143042
  16 H :    0.141715
  17 H :    0.158024
Sum of atomic charges:   -0.0000000

LOEWDIN ATOMIC CHARGES
----------------------
   0 C :   -0.260051
   1 C :   -0.147507
   2 C :   -0.129475
   3 C :   -0.270596
   4 O :    0.214726
   5 C :   -0.324640
   6 C :   -0.239038
   7 C :   -0.136524
   8 N :    0.067856
   9 H :    0.135229
  10 H :    0.135667
  11 H :    0.141893
  12 H :    0.145472
  13 H :    0.131200
  14 H :    0.130892
  15 H :    0.133779
  16 H :    0.133366
  17 H :    0.137752

  Mayer bond orders larger than 0.1
B(  0-C ,  1-C ) :   0.8851 B(  0-C ,  9-H ) :   0.9330 B(  0-C , 10-H ) :   0.9419
B(  0-C , 11-H ) :   0.9248 B(  1-C ,  2-C ) :   1.7532 B(  1-C ,  5-C ) :   0.8921
B(  2-C ,  3-C ) :   0.9931 B(  2-C , 12-H ) :   0.9105 B(  3-C ,  4-O ) :   0.9164
B(  3-C , 13-H ) :   0.9074 B(  3-C , 14-H ) :   0.9219 B(  4-O ,  5-C ) :   0.9362
B(  5-C ,  6-C ) :   0.8668 B(  5-C ,  7-C ) :   0.8767 B(  6-C , 15-H ) :   0.9370
B(  6-C , 16-H ) :   0.9246 B(  6-C , 17-H ) :   0.9294 B(  7-C ,  8-N ) :   2.8709

MP2 TOTAL ENERGY:     -401.276654280 Eh
FINAL SINGLE POINT ENERGY      -401.276654279817

DIPOLE MOMENT
-------------
                                X             Y             Z
Electronic contribution:     -4.22790      -4.24256       1.98403
Nuclear contribution   :      5.43842       4.81099      -3.10118
                        -----------------------------------------
Total Dipole Moment    :      1.21052       0.56843      -1.11714
                        -----------------------------------------
Magnitude (a.u.)       :      1.74255
Magnitude (Debye)      :      4.42920

                             ****ORCA TERMINATED NORMALLY****
TOTAL RUN TIME: 0 days 0 hours 18 minutes 32 seconds 937 msec
