                         Program Version 3.0.3 - RELEASE   -
|  1> ! RI-MP2 RIJK def2-TZVP def2-TZVP/C def2-TZVP/JK TIGHTSCF
|  2> % maxcore 2000
|  3> % mp2 density relaxed end
|  4> *xyz 0 1
|  5>  C        0.1727834698     1.3797986177    -0.2731588718
|  6>  N       -0.0643672552    -0.0132951718     0.0394003607
|  7>  C       -1.3082728334    -0.5458344326     0.0685636921
|  8>  C       -1.3276815794    -2.0587743538     0.3079170449
|  9>  O       -0.0423656362    -2.6127095894     0.5454080316
| 10>  N       -2.3381968003     0.2084508323    -0.1028925216
| 11>  C       -3.6633789578    -0.3837048698    -0.0320906304
| 12>  C       -4.0695357065    -0.7636212226     1.3342120765
| 13>  N       -4.3493025711    -1.0690862523     2.4139966066
| 14>  H        1.2327804945     1.5997095374    -0.1305243224
| 15>  H       -0.1102770185     1.6229183014    -1.3049507886
| 16>  H       -0.4215048907     2.0159720041     0.3878823123
| 17>  H        0.6921340224    -0.6774586691     0.0138636648
| 18>  H       -2.0215963952    -2.2888697915     1.1241416197
| 19>  H       -1.7160790257    -2.5469800547    -0.5936969850
| 20>  H        0.1515276626    -2.5186091779     1.4834567960
| 21>  H       -4.3873963643     0.3543726118    -0.3941655915
| 22>  H       -3.7930825749    -1.2724687992    -0.6709458538
| 23> *
| 24>
| 25>                          ****END OF INPUT****

CARTESIAN COORDINATES (ANGSTROEM)
---------------------------------
  C      0.172783    1.379799   -0.273159
  N     -0.064367   -0.013295    0.039400
  C     -1.308273   -0.545834    0.068564
  C     -1.327682   -2.058774    0.307917
  O     -0.042366   -2.612710    0.545408
  N     -2.338197    0.208451   -0.102893
  C     -3.663379   -0.383705   -0.032091
  C     -4.069536   -0.763621    1.334212
  N     -4.349303   -1.069086    2.413997
  H      1.232780    1.599710   -0.130524
  H     -0.110277    1.622918   -1.304951
  H     -0.421505    2.015972    0.387882
  H      0.692134   -0.677459    0.013864
  H     -2.021596   -2.288870    1.124142
  H     -1.716079   -2.546980   -0.593697
  H      0.151528   -2.518609    1.483457
  H     -4.387396    0.354373   -0.394166
  H     -3.793083   -1.272469   -0.670946

 Total Charge           Charge          ....    0
 Multiplicity           Mult            ....    1
 Number of Electrons    NEL             ....   68
 Basis Dimension        Dim             ....  333

ORBITAL ENERGIES
----------------

  NO   OCC          E(Eh)            E(eV)
   0   2.0000     -20.592477      -560.3498
   1   2.0000     -15.583780      -424.0562
   2   2.0000     -15.566358      -423.5821
   3   2.0000     -15.538016      -422.8109
   4   2.0000     -11.330431      -308.3167
   5   2.0000     -11.312899      -307.8396
   6   2.0000     -11.302350      -307.5526
   7   2.0000     -11.269786      -306.6665
   8   2.0000     -11.260479      -306.4132
   9   2.0000      -1.399391       -38.0794
  10   2.0000      -1.289772       -35.0965
  11   2.0000      -1.219832       -33.1933
  12   2.0000      -1.186887       -32.2968
  13   2.0000      -1.019615       -27.7451
  14   2.0000      -0.973932       -26.5020
  15   2.0000      -0.933922       -25.4133
  16   2.0000      -0.786220       -21.3941
  17   2.0000      -0.740762       -20.1572
  18   2.0000      -0.714171       -19.4336
  19   2.0000      -0.698056       -18.9951
  20   2.0000      -0.678659       -18.4673
  21   2.0000      -0.628739       -17.1089
  22   2.0000      -0.614988       -16.7347
  23   2.0000      -0.605558       -16.4781
  24   2.0000      -0.593218       -16.1423
  25   2.0000      -0.561431       -15.2773
  26   2.0000      -0.556671       -15.1478
  27   2.0000      -0.547305       -14.8929
  28   2.0000      -0.511796       -13.9267
  29   2.0000      -0.478538       -13.0217
  30   2.0000      -0.468852       -12.7581
  31   2.0000      -0.456525       -12.4227
  32   2.0000      -0.403799       -10.9879
  33   2.0000      -0.359323        -9.7777
  34   0.0000       0.116976         3.1831
  35   0.0000       0.133901         3.6436
  36   0.0000       0.147818         4.0223
  37   0.0000       0.160320         4.3625
  38   0.0000       0.172444         4.6924

MULLIKEN ATOMIC CHARGES
-----------------------
   0 C :   -0.260667
   1 N :   -0.319617
   2 C :    0.149221
   3 C :   -0.079285
   4 O :   -0.494225
   5 N :   -0.313304
   6 C :   -0.051224
   7 C :   -0.190276
   8 N :   -0.075341
   9 H :    0.134123
  10 H :    0.133832
  11 H :    0.150942
  12 H :    0.259439
  13 H :    0.168123
  14 H :    0.141145
  15 H :    0.336862
  16 H :    0.165372
  17 H :    0.144878
Sum of atomic charges:   -0.0000000

LOEWDIN ATOMIC CHARGES
----------------------
   0 C :   -0.314462
   1 N :    0.086957
   2 C :   -0.361364
   3 C :   -0.301926
   4 O :   -0.039433
   5 N :    0.061927
   6 C :   -0.296437
   7 C :   -0.200846
   8 N :    0.048523
   9 H :    0.117554
  10 H :    0.116282
  11 H :    0.124678
  12 H :    0.186635
  13 H :    0.140068
  14 H :    0.143052
  15 H :    0.181847
  16 H :    0.157638
  17 H :    0.149308

  Mayer bond orders larger than 0.1
B(  0-C ,  1-N ) :   0.8796 B(  0-C ,  9-H ) :   0.9298 B(  0-C , 10-H ) :   0.9368
B(  0-C , 11-H ) :   0.9319 B(  1-N ,  2-C ) :   1.1874 B(  1-N , 12-H ) :   0.8555
B(  2-C ,  3-C ) :   0.8768 B(  2-C ,  5-N ) :   1.7234 B(  3-C ,  4-O ) :   0.9208
B(  3-C , 13-H ) :   0.9435 B(  3-C , 14-H ) :   0.9219 B(  4-O , 15-H ) :   0.8379
B(  5-N ,  6-C ) :   0.9424 B(  6-C ,  7-C ) :   0.8845 B(  6-C , 16-H ) :   0.9139
B(  6-C , 17-H ) :   0.9193 B(  7-C ,  8-N ) :   2.8448

MP2 TOTAL ENERGY:     -434.550240461 Eh
FINAL SINGLE POINT ENERGY      -434.550240460577

DIPOLE MOMENT
-------------
                                X             Y             Z
Electronic contribution:     -4.31695      -2.29560       3.13247
Nuclear contribution   :      5.43873       2.22517      -3.95427
                        -----------------------------------------
Total Dipole Moment    :      1.12178      -0.07043      -0.82180
                        -----------------------------------------
Magnitude (a.u.)       :      1.39238
Magnitude (Debye)      :      3.53914

                             ****ORCA TERMINATED NORMALLY****
TOTAL RUN TIME: 0 days 0 hours 15 minutes 16 seconds 341 msec
