                         Program Version 3.0.3 - RELEASE   -
|  1> ! RI-MP2 RIJK def2-TZVP def2-TZVP/C def2-TZVP/JK TIGHTSCF
|  2> % maxcore 2000
|  3> % mp2 density relaxed end
|  4> *xyz 0 1
|  5>  C       -0.1409607204     1.5538986910     0.0633711175
|  6>  C        0.0415414279     0.0534581840     0.0727263915
|  7>  C        1.3582095825    -0.6451277693    -0.1940778858
|  8>  C        2.6650217370     0.1319125412    -0.0405432387
|  9>  C        2.7018674570     0.5192996482     1.4290256072
| 10>  C        3.8003449454     1.3649237615     1.9922963272
| 11>  C        1.6390384334     0.0255302294     2.0746624086
| 12>  C        0.7143263534    -0.7435674695     1.1871608670
| 13>  C        0.0581159162    -1.9956433438     1.7232607406
| 14>  H        0.6752827852     2.0694512754     0.5743736625
| 15>  H       -0.1896010754     1.9336895980    -0.9638650888
| 16>  H       -1.0743155064     1.8360711937     0.5634631911
| 17>  H       -0.8048968909    -0.4769895509    -0.3615850462
| 18>  H        1.3452464091    -1.4962765413    -0.8667322168
| 19>  H        3.5340133353    -0.4845927644    -0.3096047581
| 20>  H        2.7118559463     1.0176529514    -0.6901987347
| 21>  H        3.8366079529     2.3510399098     1.5112360779
| 22>  H        3.6781981341     1.5201128599     3.0678783541
| 23>  H        4.7823530170     0.9036322968     1.8235922574
| 24>  H        1.4403277361     0.1675197447     3.1329182618
| 25>  H       -0.6392594560    -1.7638019709     2.5376066525
| 26>  H       -0.5103217665    -2.5095247344     0.9414068432
| 27>  H        0.8014585171    -2.6996412203     2.1151665290
| 28> *
| 29>
| 30>                          ****END OF INPUT****

CARTESIAN COORDINATES (ANGSTROEM)
---------------------------------
  C     -0.140961    1.553899    0.063371
  C      0.041541    0.053458    0.072726
  C      1.358210   -0.645128   -0.194078
  C      2.665022    0.131913   -0.040543
  C      2.701867    0.519300    1.429026
  C      3.800345    1.364924    1.992296
  C      1.639038    0.025530    2.074662
  C      0.714326   -0.743567    1.187161
  C      0.058116   -1.995643    1.723261
  H      0.675283    2.069451    0.574374
  H     -0.189601    1.933690   -0.963865
  H     -1.074316    1.836071    0.563463
  H     -0.804897   -0.476990   -0.361585
  H      1.345246   -1.496277   -0.866732
  H      3.534013   -0.484593   -0.309605
  H      2.711856    1.017653   -0.690199
  H      3.836608    2.351040    1.511236
  H      3.678198    1.520113    3.067878
  H      4.782353    0.903632    1.823592
  H      1.440328    0.167520    3.132918
  H     -0.639259   -1.763802    2.537607
  H     -0.510322   -2.509525    0.941407
  H      0.801459   -2.699641    2.115167

 Total Charge           Charge          ....    0
 Multiplicity           Mult            ....    1
 Number of Electrons    NEL             ....   68
 Basis Dimension        Dim             ....  363

ORBITAL ENERGIES
----------------

  NO   OCC          E(Eh)            E(eV)
   0   2.0000     -11.227203      -305.5077
   1   2.0000     -11.224530      -305.4350
   2   2.0000     -11.223275      -305.4008
   3   2.0000     -11.221541      -305.3536
   4   2.0000     -11.219699      -305.3035
   5   2.0000     -11.217731      -305.2500
   6   2.0000     -11.212126      -305.0975
   7   2.0000     -11.210096      -305.0422
   8   2.0000     -11.207317      -304.9666
   9   2.0000      -1.179023       -32.0828
  10   2.0000      -1.062394       -28.9092
  11   2.0000      -0.988132       -26.8884
  12   2.0000      -0.965865       -26.2825
  13   2.0000      -0.930602       -25.3230
  14   2.0000      -0.906027       -24.6543
  15   2.0000      -0.761359       -20.7176
  16   2.0000      -0.742321       -20.1996
  17   2.0000      -0.704139       -19.1606
  18   2.0000      -0.647785       -17.6271
  19   2.0000      -0.616968       -16.7885
  20   2.0000      -0.584010       -15.8917
  21   2.0000      -0.572120       -15.5682
  22   2.0000      -0.565120       -15.3777
  23   2.0000      -0.557555       -15.1718
  24   2.0000      -0.550268       -14.9736
  25   2.0000      -0.532987       -14.5033
  26   2.0000      -0.531828       -14.4718
  27   2.0000      -0.518920       -14.1205
  28   2.0000      -0.493921       -13.4403
  29   2.0000      -0.479944       -13.0600
  30   2.0000      -0.454635       -12.3712
  31   2.0000      -0.406499       -11.0614
  32   2.0000      -0.380877       -10.3642
  33   2.0000      -0.315256        -8.5785
  34   0.0000       0.132402         3.6028
  35   0.0000       0.149435         4.0663
  36   0.0000       0.155608         4.2343
  37   0.0000       0.172643         4.6979
  38   0.0000       0.183053         4.9811

MULLIKEN ATOMIC CHARGES
-----------------------
   0 C :   -0.396869
   1 C :   -0.164229
   2 C :   -0.092033
   3 C :   -0.218312
   4 C :   -0.006655
   5 C :   -0.440516
   6 C :   -0.257782
   7 C :    0.202921
   8 C :   -0.406127
   9 H :    0.138736
  10 H :    0.127763
  11 H :    0.129414
  12 H :    0.107382
  13 H :    0.124544
  14 H :    0.119786
  15 H :    0.123477
  16 H :    0.137096
  17 H :    0.136309
  18 H :    0.137296
  19 H :    0.112917
  20 H :    0.129335
  21 H :    0.125588
  22 H :    0.129960
Sum of atomic charges:   -0.0000000

LOEWDIN ATOMIC CHARGES
----------------------
   0 C :   -0.292797
   1 C :   -0.191100
   2 C :   -0.148924
   3 C :   -0.194591
   4 C :   -0.183529
   5 C :   -0.277893
   6 C :   -0.101802
   7 C :   -0.214863
   8 C :   -0.268956
   9 H :    0.130345
  10 H :    0.125043
  11 H :    0.125472
  12 H :    0.151509
  13 H :    0.142892
  14 H :    0.143319
  15 H :    0.144396
  16 H :    0.129761
  17 H :    0.130138
  18 H :    0.130348
  19 H :    0.141239
  20 H :    0.126522
  21 H :    0.127196
  22 H :    0.126274

  Mayer bond orders larger than 0.1
B(  0-C ,  1-C ) :   0.9069 B(  0-C ,  9-H ) :   0.9367 B(  0-C , 10-H ) :   0.9367
B(  0-C , 11-H ) :   0.9395 B(  1-C ,  2-C ) :   0.8937 B(  1-C ,  7-C ) :   0.8547
B(  1-C , 12-H ) :   0.9346 B(  2-C ,  3-C ) :   0.9303 B(  2-C ,  7-C ) :   0.8282
B(  2-C , 13-H ) :   0.9261 B(  3-C ,  4-C ) :   0.9998 B(  3-C , 14-H ) :   0.9035
B(  3-C , 15-H ) :   0.9015 B(  4-C ,  5-C ) :   0.8960 B(  4-C ,  6-C ) :   1.7564
B(  5-C , 16-H ) :   0.9290 B(  5-C , 17-H ) :   0.9470 B(  5-C , 18-H ) :   0.9357
B(  6-C ,  7-C ) :   0.9259 B(  6-C , 19-H ) :   0.9324 B(  7-C ,  8-C ) :   0.8769
B(  8-C , 20-H ) :   0.9406 B(  8-C , 21-H ) :   0.9368 B(  8-C , 22-H ) :   0.9384

MP2 TOTAL ENERGY:     -350.516263784 Eh
FINAL SINGLE POINT ENERGY      -350.516263784228

DIPOLE MOMENT
-------------
                                X             Y             Z
Electronic contribution:      0.39246      -1.59834      -0.15870
Nuclear contribution   :     -0.31742       1.62368       0.12637
                        -----------------------------------------
Total Dipole Moment    :      0.07504       0.02534      -0.03232
                        -----------------------------------------
Magnitude (a.u.)       :      0.08555
Magnitude (Debye)      :      0.21745

                             ****ORCA TERMINATED NORMALLY****
TOTAL RUN TIME: 0 days 0 hours 22 minutes 49 seconds 19 msec
