                         Program Version 3.0.3 - RELEASE   -
|  1> ! RI-MP2 RIJK def2-TZVP def2-TZVP/C def2-TZVP/JK TIGHTSCF
|  2> % maxcore 2000
|  3> % mp2 density relaxed end
|  4> *xyz 0 1
|  5>  C        0.0704036952     1.5899930633    -0.1472913944
|  6>  C        0.1065179401     0.0811343073     0.0109249655
|  7>  C        1.0423231437    -0.7568777716    -0.8996993001
|  8>  C        1.3210385640    -1.7003599253     0.3069162127
|  9>  C        2.6532892455    -2.2483826708     0.4835256681
| 10>  N        3.7152791278    -2.6868358767     0.6088754334
| 11>  C        0.8113141467    -0.5595713049     1.2679752293
| 12>  C        1.8649696750     0.2642228979     1.8380724797
| 13>  N        2.6877826193     0.9428978182     2.2840719583
| 14>  H        1.0710914963     2.0240826845    -0.0662040186
| 15>  H       -0.3389702037     1.8566021342    -1.1271511195
| 16>  H       -0.5608559211     2.0548773026     0.6168188680
| 17>  H       -0.9082189772    -0.3279869386    -0.0297419169
| 18>  H        0.6191105278    -1.2160897522    -1.7938341458
| 19>  H        1.9409524938    -0.1974047708    -1.1711545834
| 20>  H        0.5960836156    -2.5183745957     0.3307538996
| 21>  H        0.1524492713    -0.8968696112     2.0709724841
| 22> *
| 23>
| 24>                          ****END OF INPUT****

CARTESIAN COORDINATES (ANGSTROEM)
---------------------------------
  C      0.070404    1.589993   -0.147291
  C      0.106518    0.081134    0.010925
  C      1.042323   -0.756878   -0.899699
  C      1.321039   -1.700360    0.306916
  C      2.653289   -2.248383    0.483526
  N      3.715279   -2.686836    0.608875
  C      0.811314   -0.559571    1.267975
  C      1.864970    0.264223    1.838072
  N      2.687783    0.942898    2.284072
  H      1.071091    2.024083   -0.066204
  H     -0.338970    1.856602   -1.127151
  H     -0.560856    2.054877    0.616819
  H     -0.908219   -0.327987   -0.029742
  H      0.619111   -1.216090   -1.793834
  H      1.940952   -0.197405   -1.171155
  H      0.596084   -2.518375    0.330754
  H      0.152449   -0.896870    2.070972

 Total Charge           Charge          ....    0
 Multiplicity           Mult            ....    1
 Number of Electrons    NEL             ....   64
 Basis Dimension        Dim             ....  327

ORBITAL ENERGIES
----------------

  NO   OCC          E(Eh)            E(eV)
   0   2.0000     -15.581345      -423.9900
   1   2.0000     -15.580082      -423.9556
   2   2.0000     -11.312834      -307.8379
   3   2.0000     -11.311497      -307.8015
   4   2.0000     -11.282687      -307.0175
   5   2.0000     -11.281009      -306.9719
   6   2.0000     -11.280729      -306.9642
   7   2.0000     -11.270136      -306.6760
   8   2.0000     -11.241664      -305.9012
   9   2.0000      -1.240458       -33.7546
  10   2.0000      -1.225009       -33.3342
  11   2.0000      -1.188097       -32.3297
  12   2.0000      -1.037878       -28.2421
  13   2.0000      -0.990934       -26.9647
  14   2.0000      -0.931354       -25.3434
  15   2.0000      -0.829770       -22.5792
  16   2.0000      -0.742382       -20.2012
  17   2.0000      -0.719890       -19.5892
  18   2.0000      -0.656182       -17.8556
  19   2.0000      -0.628809       -17.1108
  20   2.0000      -0.618319       -16.8253
  21   2.0000      -0.581958       -15.8359
  22   2.0000      -0.569965       -15.5095
  23   2.0000      -0.563393       -15.3307
  24   2.0000      -0.557308       -15.1651
  25   2.0000      -0.521911       -14.2019
  26   2.0000      -0.513256       -13.9664
  27   2.0000      -0.510630       -13.8949
  28   2.0000      -0.476126       -12.9560
  29   2.0000      -0.462552       -12.5867
  30   2.0000      -0.449588       -12.2339
  31   2.0000      -0.449061       -12.2196
  32   0.0000       0.097042         2.6407
  33   0.0000       0.125324         3.4102
  34   0.0000       0.134750         3.6667
  35   0.0000       0.142898         3.8884
  36   0.0000       0.166346         4.5265

MULLIKEN ATOMIC CHARGES
-----------------------
   0 C :   -0.416242
   1 C :   -0.055687
   2 C :   -0.278411
   3 C :    0.015399
   4 C :   -0.204739
   5 N :   -0.037029
   6 C :    0.102965
   7 C :   -0.264038
   8 N :   -0.034718
   9 H :    0.152994
  10 H :    0.143791
  11 H :    0.143920
  12 H :    0.118802
  13 H :    0.144475
  14 H :    0.153639
  15 H :    0.152977
  16 H :    0.161902
Sum of atomic charges:    0.0000000

LOEWDIN ATOMIC CHARGES
----------------------
   0 C :   -0.288280
   1 C :   -0.216098
   2 C :   -0.166206
   3 C :   -0.181644
   4 C :   -0.171701
   5 N :    0.079369
   6 C :   -0.154346
   7 C :   -0.170025
   8 N :    0.080218
   9 H :    0.133910
  10 H :    0.131269
  11 H :    0.131360
  12 H :    0.157255
  13 H :    0.133309
  14 H :    0.152339
  15 H :    0.179485
  16 H :    0.169785

  Mayer bond orders larger than 0.1
B(  0-C ,  1-C ) :   0.9089 B(  0-C ,  9-H ) :   0.9277 B(  0-C , 10-H ) :   0.9361
B(  0-C , 11-H ) :   0.9367 B(  1-C ,  2-C ) :   0.9150 B(  1-C ,  6-C ) :   0.8683
B(  1-C , 12-H ) :   0.9259 B(  2-C ,  3-C ) :   0.9029 B(  2-C , 13-H ) :   0.9265
B(  2-C , 14-H ) :   0.9171 B(  3-C ,  4-C ) :   0.9519 B(  3-C ,  6-C ) :   0.8784
B(  3-C , 15-H ) :   0.8948 B(  4-C ,  5-N ) :   2.8617 B(  6-C ,  7-C ) :   0.9401
B(  6-C , 16-H ) :   0.8924 B(  7-C ,  8-N ) :   2.8395

MP2 TOTAL ENERGY:     -380.215035104 Eh
FINAL SINGLE POINT ENERGY      -380.215035103509

DIPOLE MOMENT
-------------
                                X             Y             Z
Electronic contribution:      6.81311      -4.72310       4.75885
Nuclear contribution   :     -9.23786       4.70196      -5.69164
                        -----------------------------------------
Total Dipole Moment    :     -2.42475      -0.02114      -0.93279
                        -----------------------------------------
Magnitude (a.u.)       :      2.59806
Magnitude (Debye)      :      6.60375

                             ****ORCA TERMINATED NORMALLY****
TOTAL RUN TIME: 0 days 0 hours 16 minutes 45 seconds 964 msec
