                         Program Version 3.0.3 - RELEASE   -
|  1> ! RI-MP2 RIJK def2-TZVP def2-TZVP/C def2-TZVP/JK TIGHTSCF
|  2> % maxcore 2000
|  3> % mp2 density relaxed end
|  4> *xyz 0 1
|  5>  N       -0.0943440731    -1.2289605711    -0.1255680481
|  6>  C       -0.0598261835    -0.0743522704    -0.0659398124
|  7>  C       -0.0018204752     1.3715489918     0.0245157947
|  8>  C       -0.1181729329     2.0907358862     1.4004152753
|  9>  C        0.5630565586     1.2976414749     2.5187353288
| 10>  C        2.0917147921     1.2672957110     2.2614030537
| 11>  C        2.4500221110     1.3323224586     0.7543117628
| 12>  C        1.3644112649     2.1179856999     0.0141129043
| 13>  O        0.7877838518     3.1155190462     0.9032407070
| 14>  H       -0.6857453694     1.8210862594    -0.6980738596
| 15>  H       -1.0950184120     2.4982096308     1.6686276827
| 16>  H        0.3598952775     1.7678695265     3.4854899057
| 17>  H        0.1347383505     0.2899498916     2.5580063856
| 18>  H        2.5270482525     2.1449462141     2.7442221483
| 19>  H        2.5453213483     0.3902084680     2.7292737612
| 20>  H        3.4187895235     1.8240891669     0.6252442068
| 21>  H        2.5375901051     0.3341125002     0.3111978039
| 22>  H        1.6892875703     2.5493847151    -0.9348603308
| 23> *
| 24>
| 25>                          ****END OF INPUT****

CARTESIAN COORDINATES (ANGSTROEM)
---------------------------------
  N     -0.094344   -1.228961   -0.125568
  C     -0.059826   -0.074352   -0.065940
  C     -0.001820    1.371549    0.024516
  C     -0.118173    2.090736    1.400415
  C      0.563057    1.297641    2.518735
  C      2.091715    1.267296    2.261403
  C      2.450022    1.332322    0.754312
  C      1.364411    2.117986    0.014113
  O      0.787784    3.115519    0.903241
  H     -0.685745    1.821086   -0.698074
  H     -1.095018    2.498210    1.668628
  H      0.359895    1.767870    3.485490
  H      0.134738    0.289950    2.558006
  H      2.527048    2.144946    2.744222
  H      2.545321    0.390208    2.729274
  H      3.418790    1.824089    0.625244
  H      2.537590    0.334113    0.311198
  H      1.689288    2.549385   -0.934860

 Total Charge           Charge          ....    0
 Multiplicity           Mult            ....    1
 Number of Electrons    NEL             ....   66
 Basis Dimension        Dim             ....  333

ORBITAL ENERGIES
----------------

  NO   OCC          E(Eh)            E(eV)
   0   2.0000     -20.568402      -559.6947
   1   2.0000     -15.577530      -423.8862
   2   2.0000     -11.313095      -307.8450
   3   2.0000     -11.313081      -307.8446
   4   2.0000     -11.286261      -307.1148
   5   2.0000     -11.279246      -306.9239
   6   2.0000     -11.237709      -305.7936
   7   2.0000     -11.237667      -305.7925
   8   2.0000     -11.234642      -305.7101
   9   2.0000      -1.406234       -38.2656
  10   2.0000      -1.225675       -33.3523
  11   2.0000      -1.101379       -29.9701
  12   2.0000      -1.043692       -28.4003
  13   2.0000      -1.027707       -27.9653
  14   2.0000      -0.870914       -23.6988
  15   2.0000      -0.854847       -23.2616
  16   2.0000      -0.790577       -21.5127
  17   2.0000      -0.733048       -19.9472
  18   2.0000      -0.684938       -18.6381
  19   2.0000      -0.650057       -17.6890
  20   2.0000      -0.642530       -17.4841
  21   2.0000      -0.597056       -16.2467
  22   2.0000      -0.568664       -15.4741
  23   2.0000      -0.567060       -15.4305
  24   2.0000      -0.551449       -15.0057
  25   2.0000      -0.537301       -14.6207
  26   2.0000      -0.528124       -14.3710
  27   2.0000      -0.515195       -14.0192
  28   2.0000      -0.486517       -13.2388
  29   2.0000      -0.473520       -12.8851
  30   2.0000      -0.466911       -12.7053
  31   2.0000      -0.435036       -11.8379
  32   2.0000      -0.419816       -11.4238
  33   0.0000       0.125583         3.4173
  34   0.0000       0.145984         3.9724
  35   0.0000       0.148141         4.0311
  36   0.0000       0.159697         4.3456
  37   0.0000       0.171940         4.6787

MULLIKEN ATOMIC CHARGES
-----------------------
   0 N :   -0.046257
   1 C :   -0.228617
   2 C :   -0.024048
   3 C :    0.082069
   4 C :   -0.241633
   5 C :   -0.248675
   6 C :   -0.241634
   7 C :    0.082069
   8 O :   -0.328947
   9 H :    0.149329
  10 H :    0.130430
  11 H :    0.127953
  12 H :    0.137992
  13 H :    0.123639
  14 H :    0.129956
  15 H :    0.127952
  16 H :    0.137992
  17 H :    0.130430
Sum of atomic charges:    0.0000000

LOEWDIN ATOMIC CHARGES
----------------------
   0 N :    0.067540
   1 C :   -0.177899
   2 C :   -0.188653
   3 C :   -0.230993
   4 C :   -0.236572
   5 C :   -0.243627
   6 C :   -0.236572
   7 C :   -0.230993
   8 O :    0.163926
   9 H :    0.176972
  10 H :    0.137970
  11 H :    0.141993
  12 H :    0.147592
  13 H :    0.143099
  14 H :    0.138661
  15 H :    0.141993
  16 H :    0.147592
  17 H :    0.137970

  Mayer bond orders larger than 0.1
B(  0-N ,  1-C ) :   2.8414 B(  1-C ,  2-C ) :   0.9474 B(  2-C ,  3-C ) :   0.9240
B(  2-C ,  7-C ) :   0.9240 B(  2-C ,  9-H ) :   0.9009 B(  3-C ,  4-C ) :   0.9397
B(  3-C ,  8-O ) :   0.9355 B(  3-C , 10-H ) :   0.9136 B(  4-C ,  5-C ) :   0.9514
B(  4-C , 11-H ) :   0.9247 B(  4-C , 12-H ) :   0.9084 B(  5-C ,  6-C ) :   0.9514
B(  5-C , 13-H ) :   0.9253 B(  5-C , 14-H ) :   0.9313 B(  6-C ,  7-C ) :   0.9397
B(  6-C , 15-H ) :   0.9247 B(  6-C , 16-H ) :   0.9084 B(  7-C ,  8-O ) :   0.9355
B(  7-C , 17-H ) :   0.9136

MP2 TOTAL ENERGY:     -401.269796575 Eh
FINAL SINGLE POINT ENERGY      -401.269796574934

DIPOLE MOMENT
-------------
                                X             Y             Z
Electronic contribution:     -3.80585      -1.08757      -4.09156
Nuclear contribution   :      3.97730       1.86907       4.29029
                        -----------------------------------------
Total Dipole Moment    :      0.17145       0.78149       0.19873
                        -----------------------------------------
Magnitude (a.u.)       :      0.82439
Magnitude (Debye)      :      2.09544

                             ****ORCA TERMINATED NORMALLY****
TOTAL RUN TIME: 0 days 0 hours 19 minutes 52 seconds 245 msec
