                         Program Version 3.0.3 - RELEASE   -
|  1> ! RI-MP2 RIJK def2-TZVP def2-TZVP/C def2-TZVP/JK TIGHTSCF
|  2> % maxcore 2000
|  3> % mp2 density relaxed end
|  4> *xyz 0 1
|  5>  O        0.0056292718     0.0594401732     0.5241465010
|  6>  C       -0.0137611533     1.1497532463     0.0493158217
|  7>  O       -1.1753767537     1.7975591550    -0.2243645284
|  8>  C       -1.1109725687     3.0946363771    -0.7901668239
|  9>  C       -0.0657159526     3.3523966633    -1.9042700875
| 10>  O       -0.0782483634     4.7749917639    -1.5303041700
| 11>  C       -0.0531181335     4.0803987822    -0.2338892062
| 12>  C        1.0137971048     3.1205308014    -0.8174806475
| 13>  O        1.1243066642     1.8255808264    -0.2539338148
| 14>  H       -2.1242287042     3.4601329886    -0.9418314339
| 15>  H       -0.0760584447     3.0879206675    -2.9594165758
| 16>  H       -0.0486204615     4.6732860335     0.6781706205
| 17>  H        2.0136146649     3.5105606018    -0.9950172651
| 18> *
| 19>
| 20>                          ****END OF INPUT****

CARTESIAN COORDINATES (ANGSTROEM)
---------------------------------
  O      0.005629    0.059440    0.524147
  C     -0.013761    1.149753    0.049316
  O     -1.175377    1.797559   -0.224365
  C     -1.110973    3.094636   -0.790167
  C     -0.065716    3.352397   -1.904270
  O     -0.078248    4.774992   -1.530304
  C     -0.053118    4.080399   -0.233889
  C      1.013797    3.120531   -0.817481
  O      1.124307    1.825581   -0.253934
  H     -2.124229    3.460133   -0.941831
  H     -0.076058    3.087921   -2.959417
  H     -0.048620    4.673286    0.678171
  H      2.013615    3.510561   -0.995017

 Total Charge           Charge          ....    0
 Multiplicity           Mult            ....    1
 Number of Electrons    NEL             ....   66
 Basis Dimension        Dim             ....  303

ORBITAL ENERGIES
----------------

  NO   OCC          E(Eh)            E(eV)
   0   2.0000     -20.637296      -561.5694
   1   2.0000     -20.637269      -561.5686
   2   2.0000     -20.599901      -560.5518
   3   2.0000     -20.551815      -559.2433
   4   2.0000     -11.448649      -311.5336
   5   2.0000     -11.344059      -308.6875
   6   2.0000     -11.344013      -308.6863
   7   2.0000     -11.337688      -308.5142
   8   2.0000     -11.337685      -308.5141
   9   2.0000      -1.532325       -41.6967
  10   2.0000      -1.447354       -39.3845
  11   2.0000      -1.422699       -38.7136
  12   2.0000      -1.388297       -37.7775
  13   2.0000      -1.110458       -30.2171
  14   2.0000      -0.976420       -26.5697
  15   2.0000      -0.938756       -25.5448
  16   2.0000      -0.913086       -24.8463
  17   2.0000      -0.785300       -21.3691
  18   2.0000      -0.756353       -20.5814
  19   2.0000      -0.727422       -19.7941
  20   2.0000      -0.713466       -19.4144
  21   2.0000      -0.699532       -19.0352
  22   2.0000      -0.649912       -17.6850
  23   2.0000      -0.627078       -17.0637
  24   2.0000      -0.622367       -16.9355
  25   2.0000      -0.597157       -16.2495
  26   2.0000      -0.574258       -15.6263
  27   2.0000      -0.544937       -14.8285
  28   2.0000      -0.533663       -14.5217
  29   2.0000      -0.485260       -13.2046
  30   2.0000      -0.475581       -12.9412
  31   2.0000      -0.459933       -12.5154
  32   2.0000      -0.448035       -12.1916
  33   0.0000       0.135085         3.6758
  34   0.0000       0.148495         4.0407
  35   0.0000       0.149569         4.0700
  36   0.0000       0.156234         4.2514
  37   0.0000       0.177457         4.8289

MULLIKEN ATOMIC CHARGES
-----------------------
   0 O :   -0.271814
   1 C :    0.356645
   2 O :   -0.238194
   3 C :    0.092725
   4 C :   -0.060236
   5 O :   -0.295015
   6 C :   -0.060252
   7 C :    0.092725
   8 O :   -0.238194
   9 H :    0.149528
  10 H :    0.161278
  11 H :    0.161277
  12 H :    0.149528
Sum of atomic charges:    0.0000000

LOEWDIN ATOMIC CHARGES
----------------------
   0 O :    0.146117
   1 C :   -0.595140
   2 O :    0.279090
   3 C :   -0.227960
   4 C :   -0.192694
   5 O :    0.166265
   6 C :   -0.192696
   7 C :   -0.227959
   8 O :    0.279090
   9 H :    0.149970
  10 H :    0.132974
  11 H :    0.132973
  12 H :    0.149970

  Mayer bond orders larger than 0.1
B(  0-O ,  1-C ) :   2.0648 B(  1-C ,  2-O ) :   1.0874 B(  1-C ,  8-O ) :   1.0874
B(  2-O ,  3-C ) :   0.8773 B(  3-C ,  4-C ) :   0.9035 B(  3-C ,  6-C ) :   0.9035
B(  3-C ,  9-H ) :   0.9243 B(  4-C ,  5-O ) :   0.9151 B(  4-C ,  7-C ) :   0.9035
B(  4-C , 10-H ) :   0.8903 B(  5-O ,  6-C ) :   0.9151 B(  6-C ,  7-C ) :   0.9035
B(  6-C , 11-H ) :   0.8903 B(  7-C ,  8-O ) :   0.8773 B(  7-C , 12-H ) :   0.9243

MP2 TOTAL ENERGY:     -492.902192170 Eh
FINAL SINGLE POINT ENERGY      -492.902192169956

DIPOLE MOMENT
-------------
                                X             Y             Z
Electronic contribution:      0.05266      -2.96038       1.28999
Nuclear contribution   :     -0.07449       4.18768      -1.82458
                        -----------------------------------------
Total Dipole Moment    :     -0.02183       1.22730      -0.53459
                        -----------------------------------------
Magnitude (a.u.)       :      1.33885
Magnitude (Debye)      :      3.40309

                             ****ORCA TERMINATED NORMALLY****
TOTAL RUN TIME: 0 days 0 hours 13 minutes 7 seconds 989 msec
