                         Program Version 3.0.3 - RELEASE   -
|  1> ! RI-MP2 RIJK def2-TZVP def2-TZVP/C def2-TZVP/JK TIGHTSCF
|  2> % maxcore 2000
|  3> % mp2 density relaxed end
|  4> *xyz 0 1
|  5>  C        0.0463339334     1.5273093727    -0.0503358858
|  6>  C        0.0569465240     0.0046702236     0.0908028559
|  7>  O        0.6995091412    -0.4062421419     1.2964642731
|  8>  C       -1.3437242264    -0.5963131716     0.0002758061
|  9>  C       -2.1397088787    -0.5942222016    -1.3364284971
| 10>  N       -2.3896859538    -2.0795291234    -1.2632206568
| 11>  C       -1.0528606984    -2.6957650673    -1.3148243435
| 12>  C       -1.4922613347    -2.1167690049    -0.0312415256
| 13>  H        1.0617142142     1.9235339798     0.0341550832
| 14>  H       -0.3682430926     1.8358819490    -1.0157585407
| 15>  H       -0.5670064974     1.9855493223     0.7361584484
| 16>  H        0.6819701129    -0.4213295528    -0.7030747797
| 17>  H        0.2184602874    -0.0119025917     2.0328874605
| 18>  H       -1.9597229025    -0.1691938116     0.8012122735
| 19>  H       -3.0824467684    -0.0459297144    -1.2972630929
| 20>  H       -1.5902838249    -0.2912511806    -2.2357443986
| 21>  H       -1.0887378333    -3.7768138794    -1.4083425131
| 22>  H       -0.2728901544    -2.2190582106    -1.9053026543
| 23>  H       -1.7331787076    -2.7389542056     0.8243218973
| 24> *
| 25>
| 26>                          ****END OF INPUT****

CARTESIAN COORDINATES (ANGSTROEM)
---------------------------------
  C      0.046334    1.527309   -0.050336
  C      0.056947    0.004670    0.090803
  O      0.699509   -0.406242    1.296464
  C     -1.343724   -0.596313    0.000276
  C     -2.139709   -0.594222   -1.336428
  N     -2.389686   -2.079529   -1.263221
  C     -1.052861   -2.695765   -1.314824
  C     -1.492261   -2.116769   -0.031242
  H      1.061714    1.923534    0.034155
  H     -0.368243    1.835882   -1.015759
  H     -0.567006    1.985549    0.736158
  H      0.681970   -0.421330   -0.703075
  H      0.218460   -0.011903    2.032887
  H     -1.959723   -0.169194    0.801212
  H     -3.082447   -0.045930   -1.297263
  H     -1.590284   -0.291251   -2.235744
  H     -1.088738   -3.776814   -1.408343
  H     -0.272890   -2.219058   -1.905303
  H     -1.733179   -2.738954    0.824322

 Total Charge           Charge          ....    0
 Multiplicity           Mult            ....    1
 Number of Electrons    NEL             ....   62
 Basis Dimension        Dim             ....  314

ORBITAL ENERGIES
----------------

  NO   OCC          E(Eh)            E(eV)
   0   2.0000     -20.557462      -559.3970
   1   2.0000     -15.558478      -423.3677
   2   2.0000     -11.284248      -307.0600
   3   2.0000     -11.259965      -306.3992
   4   2.0000     -11.257913      -306.3434
   5   2.0000     -11.254098      -306.2396
   6   2.0000     -11.238697      -305.8205
   7   2.0000     -11.224355      -305.4302
   8   2.0000      -1.363444       -37.1012
   9   2.0000      -1.287400       -35.0319
  10   2.0000      -1.054131       -28.6844
  11   2.0000      -0.983992       -26.7758
  12   2.0000      -0.938302       -25.5325
  13   2.0000      -0.846624       -23.0378
  14   2.0000      -0.821296       -22.3486
  15   2.0000      -0.751848       -20.4588
  16   2.0000      -0.699211       -19.0265
  17   2.0000      -0.664962       -18.0945
  18   2.0000      -0.626418       -17.0457
  19   2.0000      -0.620371       -16.8812
  20   2.0000      -0.615261       -16.7421
  21   2.0000      -0.567688       -15.4476
  22   2.0000      -0.556878       -15.1534
  23   2.0000      -0.547917       -14.9096
  24   2.0000      -0.531195       -14.4546
  25   2.0000      -0.484386       -13.1808
  26   2.0000      -0.475770       -12.9464
  27   2.0000      -0.459619       -12.5069
  28   2.0000      -0.443207       -12.0603
  29   2.0000      -0.423360       -11.5202
  30   2.0000      -0.367507       -10.0004
  31   0.0000       0.126371         3.4387
  32   0.0000       0.146043         3.9740
  33   0.0000       0.166265         4.5243
  34   0.0000       0.169879         4.6226
  35   0.0000       0.190226         5.1763

MULLIKEN ATOMIC CHARGES
-----------------------
   0 C :   -0.398198
   1 C :    0.099236
   2 O :   -0.464380
   3 C :   -0.113866
   4 C :   -0.173809
   5 N :   -0.232612
   6 C :   -0.167876
   7 C :   -0.046295
   8 H :    0.149901
   9 H :    0.128985
  10 H :    0.115269
  11 H :    0.078594
  12 H :    0.308226
  13 H :    0.099981
  14 H :    0.127118
  15 H :    0.115756
  16 H :    0.130238
  17 H :    0.119679
  18 H :    0.124054
Sum of atomic charges:    0.0000000

LOEWDIN ATOMIC CHARGES
----------------------
   0 C :   -0.300981
   1 C :   -0.359256
   2 O :   -0.018864
   3 C :   -0.226995
   4 C :   -0.223347
   5 N :    0.091203
   6 C :   -0.253445
   7 C :   -0.195158
   8 H :    0.127423
   9 H :    0.127010
  10 H :    0.121483
  11 H :    0.144702
  12 H :    0.173237
  13 H :    0.153012
  14 H :    0.127732
  15 H :    0.123072
  16 H :    0.133556
  17 H :    0.123410
  18 H :    0.132208

  Mayer bond orders larger than 0.1
B(  0-C ,  1-C ) :   0.9357 B(  0-C ,  8-H ) :   0.9407 B(  0-C ,  9-H ) :   0.9333
B(  0-C , 10-H ) :   0.9204 B(  1-C ,  2-O ) :   0.9150 B(  1-C ,  3-C ) :   0.9496
B(  1-C , 11-H ) :   0.9078 B(  2-O , 12-H ) :   0.8441 B(  3-C ,  4-C ) :   0.9528
B(  3-C ,  7-C ) :   0.9256 B(  3-C , 13-H ) :   0.9023 B(  4-C ,  5-N ) :   0.9311
B(  4-C , 14-H ) :   0.9153 B(  4-C , 15-H ) :   0.9361 B(  5-N ,  6-C ) :   0.8929
B(  5-N ,  7-C ) :   0.8838 B(  6-C ,  7-C ) :   0.9467 B(  6-C , 16-H ) :   0.9288
B(  6-C , 17-H ) :   0.9077 B(  7-C , 18-H ) :   0.9061

MP2 TOTAL ENERGY:     -364.395134299 Eh
FINAL SINGLE POINT ENERGY      -364.395134298840

DIPOLE MOMENT
-------------
                                X             Y             Z
Electronic contribution:     -1.11558      -4.12291       1.03423
Nuclear contribution   :      1.17522       4.82063      -0.86689
                        -----------------------------------------
Total Dipole Moment    :      0.05964       0.69773       0.16734
                        -----------------------------------------
Magnitude (a.u.)       :      0.71999
Magnitude (Debye)      :      1.83007

                             ****ORCA TERMINATED NORMALLY****
TOTAL RUN TIME: 0 days 0 hours 13 minutes 23 seconds 172 msec
