                         Program Version 3.0.3 - RELEASE   -
|  1> ! RI-MP2 RIJK def2-TZVP def2-TZVP/C def2-TZVP/JK TIGHTSCF
|  2> % maxcore 2000
|  3> % mp2 density relaxed end
|  4> *xyz 0 1
|  5>  O       -0.0847414636     1.4067425746     0.0729975804
|  6>  C        0.0147059817     0.0106337646    -0.0228542486
|  7>  C        0.2846039165    -0.6430082465    -1.4167259349
|  8>  C       -0.7844593775    -1.6858170171    -1.0405357700
|  9>  C       -0.4822376411    -2.5046438015     0.2667704001
| 10>  C        0.8871652254    -2.1705328594     0.8511964717
| 11>  C        0.9299544071    -0.6304635593     1.0287563917
| 12>  O       -1.4785336289    -1.7367343493     1.0172664550
| 13>  C       -1.3814891433    -0.7284589036     0.0041915803
| 14>  H        0.8049198320     1.7758658488     0.1049530586
| 15>  H       -0.0814553844     0.0004766297    -2.2216549950
| 16>  H        1.3040891153    -0.9685835260    -1.6461973557
| 17>  H       -1.3703956851    -2.1982026372    -1.8022482187
| 18>  H       -0.7200333288    -3.5710612117     0.2585582137
| 19>  H        1.0262569610    -2.6772411888     1.8106552766
| 20>  H        1.6770442709    -2.5241530416     0.1790246711
| 21>  H        1.9522100332    -0.2464068788     0.9223562782
| 22>  H        0.5681253517    -0.3531044511     2.0220522157
| 23>  H       -2.2663687620    -0.0993895361    -0.1037266403
| 24> *
| 25>
| 26>                          ****END OF INPUT****

CARTESIAN COORDINATES (ANGSTROEM)
---------------------------------
  O     -0.084741    1.406743    0.072998
  C      0.014706    0.010634   -0.022854
  C      0.284604   -0.643008   -1.416726
  C     -0.784459   -1.685817   -1.040536
  C     -0.482238   -2.504644    0.266770
  C      0.887165   -2.170533    0.851196
  C      0.929954   -0.630464    1.028756
  O     -1.478534   -1.736734    1.017266
  C     -1.381489   -0.728459    0.004192
  H      0.804920    1.775866    0.104953
  H     -0.081455    0.000477   -2.221655
  H      1.304089   -0.968584   -1.646197
  H     -1.370396   -2.198203   -1.802248
  H     -0.720033   -3.571061    0.258558
  H      1.026257   -2.677241    1.810655
  H      1.677044   -2.524153    0.179025
  H      1.952210   -0.246407    0.922356
  H      0.568125   -0.353104    2.022052
  H     -2.266369   -0.099390   -0.103727

 Total Charge           Charge          ....    0
 Multiplicity           Mult            ....    1
 Number of Electrons    NEL             ....   68
 Basis Dimension        Dim             ....  339

ORBITAL ENERGIES
----------------

  NO   OCC          E(Eh)            E(eV)
   0   2.0000     -20.561570      -559.5088
   1   2.0000     -20.544694      -559.0495
   2   2.0000     -11.288343      -307.1714
   3   2.0000     -11.287389      -307.1455
   4   2.0000     -11.278324      -306.8988
   5   2.0000     -11.233927      -305.6907
   6   2.0000     -11.229106      -305.5595
   7   2.0000     -11.226472      -305.4878
   8   2.0000     -11.226442      -305.4870
   9   2.0000      -1.387916       -37.7671
  10   2.0000      -1.366629       -37.1879
  11   2.0000      -1.130371       -30.7590
  12   2.0000      -1.039285       -28.2804
  13   2.0000      -0.973048       -26.4780
  14   2.0000      -0.887324       -24.1453
  15   2.0000      -0.835230       -22.7278
  16   2.0000      -0.815669       -22.1955
  17   2.0000      -0.725067       -19.7301
  18   2.0000      -0.694309       -18.8931
  19   2.0000      -0.667206       -18.1556
  20   2.0000      -0.645168       -17.5559
  21   2.0000      -0.638124       -17.3642
  22   2.0000      -0.605864       -16.4864
  23   2.0000      -0.570532       -15.5250
  24   2.0000      -0.556723       -15.1492
  25   2.0000      -0.548146       -14.9158
  26   2.0000      -0.536923       -14.6104
  27   2.0000      -0.518046       -14.0967
  28   2.0000      -0.500714       -13.6251
  29   2.0000      -0.472930       -12.8691
  30   2.0000      -0.444164       -12.0863
  31   2.0000      -0.426270       -11.5994
  32   2.0000      -0.410809       -11.1787
  33   2.0000      -0.387563       -10.5461
  34   0.0000       0.132856         3.6152
  35   0.0000       0.144510         3.9323
  36   0.0000       0.168365         4.5814
  37   0.0000       0.170847         4.6490
  38   0.0000       0.182024         4.9531

MULLIKEN ATOMIC CHARGES
-----------------------
   0 O :   -0.454888
   1 C :    0.310779
   2 C :   -0.323933
   3 C :   -0.097818
   4 C :    0.037438
   5 C :   -0.219188
   6 C :   -0.301589
   7 O :   -0.327019
   8 C :   -0.029630
   9 H :    0.315480
  10 H :    0.123467
  11 H :    0.114239
  12 H :    0.128595
  13 H :    0.114642
  14 H :    0.126473
  15 H :    0.115445
  16 H :    0.113319
  17 H :    0.127014
  18 H :    0.127172
Sum of atomic charges:    0.0000000

LOEWDIN ATOMIC CHARGES
----------------------
   0 O :    0.016137
   1 C :   -0.342090
   2 C :   -0.193012
   3 C :   -0.168335
   4 C :   -0.228332
   5 C :   -0.234674
   6 C :   -0.221553
   7 O :    0.157953
   8 C :   -0.202314
   9 H :    0.177854
  10 H :    0.143698
  11 H :    0.126140
  12 H :    0.135230
  13 H :    0.133978
  14 H :    0.141535
  15 H :    0.140155
  16 H :    0.135698
  17 H :    0.146857
  18 H :    0.135076

  Mayer bond orders larger than 0.1
B(  0-O ,  1-C ) :   0.9841 B(  0-O ,  9-H ) :   0.8368 B(  1-C ,  2-C ) :   0.9079
B(  1-C ,  6-C ) :   0.9065 B(  1-C ,  8-C ) :   0.8248 B(  2-C ,  3-C ) :   0.9416
B(  2-C , 10-H ) :   0.9152 B(  2-C , 11-H ) :   0.9126 B(  3-C ,  4-C ) :   0.9189
B(  3-C ,  8-C ) :   0.9384 B(  3-C , 12-H ) :   0.9275 B(  4-C ,  5-C ) :   0.9445
B(  4-C ,  7-O ) :   0.9388 B(  4-C , 13-H ) :   0.9203 B(  5-C ,  6-C ) :   0.9458
B(  5-C , 14-H ) :   0.9123 B(  5-C , 15-H ) :   0.9105 B(  6-C , 16-H ) :   0.9152
B(  6-C , 17-H ) :   0.9147 B(  7-O ,  8-C ) :   0.9715 B(  8-C , 18-H ) :   0.9206

MP2 TOTAL ENERGY:     -422.303713126 Eh
FINAL SINGLE POINT ENERGY      -422.303713126227

DIPOLE MOMENT
-------------
                                X             Y             Z
Electronic contribution:     -3.87633       1.27980       0.87442
Nuclear contribution   :      4.81700      -1.50055      -1.40116
                        -----------------------------------------
Total Dipole Moment    :      0.94067      -0.22075      -0.52673
                        -----------------------------------------
Magnitude (a.u.)       :      1.10047
Magnitude (Debye)      :      2.79717

                             ****ORCA TERMINATED NORMALLY****
TOTAL RUN TIME: 0 days 0 hours 18 minutes 32 seconds 231 msec
