                         Program Version 3.0.3 - RELEASE   -
|  1> ! RI-MP2 RIJK def2-TZVP def2-TZVP/C def2-TZVP/JK TIGHTSCF
|  2> % maxcore 2000
|  3> % mp2 density relaxed end
|  4> *xyz 0 1
|  5>  C        0.1019438134     1.3810728184     0.9414195633
|  6>  C       -0.1119978320     0.3037687731    -0.1248705279
|  7>  O        0.9094942263    -0.6928628446    -0.0707140580
|  8>  C       -1.4790564488    -0.3257845613    -0.0566498415
|  9>  C       -1.7959463446    -1.6255078294    -0.4061577263
| 10>  N       -3.1275326146    -1.7664795102    -0.2035220927
| 11>  N       -3.7168512320    -0.6478124127     0.2563305952
| 12>  C       -2.7191835683     0.2276090191     0.3462536603
| 13>  H        1.1156802439     1.7819195348     0.8622495320
| 14>  H       -0.6073146052     2.2060663525     0.8211525228
| 15>  H       -0.0343163322     0.9651965329     1.9462438341
| 16>  H        0.0297470707     0.7635741713    -1.1116770981
| 17>  H        0.8149147152    -1.1469241816     0.7748514201
| 18>  H       -1.1788104708    -2.4283939320    -0.7751126657
| 19>  H       -3.6890277154    -2.5886012990    -0.3465123748
| 20>  H       -2.9242908557     1.2282082388     0.6976549972
| 21> *
| 22>
| 23>                          ****END OF INPUT****

CARTESIAN COORDINATES (ANGSTROEM)
---------------------------------
  C      0.101944    1.381073    0.941420
  C     -0.111998    0.303769   -0.124871
  O      0.909494   -0.692863   -0.070714
  C     -1.479056   -0.325785   -0.056650
  C     -1.795946   -1.625508   -0.406158
  N     -3.127533   -1.766480   -0.203522
  N     -3.716851   -0.647812    0.256331
  C     -2.719184    0.227609    0.346254
  H      1.115680    1.781920    0.862250
  H     -0.607315    2.206066    0.821153
  H     -0.034316    0.965197    1.946244
  H      0.029747    0.763574   -1.111677
  H      0.814915   -1.146924    0.774851
  H     -1.178810   -2.428394   -0.775113
  H     -3.689028   -2.588601   -0.346512
  H     -2.924291    1.228208    0.697655

 Total Charge           Charge          ....    0
 Multiplicity           Mult            ....    1
 Number of Electrons    NEL             ....   60
 Basis Dimension        Dim             ....  296

ORBITAL ENERGIES
----------------

  NO   OCC          E(Eh)            E(eV)
   0   2.0000     -20.558150      -559.4157
   1   2.0000     -15.638988      -425.5585
   2   2.0000     -15.588312      -424.1795
   3   2.0000     -11.291785      -307.2651
   4   2.0000     -11.274659      -306.7991
   5   2.0000     -11.253079      -306.2118
   6   2.0000     -11.225170      -305.4524
   7   2.0000     -11.221677      -305.3573
   8   2.0000      -1.376595       -37.4591
   9   2.0000      -1.363425       -37.1007
  10   2.0000      -1.098745       -29.8984
  11   2.0000      -1.075647       -29.2698
  12   2.0000      -1.002567       -27.2812
  13   2.0000      -0.870639       -23.6913
  14   2.0000      -0.819879       -22.3100
  15   2.0000      -0.783740       -21.3267
  16   2.0000      -0.741801       -20.1854
  17   2.0000      -0.668597       -18.1934
  18   2.0000      -0.637579       -17.3494
  19   2.0000      -0.611903       -16.6507
  20   2.0000      -0.604586       -16.4516
  21   2.0000      -0.602831       -16.4039
  22   2.0000      -0.570088       -15.5129
  23   2.0000      -0.538175       -14.6445
  24   2.0000      -0.531310       -14.4577
  25   2.0000      -0.498527       -13.5656
  26   2.0000      -0.466663       -12.6986
  27   2.0000      -0.447744       -12.1837
  28   2.0000      -0.365017        -9.9326
  29   2.0000      -0.340230        -9.2581
  30   0.0000       0.131479         3.5777
  31   0.0000       0.140685         3.8282
  32   0.0000       0.145589         3.9617
  33   0.0000       0.164376         4.4729
  34   0.0000       0.176567         4.8046

MULLIKEN ATOMIC CHARGES
-----------------------
   0 C :   -0.392163
   1 C :    0.156528
   2 O :   -0.471688
   3 C :   -0.070427
   4 C :   -0.138919
   5 N :   -0.091606
   6 N :   -0.209147
   7 C :   -0.146275
   8 H :    0.145396
   9 H :    0.124281
  10 H :    0.124554
  11 H :    0.106703
  12 H :    0.310685
  13 H :    0.163857
  14 H :    0.256118
  15 H :    0.132102
Sum of atomic charges:    0.0000000

LOEWDIN ATOMIC CHARGES
----------------------
   0 C :   -0.294069
   1 C :   -0.333611
   2 O :   -0.020189
   3 C :   -0.197969
   4 C :   -0.217913
   5 N :    0.129576
   6 N :    0.018685
   7 C :   -0.254195
   8 H :    0.126589
   9 H :    0.126678
  10 H :    0.123729
  11 H :    0.152530
  12 H :    0.174641
  13 H :    0.141750
  14 H :    0.188229
  15 H :    0.135540

  Mayer bond orders larger than 0.1
B(  0-C ,  1-C ) :   0.9575 B(  0-C ,  8-H ) :   0.9382 B(  0-C ,  9-H ) :   0.9290
B(  0-C , 10-H ) :   0.9252 B(  1-C ,  2-O ) :   0.8880 B(  1-C ,  3-C ) :   0.9409
B(  1-C , 11-H ) :   0.8968 B(  2-O , 12-H ) :   0.8412 B(  3-C ,  4-C ) :   1.4056
B(  3-C ,  7-C ) :   1.2697 B(  4-C ,  5-N ) :   1.2070 B(  4-C ,  6-N ) :   0.1176
B(  4-C , 13-H ) :   0.8949 B(  5-N ,  6-N ) :   1.0748 B(  5-N , 14-H ) :   0.8757
B(  6-N ,  7-C ) :   1.5397 B(  7-C , 15-H ) :   0.9410

MP2 TOTAL ENERGY:     -379.309545275 Eh
FINAL SINGLE POINT ENERGY      -379.309545275148

DIPOLE MOMENT
-------------
                                X             Y             Z
Electronic contribution:     -4.54800      -4.22837      -1.83107
Nuclear contribution   :      4.64611       3.70347       1.95812
                        -----------------------------------------
Total Dipole Moment    :      0.09810      -0.52490       0.12706
                        -----------------------------------------
Magnitude (a.u.)       :      0.54889
Magnitude (Debye)      :      1.39518

                             ****ORCA TERMINATED NORMALLY****
TOTAL RUN TIME: 0 days 0 hours 11 minutes 28 seconds 634 msec
