                         Program Version 3.0.3 - RELEASE   -
|  1> ! RI-MP2 RIJK def2-TZVP def2-TZVP/C def2-TZVP/JK TIGHTSCF
|  2> % maxcore 2000
|  3> % mp2 density relaxed end
|  4> *xyz 0 1
|  5>  C       -0.0357306691     1.3994162875    -0.0187784518
|  6>  O       -0.0647385055    -0.0267959143    -0.0255294346
|  7>  C        0.5682038054    -0.6099539821    -1.0659130170
|  8>  C        0.6599524983    -1.9721462980    -1.2643191450
|  9>  O        0.2145486587    -3.0490604294    -0.5876973437
| 10>  N        1.3678935558    -2.0801005455    -2.4077085503
| 11>  N        1.7026123447    -0.8644478572    -2.9011132050
| 12>  N        1.2079876817     0.0232263559    -2.0719621797
| 13>  H        0.9933716458     1.7705676068     0.0243092403
| 14>  H       -0.5158476504     1.8057130123    -0.9149056352
| 15>  H       -0.5838099131     1.7049530905     0.8734008720
| 16>  H       -0.2601854610    -2.7300044539     0.1890101415
| 17>  H        1.6481487188    -2.9188575925    -2.8899965916
| 18> *
| 19>
| 20>                          ****END OF INPUT****

CARTESIAN COORDINATES (ANGSTROEM)
---------------------------------
  C     -0.035731    1.399416   -0.018778
  O     -0.064739   -0.026796   -0.025529
  C      0.568204   -0.609954   -1.065913
  C      0.659952   -1.972146   -1.264319
  O      0.214549   -3.049060   -0.587697
  N      1.367894   -2.080101   -2.407709
  N      1.702612   -0.864448   -2.901113
  N      1.207988    0.023226   -2.071962
  H      0.993372    1.770568    0.024309
  H     -0.515848    1.805713   -0.914906
  H     -0.583810    1.704953    0.873401
  H     -0.260185   -2.730004    0.189010
  H      1.648149   -2.918858   -2.889997

 Total Charge           Charge          ....    0
 Multiplicity           Mult            ....    1
 Number of Electrons    NEL             ....   60
 Basis Dimension        Dim             ....  278

ORBITAL ENERGIES
----------------

  NO   OCC          E(Eh)            E(eV)
   0   2.0000     -20.624691      -561.2264
   1   2.0000     -20.593225      -560.3701
   2   2.0000     -15.658153      -426.0800
   3   2.0000     -15.634124      -425.4262
   4   2.0000     -15.599169      -424.4750
   5   2.0000     -11.346410      -308.7515
   6   2.0000     -11.309786      -307.7549
   7   2.0000     -11.283958      -307.0521
   8   2.0000      -1.464760       -39.8581
   9   2.0000      -1.424953       -38.7750
  10   2.0000      -1.406609       -38.2758
  11   2.0000      -1.200329       -32.6626
  12   2.0000      -1.072125       -29.1740
  13   2.0000      -0.957584       -26.0572
  14   2.0000      -0.882292       -24.0084
  15   2.0000      -0.842219       -22.9179
  16   2.0000      -0.772305       -21.0155
  17   2.0000      -0.726644       -19.7730
  18   2.0000      -0.689431       -18.7604
  19   2.0000      -0.686792       -18.6886
  20   2.0000      -0.640878       -17.4392
  21   2.0000      -0.634219       -17.2580
  22   2.0000      -0.588941       -16.0259
  23   2.0000      -0.582254       -15.8439
  24   2.0000      -0.534844       -14.5538
  25   2.0000      -0.520197       -14.1553
  26   2.0000      -0.506816       -13.7912
  27   2.0000      -0.440168       -11.9776
  28   2.0000      -0.414717       -11.2850
  29   2.0000      -0.317158        -8.6303
  30   0.0000       0.127141         3.4597
  31   0.0000       0.141809         3.8588
  32   0.0000       0.144824         3.9409
  33   0.0000       0.160273         4.3613
  34   0.0000       0.208679         5.6784

MULLIKEN ATOMIC CHARGES
-----------------------
   0 C :   -0.200427
   1 O :   -0.332438
   2 C :    0.210830
   3 C :    0.145473
   4 O :   -0.425310
   5 N :   -0.077339
   6 N :   -0.180572
   7 N :   -0.184277
   8 H :    0.137971
   9 H :    0.138034
  10 H :    0.141848
  11 H :    0.357077
  12 H :    0.269130
Sum of atomic charges:   -0.0000000

LOEWDIN ATOMIC CHARGES
----------------------
   0 C :   -0.315054
   1 O :    0.202348
   2 C :   -0.410036
   3 C :   -0.375082
   4 O :    0.077561
   5 N :    0.138974
   6 N :   -0.068172
   7 N :    0.004041
   8 H :    0.113171
   9 H :    0.113184
  10 H :    0.113480
  11 H :    0.210770
  12 H :    0.194817

  Mayer bond orders larger than 0.1
B(  0-C ,  1-O ) :   0.8505 B(  0-C ,  8-H ) :   0.9375 B(  0-C ,  9-H ) :   0.9375
B(  0-C , 10-H ) :   0.9341 B(  1-O ,  2-C ) :   1.0582 B(  2-C ,  3-C ) :   1.3209
B(  2-C ,  7-N ) :   1.3415 B(  3-C ,  4-O ) :   1.1446 B(  3-C ,  5-N ) :   1.2095
B(  3-C ,  6-N ) :   0.1601 B(  4-O , 11-H ) :   0.8154 B(  5-N ,  6-N ) :   1.0229
B(  5-N , 12-H ) :   0.8587 B(  6-N ,  7-N ) :   1.2470

MP2 TOTAL ENERGY:     -431.219742875 Eh
FINAL SINGLE POINT ENERGY      -431.219742874715

DIPOLE MOMENT
-------------
                                X             Y             Z
Electronic contribution:      1.44609      -4.60315      -2.49982
Nuclear contribution   :     -1.97965       3.90301       3.33301
                        -----------------------------------------
Total Dipole Moment    :     -0.53356      -0.70014       0.83319
                        -----------------------------------------
Magnitude (a.u.)       :      1.21206
Magnitude (Debye)      :      3.08080

                             ****ORCA TERMINATED NORMALLY****
TOTAL RUN TIME: 0 days 0 hours 9 minutes 23 seconds 59 msec
