                         Program Version 3.0.3 - RELEASE   -
|  1> ! RI-MP2 RIJK def2-TZVP def2-TZVP/C def2-TZVP/JK TIGHTSCF
|  2> % maxcore 2000
|  3> % mp2 density relaxed end
|  4> *xyz 0 1
|  5>  C       -0.0585412622     1.5829954323    -0.0106383733
|  6>  C        0.0693565482     0.0675829393    -0.0117834958
|  7>  O       -1.2088182798    -0.5362626635     0.1695111951
|  8>  C        0.7010333829    -0.6620994674    -1.1905950976
|  9>  C        2.2452677340    -0.7615750053    -1.0993762774
| 10>  C        2.9890356885     0.1564856482    -0.1834646312
| 11>  C        2.3947278448     0.1624167752     1.0143361224
| 12>  C        1.1339783508    -0.6639236917     0.9348937229
| 13>  C        1.3669906776    -1.6470311832    -0.2616082168
| 14>  H        0.9053706487     2.0703637210    -0.1669643008
| 15>  H       -0.7444557538     1.8940623074    -0.8050413989
| 16>  H       -0.4659050020     1.9407752834     0.9444572309
| 17>  H       -1.5797120260    -0.1806822561     0.9849308174
| 18>  H        0.1964486470    -0.8411735579    -2.1327398541
| 19>  H        2.7158216927    -1.1626964650    -1.9900119315
| 20>  H        3.8549438493     0.7338764960    -0.4827233245
| 21>  H        2.6634339711     0.7773708604     1.8644007869
| 22>  H        0.7101191621    -1.0368521751     1.8670628663
| 23>  H        1.3588380960    -2.7294713079    -0.2550540800
| 24> *
| 25>
| 26>                          ****END OF INPUT****

CARTESIAN COORDINATES (ANGSTROEM)
---------------------------------
  C     -0.058541    1.582995   -0.010638
  C      0.069357    0.067583   -0.011783
  O     -1.208818   -0.536263    0.169511
  C      0.701033   -0.662099   -1.190595
  C      2.245268   -0.761575   -1.099376
  C      2.989036    0.156486   -0.183465
  C      2.394728    0.162417    1.014336
  C      1.133978   -0.663924    0.934894
  C      1.366991   -1.647031   -0.261608
  H      0.905371    2.070364   -0.166964
  H     -0.744456    1.894062   -0.805041
  H     -0.465905    1.940775    0.944457
  H     -1.579712   -0.180682    0.984931
  H      0.196449   -0.841174   -2.132740
  H      2.715822   -1.162696   -1.990012
  H      3.854944    0.733876   -0.482723
  H      2.663434    0.777371    1.864401
  H      0.710119   -1.036852    1.867063
  H      1.358838   -2.729471   -0.255054

 Total Charge           Charge          ....    0
 Multiplicity           Mult            ....    1
 Number of Electrons    NEL             ....   66
 Basis Dimension        Dim             ....  339

ORBITAL ENERGIES
----------------

  NO   OCC          E(Eh)            E(eV)
   0   2.0000     -20.551365      -559.2311
   1   2.0000     -11.289356      -307.1990
   2   2.0000     -11.236736      -305.7671
   3   2.0000     -11.234871      -305.7164
   4   2.0000     -11.230932      -305.6092
   5   2.0000     -11.230280      -305.5915
   6   2.0000     -11.225853      -305.4710
   7   2.0000     -11.220243      -305.3183
   8   2.0000     -11.211363      -305.0767
   9   2.0000      -1.362248       -37.0687
  10   2.0000      -1.210064       -32.9275
  11   2.0000      -1.036000       -28.1910
  12   2.0000      -1.008303       -27.4373
  13   2.0000      -0.949269       -25.8309
  14   2.0000      -0.854667       -23.2567
  15   2.0000      -0.789622       -21.4867
  16   2.0000      -0.757762       -20.6197
  17   2.0000      -0.711425       -19.3589
  18   2.0000      -0.695367       -18.9219
  19   2.0000      -0.659228       -17.9385
  20   2.0000      -0.632506       -17.2114
  21   2.0000      -0.601656       -16.3719
  22   2.0000      -0.585293       -15.9266
  23   2.0000      -0.547720       -14.9042
  24   2.0000      -0.540727       -14.7139
  25   2.0000      -0.524650       -14.2765
  26   2.0000      -0.504109       -13.7175
  27   2.0000      -0.493710       -13.4345
  28   2.0000      -0.467517       -12.7218
  29   2.0000      -0.438345       -11.9280
  30   2.0000      -0.423344       -11.5198
  31   2.0000      -0.382959       -10.4208
  32   2.0000      -0.321469        -8.7476
  33   0.0000       0.134557         3.6615
  34   0.0000       0.140066         3.8114
  35   0.0000       0.160436         4.3657
  36   0.0000       0.173628         4.7247
  37   0.0000       0.180750         4.9184

MULLIKEN ATOMIC CHARGES
-----------------------
   0 C :   -0.420163
   1 C :    0.191838
   2 O :   -0.455702
   3 C :   -0.127465
   4 C :   -0.102516
   5 C :   -0.189337
   6 C :   -0.246867
   7 C :    0.003995
   8 C :   -0.152968
   9 H :    0.145083
  10 H :    0.140507
  11 H :    0.112451
  12 H :    0.310158
  13 H :    0.130561
  14 H :    0.131601
  15 H :    0.126059
  16 H :    0.126376
  17 H :    0.131219
  18 H :    0.145171
Sum of atomic charges:   -0.0000000

LOEWDIN ATOMIC CHARGES
----------------------
   0 C :   -0.281846
   1 C :   -0.334747
   2 O :    0.016324
   3 C :   -0.115671
   4 C :   -0.158894
   5 C :   -0.138027
   6 C :   -0.142600
   7 C :   -0.135693
   8 C :   -0.109636
   9 H :    0.132053
  10 H :    0.130509
  11 H :    0.122293
  12 H :    0.173824
  13 H :    0.141474
  14 H :    0.150521
  15 H :    0.137579
  16 H :    0.136313
  17 H :    0.140842
  18 H :    0.135381

  Mayer bond orders larger than 0.1
B(  0-C ,  1-C ) :   0.9378 B(  0-C ,  9-H ) :   0.9334 B(  0-C , 10-H ) :   0.9377
B(  0-C , 11-H ) :   0.9187 B(  1-C ,  2-O ) :   1.0105 B(  1-C ,  3-C ) :   0.9482
B(  1-C ,  7-C ) :   0.8795 B(  2-O , 12-H ) :   0.8422 B(  3-C ,  4-C ) :   0.8074
B(  3-C ,  8-C ) :   0.8687 B(  3-C , 13-H ) :   0.9163 B(  4-C ,  5-C ) :   0.9433
B(  4-C ,  8-C ) :   0.8951 B(  4-C , 14-H ) :   0.9301 B(  5-C ,  6-C ) :   1.7712
B(  5-C , 15-H ) :   0.9336 B(  6-C ,  7-C ) :   0.9081 B(  6-C , 16-H ) :   0.9280
B(  7-C ,  8-C ) :   0.8959 B(  7-C , 17-H ) :   0.9151 B(  8-C , 18-H ) :   0.9016

MP2 TOTAL ENERGY:     -385.183880217 Eh
FINAL SINGLE POINT ENERGY      -385.183880217425

DIPOLE MOMENT
-------------
                                X             Y             Z
Electronic contribution:      0.41964      -3.23017      -0.12989
Nuclear contribution   :     -0.27138       3.54402       0.39283
                        -----------------------------------------
Total Dipole Moment    :      0.14826       0.31385       0.26294
                        -----------------------------------------
Magnitude (a.u.)       :      0.43545
Magnitude (Debye)      :      1.10683

                             ****ORCA TERMINATED NORMALLY****
TOTAL RUN TIME: 0 days 0 hours 21 minutes 54 seconds 586 msec
