                         Program Version 3.0.3 - RELEASE   -
|  1> ! RI-MP2 RIJK def2-TZVP def2-TZVP/C def2-TZVP/JK TIGHTSCF
|  2> % maxcore 2000
|  3> % mp2 density relaxed end
|  4> *xyz 0 1
|  5>  C       -1.7946472762     1.5129939591     0.0672703346
|  6>  C       -1.0195839001     2.4232025834    -0.0584331368
|  7>  C       -0.0508552095     3.5075821314    -0.2005104849
|  8>  C        1.3887285022     3.0038448504    -0.1750841325
|  9>  C        2.4865590756     3.8290810434     0.4062957185
| 10>  N        2.0713718004     2.5838791774     1.0471133466
| 11>  C        1.4030258505     2.5769481714     2.3460147611
| 12>  C        0.8923209128     3.8660872045     2.8461765842
| 13>  N        0.5287945573     4.9001930850     3.2148283281
| 14>  H       -2.4932908336     0.7199659909     0.1714980744
| 15>  H       -0.2127748029     4.0200682846    -1.1576568172
| 16>  H       -0.2185113645     4.2594519396     0.5771197735
| 17>  H        1.6228784743     2.3537993276    -1.0162318707
| 18>  H        3.4819582674     3.8227469261    -0.0290578239
| 19>  H        2.1989454009     4.7676149678     0.8770625067
| 20>  H        0.5736090279     1.8633342963     2.3085845432
| 21>  H        2.1186948173     2.2050407311     3.0882781252
| 22> *
| 23>
| 24>                          ****END OF INPUT****

CARTESIAN COORDINATES (ANGSTROEM)
---------------------------------
  C     -1.794647    1.512994    0.067270
  C     -1.019584    2.423203   -0.058433
  C     -0.050855    3.507582   -0.200510
  C      1.388729    3.003845   -0.175084
  C      2.486559    3.829081    0.406296
  N      2.071372    2.583879    1.047113
  C      1.403026    2.576948    2.346015
  C      0.892321    3.866087    2.846177
  N      0.528795    4.900193    3.214828
  H     -2.493291    0.719966    0.171498
  H     -0.212775    4.020068   -1.157657
  H     -0.218511    4.259452    0.577120
  H      1.622878    2.353799   -1.016232
  H      3.481958    3.822747   -0.029058
  H      2.198945    4.767615    0.877063
  H      0.573609    1.863334    2.308585
  H      2.118695    2.205041    3.088278

 Total Charge           Charge          ....    0
 Multiplicity           Mult            ....    1
 Number of Electrons    NEL             ....   64
 Basis Dimension        Dim             ....  327

ORBITAL ENERGIES
----------------

  NO   OCC          E(Eh)            E(eV)
   0   2.0000     -15.586731      -424.1365
   1   2.0000     -15.578486      -423.9122
   2   2.0000     -11.313627      -307.8594
   3   2.0000     -11.285004      -307.0806
   4   2.0000     -11.280143      -306.9483
   5   2.0000     -11.272813      -306.7488
   6   2.0000     -11.269980      -306.6717
   7   2.0000     -11.244980      -305.9915
   8   2.0000     -11.232098      -305.6409
   9   2.0000      -1.301505       -35.4157
  10   2.0000      -1.225045       -33.3352
  11   2.0000      -1.087178       -29.5836
  12   2.0000      -1.052102       -28.6292
  13   2.0000      -0.984942       -26.8016
  14   2.0000      -0.873770       -23.7765
  15   2.0000      -0.828912       -22.5558
  16   2.0000      -0.735018       -20.0009
  17   2.0000      -0.724286       -19.7088
  18   2.0000      -0.689432       -18.7604
  19   2.0000      -0.666198       -18.1282
  20   2.0000      -0.650299       -17.6955
  21   2.0000      -0.621838       -16.9211
  22   2.0000      -0.593311       -16.1448
  23   2.0000      -0.566127       -15.4051
  24   2.0000      -0.545507       -14.8440
  25   2.0000      -0.499597       -13.5947
  26   2.0000      -0.495187       -13.4747
  27   2.0000      -0.471199       -12.8220
  28   2.0000      -0.458301       -12.4710
  29   2.0000      -0.401982       -10.9385
  30   2.0000      -0.396882       -10.7997
  31   2.0000      -0.394323       -10.7301
  32   0.0000       0.134352         3.6559
  33   0.0000       0.149054         4.0560
  34   0.0000       0.155848         4.2408
  35   0.0000       0.160751         4.3743
  36   0.0000       0.169672         4.6170

MULLIKEN ATOMIC CHARGES
-----------------------
   0 C :   -0.163196
   1 C :   -0.034477
   2 C :   -0.341903
   3 C :   -0.025646
   4 C :   -0.200297
   5 N :   -0.225558
   6 C :   -0.042251
   7 C :   -0.207435
   8 N :   -0.059632
   9 H :    0.192265
  10 H :    0.156044
  11 H :    0.182811
  12 H :    0.131375
  13 H :    0.135977
  14 H :    0.152559
  15 H :    0.178952
  16 H :    0.170412
Sum of atomic charges:    0.0000000

LOEWDIN ATOMIC CHARGES
----------------------
   0 C :   -0.100429
   1 C :   -0.110581
   2 C :   -0.231917
   3 C :   -0.236753
   4 C :   -0.230956
   5 N :    0.127375
   6 C :   -0.272677
   7 C :   -0.205323
   8 N :    0.058691
   9 H :    0.127953
  10 H :    0.166798
  11 H :    0.168190
  12 H :    0.148729
  13 H :    0.127597
  14 H :    0.134165
  15 H :    0.166169
  16 H :    0.162969

  Mayer bond orders larger than 0.1
B(  0-C ,  1-C ) :   2.6265 B(  0-C ,  9-H ) :   0.9090 B(  1-C ,  2-C ) :   1.0408
B(  2-C ,  3-C ) :   0.9186 B(  2-C , 10-H ) :   0.9163 B(  2-C , 11-H ) :   0.9362
B(  3-C ,  4-C ) :   0.9196 B(  3-C ,  5-N ) :   0.8994 B(  3-C , 12-H ) :   0.9149
B(  4-C ,  5-N ) :   0.8948 B(  4-C , 13-H ) :   0.9239 B(  4-C , 14-H ) :   0.9119
B(  5-N ,  6-C ) :   0.9479 B(  6-C ,  7-C ) :   0.8679 B(  6-C , 15-H ) :   0.9210
B(  6-C , 16-H ) :   0.9082 B(  7-C ,  8-N ) :   2.8252

MP2 TOTAL ENERGY:     -380.124023301 Eh
FINAL SINGLE POINT ENERGY      -380.124023301216

DIPOLE MOMENT
-------------
                                X             Y             Z
Electronic contribution:     -1.17367       0.41237       2.80378
Nuclear contribution   :      1.44075      -1.07111      -3.42413
                        -----------------------------------------
Total Dipole Moment    :      0.26709      -0.65874      -0.62035
                        -----------------------------------------
Magnitude (a.u.)       :      0.94346
Magnitude (Debye)      :      2.39808

                             ****ORCA TERMINATED NORMALLY****
TOTAL RUN TIME: 0 days 0 hours 16 minutes 34 seconds 287 msec
