                         Program Version 3.0.3 - RELEASE   -
|  1> ! RI-MP2 RIJK def2-TZVP def2-TZVP/C def2-TZVP/JK TIGHTSCF
|  2> % maxcore 2000
|  3> % mp2 density relaxed end
|  4> *xyz 0 1
|  5>  C       -0.6042151545     0.8461231102    -1.6169123852
|  6>  C        0.3571906551    -0.2000083261    -1.0728480002
|  7>  C        1.8810443496    -0.0171266738    -1.2967240881
|  8>  C        2.1252527645    -0.6544366565     0.0964111390
|  9>  C        3.2568042719    -0.1295651498     0.9664236112
| 10>  C        0.6452999727    -0.3390419197     0.4587851550
| 11>  C        0.2755388409     0.8564633809     1.3877585898
| 12>  C       -0.9193824559     0.0262646189     1.9269265900
| 13>  C       -0.2526447591    -1.2448526334     1.3361203298
| 14>  H       -0.3234198536     1.8568957250    -1.3030677344
| 15>  H       -0.6050731591     0.8340600110    -2.7128358275
| 16>  H       -1.6334526768     0.6654073882    -1.2861191291
| 17>  H        0.0576614033    -1.1891988978    -1.4433364228
| 18>  H        2.3343813409    -0.4921366936    -2.1711558312
| 19>  H        2.1549924108     1.0445993476    -1.2976547095
| 20>  H        2.2258847997    -1.7420672807    -0.0151483989
| 21>  H        3.2034413768     0.9587695086     1.0792933783
| 22>  H        3.2343264967    -0.5707324154     1.9698923141
| 23>  H        4.2309476687    -0.3677585404     0.5246651379
| 24>  H        1.0355870553     1.0135657732     2.1590267831
| 25>  H        0.0555682388     1.8224269921     0.9265370747
| 26>  H       -1.0997959733     0.0483882162     3.0044478583
| 27>  H       -1.8542578827     0.2732057377     1.4162386490
| 28>  H       -0.8933108614    -1.9618557583     0.8128742892
| 29>  H        0.3307068206    -1.7890576837     2.0871993377
| 30> *
| 31>
| 32>                          ****END OF INPUT****

CARTESIAN COORDINATES (ANGSTROEM)
---------------------------------
  C     -0.604215    0.846123   -1.616912
  C      0.357191   -0.200008   -1.072848
  C      1.881044   -0.017127   -1.296724
  C      2.125253   -0.654437    0.096411
  C      3.256804   -0.129565    0.966424
  C      0.645300   -0.339042    0.458785
  C      0.275539    0.856463    1.387759
  C     -0.919382    0.026265    1.926927
  C     -0.252645   -1.244853    1.336120
  H     -0.323420    1.856896   -1.303068
  H     -0.605073    0.834060   -2.712836
  H     -1.633453    0.665407   -1.286119
  H      0.057661   -1.189199   -1.443336
  H      2.334381   -0.492137   -2.171156
  H      2.154992    1.044599   -1.297655
  H      2.225885   -1.742067   -0.015148
  H      3.203441    0.958770    1.079293
  H      3.234326   -0.570732    1.969892
  H      4.230948   -0.367759    0.524665
  H      1.035587    1.013566    2.159027
  H      0.055568    1.822427    0.926537
  H     -1.099796    0.048388    3.004448
  H     -1.854258    0.273206    1.416239
  H     -0.893311   -1.961856    0.812874
  H      0.330707   -1.789058    2.087199

 Total Charge           Charge          ....    0
 Multiplicity           Mult            ....    1
 Number of Electrons    NEL             ....   70
 Basis Dimension        Dim             ....  375

ORBITAL ENERGIES
----------------

  NO   OCC          E(Eh)            E(eV)
   0   2.0000     -11.222322      -305.3749
   1   2.0000     -11.219453      -305.2968
   2   2.0000     -11.217334      -305.2392
   3   2.0000     -11.214370      -305.1585
   4   2.0000     -11.212347      -305.1035
   5   2.0000     -11.211045      -305.0680
   6   2.0000     -11.209892      -305.0367
   7   2.0000     -11.209027      -305.0131
   8   2.0000     -11.208534      -304.9997
   9   2.0000      -1.154314       -31.4105
  10   2.0000      -1.073980       -29.2245
  11   2.0000      -1.002589       -27.2818
  12   2.0000      -0.933992       -25.4152
  13   2.0000      -0.892775       -24.2936
  14   2.0000      -0.871397       -23.7119
  15   2.0000      -0.795356       -21.6427
  16   2.0000      -0.781501       -21.2657
  17   2.0000      -0.696151       -18.9432
  18   2.0000      -0.652830       -17.7644
  19   2.0000      -0.638361       -17.3707
  20   2.0000      -0.590455       -16.0671
  21   2.0000      -0.585080       -15.9208
  22   2.0000      -0.569652       -15.5010
  23   2.0000      -0.558965       -15.2102
  24   2.0000      -0.529857       -14.4181
  25   2.0000      -0.527295       -14.3484
  26   2.0000      -0.523465       -14.2442
  27   2.0000      -0.498196       -13.5566
  28   2.0000      -0.490267       -13.3408
  29   2.0000      -0.482244       -13.1225
  30   2.0000      -0.453014       -12.3271
  31   2.0000      -0.430091       -11.7034
  32   2.0000      -0.413704       -11.2575
  33   2.0000      -0.403233       -10.9725
  34   2.0000      -0.388938       -10.5835
  35   0.0000       0.133189         3.6243
  36   0.0000       0.150304         4.0900
  37   0.0000       0.156148         4.2490
  38   0.0000       0.159830         4.3492
  39   0.0000       0.189576         5.1586

MULLIKEN ATOMIC CHARGES
-----------------------
   0 C :   -0.427327
   1 C :   -0.049933
   2 C :   -0.265320
   3 C :   -0.001064
   4 C :   -0.446607
   5 C :    0.083974
   6 C :   -0.277117
   7 C :   -0.229367
   8 C :   -0.239178
   9 H :    0.121328
  10 H :    0.135606
  11 H :    0.128992
  12 H :    0.088098
  13 H :    0.114625
  14 H :    0.102492
  15 H :    0.090239
  16 H :    0.128895
  17 H :    0.130172
  18 H :    0.135300
  19 H :    0.118789
  20 H :    0.113841
  21 H :    0.112134
  22 H :    0.115129
  23 H :    0.107811
  24 H :    0.108490
Sum of atomic charges:   -0.0000000

LOEWDIN ATOMIC CHARGES
----------------------
   0 C :   -0.301217
   1 C :   -0.216317
   2 C :   -0.197473
   3 C :   -0.223823
   4 C :   -0.303627
   5 C :   -0.187584
   6 C :   -0.199619
   7 C :   -0.240241
   8 C :   -0.207344
   9 H :    0.121341
  10 H :    0.125671
  11 H :    0.123238
  12 H :    0.152476
  13 H :    0.121985
  14 H :    0.136779
  15 H :    0.152721
  16 H :    0.122578
  17 H :    0.123134
  18 H :    0.125022
  19 H :    0.136294
  20 H :    0.124339
  21 H :    0.120807
  22 H :    0.130853
  23 H :    0.124795
  24 H :    0.135213

  Mayer bond orders larger than 0.1
B(  0-C ,  1-C ) :   0.8788 B(  0-C ,  9-H ) :   0.9388 B(  0-C , 10-H ) :   0.9385
B(  0-C , 11-H ) :   0.9414 B(  1-C ,  2-C ) :   0.9506 B(  1-C ,  5-C ) :   0.9234
B(  1-C , 12-H ) :   0.9242 B(  2-C ,  3-C ) :   0.9472 B(  2-C , 13-H ) :   0.9255
B(  2-C , 14-H ) :   0.9044 B(  3-C ,  4-C ) :   0.8683 B(  3-C ,  5-C ) :   0.8979
B(  3-C , 15-H ) :   0.9215 B(  4-C , 16-H ) :   0.9406 B(  4-C , 17-H ) :   0.9423
B(  4-C , 18-H ) :   0.9390 B(  5-C ,  6-C ) :   0.8890 B(  5-C ,  8-C ) :   0.8874
B(  6-C ,  7-C ) :   0.9514 B(  6-C , 19-H ) :   0.9203 B(  6-C , 20-H ) :   0.9285
B(  7-C ,  8-C ) :   0.9565 B(  7-C , 21-H ) :   0.9286 B(  7-C , 22-H ) :   0.9274
B(  8-C , 23-H ) :   0.9247 B(  8-C , 24-H ) :   0.9201

MP2 TOTAL ENERGY:     -351.694746378 Eh
FINAL SINGLE POINT ENERGY      -351.694746377889

DIPOLE MOMENT
-------------
                                X             Y             Z
Electronic contribution:     -0.34002      -1.61226       0.09315
Nuclear contribution   :      0.34918       1.57284      -0.11042
                        -----------------------------------------
Total Dipole Moment    :      0.00916      -0.03942      -0.01728
                        -----------------------------------------
Magnitude (a.u.)       :      0.04400
Magnitude (Debye)      :      0.11185

                             ****ORCA TERMINATED NORMALLY****
TOTAL RUN TIME: 0 days 0 hours 24 minutes 37 seconds 763 msec
