                         Program Version 3.0.3 - RELEASE   -
|  1> ! RI-MP2 RIJK def2-TZVP def2-TZVP/C def2-TZVP/JK TIGHTSCF
|  2> % maxcore 2000
|  3> % mp2 density relaxed end
|  4> *xyz 0 1
|  5>  O        0.0801720870     1.4121731252     0.0957298589
|  6>  C        0.0494476022     0.0178839006     0.0593032710
|  7>  C       -0.4328761933    -0.6948041143    -1.1869757300
|  8>  C       -1.2885042410    -0.7347252999     0.0645265058
|  9>  C       -1.1368828080    -1.8564419273     1.0691474937
| 10>  C       -0.8713241451    -3.3883095964     0.8026551558
| 11>  C        0.4074451626    -3.2986327923     1.7167016185
| 12>  C        0.3222958136    -1.8103504789     1.4592832988
| 13>  C        0.9940218467    -0.8084875011     0.8900281919
| 14>  H        0.7247379586     1.7149222127    -0.5524904366
| 15>  H       -0.8214478119    -0.0635481519    -1.9804763346
| 16>  H        0.0918249966    -1.5833949354    -1.5231677879
| 17>  H       -2.2023481470    -0.1539029653     0.0373759584
| 18>  H       -1.8306655611    -1.7460413743     1.9104312017
| 19>  H       -1.6548100305    -4.0808937905     1.1178876960
| 20>  H       -0.6054241912    -3.5832474829    -0.2385244297
| 21>  H        0.1752789659    -3.5774699623     2.7499295385
| 22>  H        1.3093610839    -3.8257446304     1.3983611430
| 23>  H        2.0702744518    -0.6801999151     0.8477020967
| 24> *
| 25>
| 26>                          ****END OF INPUT****

CARTESIAN COORDINATES (ANGSTROEM)
---------------------------------
  O      0.080172    1.412173    0.095730
  C      0.049448    0.017884    0.059303
  C     -0.432876   -0.694804   -1.186976
  C     -1.288504   -0.734725    0.064527
  C     -1.136883   -1.856442    1.069147
  C     -0.871324   -3.388310    0.802655
  C      0.407445   -3.298633    1.716702
  C      0.322296   -1.810350    1.459283
  C      0.994022   -0.808488    0.890028
  H      0.724738    1.714922   -0.552490
  H     -0.821448   -0.063548   -1.980476
  H      0.091825   -1.583395   -1.523168
  H     -2.202348   -0.153903    0.037376
  H     -1.830666   -1.746041    1.910431
  H     -1.654810   -4.080894    1.117888
  H     -0.605424   -3.583247   -0.238524
  H      0.175279   -3.577470    2.749930
  H      1.309361   -3.825745    1.398361
  H      2.070274   -0.680200    0.847702

 Total Charge           Charge          ....    0
 Multiplicity           Mult            ....    1
 Number of Electrons    NEL             ....   66
 Basis Dimension        Dim             ....  339

ORBITAL ENERGIES
----------------

  NO   OCC          E(Eh)            E(eV)
   0   2.0000     -20.559482      -559.4520
   1   2.0000     -11.286454      -307.1200
   2   2.0000     -11.236206      -305.7527
   3   2.0000     -11.234027      -305.6934
   4   2.0000     -11.230274      -305.5913
   5   2.0000     -11.228666      -305.5475
   6   2.0000     -11.227902      -305.5267
   7   2.0000     -11.226364      -305.4849
   8   2.0000     -11.218714      -305.2767
   9   2.0000      -1.369677       -37.2708
  10   2.0000      -1.186486       -32.2859
  11   2.0000      -1.101392       -29.9704
  12   2.0000      -0.992015       -26.9941
  13   2.0000      -0.925698       -25.1895
  14   2.0000      -0.848533       -23.0898
  15   2.0000      -0.814796       -22.1717
  16   2.0000      -0.759475       -20.6664
  17   2.0000      -0.716252       -19.4902
  18   2.0000      -0.697641       -18.9838
  19   2.0000      -0.653057       -17.7706
  20   2.0000      -0.635769       -17.3002
  21   2.0000      -0.604562       -16.4510
  22   2.0000      -0.591748       -16.1023
  23   2.0000      -0.554889       -15.0993
  24   2.0000      -0.538427       -14.6513
  25   2.0000      -0.517268       -14.0756
  26   2.0000      -0.505920       -13.7668
  27   2.0000      -0.484146       -13.1743
  28   2.0000      -0.469976       -12.7887
  29   2.0000      -0.440999       -12.0002
  30   2.0000      -0.410844       -11.1796
  31   2.0000      -0.386103       -10.5064
  32   2.0000      -0.326724        -8.8906
  33   0.0000       0.137048         3.7293
  34   0.0000       0.142773         3.8851
  35   0.0000       0.152689         4.1549
  36   0.0000       0.165791         4.5114
  37   0.0000       0.172480         4.6934

MULLIKEN ATOMIC CHARGES
-----------------------
   0 O :   -0.452356
   1 C :    0.224166
   2 C :   -0.325092
   3 C :   -0.119886
   4 C :   -0.044293
   5 C :   -0.244702
   6 C :   -0.177448
   7 C :   -0.059124
   8 C :   -0.236330
   9 H :    0.324545
  10 H :    0.138670
  11 H :    0.125170
  12 H :    0.129881
  13 H :    0.108796
  14 H :    0.120381
  15 H :    0.119075
  16 H :    0.125615
  17 H :    0.120187
  18 H :    0.122744
Sum of atomic charges:    0.0000000

LOEWDIN ATOMIC CHARGES
----------------------
   0 O :    0.021378
   1 C :   -0.317455
   2 C :   -0.192942
   3 C :   -0.149022
   4 C :   -0.160852
   5 C :   -0.192691
   6 C :   -0.197670
   7 C :   -0.132945
   8 C :   -0.105722
   9 H :    0.181701
  10 H :    0.138731
  11 H :    0.132575
  12 H :    0.148958
  13 H :    0.157229
  14 H :    0.124502
  15 H :    0.134618
  16 H :    0.141244
  17 H :    0.129303
  18 H :    0.139060

  Mayer bond orders larger than 0.1
B(  0-O ,  1-C ) :   1.0371 B(  0-O ,  9-H ) :   0.8388 B(  1-C ,  2-C ) :   0.8854
B(  1-C ,  3-C ) :   0.8495 B(  1-C ,  8-C ) :   0.9524 B(  2-C ,  3-C ) :   0.8843
B(  2-C , 10-H ) :   0.9212 B(  2-C , 11-H ) :   0.9038 B(  3-C ,  4-C ) :   0.9455
B(  3-C , 12-H ) :   0.9251 B(  4-C ,  5-C ) :   0.8733 B(  4-C ,  7-C ) :   0.9355
B(  4-C , 13-H ) :   0.9066 B(  5-C ,  6-C ) :   0.9345 B(  5-C , 14-H ) :   0.9237
B(  5-C , 15-H ) :   0.9158 B(  6-C ,  7-C ) :   0.9121 B(  6-C , 16-H ) :   0.9181
B(  6-C , 17-H ) :   0.9155 B(  7-C ,  8-C ) :   1.7652 B(  8-C , 18-H ) :   0.9174

MP2 TOTAL ENERGY:     -385.171057867 Eh
FINAL SINGLE POINT ENERGY      -385.171057867103

DIPOLE MOMENT
-------------
                                X             Y             Z
Electronic contribution:      0.88740       4.74950       0.90148
Nuclear contribution   :     -0.65104      -5.23047      -1.37770
                        -----------------------------------------
Total Dipole Moment    :      0.23636      -0.48097      -0.47621
                        -----------------------------------------
Magnitude (a.u.)       :      0.71692
Magnitude (Debye)      :      1.82227

                             ****ORCA TERMINATED NORMALLY****
TOTAL RUN TIME: 0 days 0 hours 20 minutes 13 seconds 508 msec
