                         Program Version 3.0.3 - RELEASE   -
|  1> ! RI-MP2 RIJK def2-TZVP def2-TZVP/C def2-TZVP/JK TIGHTSCF
|  2> % maxcore 2000
|  3> % mp2 density relaxed end
|  4> *xyz 0 1
|  5>  C       -0.0363647435     1.4675867622     0.0027688825
|  6>  N        0.0053274293     0.0221438627    -0.0084141301
|  7>  C       -0.0172656824    -0.7588632452    -1.1460024070
|  8>  C        0.0314381292    -2.0728220181    -0.7466304420
|  9>  O        0.0312160694    -3.1399087257    -1.6032924588
| 10>  C        0.0771553029    -2.1129981811     0.6749428566
| 11>  C        0.1331255445    -3.3387238439     1.5329104367
| 12>  C        0.0582659346    -0.7922256124     1.0991791439
| 13>  N        0.1004441802    -0.2170460537     2.3917814653
| 14>  H        0.1042589815     1.8021776138     1.0304938958
| 15>  H        0.7605338719     1.8802194325    -0.6248188982
| 16>  H       -0.9981882378     1.8416772568    -0.3673729711
| 17>  H       -0.0658584319    -0.3237620876    -2.1298245790
| 18>  H        0.0707208697    -3.9452661151    -1.0797172451
| 19>  H        1.0538780205    -3.9195887502     1.3839670590
| 20>  H        0.0934424912    -3.0704321872     2.5932078541
| 21>  H       -0.7094319874    -4.0187984536     1.3462220010
| 22>  H        0.8695024456    -0.5812747488     2.9427027995
| 23>  H       -0.7543830375    -0.3752606153     2.9158264368
| 24> *
| 25>
| 26>                          ****END OF INPUT****

CARTESIAN COORDINATES (ANGSTROEM)
---------------------------------
  C     -0.036365    1.467587    0.002769
  N      0.005327    0.022144   -0.008414
  C     -0.017266   -0.758863   -1.146002
  C      0.031438   -2.072822   -0.746630
  O      0.031216   -3.139909   -1.603292
  C      0.077155   -2.112998    0.674943
  C      0.133126   -3.338724    1.532910
  C      0.058266   -0.792226    1.099179
  N      0.100444   -0.217046    2.391781
  H      0.104259    1.802178    1.030494
  H      0.760534    1.880219   -0.624819
  H     -0.998188    1.841677   -0.367373
  H     -0.065858   -0.323762   -2.129825
  H      0.070721   -3.945266   -1.079717
  H      1.053878   -3.919589    1.383967
  H      0.093442   -3.070432    2.593208
  H     -0.709432   -4.018798    1.346222
  H      0.869502   -0.581275    2.942703
  H     -0.754383   -0.375261    2.915826

 Total Charge           Charge          ....    0
 Multiplicity           Mult            ....    1
 Number of Electrons    NEL             ....   68
 Basis Dimension        Dim             ....  339

ORBITAL ENERGIES
----------------

  NO   OCC          E(Eh)            E(eV)
   0   2.0000     -20.568512      -559.6977
   1   2.0000     -15.590547      -424.2403
   2   2.0000     -15.560627      -423.4262
   3   2.0000     -11.278156      -306.8942
   4   2.0000     -11.262179      -306.4595
   5   2.0000     -11.254943      -306.2626
   6   2.0000     -11.227476      -305.5151
   7   2.0000     -11.223601      -305.4097
   8   2.0000     -11.206004      -304.9309
   9   2.0000      -1.381475       -37.5919
  10   2.0000      -1.295996       -35.2659
  11   2.0000      -1.182478       -32.1769
  12   2.0000      -1.073695       -29.2167
  13   2.0000      -0.990510       -26.9531
  14   2.0000      -0.933248       -25.3950
  15   2.0000      -0.890285       -24.2259
  16   2.0000      -0.776912       -21.1409
  17   2.0000      -0.746974       -20.3262
  18   2.0000      -0.693069       -18.8594
  19   2.0000      -0.674971       -18.3669
  20   2.0000      -0.666789       -18.1443
  21   2.0000      -0.616761       -16.7829
  22   2.0000      -0.607915       -16.5422
  23   2.0000      -0.583048       -15.8656
  24   2.0000      -0.580603       -15.7990
  25   2.0000      -0.567837       -15.4516
  26   2.0000      -0.551918       -15.0185
  27   2.0000      -0.550020       -14.9668
  28   2.0000      -0.524315       -14.2673
  29   2.0000      -0.496910       -13.5216
  30   2.0000      -0.488855       -13.3024
  31   2.0000      -0.424433       -11.5494
  32   2.0000      -0.308253        -8.3880
  33   2.0000      -0.275126        -7.4866
  34   0.0000       0.117207         3.1894
  35   0.0000       0.145763         3.9664
  36   0.0000       0.158871         4.3231
  37   0.0000       0.171627         4.6702
  38   0.0000       0.189485         5.1562

MULLIKEN ATOMIC CHARGES
-----------------------
   0 C :   -0.342249
   1 N :    0.009115
   2 C :   -0.201518
   3 C :    0.149996
   4 O :   -0.444671
   5 C :   -0.004028
   6 C :   -0.506788
   7 C :    0.095482
   8 N :   -0.599976
   9 H :    0.178607
  10 H :    0.141924
  11 H :    0.140541
  12 H :    0.135790
  13 H :    0.330291
  14 H :    0.151548
  15 H :    0.122113
  16 H :    0.147373
  17 H :    0.249309
  18 H :    0.247142
Sum of atomic charges:   -0.0000000

LOEWDIN ATOMIC CHARGES
----------------------
   0 C :   -0.279538
   1 N :    0.241672
   2 C :   -0.210321
   3 C :   -0.293939
   4 O :    0.050264
   5 C :   -0.202250
   6 C :   -0.292202
   7 C :   -0.304567
   8 N :   -0.115702
   9 H :    0.131502
  10 H :    0.120975
  11 H :    0.119115
  12 H :    0.135832
  13 H :    0.188616
  14 H :    0.127168
  15 H :    0.127961
  16 H :    0.127250
  17 H :    0.164335
  18 H :    0.163828

  Mayer bond orders larger than 0.1
B(  0-C ,  1-N ) :   0.8617 B(  0-C ,  9-H ) :   0.9262 B(  0-C , 10-H ) :   0.9317
B(  0-C , 11-H ) :   0.9296 B(  1-N ,  2-C ) :   1.1012 B(  1-N ,  7-C ) :   1.1720
B(  2-C ,  3-C ) :   1.4758 B(  2-C , 12-H ) :   0.9248 B(  3-C ,  4-O ) :   1.0859
B(  3-C ,  5-C ) :   1.2336 B(  4-O , 13-H ) :   0.8383 B(  5-C ,  6-C ) :   0.8182
B(  5-C ,  7-C ) :   1.3637 B(  6-C , 14-H ) :   0.9446 B(  6-C , 15-H ) :   0.9445
B(  6-C , 16-H ) :   0.9449 B(  7-C ,  8-N ) :   0.9819 B(  8-N , 17-H ) :   0.8935
B(  8-N , 18-H ) :   0.8882

MP2 TOTAL ENERGY:     -418.528165305 Eh
FINAL SINGLE POINT ENERGY      -418.528165305090

DIPOLE MOMENT
-------------
                                X             Y             Z
Electronic contribution:     -0.04311      -1.37343      -4.12882
Nuclear contribution   :     -0.00100       1.47311       5.05681
                        -----------------------------------------
Total Dipole Moment    :     -0.04410       0.09968       0.92799
                        -----------------------------------------
Magnitude (a.u.)       :      0.93437
Magnitude (Debye)      :      2.37498

                             ****ORCA TERMINATED NORMALLY****
TOTAL RUN TIME: 0 days 0 hours 17 minutes 55 seconds 515 msec
