                         Program Version 3.0.3 - RELEASE   -
|  1> ! RI-MP2 RIJK def2-TZVP def2-TZVP/C def2-TZVP/JK TIGHTSCF
|  2> % maxcore 2000
|  3> % mp2 density relaxed end
|  4> *xyz 0 1
|  5>  C       -0.0623772929     1.4745500899     0.1092033887
|  6>  C        1.4081745339     1.8711838895     0.0220828899
|  7>  C        2.1665288523     0.9300064249    -0.5472757460
|  8>  C        1.3275982501    -0.2462345470    -1.0029447953
|  9>  C        1.6392725706    -1.7069595096    -0.6995954408
| 10>  N        1.7857676919    -2.0575352916     0.7268369128
| 11>  C        0.4690856411    -2.2586688377     0.0472554719
| 12>  C       -0.4448145304    -1.1083860494     0.3327930822
| 13>  C        0.0492963882     0.0064225298    -0.2060092135
| 14>  H       -0.5083790422     1.6733402346     1.0896608359
| 15>  H       -0.6592597415     2.0312083167    -0.6299823180
| 16>  H        1.7657651178     2.8322971007     0.3752749558
| 17>  H        3.2316464917     1.0118191761    -0.7306837313
| 18>  H        1.1555738856    -0.1650471021    -2.0898532522
| 19>  H        2.1639879874    -2.3049124465    -1.4370174615
| 20>  H        2.2639012981    -2.9561636410     0.7771763316
| 21>  H        0.1085390421    -3.2723922184    -0.0928081264
| 22>  H       -1.2770238237    -1.1697671790     1.0243749862
| 23> *
| 24>
| 25>                          ****END OF INPUT****

CARTESIAN COORDINATES (ANGSTROEM)
---------------------------------
  C     -0.062377    1.474550    0.109203
  C      1.408175    1.871184    0.022083
  C      2.166529    0.930006   -0.547276
  C      1.327598   -0.246235   -1.002945
  C      1.639273   -1.706960   -0.699595
  N      1.785768   -2.057535    0.726837
  C      0.469086   -2.258669    0.047255
  C     -0.444815   -1.108386    0.332793
  C      0.049296    0.006423   -0.206009
  H     -0.508379    1.673340    1.089661
  H     -0.659260    2.031208   -0.629982
  H      1.765765    2.832297    0.375275
  H      3.231646    1.011819   -0.730684
  H      1.155574   -0.165047   -2.089853
  H      2.163988   -2.304912   -1.437017
  H      2.263901   -2.956164    0.777176
  H      0.108539   -3.272392   -0.092808
  H     -1.277024   -1.169767    1.024375

 Total Charge           Charge          ....    0
 Multiplicity           Mult            ....    1
 Number of Electrons    NEL             ....   64
 Basis Dimension        Dim             ....  333

ORBITAL ENERGIES
----------------

  NO   OCC          E(Eh)            E(eV)
   0   2.0000     -15.554259      -423.2529
   1   2.0000     -11.258020      -306.3463
   2   2.0000     -11.256409      -306.3025
   3   2.0000     -11.232972      -305.6647
   4   2.0000     -11.231805      -305.6329
   5   2.0000     -11.229123      -305.5600
   6   2.0000     -11.227018      -305.5027
   7   2.0000     -11.224816      -305.4428
   8   2.0000     -11.217084      -305.2324
   9   2.0000      -1.265341       -34.4317
  10   2.0000      -1.142215       -31.0812
  11   2.0000      -1.034279       -28.1442
  12   2.0000      -0.981342       -26.7037
  13   2.0000      -0.914501       -24.8848
  14   2.0000      -0.863585       -23.4993
  15   2.0000      -0.781206       -21.2577
  16   2.0000      -0.738569       -20.0975
  17   2.0000      -0.714903       -19.4535
  18   2.0000      -0.700593       -19.0641
  19   2.0000      -0.652476       -17.7548
  20   2.0000      -0.598105       -16.2753
  21   2.0000      -0.588367       -16.0103
  22   2.0000      -0.555077       -15.1044
  23   2.0000      -0.537686       -14.6312
  24   2.0000      -0.528075       -14.3697
  25   2.0000      -0.504247       -13.7213
  26   2.0000      -0.490975       -13.3601
  27   2.0000      -0.473196       -12.8763
  28   2.0000      -0.441144       -12.0041
  29   2.0000      -0.379110       -10.3161
  30   2.0000      -0.350885        -9.5481
  31   2.0000      -0.330004        -8.9799
  32   0.0000       0.139590         3.7984
  33   0.0000       0.142511         3.8779
  34   0.0000       0.154902         4.2151
  35   0.0000       0.160973         4.3803
  36   0.0000       0.178541         4.8583

MULLIKEN ATOMIC CHARGES
-----------------------
   0 C :   -0.132985
   1 C :   -0.177080
   2 C :   -0.209944
   3 C :    0.123182
   4 C :   -0.136596
   5 N :   -0.375517
   6 C :    0.011171
   7 C :   -0.211340
   8 C :   -0.093460
   9 H :    0.126572
  10 H :    0.120695
  11 H :    0.125654
  12 H :    0.125945
  13 H :    0.099773
  14 H :    0.128527
  15 H :    0.213281
  16 H :    0.130460
  17 H :    0.131663
Sum of atomic charges:   -0.0000000

LOEWDIN ATOMIC CHARGES
----------------------
   0 C :   -0.200986
   1 C :   -0.142825
   2 C :   -0.125938
   3 C :   -0.167160
   4 C :   -0.221354
   5 N :    0.004601
   6 C :   -0.227055
   7 C :   -0.114996
   8 C :   -0.107373
   9 H :    0.144224
  10 H :    0.147561
  11 H :    0.134910
  12 H :    0.137810
  13 H :    0.165124
  14 H :    0.133909
  15 H :    0.166952
  16 H :    0.132895
  17 H :    0.139704

  Mayer bond orders larger than 0.1
B(  0-C ,  1-C ) :   0.9380 B(  0-C ,  8-C ) :   0.9668 B(  0-C ,  9-H ) :   0.9137
B(  0-C , 10-H ) :   0.8914 B(  1-C ,  2-C ) :   1.7891 B(  1-C , 11-H ) :   0.9273
B(  2-C ,  3-C ) :   0.8884 B(  2-C , 12-H ) :   0.9234 B(  3-C ,  4-C ) :   0.8934
B(  3-C ,  8-C ) :   0.9281 B(  3-C , 13-H ) :   0.8908 B(  4-C ,  5-N ) :   1.0226
B(  4-C ,  6-C ) :   0.9271 B(  4-C , 14-H ) :   0.9292 B(  5-N ,  6-C ) :   0.8937
B(  5-N , 15-H ) :   0.8676 B(  6-C ,  7-C ) :   0.9361 B(  6-C , 16-H ) :   0.9146
B(  7-C ,  8-C ) :   1.7902 B(  7-C , 17-H ) :   0.9183

MP2 TOTAL ENERGY:     -364.122945042 Eh
FINAL SINGLE POINT ENERGY      -364.122945041642

DIPOLE MOMENT
-------------
                                X             Y             Z
Electronic contribution:      0.15979      -1.18734       0.13512
Nuclear contribution   :     -0.19815       0.90564      -0.54732
                        -----------------------------------------
Total Dipole Moment    :     -0.03836      -0.28170      -0.41220
                        -----------------------------------------
Magnitude (a.u.)       :      0.50074
Magnitude (Debye)      :      1.27277

                             ****ORCA TERMINATED NORMALLY****
TOTAL RUN TIME: 0 days 0 hours 18 minutes 28 seconds 78 msec
