                         Program Version 3.0.3 - RELEASE   -
|  1> ! RI-MP2 RIJK def2-TZVP def2-TZVP/C def2-TZVP/JK TIGHTSCF
|  2> % maxcore 2000
|  3> % mp2 density relaxed end
|  4> *xyz 0 1
|  5>  C       -0.0239750183     1.5432433289    -0.1757824040
|  6>  C        1.5268036659     1.5677179201     0.0383428438
|  7>  C        2.0074665654     1.9617476676     1.4573510473
|  8>  C        2.1206520847     0.6472721171     2.2796763772
|  9>  C        1.4702873111    -0.4370315426     1.4275550067
| 10>  O        0.0162319269    -0.3492367728     1.4192207465
| 11>  C       -0.0148587584     0.0172598876     0.0205760470
| 12>  C        1.5330628572     0.0025039452    -0.0453941616
| 13>  H       -0.6405435436     2.1128737762     0.5254050291
| 14>  H       -0.2972931153     1.8161429391    -1.2001947297
| 15>  H        2.0708377873     2.0966620596    -0.7454700679
| 16>  H        2.9755644175     2.4696347418     1.4136474071
| 17>  H        1.3077490441     2.6664266089     1.9163760176
| 18>  H        3.1717316607     0.3848880004     2.4487373243
| 19>  H        1.6413216186     0.7104279349     3.2608824020
| 20>  H        1.7923478698    -1.4533255590     1.6812034628
| 21>  H       -0.6985808696    -0.6117980202    -0.5548034079
| 22>  H        2.1448192960    -0.5213851328    -0.7763338704
| 23> *
| 24>
| 25>                          ****END OF INPUT****

CARTESIAN COORDINATES (ANGSTROEM)
---------------------------------
  C     -0.023975    1.543243   -0.175782
  C      1.526804    1.567718    0.038343
  C      2.007467    1.961748    1.457351
  C      2.120652    0.647272    2.279676
  C      1.470287   -0.437032    1.427555
  O      0.016232   -0.349237    1.419221
  C     -0.014859    0.017260    0.020576
  C      1.533063    0.002504   -0.045394
  H     -0.640544    2.112874    0.525405
  H     -0.297293    1.816143   -1.200195
  H      2.070838    2.096662   -0.745470
  H      2.975564    2.469635    1.413647
  H      1.307749    2.666427    1.916376
  H      3.171732    0.384888    2.448737
  H      1.641322    0.710428    3.260882
  H      1.792348   -1.453326    1.681203
  H     -0.698581   -0.611798   -0.554803
  H      2.144819   -0.521385   -0.776334

 Total Charge           Charge          ....    0
 Multiplicity           Mult            ....    1
 Number of Electrons    NEL             ....   60
 Basis Dimension        Dim             ....  308

ORBITAL ENERGIES
----------------

  NO   OCC          E(Eh)            E(eV)
   0   2.0000     -20.539574      -558.9102
   1   2.0000     -11.275312      -306.8168
   2   2.0000     -11.275032      -306.8092
   3   2.0000     -11.229721      -305.5762
   4   2.0000     -11.225476      -305.4607
   5   2.0000     -11.219249      -305.2913
   6   2.0000     -11.218869      -305.2809
   7   2.0000     -11.217573      -305.2457
   8   2.0000      -1.373605       -37.3777
   9   2.0000      -1.123444       -30.5705
  10   2.0000      -1.043483       -28.3946
  11   2.0000      -0.954206       -25.9653
  12   2.0000      -0.891424       -24.2569
  13   2.0000      -0.850351       -23.1392
  14   2.0000      -0.762302       -20.7433
  15   2.0000      -0.712317       -19.3831
  16   2.0000      -0.696884       -18.9632
  17   2.0000      -0.643206       -17.5025
  18   2.0000      -0.617037       -16.7904
  19   2.0000      -0.600921       -16.3519
  20   2.0000      -0.593148       -16.1404
  21   2.0000      -0.555373       -15.1125
  22   2.0000      -0.530544       -14.4368
  23   2.0000      -0.496737       -13.5169
  24   2.0000      -0.470115       -12.7925
  25   2.0000      -0.458671       -12.4811
  26   2.0000      -0.449826       -12.2404
  27   2.0000      -0.431093       -11.7306
  28   2.0000      -0.413175       -11.2431
  29   2.0000      -0.394924       -10.7464
  30   0.0000       0.139873         3.8061
  31   0.0000       0.158476         4.3124
  32   0.0000       0.168922         4.5966
  33   0.0000       0.178697         4.8626
  34   0.0000       0.185609         5.0507

MULLIKEN ATOMIC CHARGES
-----------------------
   0 C :   -0.239811
   1 C :   -0.050842
   2 C :   -0.283732
   3 C :   -0.196459
   4 C :    0.027449
   5 O :   -0.335361
   6 C :    0.027386
   7 C :   -0.084073
   8 H :    0.107570
   9 H :    0.111953
  10 H :    0.116629
  11 H :    0.116604
  12 H :    0.117458
  13 H :    0.114408
  14 H :    0.113785
  15 H :    0.096830
  16 H :    0.108527
  17 H :    0.131679
Sum of atomic charges:    0.0000000

LOEWDIN ATOMIC CHARGES
----------------------
   0 C :   -0.204495
   1 C :   -0.187192
   2 C :   -0.230854
   3 C :   -0.237851
   4 C :   -0.250192
   5 O :    0.152147
   6 C :   -0.240230
   7 C :   -0.145643
   8 H :    0.129963
   9 H :    0.136158
  10 H :    0.138918
  11 H :    0.133900
  12 H :    0.137186
  13 H :    0.139607
  14 H :    0.140675
  15 H :    0.132175
  16 H :    0.122518
  17 H :    0.133211

  Mayer bond orders larger than 0.1
B(  0-C ,  1-C ) :   0.9394 B(  0-C ,  6-C ) :   0.9222 B(  0-C ,  8-H ) :   0.9069
B(  0-C ,  9-H ) :   0.9093 B(  1-C ,  2-C ) :   0.9248 B(  1-C ,  7-C ) :   0.9297
B(  1-C , 10-H ) :   0.9203 B(  2-C ,  3-C ) :   0.9556 B(  2-C , 11-H ) :   0.9358
B(  2-C , 12-H ) :   0.9217 B(  3-C ,  4-C ) :   0.9417 B(  3-C , 13-H ) :   0.9145
B(  3-C , 14-H ) :   0.9107 B(  4-C ,  5-O ) :   0.9501 B(  4-C ,  7-C ) :   0.9334
B(  4-C , 15-H ) :   0.9228 B(  5-O ,  6-C ) :   0.9522 B(  6-C ,  7-C ) :   0.9363
B(  6-C , 16-H ) :   0.9295 B(  7-C , 17-H ) :   0.9039

MP2 TOTAL ENERGY:     -347.180020222 Eh
FINAL SINGLE POINT ENERGY      -347.180020221646

DIPOLE MOMENT
-------------
                                X             Y             Z
Electronic contribution:     -2.06536      -3.08908      -0.20705
Nuclear contribution   :      2.62419       3.27964      -0.24960
                        -----------------------------------------
Total Dipole Moment    :      0.55883       0.19057      -0.45665
                        -----------------------------------------
Magnitude (a.u.)       :      0.74642
Magnitude (Debye)      :      1.89724

                             ****ORCA TERMINATED NORMALLY****
TOTAL RUN TIME: 0 days 0 hours 13 minutes 33 seconds 63 msec
