                         Program Version 3.0.3 - RELEASE   -
|  1> ! RI-MP2 RIJK def2-TZVP def2-TZVP/C def2-TZVP/JK TIGHTSCF
|  2> % maxcore 2000
|  3> % mp2 density relaxed end
|  4> *xyz 0 1
|  5>  C       -0.1863081286     1.4418346602     0.0892007951
|  6>  N       -0.1237852213     0.0630872324    -0.3895573037
|  7>  C       -1.1893864616    -0.7785739255    -0.1178407763
|  8>  C       -1.2710043830    -2.1080912292     0.1816252666
|  9>  C       -2.6742541247    -2.4126862856     0.2172493035
| 10>  C       -3.3473465100    -1.2652307567    -0.0367982549
| 11>  N       -4.7068092230    -0.9637626706    -0.0931064736
| 12>  O       -2.4246521660    -0.2382549389    -0.2497315548
| 13>  H        0.7030534320     1.9734392989    -0.2573560892
| 14>  H       -1.0634185814     1.9319452218    -0.3373357274
| 15>  H       -0.2450372846     1.5262185275     1.1853758869
| 16>  H        0.7548265450    -0.3886892529    -0.1787140581
| 17>  H       -0.4452503714    -2.7812530466     0.3484442888
| 18>  H       -3.1325070673    -3.3686678205     0.4157588162
| 19>  H       -4.9654436776    -0.5111471853    -0.9644034328
| 20>  H       -5.0078335265    -0.3625657290     0.6685725035
| 21> *
| 22>
| 23>                          ****END OF INPUT****

CARTESIAN COORDINATES (ANGSTROEM)
---------------------------------
  C     -0.186308    1.441835    0.089201
  N     -0.123785    0.063087   -0.389557
  C     -1.189386   -0.778574   -0.117841
  C     -1.271004   -2.108091    0.181625
  C     -2.674254   -2.412686    0.217249
  C     -3.347347   -1.265231   -0.036798
  N     -4.706809   -0.963763   -0.093106
  O     -2.424652   -0.238255   -0.249732
  H      0.703053    1.973439   -0.257356
  H     -1.063419    1.931945   -0.337336
  H     -0.245037    1.526219    1.185376
  H      0.754827   -0.388689   -0.178714
  H     -0.445250   -2.781253    0.348444
  H     -3.132507   -3.368668    0.415759
  H     -4.965444   -0.511147   -0.964403
  H     -5.007834   -0.362566    0.668573

 Total Charge           Charge          ....    0
 Multiplicity           Mult            ....    1
 Number of Electrons    NEL             ....   60
 Basis Dimension        Dim             ....  296

ORBITAL ENERGIES
----------------

  NO   OCC          E(Eh)            E(eV)
   0   2.0000     -20.606177      -560.7226
   1   2.0000     -15.571321      -423.7172
   2   2.0000     -15.558032      -423.3556
   3   2.0000     -11.318603      -307.9948
   4   2.0000     -11.296127      -307.3833
   5   2.0000     -11.257268      -306.3258
   6   2.0000     -11.216263      -305.2100
   7   2.0000     -11.203023      -304.8498
   8   2.0000      -1.449748       -39.4496
   9   2.0000      -1.233139       -33.5554
  10   2.0000      -1.190308       -32.3899
  11   2.0000      -1.068703       -29.0809
  12   2.0000      -0.971165       -26.4268
  13   2.0000      -0.900938       -24.5158
  14   2.0000      -0.808311       -21.9953
  15   2.0000      -0.754544       -20.5322
  16   2.0000      -0.720649       -19.6099
  17   2.0000      -0.678865       -18.4729
  18   2.0000      -0.651520       -17.7288
  19   2.0000      -0.637493       -17.3471
  20   2.0000      -0.627934       -17.0870
  21   2.0000      -0.583109       -15.8672
  22   2.0000      -0.566298       -15.4098
  23   2.0000      -0.555293       -15.1103
  24   2.0000      -0.539510       -14.6808
  25   2.0000      -0.536023       -14.5859
  26   2.0000      -0.439285       -11.9535
  27   2.0000      -0.429777       -11.6948
  28   2.0000      -0.385665       -10.4945
  29   2.0000      -0.271968        -7.4006
  30   0.0000       0.134791         3.6679
  31   0.0000       0.142850         3.8871
  32   0.0000       0.162008         4.4085
  33   0.0000       0.176868         4.8128
  34   0.0000       0.189792         5.1645

MULLIKEN ATOMIC CHARGES
-----------------------
   0 C :   -0.275966
   1 N :   -0.329053
   2 C :    0.272951
   3 C :   -0.258213
   4 C :   -0.211128
   5 C :    0.175245
   6 N :   -0.524463
   7 O :   -0.236257
   8 H :    0.136894
   9 H :    0.148766
  10 H :    0.119396
  11 H :    0.227101
  12 H :    0.131028
  13 H :    0.127505
  14 H :    0.248701
  15 H :    0.247494
Sum of atomic charges:    0.0000000

LOEWDIN ATOMIC CHARGES
----------------------
   0 C :   -0.327536
   1 N :    0.029733
   2 C :   -0.342896
   3 C :   -0.199929
   4 C :   -0.172914
   5 C :   -0.360547
   6 N :   -0.106724
   7 O :    0.334752
   8 H :    0.116800
   9 H :    0.121399
  10 H :    0.105014
  11 H :    0.186206
  12 H :    0.138343
  13 H :    0.144641
  14 H :    0.167171
  15 H :    0.166488

  Mayer bond orders larger than 0.1
B(  0-C ,  1-N ) :   0.8968 B(  0-C ,  8-H ) :   0.9368 B(  0-C ,  9-H ) :   0.9371
B(  0-C , 10-H ) :   0.9278 B(  1-N ,  2-C ) :   1.1193 B(  1-N , 11-H ) :   0.8783
B(  2-C ,  3-C ) :   1.5191 B(  2-C ,  7-O ) :   1.0316 B(  3-C ,  4-C ) :   1.1702
B(  3-C , 12-H ) :   0.9267 B(  4-C ,  5-C ) :   1.6030 B(  4-C , 13-H ) :   0.9334
B(  5-C ,  6-N ) :   1.1478 B(  5-C ,  7-O ) :   0.9885 B(  6-N , 14-H ) :   0.8835
B(  6-N , 15-H ) :   0.8806

MP2 TOTAL ENERGY:     -379.296304963 Eh
FINAL SINGLE POINT ENERGY      -379.296304963105

DIPOLE MOMENT
-------------
                                X             Y             Z
Electronic contribution:     -1.98450      -2.89074      -0.93579
Nuclear contribution   :      2.41440       3.50323       1.21340
                        -----------------------------------------
Total Dipole Moment    :      0.42989       0.61250       0.27761
                        -----------------------------------------
Magnitude (a.u.)       :      0.79814
Magnitude (Debye)      :      2.02871

                             ****ORCA TERMINATED NORMALLY****
TOTAL RUN TIME: 0 days 0 hours 11 minutes 10 seconds 580 msec
