                         Program Version 3.0.3 - RELEASE   -
|  1> ! RI-MP2 RIJK def2-TZVP def2-TZVP/C def2-TZVP/JK TIGHTSCF
|  2> % maxcore 2000
|  3> % mp2 density relaxed end
|  4> *xyz 0 1
|  5>  C       -0.0323833443     1.4855077438     0.0150564383
|  6>  C       -0.0131455299    -0.0252303954    -0.0096033719
|  7>  O        1.0153800451    -0.6817152790    -0.0515478833
|  8>  C       -1.3099153074    -0.7098708621     0.0193678585
|  9>  N       -2.5292904341    -0.1770872857     0.0532951427
| 10>  C       -3.3897015496    -1.2296484162     0.0696986093
| 11>  N       -4.7648915126    -1.0316622293     0.1734412576
| 12>  C       -2.6878194334    -2.4292759500     0.0433650376
| 13>  N       -1.3693271824    -2.0661102277     0.0083321661
| 14>  H        0.9909327577     1.8609800732    -0.0097592344
| 15>  H       -0.5989385440     1.8702805948    -0.8386347310
| 16>  H       -0.5464318468     1.8421819959     0.9130058966
| 17>  H       -5.0188000817    -0.0894673973    -0.0927551158
| 18>  H       -5.3191217397    -1.7088359091    -0.3320256082
| 19>  H       -3.0080303206    -3.4573284805     0.0536271689
| 20>  H       -0.5510248661    -2.6538253854    -0.0212101910
| 21> *
| 22>
| 23>                          ****END OF INPUT****

CARTESIAN COORDINATES (ANGSTROEM)
---------------------------------
  C     -0.032383    1.485508    0.015056
  C     -0.013146   -0.025230   -0.009603
  O      1.015380   -0.681715   -0.051548
  C     -1.309915   -0.709871    0.019368
  N     -2.529290   -0.177087    0.053295
  C     -3.389702   -1.229648    0.069699
  N     -4.764892   -1.031662    0.173441
  C     -2.687819   -2.429276    0.043365
  N     -1.369327   -2.066110    0.008332
  H      0.990933    1.860980   -0.009759
  H     -0.598939    1.870281   -0.838635
  H     -0.546432    1.842182    0.913006
  H     -5.018800   -0.089467   -0.092755
  H     -5.319122   -1.708836   -0.332026
  H     -3.008030   -3.457328    0.053627
  H     -0.551025   -2.653825   -0.021210

 Total Charge           Charge          ....    0
 Multiplicity           Mult            ....    1
 Number of Electrons    NEL             ....   66
 Basis Dimension        Dim             ....  321

ORBITAL ENERGIES
----------------

  NO   OCC          E(Eh)            E(eV)
   0   2.0000     -20.552361      -559.2582
   1   2.0000     -15.628414      -425.2708
   2   2.0000     -15.562757      -423.4842
   3   2.0000     -15.560477      -423.4221
   4   2.0000     -11.344304      -308.6942
   5   2.0000     -11.301454      -307.5282
   6   2.0000     -11.294686      -307.3440
   7   2.0000     -11.262966      -306.4809
   8   2.0000     -11.232674      -305.6566
   9   2.0000      -1.397046       -38.0156
  10   2.0000      -1.352110       -36.7928
  11   2.0000      -1.223207       -33.2852
  12   2.0000      -1.159838       -31.5608
  13   2.0000      -1.037860       -28.2416
  14   2.0000      -0.988670       -26.9031
  15   2.0000      -0.871661       -23.7191
  16   2.0000      -0.806472       -21.9452
  17   2.0000      -0.793489       -21.5919
  18   2.0000      -0.719700       -19.5840
  19   2.0000      -0.680175       -18.5085
  20   2.0000      -0.645102       -17.5541
  21   2.0000      -0.635627       -17.2963
  22   2.0000      -0.629284       -17.1237
  23   2.0000      -0.613375       -16.6908
  24   2.0000      -0.589680       -16.0460
  25   2.0000      -0.584859       -15.9148
  26   2.0000      -0.553720       -15.0675
  27   2.0000      -0.510322       -13.8866
  28   2.0000      -0.486017       -13.2252
  29   2.0000      -0.462751       -12.5921
  30   2.0000      -0.432446       -11.7675
  31   2.0000      -0.396348       -10.7852
  32   2.0000      -0.296603        -8.0710
  33   0.0000       0.082022         2.2319
  34   0.0000       0.134793         3.6679
  35   0.0000       0.144119         3.9217
  36   0.0000       0.156855         4.2682
  37   0.0000       0.184224         5.0130

MULLIKEN ATOMIC CHARGES
-----------------------
   0 C :   -0.378793
   1 C :    0.193305
   2 O :   -0.342075
   3 C :    0.157124
   4 N :   -0.320560
   5 C :    0.207942
   6 N :   -0.525284
   7 C :   -0.143500
   8 N :   -0.228416
   9 H :    0.149803
  10 H :    0.148314
  11 H :    0.150676
  12 H :    0.258277
  13 H :    0.246762
  14 H :    0.157722
  15 H :    0.268706
Sum of atomic charges:    0.0000000

LOEWDIN ATOMIC CHARGES
----------------------
   0 C :   -0.267295
   1 C :   -0.337859
   2 O :    0.117843
   3 C :   -0.314104
   4 N :    0.130965
   5 C :   -0.357282
   6 N :   -0.086320
   7 C :   -0.215839
   8 N :    0.230507
   9 H :    0.132309
  10 H :    0.142014
  11 H :    0.142677
  12 H :    0.173434
  13 H :    0.167040
  14 H :    0.135949
  15 H :    0.205960

  Mayer bond orders larger than 0.1
B(  0-C ,  1-C ) :   0.9703 B(  0-C ,  9-H ) :   0.9387 B(  0-C , 10-H ) :   0.9074
B(  0-C , 11-H ) :   0.9068 B(  1-C ,  2-O ) :   1.9053 B(  1-C ,  3-C ) :   0.9396
B(  3-C ,  4-N ) :   1.4502 B(  3-C ,  8-N ) :   1.1731 B(  4-N ,  5-C ) :   1.3373
B(  5-C ,  6-N ) :   1.0381 B(  5-C ,  7-C ) :   1.4120 B(  6-N , 12-H ) :   0.8724
B(  6-N , 13-H ) :   0.8791 B(  7-C ,  8-N ) :   1.1656 B(  7-C , 14-H ) :   0.9057
B(  8-N , 15-H ) :   0.8475

MP2 TOTAL ENERGY:     -433.412187603 Eh
FINAL SINGLE POINT ENERGY      -433.412187603235

DIPOLE MOMENT
-------------
                                X             Y             Z
Electronic contribution:      1.39308      -3.39878       0.07903
Nuclear contribution   :     -2.21813       2.74071      -0.50701
                        -----------------------------------------
Total Dipole Moment    :     -0.82505      -0.65807      -0.42798
                        -----------------------------------------
Magnitude (a.u.)       :      1.13882
Magnitude (Debye)      :      2.89466

                             ****ORCA TERMINATED NORMALLY****
TOTAL RUN TIME: 0 days 0 hours 15 minutes 57 seconds 161 msec
