                         Program Version 3.0.3 - RELEASE   -
|  1> ! RI-MP2 RIJK def2-TZVP def2-TZVP/C def2-TZVP/JK TIGHTSCF
|  2> % maxcore 2000
|  3> % mp2 density relaxed end
|  4> *xyz 0 1
|  5>  O       -0.0856280688     0.0367061085    -0.0345191638
|  6>  C       -0.0726688056     1.2220099639     0.0393299912
|  7>  C       -1.1545274204     2.3333242354    -0.0053349191
|  8>  C        0.0554370233     3.2326677772    -0.3397048398
|  9>  C        0.7711588797     3.2806508884     0.9400946465
| 10>  C       -0.1738011339     3.0979037915     2.1114215119
| 11>  C       -1.4905296225     2.6411790669     1.4574925212
| 12>  O       -2.5578093944     2.5223309165     1.9888025776
| 13>  N        1.0616647149     2.1223022386     0.0049738826
| 14>  H       -2.0061181442     2.2021627252    -0.6665594115
| 15>  H        0.1930305010     3.8464941863    -1.2185358307
| 16>  H        1.6560900793     3.8941059777     1.0578114646
| 17>  H        0.1606092861     2.3594813341     2.8474842682
| 18>  H       -0.3267480146     4.0442066499     2.6394905711
| 19> *
| 20>
| 21>                          ****END OF INPUT****

CARTESIAN COORDINATES (ANGSTROEM)
---------------------------------
  O     -0.085628    0.036706   -0.034519
  C     -0.072669    1.222010    0.039330
  C     -1.154527    2.333324   -0.005335
  C      0.055437    3.232668   -0.339705
  C      0.771159    3.280651    0.940095
  C     -0.173801    3.097904    2.111422
  C     -1.490530    2.641179    1.457493
  O     -2.557809    2.522331    1.988803
  N      1.061665    2.122302    0.004974
  H     -2.006118    2.202163   -0.666559
  H      0.193031    3.846494   -1.218536
  H      1.656090    3.894106    1.057811
  H      0.160609    2.359481    2.847484
  H     -0.326748    4.044207    2.639491

 Total Charge           Charge          ....    0
 Multiplicity           Mult            ....    1
 Number of Electrons    NEL             ....   64
 Basis Dimension        Dim             ....  309

ORBITAL ENERGIES
----------------

  NO   OCC          E(Eh)            E(eV)
   0   2.0000     -20.576180      -559.9063
   1   2.0000     -20.571741      -559.7855
   2   2.0000     -15.607512      -424.7020
   3   2.0000     -11.383616      -309.7639
   4   2.0000     -11.363891      -309.2272
   5   2.0000     -11.317154      -307.9554
   6   2.0000     -11.314708      -307.8889
   7   2.0000     -11.285945      -307.1062
   8   2.0000     -11.273333      -306.7630
   9   2.0000      -1.433515       -39.0079
  10   2.0000      -1.420604       -38.6566
  11   2.0000      -1.339255       -36.4430
  12   2.0000      -1.088881       -29.6299
  13   2.0000      -1.049310       -28.5532
  14   2.0000      -0.950836       -25.8736
  15   2.0000      -0.831664       -22.6307
  16   2.0000      -0.801763       -21.8171
  17   2.0000      -0.747039       -20.3280
  18   2.0000      -0.716090       -19.4858
  19   2.0000      -0.696708       -18.9584
  20   2.0000      -0.663708       -18.0604
  21   2.0000      -0.649019       -17.6607
  22   2.0000      -0.630119       -17.1464
  23   2.0000      -0.617407       -16.8005
  24   2.0000      -0.576057       -15.6753
  25   2.0000      -0.570412       -15.5217
  26   2.0000      -0.551916       -15.0184
  27   2.0000      -0.513800       -13.9812
  28   2.0000      -0.468931       -12.7603
  29   2.0000      -0.458822       -12.4852
  30   2.0000      -0.436146       -11.8681
  31   2.0000      -0.409982       -11.1562
  32   0.0000       0.100668         2.7393
  33   0.0000       0.127582         3.4717
  34   0.0000       0.148599         4.0436
  35   0.0000       0.156637         4.2623
  36   0.0000       0.158638         4.3168

MULLIKEN ATOMIC CHARGES
-----------------------
   0 O :   -0.213236
   1 C :    0.146072
   2 C :   -0.007380
   3 C :   -0.092008
   4 C :   -0.101080
   5 C :   -0.178433
   6 C :    0.065630
   7 O :   -0.235894
   8 N :   -0.183171
   9 H :    0.162250
  10 H :    0.170710
  11 H :    0.153480
  12 H :    0.159051
  13 H :    0.154009
Sum of atomic charges:    0.0000000

LOEWDIN ATOMIC CHARGES
----------------------
   0 O :    0.192226
   1 C :   -0.368207
   2 C :   -0.132593
   3 C :   -0.137237
   4 C :   -0.197587
   5 C :   -0.197069
   6 C :   -0.289290
   7 O :    0.180044
   8 N :    0.169469
   9 H :    0.160605
  10 H :    0.143336
  11 H :    0.154342
  12 H :    0.160716
  13 H :    0.161246

  Mayer bond orders larger than 0.1
B(  0-O ,  1-C ) :   2.0803 B(  1-C ,  2-C ) :   0.8547 B(  1-C ,  8-N ) :   0.9892
B(  2-C ,  3-C ) :   0.8440 B(  2-C ,  5-C ) :  -0.1216 B(  2-C ,  6-C ) :   0.8555
B(  2-C ,  9-H ) :   0.8945 B(  3-C ,  4-C ) :   0.9382 B(  3-C ,  8-N ) :   0.8149
B(  3-C , 10-H ) :   0.8886 B(  4-C ,  5-C ) :   0.9080 B(  4-C ,  8-N ) :   0.8557
B(  4-C , 11-H ) :   0.9199 B(  5-C ,  6-C ) :   0.9364 B(  5-C , 12-H ) :   0.8897
B(  5-C , 13-H ) :   0.8938 B(  6-C ,  7-O ) :   2.0591

MP2 TOTAL ENERGY:     -435.961966916 Eh
FINAL SINGLE POINT ENERGY      -435.961966915826

DIPOLE MOMENT
-------------
                                X             Y             Z
Electronic contribution:     -1.32866      -3.18056      -1.16675
Nuclear contribution   :      1.68084       4.75145       1.07926
                        -----------------------------------------
Total Dipole Moment    :      0.35219       1.57089      -0.08749
                        -----------------------------------------
Magnitude (a.u.)       :      1.61226
Magnitude (Debye)      :      4.09804

                             ****ORCA TERMINATED NORMALLY****
TOTAL RUN TIME: 0 days 0 hours 16 minutes 3 seconds 164 msec
