                         Program Version 3.0.3 - RELEASE   -
|  1> ! RI-MP2 RIJK def2-TZVP def2-TZVP/C def2-TZVP/JK TIGHTSCF
|  2> % maxcore 2000
|  3> % mp2 density relaxed end
|  4> *xyz 0 1
|  5>  C       -0.1041213234     1.5016815952     0.0074143607
|  6>  C        0.0419886864     0.0037551302     0.0001735380
|  7>  N       -0.4857700291    -0.8078790422     1.1103288620
|  8>  C        0.9872731307    -0.7431206277     0.8746264987
|  9>  C        1.5473764757    -1.9066325617     0.0774785873
| 10>  O        2.5039733185    -2.5681632581     0.3997821757
| 11>  C        0.8556779870    -1.9517647787    -1.2610109627
| 12>  C       -0.6593852990    -2.0936905045    -1.3439809622
| 13>  C       -0.0443033596    -0.7298740439    -1.3469077191
| 14>  H        0.6060517742     1.9686927965    -0.6832107025
| 15>  H       -1.1133256692     1.7985333686    -0.3003030034
| 16>  H        0.0802588891     1.9103018936     1.0062744554
| 17>  H       -0.7001737861    -0.2024086462     1.9010401378
| 18>  H        1.6240281993    -0.2838050028     1.6229674514
| 19>  H        1.4480986292    -2.3163909684    -2.0913297574
| 20>  H       -1.0289667195    -2.4780776998    -2.2884245698
| 21>  H       -1.2065749667    -2.4048170565    -0.4648025787
| 22>  H       -0.0751340176    -0.1201053035    -2.2422676211
| 23> *
| 24>
| 25>                          ****END OF INPUT****

CARTESIAN COORDINATES (ANGSTROEM)
---------------------------------
  C     -0.104121    1.501682    0.007414
  C      0.041989    0.003755    0.000174
  N     -0.485770   -0.807879    1.110329
  C      0.987273   -0.743121    0.874626
  C      1.547376   -1.906633    0.077479
  O      2.503973   -2.568163    0.399782
  C      0.855678   -1.951765   -1.261011
  C     -0.659385   -2.093691   -1.343981
  C     -0.044303   -0.729874   -1.346908
  H      0.606052    1.968693   -0.683211
  H     -1.113326    1.798533   -0.300303
  H      0.080259    1.910302    1.006274
  H     -0.700174   -0.202409    1.901040
  H      1.624028   -0.283805    1.622967
  H      1.448099   -2.316391   -2.091330
  H     -1.028967   -2.478078   -2.288425
  H     -1.206575   -2.404817   -0.464803
  H     -0.075134   -0.120105   -2.242268

 Total Charge           Charge          ....    0
 Multiplicity           Mult            ....    1
 Number of Electrons    NEL             ....   66
 Basis Dimension        Dim             ....  333

ORBITAL ENERGIES
----------------

  NO   OCC          E(Eh)            E(eV)
   0   2.0000     -20.543168      -559.0080
   1   2.0000     -15.576785      -423.8659
   2   2.0000     -11.329835      -308.3005
   3   2.0000     -11.288148      -307.1661
   4   2.0000     -11.269370      -306.6551
   5   2.0000     -11.250524      -306.1423
   6   2.0000     -11.242826      -305.9328
   7   2.0000     -11.242343      -305.9197
   8   2.0000     -11.241183      -305.8881
   9   2.0000      -1.386424       -37.7265
  10   2.0000      -1.291695       -35.1488
  11   2.0000      -1.157342       -31.4929
  12   2.0000      -1.015152       -27.6237
  13   2.0000      -0.962794       -26.1990
  14   2.0000      -0.884675       -24.0732
  15   2.0000      -0.847641       -23.0655
  16   2.0000      -0.774187       -21.0667
  17   2.0000      -0.749308       -20.3897
  18   2.0000      -0.694084       -18.8870
  19   2.0000      -0.652431       -17.7536
  20   2.0000      -0.636956       -17.3325
  21   2.0000      -0.616175       -16.7670
  22   2.0000      -0.600915       -16.3517
  23   2.0000      -0.589942       -16.0531
  24   2.0000      -0.565178       -15.3793
  25   2.0000      -0.555469       -15.1151
  26   2.0000      -0.512881       -13.9562
  27   2.0000      -0.503843       -13.7103
  28   2.0000      -0.478803       -13.0289
  29   2.0000      -0.441784       -12.0216
  30   2.0000      -0.428863       -11.6700
  31   2.0000      -0.416919       -11.3449
  32   2.0000      -0.368064       -10.0155
  33   0.0000       0.117000         3.1837
  34   0.0000       0.132962         3.6181
  35   0.0000       0.155166         4.2223
  36   0.0000       0.170282         4.6336
  37   0.0000       0.180771         4.9190

MULLIKEN ATOMIC CHARGES
-----------------------
   0 C :   -0.416498
   1 C :    0.134254
   2 N :   -0.383798
   3 C :   -0.072672
   4 C :    0.109741
   5 O :   -0.267818
   6 C :   -0.087984
   7 C :   -0.293673
   8 C :   -0.094841
   9 H :    0.143583
  10 H :    0.147896
  11 H :    0.129629
  12 H :    0.218229
  13 H :    0.141130
  14 H :    0.142309
  15 H :    0.136449
  16 H :    0.175529
  17 H :    0.138533
Sum of atomic charges:    0.0000000

LOEWDIN ATOMIC CHARGES
----------------------
   0 C :   -0.268894
   1 C :   -0.275467
   2 N :    0.036255
   3 C :   -0.180569
   4 C :   -0.284773
   5 O :    0.156897
   6 C :   -0.151577
   7 C :   -0.180890
   8 C :   -0.147868
   9 H :    0.134460
  10 H :    0.132690
  11 H :    0.130016
  12 H :    0.171509
  13 H :    0.143552
  14 H :    0.152960
  15 H :    0.137997
  16 H :    0.144622
  17 H :    0.149080

  Mayer bond orders larger than 0.1
B(  0-C ,  1-C ) :   0.8796 B(  0-C ,  9-H ) :   0.9312 B(  0-C , 10-H ) :   0.9442
B(  0-C , 11-H ) :   0.9322 B(  1-C ,  2-N ) :   0.9309 B(  1-C ,  3-C ) :   0.8489
B(  1-C ,  8-C ) :   0.9034 B(  2-N ,  3-C ) :   0.9177 B(  2-N , 12-H ) :   0.8674
B(  3-C ,  4-C ) :   0.9090 B(  3-C ,  6-C ) :  -0.1369 B(  3-C , 13-H ) :   0.9244
B(  4-C ,  5-O ) :   2.0116 B(  4-C ,  6-C ) :   0.9586 B(  6-C ,  7-C ) :   0.8431
B(  6-C ,  8-C ) :   0.8146 B(  6-C , 14-H ) :   0.9266 B(  7-C ,  8-C ) :   0.9018
B(  7-C , 15-H ) :   0.9334 B(  7-C , 16-H ) :   0.9059 B(  8-C , 17-H ) :   0.9251

MP2 TOTAL ENERGY:     -401.241654639 Eh
FINAL SINGLE POINT ENERGY      -401.241654638576

DIPOLE MOMENT
-------------
                                X             Y             Z
Electronic contribution:      4.03178      -5.27726       1.77033
Nuclear contribution   :     -4.73546       6.59641      -2.10240
                        -----------------------------------------
Total Dipole Moment    :     -0.70368       1.31915      -0.33207
                        -----------------------------------------
Magnitude (a.u.)       :      1.53153
Magnitude (Debye)      :      3.89284

                             ****ORCA TERMINATED NORMALLY****
TOTAL RUN TIME: 0 days 0 hours 20 minutes 37 seconds 684 msec
