                         Program Version 3.0.3 - RELEASE   -
|  1> ! RI-MP2 RIJK def2-TZVP def2-TZVP/C def2-TZVP/JK TIGHTSCF
|  2> % maxcore 2000
|  3> % mp2 density relaxed end
|  4> *xyz 0 1
|  5>  C       -0.0347997397     1.5585030226     0.0376138262
|  6>  C       -0.0239329023     0.0283881369     0.0010495923
|  7>  O       -1.3817914499    -0.4731435431     0.0386973254
|  8>  C       -1.8822617990    -0.7044638496     1.2810903885
|  9>  N       -3.1761021493    -1.1255204458     1.1811931993
| 10>  O       -1.2803864504    -0.5333350349     2.3163467956
| 11>  C        0.6032133186    -0.5010489263    -1.2052261421
| 12>  C        1.1499225359    -0.9059266456    -2.1949234925
| 13>  H        0.9879813747     1.9400859043    -0.0212993733
| 14>  H       -0.6062008371     1.9551856194    -0.8050801002
| 15>  H       -0.4831406788     1.8950151132     0.9751918986
| 16>  H        0.4897203788    -0.3504451099     0.8899182616
| 17>  H       -3.5165616105    -1.4420520670     0.2893004107
| 18>  H       -3.5838670730    -1.5148108686     2.0134665456
| 19>  H        1.6327901319    -1.2745019155    -3.0660987658
| 20> *
| 21>
| 22>                          ****END OF INPUT****

CARTESIAN COORDINATES (ANGSTROEM)
---------------------------------
  C     -0.034800    1.558503    0.037614
  C     -0.023933    0.028388    0.001050
  O     -1.381791   -0.473144    0.038697
  C     -1.882262   -0.704464    1.281090
  N     -3.176102   -1.125520    1.181193
  O     -1.280386   -0.533335    2.316347
  C      0.603213   -0.501049   -1.205226
  C      1.149923   -0.905927   -2.194923
  H      0.987981    1.940086   -0.021299
  H     -0.606201    1.955186   -0.805080
  H     -0.483141    1.895015    0.975192
  H      0.489720   -0.350445    0.889918
  H     -3.516562   -1.442052    0.289300
  H     -3.583867   -1.514811    2.013467
  H      1.632790   -1.274502   -3.066099

 Total Charge           Charge          ....    0
 Multiplicity           Mult            ....    1
 Number of Electrons    NEL             ....   60
 Basis Dimension        Dim             ....  290

ORBITAL ENERGIES
----------------

  NO   OCC          E(Eh)            E(eV)
   0   2.0000     -20.606045      -560.7190
   1   2.0000     -20.531281      -558.6846
   2   2.0000     -15.589769      -424.2192
   3   2.0000     -11.408398      -310.4383
   4   2.0000     -11.322471      -308.1001
   5   2.0000     -11.240493      -305.8694
   6   2.0000     -11.233751      -305.6859
   7   2.0000     -11.229016      -305.5571
   8   2.0000      -1.467773       -39.9401
   9   2.0000      -1.362498       -37.0755
  10   2.0000      -1.223255       -33.2865
  11   2.0000      -1.082582       -29.4586
  12   2.0000      -1.005264       -27.3546
  13   2.0000      -0.903421       -24.5833
  14   2.0000      -0.815706       -22.1965
  15   2.0000      -0.757848       -20.6221
  16   2.0000      -0.741677       -20.1821
  17   2.0000      -0.709697       -19.3118
  18   2.0000      -0.674248       -18.3472
  19   2.0000      -0.652449       -17.7541
  20   2.0000      -0.644045       -17.5253
  21   2.0000      -0.583948       -15.8900
  22   2.0000      -0.573612       -15.6088
  23   2.0000      -0.548069       -14.9137
  24   2.0000      -0.520703       -14.1690
  25   2.0000      -0.477416       -12.9912
  26   2.0000      -0.467367       -12.7177
  27   2.0000      -0.435594       -11.8531
  28   2.0000      -0.404964       -11.0196
  29   2.0000      -0.394955       -10.7473
  30   0.0000       0.131165         3.5692
  31   0.0000       0.151653         4.1267
  32   0.0000       0.163199         4.4409
  33   0.0000       0.170057         4.6275
  34   0.0000       0.181167         4.9298

MULLIKEN ATOMIC CHARGES
-----------------------
   0 C :   -0.392724
   1 C :   -0.043966
   2 O :   -0.282059
   3 C :    0.425828
   4 N :   -0.509378
   5 O :   -0.382921
   6 C :   -0.019876
   7 C :   -0.108398
   8 H :    0.137488
   9 H :    0.134632
  10 H :    0.156764
  11 H :    0.146846
  12 H :    0.271305
  13 H :    0.270759
  14 H :    0.195700
Sum of atomic charges:    0.0000000

LOEWDIN ATOMIC CHARGES
----------------------
   0 C :   -0.269909
   1 C :   -0.295512
   2 O :    0.253517
   3 C :   -0.609839
   4 N :   -0.030300
   5 O :    0.071974
   6 C :   -0.083677
   7 C :   -0.081507
   8 H :    0.133166
   9 H :    0.129815
  10 H :    0.132005
  11 H :    0.166680
  12 H :    0.176416
  13 H :    0.178588
  14 H :    0.128583

  Mayer bond orders larger than 0.1
B(  0-C ,  1-C ) :   0.9316 B(  0-C ,  8-H ) :   0.9291 B(  0-C ,  9-H ) :   0.9277
B(  0-C , 10-H ) :   0.9325 B(  1-C ,  2-O ) :   0.8508 B(  1-C ,  6-C ) :   1.0970
B(  1-C , 11-H ) :   0.9460 B(  2-O ,  3-C ) :   1.0797 B(  3-C ,  4-N ) :   1.1653
B(  3-C ,  5-O ) :   1.9087 B(  4-N , 12-H ) :   0.8629 B(  4-N , 13-H ) :   0.8657
B(  6-C ,  7-C ) :   2.6018 B(  7-C , 14-H ) :   0.8943

MP2 TOTAL ENERGY:     -399.157317510 Eh
FINAL SINGLE POINT ENERGY      -399.157317510334

DIPOLE MOMENT
-------------
                                X             Y             Z
Electronic contribution:     -1.14654      -3.53397       0.81011
Nuclear contribution   :      0.69107       3.26937      -1.42292
                        -----------------------------------------
Total Dipole Moment    :     -0.45547      -0.26460      -0.61281
                        -----------------------------------------
Magnitude (a.u.)       :      0.80809
Magnitude (Debye)      :      2.05399

                             ****ORCA TERMINATED NORMALLY****
TOTAL RUN TIME: 0 days 0 hours 10 minutes 6 seconds 816 msec
