                         Program Version 3.0.3 - RELEASE   -
|  1> ! RI-MP2 RIJK def2-TZVP def2-TZVP/C def2-TZVP/JK TIGHTSCF
|  2> % maxcore 2000
|  3> % mp2 density relaxed end
|  4> *xyz 0 1
|  5>  C        0.0232598470     1.3668889567     0.0226566528
|  6>  O        0.0255004174    -0.0397574052     0.0316773525
|  7>  C        0.6821128060    -0.5817079238     1.1585528827
|  8>  C        0.6605767203    -2.0995642112     1.0469401143
|  9>  C        1.4093508571    -2.6473176077    -0.1972131420
| 10>  C        1.9353424457    -4.0461899016     0.2057528424
| 11>  C        2.1018021590    -3.9519465174     1.7093053379
| 12>  O        2.7762597191    -2.7603945940     2.1428838202
| 13>  C        1.3409548349    -2.8020593995     2.2096473094
| 14>  H        1.0451563562     1.7781224239     0.0049629718
| 15>  H       -0.5024522112     1.6889829887    -0.8797063984
| 16>  H       -0.4952329425     1.7810732898     0.9024187934
| 17>  H        1.7258059860    -0.2284237929     1.2082951314
| 18>  H        0.1813107179    -0.2541200707     2.0868486606
| 19>  H       -0.3884103691    -2.4256981214     1.0277865951
| 20>  H        0.7709190611    -2.6730331520    -1.0814112548
| 21>  H        2.2518276324    -1.9893267242    -0.4243123492
| 22>  H        1.2027027703    -4.8322306626    -0.0165884473
| 23>  H        2.8639767162    -4.3113220023    -0.3092636931
| 24>  H        2.2928372081    -4.8361993894     2.3126644164
| 25>  H        0.9218624679    -2.7602631933     3.2127483839
| 26> *
| 27>
| 28>                          ****END OF INPUT****

CARTESIAN COORDINATES (ANGSTROEM)
---------------------------------
  C      0.023260    1.366889    0.022657
  O      0.025500   -0.039757    0.031677
  C      0.682113   -0.581708    1.158553
  C      0.660577   -2.099564    1.046940
  C      1.409351   -2.647318   -0.197213
  C      1.935342   -4.046190    0.205753
  C      2.101802   -3.951947    1.709305
  O      2.776260   -2.760395    2.142884
  C      1.340955   -2.802059    2.209647
  H      1.045156    1.778122    0.004963
  H     -0.502452    1.688983   -0.879706
  H     -0.495233    1.781073    0.902419
  H      1.725806   -0.228424    1.208295
  H      0.181311   -0.254120    2.086849
  H     -0.388410   -2.425698    1.027787
  H      0.770919   -2.673033   -1.081411
  H      2.251828   -1.989327   -0.424312
  H      1.202703   -4.832231   -0.016588
  H      2.863977   -4.311322   -0.309264
  H      2.292837   -4.836199    2.312664
  H      0.921862   -2.760263    3.212748

 Total Charge           Charge          ....    0
 Multiplicity           Mult            ....    1
 Number of Electrons    NEL             ....   70
 Basis Dimension        Dim             ....  351

ORBITAL ENERGIES
----------------

  NO   OCC          E(Eh)            E(eV)
   0   2.0000     -20.560683      -559.4846
   1   2.0000     -20.554467      -559.3155
   2   2.0000     -11.279879      -306.9411
   3   2.0000     -11.278832      -306.9126
   4   2.0000     -11.272829      -306.7493
   5   2.0000     -11.269816      -306.6673
   6   2.0000     -11.230966      -305.6101
   7   2.0000     -11.226104      -305.4778
   8   2.0000     -11.218072      -305.2593
   9   2.0000      -1.406513       -38.2732
  10   2.0000      -1.375507       -37.4295
  11   2.0000      -1.096954       -29.8496
  12   2.0000      -1.014269       -27.5997
  13   2.0000      -0.936129       -25.4734
  14   2.0000      -0.915003       -24.8985
  15   2.0000      -0.864473       -23.5235
  16   2.0000      -0.785153       -21.3651
  17   2.0000      -0.768319       -20.9070
  18   2.0000      -0.714378       -19.4392
  19   2.0000      -0.668918       -18.2022
  20   2.0000      -0.652705       -17.7610
  21   2.0000      -0.636451       -17.3187
  22   2.0000      -0.617708       -16.8087
  23   2.0000      -0.597123       -16.2485
  24   2.0000      -0.573257       -15.5991
  25   2.0000      -0.543091       -14.7782
  26   2.0000      -0.524097       -14.2614
  27   2.0000      -0.507463       -13.8088
  28   2.0000      -0.504137       -13.7183
  29   2.0000      -0.488898       -13.3036
  30   2.0000      -0.478157       -13.0113
  31   2.0000      -0.462623       -12.5886
  32   2.0000      -0.433661       -11.8005
  33   2.0000      -0.422630       -11.5003
  34   2.0000      -0.410509       -11.1705
  35   0.0000       0.142878         3.8879
  36   0.0000       0.149062         4.0562
  37   0.0000       0.165392         4.5006
  38   0.0000       0.179376         4.8811
  39   0.0000       0.181514         4.9393

MULLIKEN ATOMIC CHARGES
-----------------------
   0 C :   -0.215499
   1 O :   -0.300597
   2 C :   -0.115352
   3 C :    0.026247
   4 C :   -0.279108
   5 C :   -0.164622
   6 C :   -0.003063
   7 O :   -0.337316
   8 C :   -0.008240
   9 H :    0.112081
  10 H :    0.137922
  11 H :    0.109303
  12 H :    0.115834
  13 H :    0.094287
  14 H :    0.093207
  15 H :    0.134839
  16 H :    0.118873
  17 H :    0.108227
  18 H :    0.122013
  19 H :    0.122086
  20 H :    0.128879
Sum of atomic charges:    0.0000000

LOEWDIN ATOMIC CHARGES
----------------------
   0 C :   -0.362468
   1 O :    0.137734
   2 C :   -0.306454
   3 C :   -0.233077
   4 C :   -0.217916
   5 C :   -0.237982
   6 C :   -0.259129
   7 O :    0.161734
   8 C :   -0.238391
   9 H :    0.101631
  10 H :    0.113019
  11 H :    0.100988
  12 H :    0.126745
  13 H :    0.120794
  14 H :    0.160798
  15 H :    0.137073
  16 H :    0.144123
  17 H :    0.142649
  18 H :    0.138930
  19 H :    0.133530
  20 H :    0.135671

  Mayer bond orders larger than 0.1
B(  0-C ,  1-O ) :   0.9219 B(  0-C ,  9-H ) :   0.9363 B(  0-C , 10-H ) :   0.9395
B(  0-C , 11-H ) :   0.9369 B(  1-O ,  2-C ) :   0.9445 B(  2-C ,  3-C ) :   0.9293
B(  2-C , 12-H ) :   0.9238 B(  2-C , 13-H ) :   0.9256 B(  3-C ,  4-C ) :   0.9272
B(  3-C ,  8-C ) :   0.8988 B(  3-C , 14-H ) :   0.9093 B(  4-C ,  5-C ) :   0.9394
B(  4-C , 15-H ) :   0.9374 B(  4-C , 16-H ) :   0.9218 B(  5-C ,  6-C ) :   0.9240
B(  5-C , 17-H ) :   0.9135 B(  5-C , 18-H ) :   0.9192 B(  6-C ,  7-O ) :   0.9251
B(  6-C ,  8-C ) :   0.9491 B(  6-C , 19-H ) :   0.9276 B(  7-O ,  8-C ) :   0.9014
B(  8-C , 20-H ) :   0.9174

MP2 TOTAL ENERGY:     -423.505639581 Eh
FINAL SINGLE POINT ENERGY      -423.505639581170

DIPOLE MOMENT
-------------
                                X             Y             Z
Electronic contribution:      1.99580      -3.39136       2.77499
Nuclear contribution   :     -2.44802       3.32707      -2.71010
                        -----------------------------------------
Total Dipole Moment    :     -0.45222      -0.06429       0.06489
                        -----------------------------------------
Magnitude (a.u.)       :      0.46135
Magnitude (Debye)      :      1.17267

                             ****ORCA TERMINATED NORMALLY****
TOTAL RUN TIME: 0 days 0 hours 16 minutes 30 seconds 211 msec
