                         Program Version 3.0.3 - RELEASE   -
|  1> ! RI-MP2 RIJK def2-TZVP def2-TZVP/C def2-TZVP/JK TIGHTSCF
|  2> % maxcore 2000
|  3> % mp2 density relaxed end
|  4> *xyz 0 1
|  5>  O        0.3629824876     1.2828549309     0.1363812311
|  6>  C        0.1361234272    -0.0453375333    -0.0033784272
|  7>  C        0.0643801087    -0.8781659849    -1.0957531839
|  8>  C       -0.1964418266    -2.1766135819    -0.5668268717
|  9>  O       -0.3730201737    -3.2833464682    -1.3598586340
| 10>  C        0.2546413655    -4.4271542532    -0.9920963962
| 11>  N       -0.0360746131    -5.5103269321    -1.5676499174
| 12>  C       -0.2761790613    -2.1035798239     0.8010647853
| 13>  N       -0.0613932139    -0.7715000479     1.1302225305
| 14>  H        0.4720004383     1.6674546015    -0.7384862858
| 15>  H        0.1866861057    -0.6165461501    -2.1339429037
| 16>  H        0.9929857399    -4.2649371413    -0.1971140029
| 17>  H        0.5464249505    -6.2606548429    -1.2016989233
| 18>  H       -0.5005004721    -2.8441909205     1.5481639800
| 19>  H       -0.0659944128    -0.3808022522     2.0558212591
| 20> *
| 21>
| 22>                          ****END OF INPUT****

CARTESIAN COORDINATES (ANGSTROEM)
---------------------------------
  O      0.362982    1.282855    0.136381
  C      0.136123   -0.045338   -0.003378
  C      0.064380   -0.878166   -1.095753
  C     -0.196442   -2.176614   -0.566827
  O     -0.373020   -3.283346   -1.359859
  C      0.254641   -4.427154   -0.992096
  N     -0.036075   -5.510327   -1.567650
  C     -0.276179   -2.103580    0.801065
  N     -0.061393   -0.771500    1.130223
  H      0.472000    1.667455   -0.738486
  H      0.186686   -0.616546   -2.133943
  H      0.992986   -4.264937   -0.197114
  H      0.546425   -6.260655   -1.201699
  H     -0.500500   -2.844191    1.548164
  H     -0.065994   -0.380802    2.055821

 Total Charge           Charge          ....    0
 Multiplicity           Mult            ....    1
 Number of Electrons    NEL             ....   66
 Basis Dimension        Dim             ....  315

ORBITAL ENERGIES
----------------

  NO   OCC          E(Eh)            E(eV)
   0   2.0000     -20.612913      -560.9059
   1   2.0000     -20.602425      -560.6205
   2   2.0000     -15.613093      -424.8539
   3   2.0000     -15.540994      -422.8919
   4   2.0000     -11.339518      -308.5640
   5   2.0000     -11.338677      -308.5411
   6   2.0000     -11.292316      -307.2795
   7   2.0000     -11.255554      -306.2792
   8   2.0000     -11.216538      -305.2175
   9   2.0000      -1.442017       -39.2393
  10   2.0000      -1.435292       -39.0563
  11   2.0000      -1.296053       -35.2674
  12   2.0000      -1.201089       -32.6833
  13   2.0000      -1.059219       -28.8228
  14   2.0000      -0.984225       -26.7821
  15   2.0000      -0.875230       -23.8162
  16   2.0000      -0.828344       -22.5404
  17   2.0000      -0.783202       -21.3120
  18   2.0000      -0.764897       -20.8139
  19   2.0000      -0.717701       -19.5296
  20   2.0000      -0.676077       -18.3970
  21   2.0000      -0.656748       -17.8710
  22   2.0000      -0.638724       -17.3806
  23   2.0000      -0.631272       -17.1778
  24   2.0000      -0.611334       -16.6352
  25   2.0000      -0.587838       -15.9959
  26   2.0000      -0.566120       -15.4049
  27   2.0000      -0.535362       -14.5679
  28   2.0000      -0.532052       -14.4779
  29   2.0000      -0.438929       -11.9439
  30   2.0000      -0.419650       -11.4193
  31   2.0000      -0.354374        -9.6430
  32   2.0000      -0.296417        -8.0659
  33   0.0000       0.123778         3.3682
  34   0.0000       0.138610         3.7718
  35   0.0000       0.152827         4.1586
  36   0.0000       0.158856         4.3227
  37   0.0000       0.175147         4.7660

MULLIKEN ATOMIC CHARGES
-----------------------
   0 O :   -0.433399
   1 C :    0.273657
   2 C :   -0.315335
   3 C :    0.173953
   4 O :   -0.220051
   5 C :    0.052604
   6 N :   -0.337954
   7 C :   -0.172010
   8 N :   -0.257519
   9 H :    0.347182
  10 H :    0.147119
  11 H :    0.096752
  12 H :    0.226256
  13 H :    0.164117
  14 H :    0.254629
Sum of atomic charges:    0.0000000

LOEWDIN ATOMIC CHARGES
----------------------
   0 O :    0.065118
   1 C :   -0.366746
   2 C :   -0.178283
   3 C :   -0.293445
   4 O :    0.311137
   5 C :   -0.379527
   6 N :   -0.077880
   7 C :   -0.233843
   8 N :    0.192714
   9 H :    0.202432
  10 H :    0.143831
  11 H :    0.112755
  12 H :    0.168870
  13 H :    0.136323
  14 H :    0.196544

  Mayer bond orders larger than 0.1
B(  0-O ,  1-C ) :   1.1067 B(  0-O ,  9-H ) :   0.8281 B(  1-C ,  2-C ) :   1.4527
B(  1-C ,  8-N ) :   1.1606 B(  2-C ,  3-C ) :   1.2399 B(  2-C , 10-H ) :   0.9084
B(  3-C ,  4-O ) :   0.9651 B(  3-C ,  7-C ) :   1.5052 B(  4-O ,  5-C ) :   1.0106
B(  5-C ,  6-N ) :   1.9645 B(  5-C , 11-H ) :   0.9275 B(  6-N , 12-H ) :   0.8503
B(  7-C ,  8-N ) :   1.0460 B(  7-C , 13-H ) :   0.9038 B(  8-N , 14-H ) :   0.8665

MP2 TOTAL ENERGY:     -453.220328145 Eh
FINAL SINGLE POINT ENERGY      -453.220328145046

DIPOLE MOMENT
-------------
                                X             Y             Z
Electronic contribution:     -0.76787       1.74338      -0.43056
Nuclear contribution   :      1.53414      -0.80832       1.54189
                        -----------------------------------------
Total Dipole Moment    :      0.76627       0.93506       1.11132
                        -----------------------------------------
Magnitude (a.u.)       :      1.64212
Magnitude (Debye)      :      4.17393

                             ****ORCA TERMINATED NORMALLY****
TOTAL RUN TIME: 0 days 0 hours 12 minutes 48 seconds 855 msec
