                         Program Version 3.0.3 - RELEASE   -
|  1> ! RI-MP2 RIJK def2-TZVP def2-TZVP/C def2-TZVP/JK TIGHTSCF
|  2> % maxcore 2000
|  3> % mp2 density relaxed end
|  4> *xyz 0 1
|  5>  N        0.0152251972     1.2980534850     0.1085252736
|  6>  C       -0.0072256148    -0.0566500796     0.0391904930
|  7>  N       -1.1535061218    -0.6826890586     0.0177162630
|  8>  N       -1.0940406795    -2.0425824426    -0.0016993626
|  9>  C        0.0454058911    -2.7603789454    -0.0063233515
| 10>  C        1.2603122473    -2.1436226246    -0.0013484192
| 11>  C        1.3283268992    -0.7088182803     0.0095626558
| 12>  N        2.3584241328     0.0740956831    -0.0121331208
| 13>  H        0.9197773610     1.7091189818    -0.0736788357
| 14>  H       -0.8255701703     1.8089717878    -0.0975943574
| 15>  H       -1.9961608845    -2.4852537335    -0.0112316911
| 16>  H       -0.0797350270    -3.8371463645    -0.0169415782
| 17>  H        2.1693532007    -2.7323000833    -0.0126642235
| 18>  H        3.2240642084    -0.4655674752    -0.0418132054
| 19> *
| 20>
| 21>                          ****END OF INPUT****

CARTESIAN COORDINATES (ANGSTROEM)
---------------------------------
  N      0.015225    1.298053    0.108525
  C     -0.007226   -0.056650    0.039190
  N     -1.153506   -0.682689    0.017716
  N     -1.094041   -2.042582   -0.001699
  C      0.045406   -2.760379   -0.006323
  C      1.260312   -2.143623   -0.001348
  C      1.328327   -0.708818    0.009563
  N      2.358424    0.074096   -0.012133
  H      0.919777    1.709119   -0.073679
  H     -0.825570    1.808972   -0.097594
  H     -1.996161   -2.485254   -0.011232
  H     -0.079735   -3.837146   -0.016942
  H      2.169353   -2.732300   -0.012664
  H      3.224064   -0.465567   -0.041813

 Total Charge           Charge          ....    0
 Multiplicity           Mult            ....    1
 Number of Electrons    NEL             ....   58
 Basis Dimension        Dim             ....  284

ORBITAL ENERGIES
----------------

  NO   OCC          E(Eh)            E(eV)
   0   2.0000     -15.635422      -425.4615
   1   2.0000     -15.589770      -424.2192
   2   2.0000     -15.557290      -423.3354
   3   2.0000     -15.524354      -422.4391
   4   2.0000     -11.315999      -307.9240
   5   2.0000     -11.306420      -307.6633
   6   2.0000     -11.291065      -307.2455
   7   2.0000     -11.227125      -305.5056
   8   2.0000      -1.361596       -37.0509
   9   2.0000      -1.243636       -33.8411
  10   2.0000      -1.184510       -32.2322
  11   2.0000      -1.110588       -30.2206
  12   2.0000      -1.045821       -28.4582
  13   2.0000      -0.875540       -23.8247
  14   2.0000      -0.866891       -23.5893
  15   2.0000      -0.769774       -20.9466
  16   2.0000      -0.740339       -20.1457
  17   2.0000      -0.686096       -18.6696
  18   2.0000      -0.651154       -17.7188
  19   2.0000      -0.634175       -17.2568
  20   2.0000      -0.617620       -16.8063
  21   2.0000      -0.597069       -16.2471
  22   2.0000      -0.574733       -15.6393
  23   2.0000      -0.510603       -13.8942
  24   2.0000      -0.465507       -12.6671
  25   2.0000      -0.460244       -12.5239
  26   2.0000      -0.413990       -11.2652
  27   2.0000      -0.365888        -9.9563
  28   2.0000      -0.287244        -7.8163
  29   0.0000       0.112325         3.0565
  30   0.0000       0.126847         3.4517
  31   0.0000       0.142721         3.8836
  32   0.0000       0.159422         4.3381
  33   0.0000       0.163978         4.4621

MULLIKEN ATOMIC CHARGES
-----------------------
   0 N :   -0.483578
   1 C :    0.205297
   2 N :   -0.215480
   3 N :   -0.118642
   4 C :   -0.029035
   5 C :   -0.222585
   6 C :    0.069391
   7 N :   -0.467403
   8 H :    0.284087
   9 H :    0.250439
  10 H :    0.258974
  11 H :    0.144955
  12 H :    0.127136
  13 H :    0.196444
Sum of atomic charges:   -0.0000000

LOEWDIN ATOMIC CHARGES
----------------------
   0 N :   -0.012135
   1 C :   -0.325970
   2 N :    0.041280
   3 N :    0.105915
   4 C :   -0.229480
   5 C :   -0.172258
   6 C :   -0.297843
   7 N :   -0.102707
   8 H :    0.182721
   9 H :    0.169389
  10 H :    0.193013
  11 H :    0.146126
  12 H :    0.149099
  13 H :    0.152850

  Mayer bond orders larger than 0.1
B(  0-N ,  1-C ) :   1.1778 B(  0-N ,  8-H ) :   0.8333 B(  0-N ,  9-H ) :   0.8666
B(  1-C ,  2-N ) :   1.6801 B(  1-C ,  6-C ) :   1.0012 B(  2-N ,  3-N ) :   0.9636
B(  3-N ,  4-C ) :   1.2107 B(  3-N , 10-H ) :   0.8783 B(  4-C ,  5-C ) :   1.4973
B(  4-C , 11-H ) :   0.9016 B(  5-C ,  6-C ) :   1.1542 B(  5-C , 12-H ) :   0.9212
B(  6-C ,  7-N ) :   1.7643 B(  7-N , 13-H ) :   0.8728

MP2 TOTAL ENERGY:     -374.277998632 Eh
FINAL SINGLE POINT ENERGY      -374.277998631523

DIPOLE MOMENT
-------------
                                X             Y             Z
Electronic contribution:     -1.94620      -0.22743       0.10247
Nuclear contribution   :      1.31527      -0.86092      -0.33059
                        -----------------------------------------
Total Dipole Moment    :     -0.63093      -1.08836      -0.22813
                        -----------------------------------------
Magnitude (a.u.)       :      1.27853
Magnitude (Debye)      :      3.24977

                             ****ORCA TERMINATED NORMALLY****
TOTAL RUN TIME: 0 days 0 hours 10 minutes 42 seconds 183 msec
