                         Program Version 3.0.3 - RELEASE   -
|  1> ! RI-MP2 RIJK def2-TZVP def2-TZVP/C def2-TZVP/JK TIGHTSCF
|  2> % maxcore 2000
|  3> % mp2 density relaxed end
|  4> *xyz 0 1
|  5>  O        0.0592152890     0.1275103988    -0.5926730641
|  6>  C       -0.0060888031     1.2432961603    -0.1391550474
|  7>  C       -1.2753396259     1.9617261772     0.3467883045
|  8>  N       -0.8837752782     3.2636627635     0.8991144964
|  9>  C       -0.0146549662     3.1698472303     2.0783639860
| 10>  C        0.5921823650     3.4011350350     0.7413848118
| 11>  C        1.1369129445     2.2028536030     0.0292029544
| 12>  C        2.5324253000     1.6365475037     0.2018191446
| 13>  C        2.1598656968     2.2797118033    -1.0927632723
| 14>  H       -1.9436430078     2.1116824457    -0.5096616316
| 15>  H       -1.8142532938     1.3505269425     1.0775908133
| 16>  H       -0.1173649561     3.9895846375     2.7835822027
| 17>  H        0.1374886358     2.1930426945     2.5366739276
| 18>  H        0.9499138546     4.3887445276     0.4632463023
| 19>  H        3.1987895970     2.1656384814     0.8739948452
| 20>  H        2.6010033318     0.5538923394     0.2251630248
| 21>  H        1.9839039498     1.6369327268    -1.9482595582
| 22>  H        2.5595742168     3.2621558695    -1.3214917800
| 23> *
| 24>
| 25>                          ****END OF INPUT****

CARTESIAN COORDINATES (ANGSTROEM)
---------------------------------
  O      0.059215    0.127510   -0.592673
  C     -0.006089    1.243296   -0.139155
  C     -1.275340    1.961726    0.346788
  N     -0.883775    3.263663    0.899114
  C     -0.014655    3.169847    2.078364
  C      0.592182    3.401135    0.741385
  C      1.136913    2.202854    0.029203
  C      2.532425    1.636548    0.201819
  C      2.159866    2.279712   -1.092763
  H     -1.943643    2.111682   -0.509662
  H     -1.814253    1.350527    1.077591
  H     -0.117365    3.989585    2.783582
  H      0.137489    2.193043    2.536674
  H      0.949914    4.388745    0.463246
  H      3.198790    2.165638    0.873995
  H      2.601003    0.553892    0.225163
  H      1.983904    1.636933   -1.948260
  H      2.559574    3.262156   -1.321492

 Total Charge           Charge          ....    0
 Multiplicity           Mult            ....    1
 Number of Electrons    NEL             ....   66
 Basis Dimension        Dim             ....  333

ORBITAL ENERGIES
----------------

  NO   OCC          E(Eh)            E(eV)
   0   2.0000     -20.547832      -559.1349
   1   2.0000     -15.573377      -423.7731
   2   2.0000     -11.333594      -308.4028
   3   2.0000     -11.274750      -306.8016
   4   2.0000     -11.266801      -306.5852
   5   2.0000     -11.265723      -306.5559
   6   2.0000     -11.254748      -306.2573
   7   2.0000     -11.248569      -306.0891
   8   2.0000     -11.246068      -306.0211
   9   2.0000      -1.393578       -37.9212
  10   2.0000      -1.295555       -35.2538
  11   2.0000      -1.161838       -31.6152
  12   2.0000      -1.025481       -27.9048
  13   2.0000      -0.946342       -25.7513
  14   2.0000      -0.858398       -23.3582
  15   2.0000      -0.838420       -22.8146
  16   2.0000      -0.809893       -22.0383
  17   2.0000      -0.735086       -20.0027
  18   2.0000      -0.697558       -18.9815
  19   2.0000      -0.666756       -18.1433
  20   2.0000      -0.650029       -17.6882
  21   2.0000      -0.632241       -17.2041
  22   2.0000      -0.605008       -16.4631
  23   2.0000      -0.594590       -16.1796
  24   2.0000      -0.547534       -14.8992
  25   2.0000      -0.541936       -14.7468
  26   2.0000      -0.527448       -14.3526
  27   2.0000      -0.500774       -13.6268
  28   2.0000      -0.481878       -13.1126
  29   2.0000      -0.446556       -12.1514
  30   2.0000      -0.434681       -11.8283
  31   2.0000      -0.406271       -11.0552
  32   2.0000      -0.370110       -10.0712
  33   0.0000       0.126063         3.4304
  34   0.0000       0.146558         3.9880
  35   0.0000       0.150850         4.1048
  36   0.0000       0.160878         4.3777
  37   0.0000       0.176115         4.7923

MULLIKEN ATOMIC CHARGES
-----------------------
   0 O :   -0.289154
   1 C :    0.134957
   2 C :   -0.147087
   3 N :   -0.223389
   4 C :   -0.191873
   5 C :   -0.007384
   6 C :    0.016519
   7 C :   -0.269356
   8 C :   -0.288877
   9 H :    0.146772
  10 H :    0.144075
  11 H :    0.132944
  12 H :    0.126773
  13 H :    0.134324
  14 H :    0.142827
  15 H :    0.145846
  16 H :    0.151949
  17 H :    0.140134
Sum of atomic charges:    0.0000000

LOEWDIN ATOMIC CHARGES
----------------------
   0 O :    0.152688
   1 C :   -0.283441
   2 C :   -0.241148
   3 N :    0.111973
   4 C :   -0.236343
   5 C :   -0.198472
   6 C :   -0.207197
   7 C :   -0.181282
   8 C :   -0.177918
   9 H :    0.149445
  10 H :    0.145153
  11 H :    0.127929
  12 H :    0.130527
  13 H :    0.144071
  14 H :    0.138822
  15 H :    0.143821
  16 H :    0.143347
  17 H :    0.138023

  Mayer bond orders larger than 0.1
B(  0-O ,  1-C ) :   2.0127 B(  1-C ,  2-C ) :   0.9151 B(  1-C ,  6-C ) :   0.9227
B(  2-C ,  3-N ) :   0.9357 B(  2-C ,  9-H ) :   0.9052 B(  2-C , 10-H ) :   0.9243
B(  3-N ,  4-C ) :   0.8828 B(  3-N ,  5-C ) :   0.9017 B(  4-C ,  5-C ) :   0.9321
B(  4-C , 11-H ) :   0.9240 B(  4-C , 12-H ) :   0.9091 B(  5-C ,  6-C ) :   0.9001
B(  5-C , 13-H ) :   0.9026 B(  6-C ,  7-C ) :   0.8180 B(  6-C ,  8-C ) :   0.8150
B(  7-C ,  8-C ) :   0.9664 B(  7-C , 14-H ) :   0.9259 B(  7-C , 15-H ) :   0.9163
B(  8-C , 16-H ) :   0.9180 B(  8-C , 17-H ) :   0.9274

MP2 TOTAL ENERGY:     -401.239330400 Eh
FINAL SINGLE POINT ENERGY      -401.239330400157

DIPOLE MOMENT
-------------
                                X             Y             Z
Electronic contribution:     -2.56832      -1.87112      -1.23181
Nuclear contribution   :      3.11582       2.43075       1.62741
                        -----------------------------------------
Total Dipole Moment    :      0.54750       0.55962       0.39561
                        -----------------------------------------
Magnitude (a.u.)       :      0.87717
Magnitude (Debye)      :      2.22960

                             ****ORCA TERMINATED NORMALLY****
TOTAL RUN TIME: 0 days 0 hours 17 minutes 57 seconds 472 msec
