                         Program Version 3.0.3 - RELEASE   -
|  1> ! RI-MP2 RIJK def2-TZVP def2-TZVP/C def2-TZVP/JK TIGHTSCF
|  2> % maxcore 2000
|  3> % mp2 density relaxed end
|  4> *xyz 0 1
|  5>  C       -0.2454910276     1.5174611274    -0.1130846527
|  6>  C       -0.0228548326     0.0230519018    -0.0131428408
|  7>  C        1.3268654440    -0.6254628648    -0.2051269794
|  8>  C        2.6028973953     0.1793595740    -0.3762849702
|  9>  O        2.8139181108     1.1478476129     0.6389808235
| 10>  C        2.7501524745     0.5938674169     1.9508228524
| 11>  C        3.3116820759     1.6350071474     2.9070399277
| 12>  C        1.3075713773     0.1860818966     2.2820716905
| 13>  C        0.6718961145    -0.6376991367     1.1643246064
| 14>  H        0.6206565858     2.0828379628     0.2345437218
| 15>  H       -0.4356772330     1.8077870521    -1.1525572981
| 16>  H       -1.1178111962     1.8241858149     0.4760634622
| 17>  H       -0.8509726370    -0.5594401527    -0.4111362293
| 18>  H        1.3422134241    -1.5633274256    -0.7540133093
| 19>  H        3.4579544731    -0.5184608527    -0.3989348858
| 20>  H        2.6048585593     0.7342698088    -1.3211366104
| 21>  H        3.3863629048    -0.3087042191     1.9788306565
| 22>  H        2.7151664224     2.5518036324     2.8637653174
| 23>  H        3.2960863278     1.2609726624     3.9354680576
| 24>  H        4.3422803606     1.8852556261     2.6416650066
| 25>  H        1.3087673880    -0.3950025551     3.2104783468
| 26>  H        0.7232722853     1.0923270617     2.4839893085
| 27>  H        0.2457761228    -1.5832789916     1.4844057482
| 28> *
| 29>
| 30>                          ****END OF INPUT****

CARTESIAN COORDINATES (ANGSTROEM)
---------------------------------
  C     -0.245491    1.517461   -0.113085
  C     -0.022855    0.023052   -0.013143
  C      1.326865   -0.625463   -0.205127
  C      2.602897    0.179360   -0.376285
  O      2.813918    1.147848    0.638981
  C      2.750152    0.593867    1.950823
  C      3.311682    1.635007    2.907040
  C      1.307571    0.186082    2.282072
  C      0.671896   -0.637699    1.164325
  H      0.620657    2.082838    0.234544
  H     -0.435677    1.807787   -1.152557
  H     -1.117811    1.824186    0.476063
  H     -0.850973   -0.559440   -0.411136
  H      1.342213   -1.563327   -0.754013
  H      3.457954   -0.518461   -0.398935
  H      2.604859    0.734270   -1.321137
  H      3.386363   -0.308704    1.978831
  H      2.715166    2.551804    2.863765
  H      3.296086    1.260973    3.935468
  H      4.342280    1.885256    2.641665
  H      1.308767   -0.395003    3.210478
  H      0.723272    1.092327    2.483989
  H      0.245776   -1.583279    1.484406

 Total Charge           Charge          ....    0
 Multiplicity           Mult            ....    1
 Number of Electrons    NEL             ....   70
 Basis Dimension        Dim             ....  363

ORBITAL ENERGIES
----------------

  NO   OCC          E(Eh)            E(eV)
   0   2.0000     -20.546095      -559.0877
   1   2.0000     -11.273876      -306.7778
   2   2.0000     -11.271346      -306.7089
   3   2.0000     -11.225900      -305.4723
   4   2.0000     -11.224646      -305.4381
   5   2.0000     -11.223848      -305.4164
   6   2.0000     -11.219066      -305.2863
   7   2.0000     -11.210070      -305.0415
   8   2.0000     -11.207004      -304.9581
   9   2.0000      -1.369975       -37.2789
  10   2.0000      -1.148050       -31.2400
  11   2.0000      -1.054203       -28.6863
  12   2.0000      -0.971755       -26.4428
  13   2.0000      -0.944138       -25.6913
  14   2.0000      -0.911128       -24.7931
  15   2.0000      -0.820936       -22.3388
  16   2.0000      -0.750907       -20.4332
  17   2.0000      -0.739468       -20.1220
  18   2.0000      -0.685481       -18.6529
  19   2.0000      -0.649565       -17.6756
  20   2.0000      -0.630775       -17.1643
  21   2.0000      -0.610103       -16.6018
  22   2.0000      -0.596957       -16.2440
  23   2.0000      -0.559516       -15.2252
  24   2.0000      -0.542263       -14.7557
  25   2.0000      -0.536025       -14.5860
  26   2.0000      -0.530077       -14.4241
  27   2.0000      -0.528700       -14.3867
  28   2.0000      -0.514088       -13.9891
  29   2.0000      -0.501719       -13.6525
  30   2.0000      -0.472205       -12.8493
  31   2.0000      -0.448725       -12.2104
  32   2.0000      -0.419645       -11.4191
  33   2.0000      -0.386456       -10.5160
  34   2.0000      -0.379488       -10.3264
  35   0.0000       0.134309         3.6547
  36   0.0000       0.155944         4.2435
  37   0.0000       0.161367         4.3910
  38   0.0000       0.170919         4.6509
  39   0.0000       0.186375         5.0715

MULLIKEN ATOMIC CHARGES
-----------------------
   0 C :   -0.430688
   1 C :   -0.122730
   2 C :   -0.134568
   3 C :   -0.049332
   4 O :   -0.323776
   5 C :    0.073949
   6 C :   -0.387109
   7 C :   -0.258675
   8 C :   -0.069973
   9 H :    0.157429
  10 H :    0.130255
  11 H :    0.128044
  12 H :    0.112872
  13 H :    0.120707
  14 H :    0.098873
  15 H :    0.120450
  16 H :    0.076546
  17 H :    0.130453
  18 H :    0.122107
  19 H :    0.137208
  20 H :    0.122208
  21 H :    0.123588
  22 H :    0.122159
Sum of atomic charges:   -0.0000000

LOEWDIN ATOMIC CHARGES
----------------------
   0 C :   -0.297725
   1 C :   -0.215572
   2 C :   -0.200845
   3 C :   -0.300209
   4 O :    0.173245
   5 C :   -0.342846
   6 C :   -0.292206
   7 C :   -0.226484
   8 C :   -0.180694
   9 H :    0.130596
  10 H :    0.126013
  11 H :    0.124322
  12 H :    0.148065
  13 H :    0.148251
  14 H :    0.124751
  15 H :    0.132964
  16 H :    0.136457
  17 H :    0.126155
  18 H :    0.126164
  19 H :    0.125822
  20 H :    0.144042
  21 H :    0.144626
  22 H :    0.145108

  Mayer bond orders larger than 0.1
B(  0-C ,  1-C ) :   0.9014 B(  0-C ,  9-H ) :   0.9313 B(  0-C , 10-H ) :   0.9366
B(  0-C , 11-H ) :   0.9362 B(  1-C ,  2-C ) :   0.8857 B(  1-C ,  8-C ) :   0.8799
B(  1-C , 12-H ) :   0.9308 B(  2-C ,  3-C ) :   0.9403 B(  2-C ,  8-C ) :   0.8551
B(  2-C , 13-H ) :   0.9193 B(  3-C ,  4-O ) :   0.9272 B(  3-C , 14-H ) :   0.9365
B(  3-C , 15-H ) :   0.9273 B(  4-O ,  5-C ) :   0.8943 B(  5-C ,  6-C ) :   0.9051
B(  5-C ,  7-C ) :   0.9491 B(  5-C , 16-H ) :   0.9310 B(  6-C , 17-H ) :   0.9398
B(  6-C , 18-H ) :   0.9340 B(  6-C , 19-H ) :   0.9399 B(  7-C ,  8-C ) :   0.8987
B(  7-C , 20-H ) :   0.9225 B(  7-C , 21-H ) :   0.9197 B(  8-C , 22-H ) :   0.9289

MP2 TOTAL ENERGY:     -387.615854360 Eh
FINAL SINGLE POINT ENERGY      -387.615854359826

DIPOLE MOMENT
-------------
                                X             Y             Z
Electronic contribution:      1.14418      -1.90516      -2.02471
Nuclear contribution   :     -1.26651       1.43415       2.16060
                        -----------------------------------------
Total Dipole Moment    :     -0.12233      -0.47101       0.13589
                        -----------------------------------------
Magnitude (a.u.)       :      0.50526
Magnitude (Debye)      :      1.28426

                             ****ORCA TERMINATED NORMALLY****
TOTAL RUN TIME: 0 days 0 hours 21 minutes 9 seconds 156 msec
