                         Program Version 3.0.3 - RELEASE   -
|  1> ! RI-MP2 RIJK def2-TZVP def2-TZVP/C def2-TZVP/JK TIGHTSCF
|  2> % maxcore 2000
|  3> % mp2 density relaxed end
|  4> *xyz 0 1
|  5>  C       -0.2490193521     1.5251977101    -0.1360331847
|  6>  C        0.0107282868     0.0092445321     0.0022866320
|  7>  C        0.8950151655    -0.2602115343     1.2324945850
|  8>  C       -1.3355339276    -0.7325385750     0.1503396710
|  9>  C        0.6822619883    -0.4740944883    -1.2610012367
| 10>  N        0.1808746718    -0.3900353349    -2.4847125145
| 11>  C        1.1471173586    -0.9518561940    -3.2597427992
| 12>  N        2.2154579232    -1.3807102381    -2.6097953200
| 13>  N        1.8968233194    -1.0646412025    -1.3294763284
| 14>  H        0.6903708358     2.0812044629    -0.2189638114
| 15>  H       -0.8436603582     1.7300324950    -1.0290297173
| 16>  H       -0.7897454239     1.8973242699     0.7404011912
| 17>  H        0.3930217457     0.0956740575     2.1367452060
| 18>  H        1.0885692381    -1.3304409102     1.3665546371
| 19>  H        1.8550918801     0.2637408436     1.1648185432
| 20>  H       -1.9546018559    -0.5792263914    -0.7363599574
| 21>  H       -1.1819277074    -1.8092740289     0.2749006841
| 22>  H       -1.8770049343    -0.3613005597     1.0266878856
| 23>  H        1.0615379442    -1.0477380128    -4.3319903083
| 24>  H        2.5425945618    -1.2797129812    -0.5888686673
| 25> *
| 26>
| 27>                          ****END OF INPUT****

CARTESIAN COORDINATES (ANGSTROEM)
---------------------------------
  C     -0.249019    1.525198   -0.136033
  C      0.010728    0.009245    0.002287
  C      0.895015   -0.260212    1.232495
  C     -1.335534   -0.732539    0.150340
  C      0.682262   -0.474094   -1.261001
  N      0.180875   -0.390035   -2.484713
  C      1.147117   -0.951856   -3.259743
  N      2.215458   -1.380710   -2.609795
  N      1.896823   -1.064641   -1.329476
  H      0.690371    2.081204   -0.218964
  H     -0.843660    1.730032   -1.029030
  H     -0.789745    1.897324    0.740401
  H      0.393022    0.095674    2.136745
  H      1.088569   -1.330441    1.366555
  H      1.855092    0.263741    1.164819
  H     -1.954602   -0.579226   -0.736360
  H     -1.181928   -1.809274    0.274901
  H     -1.877005   -0.361301    1.026688
  H      1.061538   -1.047738   -4.331990
  H      2.542595   -1.279713   -0.588869

 Total Charge           Charge          ....    0
 Multiplicity           Mult            ....    1
 Number of Electrons    NEL             ....   68
 Basis Dimension        Dim             ....  345

ORBITAL ENERGIES
----------------

  NO   OCC          E(Eh)            E(eV)
   0   2.0000     -15.641917      -425.6382
   1   2.0000     -15.585155      -424.0936
   2   2.0000     -15.545178      -423.0058
   3   2.0000     -11.313270      -307.8497
   4   2.0000     -11.280204      -306.9500
   5   2.0000     -11.265512      -306.5502
   6   2.0000     -11.236479      -305.7601
   7   2.0000     -11.224310      -305.4290
   8   2.0000     -11.224269      -305.4279
   9   2.0000      -1.404438       -38.2167
  10   2.0000      -1.191306       -32.4171
  11   2.0000      -1.141156       -31.0524
  12   2.0000      -1.075451       -29.2645
  13   2.0000      -0.952069       -25.9071
  14   2.0000      -0.942300       -25.6413
  15   2.0000      -0.867815       -23.6145
  16   2.0000      -0.825976       -22.4760
  17   2.0000      -0.795512       -21.6470
  18   2.0000      -0.706333       -19.2203
  19   2.0000      -0.641576       -17.4582
  20   2.0000      -0.633250       -17.2316
  21   2.0000      -0.611797       -16.6478
  22   2.0000      -0.604408       -16.4468
  23   2.0000      -0.597242       -16.2518
  24   2.0000      -0.554201       -15.0806
  25   2.0000      -0.550855       -14.9895
  26   2.0000      -0.528365       -14.3775
  27   2.0000      -0.520653       -14.1677
  28   2.0000      -0.493128       -13.4187
  29   2.0000      -0.486382       -13.2351
  30   2.0000      -0.471577       -12.8323
  31   2.0000      -0.440832       -11.9956
  32   2.0000      -0.409840       -11.1523
  33   2.0000      -0.359420        -9.7803
  34   0.0000       0.117953         3.2097
  35   0.0000       0.152185         4.1412
  36   0.0000       0.158014         4.2998
  37   0.0000       0.179973         4.8973
  38   0.0000       0.180086         4.9004

MULLIKEN ATOMIC CHARGES
-----------------------
   0 C :   -0.414310
   1 C :    0.143227
   2 C :   -0.478126
   3 C :   -0.414356
   4 C :    0.142607
   5 N :   -0.335763
   6 C :    0.026662
   7 N :   -0.242801
   8 N :   -0.103080
   9 H :    0.130373
  10 H :    0.158394
  11 H :    0.130512
  12 H :    0.148236
  13 H :    0.142837
  14 H :    0.142643
  15 H :    0.158444
  16 H :    0.130370
  17 H :    0.130508
  18 H :    0.139161
  19 H :    0.264464
Sum of atomic charges:   -0.0000000

LOEWDIN ATOMIC CHARGES
----------------------
   0 C :   -0.256479
   1 C :   -0.321406
   2 C :   -0.271645
   3 C :   -0.256484
   4 C :   -0.286530
   5 N :    0.102610
   6 C :   -0.348581
   7 N :    0.012937
   8 N :    0.147711
   9 H :    0.126794
  10 H :    0.134453
  11 H :    0.125518
  12 H :    0.132871
  13 H :    0.124912
  14 H :    0.124874
  15 H :    0.134463
  16 H :    0.126805
  17 H :    0.125512
  18 H :    0.129730
  19 H :    0.191936

  Mayer bond orders larger than 0.1
B(  0-C ,  1-C ) :   0.9027 B(  0-C ,  9-H ) :   0.9302 B(  0-C , 10-H ) :   0.9299
B(  0-C , 11-H ) :   0.9326 B(  1-C ,  2-C ) :   0.8702 B(  1-C ,  3-C ) :   0.9029
B(  1-C ,  4-C ) :   0.9268 B(  2-C , 12-H ) :   0.9352 B(  2-C , 13-H ) :   0.9368
B(  2-C , 14-H ) :   0.9367 B(  3-C , 15-H ) :   0.9299 B(  3-C , 16-H ) :   0.9302
B(  3-C , 17-H ) :   0.9326 B(  4-C ,  5-N ) :   1.5024 B(  4-C ,  8-N ) :   1.2253
B(  5-N ,  6-C ) :   1.3057 B(  6-C ,  7-N ) :   1.5197 B(  6-C , 18-H ) :   0.9383
B(  7-N ,  8-N ) :   1.0551 B(  8-N , 19-H ) :   0.8554

MP2 TOTAL ENERGY:     -398.684995404 Eh
FINAL SINGLE POINT ENERGY      -398.684995404374

DIPOLE MOMENT
-------------
                                X             Y             Z
Electronic contribution:      5.38012      -3.76223      -9.26194
Nuclear contribution   :     -5.24170       3.85051      10.47298
                        -----------------------------------------
Total Dipole Moment    :      0.13843       0.08828       1.21104
                        -----------------------------------------
Magnitude (a.u.)       :      1.22212
Magnitude (Debye)      :      3.10638

                             ****ORCA TERMINATED NORMALLY****
TOTAL RUN TIME: 0 days 0 hours 21 minutes 2 seconds 472 msec
