                         Program Version 3.0.3 - RELEASE   -
|  1> ! RI-MP2 RIJK def2-TZVP def2-TZVP/C def2-TZVP/JK TIGHTSCF
|  2> % maxcore 2000
|  3> % mp2 density relaxed end
|  4> *xyz 0 1
|  5>  O       -0.0572721113     1.3563343527    -0.3330441263
|  6>  C       -0.0072329846    -0.0129078411    -0.1439530978
|  7>  C        0.0828162813    -0.5594270473     1.3172590796
|  8>  N       -1.3278176390    -0.0255740404     1.4874686085
|  9>  C       -1.3362219034    -0.7825973181     0.1593401236
| 10>  C       -0.5090175447    -1.9235875034     0.8030028762
| 11>  C        0.3205977480    -2.8882872754    -0.0017072451
| 12>  O        0.4430885590    -2.8741795047    -1.2017377777
| 13>  H       -0.6649757057     1.6849732508     0.3466323949
| 14>  H        0.6514451385    -0.4512510060    -0.8887447457
| 15>  H        0.8532936485    -0.4057228756     2.0743488216
| 16>  H       -1.8266638487    -0.5588481230     2.2047701435
| 17>  H       -2.2362608047    -0.8645949638    -0.4500417968
| 18>  H       -1.0256395207    -2.4626239566     1.6061484590
| 19>  H        0.8401629673    -3.6592513882     0.6136206125
| 20> *
| 21>
| 22>                          ****END OF INPUT****

CARTESIAN COORDINATES (ANGSTROEM)
---------------------------------
  O     -0.057272    1.356334   -0.333044
  C     -0.007233   -0.012908   -0.143953
  C      0.082816   -0.559427    1.317259
  N     -1.327818   -0.025574    1.487469
  C     -1.336222   -0.782597    0.159340
  C     -0.509018   -1.923588    0.803003
  C      0.320598   -2.888287   -0.001707
  O      0.443089   -2.874180   -1.201738
  H     -0.664976    1.684973    0.346632
  H      0.651445   -0.451251   -0.888745
  H      0.853294   -0.405723    2.074349
  H     -1.826664   -0.558848    2.204770
  H     -2.236261   -0.864595   -0.450042
  H     -1.025640   -2.462624    1.606148
  H      0.840163   -3.659251    0.613621

 Total Charge           Charge          ....    0
 Multiplicity           Mult            ....    1
 Number of Electrons    NEL             ....   60
 Basis Dimension        Dim             ....  290

ORBITAL ENERGIES
----------------

  NO   OCC          E(Eh)            E(eV)
   0   2.0000     -20.570093      -559.7407
   1   2.0000     -20.556844      -559.3802
   2   2.0000     -15.576498      -423.8581
   3   2.0000     -11.345280      -308.7208
   4   2.0000     -11.298612      -307.4509
   5   2.0000     -11.298036      -307.4352
   6   2.0000     -11.291038      -307.2448
   7   2.0000     -11.268143      -306.6218
   8   2.0000      -1.408533       -38.3281
   9   2.0000      -1.382494       -37.6196
  10   2.0000      -1.288522       -35.0625
  11   2.0000      -1.042918       -28.3792
  12   2.0000      -0.955759       -26.0075
  13   2.0000      -0.893861       -24.3232
  14   2.0000      -0.829988       -22.5851
  15   2.0000      -0.779534       -21.2122
  16   2.0000      -0.714044       -19.4301
  17   2.0000      -0.695846       -18.9349
  18   2.0000      -0.670942       -18.2573
  19   2.0000      -0.651091       -17.7171
  20   2.0000      -0.602763       -16.4020
  21   2.0000      -0.578749       -15.7486
  22   2.0000      -0.559787       -15.2326
  23   2.0000      -0.549782       -14.9603
  24   2.0000      -0.515870       -14.0375
  25   2.0000      -0.486381       -13.2351
  26   2.0000      -0.470176       -12.7941
  27   2.0000      -0.454444       -12.3661
  28   2.0000      -0.418834       -11.3971
  29   2.0000      -0.401336       -10.9209
  30   0.0000       0.108144         2.9427
  31   0.0000       0.131846         3.5877
  32   0.0000       0.154469         4.2033
  33   0.0000       0.172791         4.7019
  34   0.0000       0.176854         4.8124

MULLIKEN ATOMIC CHARGES
-----------------------
   0 O :   -0.466333
   1 C :    0.093303
   2 C :   -0.107306
   3 N :   -0.363356
   4 C :   -0.066982
   5 C :   -0.077898
   6 C :    0.080796
   7 O :   -0.264354
   8 H :    0.335906
   9 H :    0.142912
  10 H :    0.142177
  11 H :    0.200113
  12 H :    0.146309
  13 H :    0.119240
  14 H :    0.085473
Sum of atomic charges:   -0.0000000

LOEWDIN ATOMIC CHARGES
----------------------
   0 O :    0.008538
   1 C :   -0.298612
   2 C :   -0.185665
   3 N :   -0.009282
   4 C :   -0.180035
   5 C :   -0.207956
   6 C :   -0.279423
   7 O :    0.140727
   8 H :    0.186895
   9 H :    0.145484
  10 H :    0.125740
  11 H :    0.156979
  12 H :    0.128568
  13 H :    0.154136
  14 H :    0.113906

  Mayer bond orders larger than 0.1
B(  0-O ,  1-C ) :   1.0122 B(  0-O ,  8-H ) :   0.8077 B(  1-C ,  2-C ) :   0.8765
B(  1-C ,  4-C ) :   0.8649 B(  1-C ,  9-H ) :   0.9331 B(  2-C ,  3-N ) :   0.9034
B(  2-C ,  5-C ) :   0.9022 B(  2-C , 10-H ) :   0.8949 B(  3-N ,  4-C ) :   0.8955
B(  3-N , 11-H ) :   0.8797 B(  4-C ,  5-C ) :   0.9157 B(  4-C , 12-H ) :   0.8902
B(  5-C ,  6-C ) :   0.8916 B(  5-C , 13-H ) :   0.8894 B(  6-C ,  7-O ) :   1.9793
B(  6-C , 14-H ) :   0.9367

MP2 TOTAL ENERGY:     -399.081550568 Eh
FINAL SINGLE POINT ENERGY      -399.081550568478

DIPOLE MOMENT
-------------
                                X             Y             Z
Electronic contribution:      0.87206      -0.50869      -2.23791
Nuclear contribution   :     -1.25781      -0.16783       3.54891
                        -----------------------------------------
Total Dipole Moment    :     -0.38575      -0.67652       1.31101
                        -----------------------------------------
Magnitude (a.u.)       :      1.52487
Magnitude (Debye)      :      3.87590

                             ****ORCA TERMINATED NORMALLY****
TOTAL RUN TIME: 0 days 0 hours 11 minutes 39 seconds 925 msec
