                         Program Version 3.0.3 - RELEASE   -
|  1> ! RI-MP2 RIJK def2-TZVP def2-TZVP/C def2-TZVP/JK TIGHTSCF
|  2> % maxcore 2000
|  3> % mp2 density relaxed end
|  4> *xyz 0 1
|  5>  O       -0.0606620752     1.0328634212     1.6096535479
|  6>  C       -0.0011937856     1.4537520742     0.4855301292
|  7>  C       -1.2957201932     1.5906008448    -0.3323771395
|  8>  O       -1.1807516657     1.7018754975    -1.7274823496
|  9>  C       -0.8935673084     3.0094485794    -2.1897670837
| 10>  C        0.4325641524     3.5459890778    -1.6226898243
| 11>  C        1.4030233231     2.4084758526    -1.3138972103
| 12>  O        1.1970204947     1.8039233855    -0.0242261410
| 13>  H       -1.8639331012     0.6809926497    -0.1241090987
| 14>  H       -1.8624060597     2.4304078180     0.1008411336
| 15>  H       -0.8325582866     2.9146777484    -3.2777622230
| 16>  H       -1.7242743136     3.6930241261    -1.9567801599
| 17>  H        0.8892109448     4.2285914728    -2.3476011316
| 18>  H        0.2771980139     4.1265376414    -0.7064959600
| 19>  H        1.3650571265     1.6348470807    -2.0872952550
| 20>  H        2.4259909237     2.7860907899    -1.2532405442
| 21> *
| 22>
| 23>                          ****END OF INPUT****

CARTESIAN COORDINATES (ANGSTROEM)
---------------------------------
  O     -0.060662    1.032863    1.609654
  C     -0.001194    1.453752    0.485530
  C     -1.295720    1.590601   -0.332377
  O     -1.180752    1.701875   -1.727482
  C     -0.893567    3.009449   -2.189767
  C      0.432564    3.545989   -1.622690
  C      1.403023    2.408476   -1.313897
  O      1.197020    1.803923   -0.024226
  H     -1.863933    0.680993   -0.124109
  H     -1.862406    2.430408    0.100841
  H     -0.832558    2.914678   -3.277762
  H     -1.724274    3.693024   -1.956780
  H      0.889211    4.228591   -2.347601
  H      0.277198    4.126538   -0.706496
  H      1.365057    1.634847   -2.087295
  H      2.425991    2.786091   -1.253241

 Total Charge           Charge          ....    0
 Multiplicity           Mult            ....    1
 Number of Electrons    NEL             ....   62
 Basis Dimension        Dim             ....  296

ORBITAL ENERGIES
----------------

  NO   OCC          E(Eh)            E(eV)
   0   2.0000     -20.599995      -560.5544
   1   2.0000     -20.582849      -560.0878
   2   2.0000     -20.535004      -558.7859
   3   2.0000     -11.380602      -309.6819
   4   2.0000     -11.307026      -307.6798
   5   2.0000     -11.305178      -307.6295
   6   2.0000     -11.299228      -307.4676
   7   2.0000     -11.251094      -306.1578
   8   2.0000      -1.456316       -39.6284
   9   2.0000      -1.403955       -38.2036
  10   2.0000      -1.359308       -36.9887
  11   2.0000      -1.081865       -29.4390
  12   2.0000      -0.998699       -27.1760
  13   2.0000      -0.954565       -25.9750
  14   2.0000      -0.841708       -22.9040
  15   2.0000      -0.784232       -21.3400
  16   2.0000      -0.715881       -19.4801
  17   2.0000      -0.701039       -19.0762
  18   2.0000      -0.692062       -18.8320
  19   2.0000      -0.653091       -17.7715
  20   2.0000      -0.637127       -17.3371
  21   2.0000      -0.620768       -16.8919
  22   2.0000      -0.609783       -16.5930
  23   2.0000      -0.584703       -15.9106
  24   2.0000      -0.555591       -15.1184
  25   2.0000      -0.532246       -14.4832
  26   2.0000      -0.497939       -13.5496
  27   2.0000      -0.484540       -13.1850
  28   2.0000      -0.470243       -12.7960
  29   2.0000      -0.450900       -12.2696
  30   2.0000      -0.427144       -11.6232
  31   0.0000       0.123781         3.3683
  32   0.0000       0.151266         4.1162
  33   0.0000       0.157099         4.2749
  34   0.0000       0.167617         4.5611
  35   0.0000       0.171604         4.6696

MULLIKEN ATOMIC CHARGES
-----------------------
   0 O :   -0.293604
   1 C :    0.233327
   2 C :   -0.087287
   3 O :   -0.309968
   4 C :   -0.084518
   5 C :   -0.267799
   6 C :   -0.060209
   7 O :   -0.211497
   8 H :    0.162422
   9 H :    0.125009
  10 H :    0.129544
  11 H :    0.120221
  12 H :    0.137335
  13 H :    0.138465
  14 H :    0.128119
  15 H :    0.140441
Sum of atomic charges:    0.0000000

LOEWDIN ATOMIC CHARGES
----------------------
   0 O :    0.133339
   1 C :   -0.488717
   2 C :   -0.298688
   3 O :    0.162728
   4 C :   -0.322183
   5 C :   -0.278928
   6 C :   -0.278715
   7 O :    0.261771
   8 H :    0.151904
   9 H :    0.140219
  10 H :    0.132434
  11 H :    0.122938
  12 H :    0.147939
  13 H :    0.144689
  14 H :    0.134192
  15 H :    0.135079

  Mayer bond orders larger than 0.1
B(  0-O ,  1-C ) :   1.9989 B(  1-C ,  2-C ) :   0.8964 B(  1-C ,  7-O ) :   1.1429
B(  2-C ,  3-O ) :   0.9180 B(  2-C ,  8-H ) :   0.9171 B(  2-C ,  9-H ) :   0.9154
B(  3-O ,  4-C ) :   0.9180 B(  4-C ,  5-C ) :   0.9096 B(  4-C , 10-H ) :   0.9334
B(  4-C , 11-H ) :   0.9508 B(  5-C ,  6-C ) :   0.9117 B(  5-C , 12-H ) :   0.9156
B(  5-C , 13-H ) :   0.9288 B(  6-C ,  7-O ) :   0.8593 B(  6-C , 14-H ) :   0.9306
B(  6-C , 15-H ) :   0.9297

MP2 TOTAL ENERGY:     -420.232440990 Eh
FINAL SINGLE POINT ENERGY      -420.232440989575

DIPOLE MOMENT
-------------
                                X             Y             Z
Electronic contribution:      0.68895      -4.47260       4.76092
Nuclear contribution   :     -0.83419       5.59811      -6.13888
                        -----------------------------------------
Total Dipole Moment    :     -0.14524       1.12551      -1.37795
                        -----------------------------------------
Magnitude (a.u.)       :      1.78511
Magnitude (Debye)      :      4.53740

                             ****ORCA TERMINATED NORMALLY****
TOTAL RUN TIME: 0 days 0 hours 11 minutes 44 seconds 525 msec
