                         Program Version 3.0.3 - RELEASE   -
|  1> ! RI-MP2 RIJK def2-TZVP def2-TZVP/C def2-TZVP/JK TIGHTSCF
|  2> % maxcore 2000
|  3> % mp2 density relaxed end
|  4> *xyz 0 1
|  5>  O        0.0951345125     1.3974616012    -0.1506900952
|  6>  C        0.0257734987    -0.0176080882    -0.0343271159
|  7>  C        0.7225861911    -0.5131031512     1.2183011469
|  8>  C        0.0445062186    -1.2088973010     2.1336630600
|  9>  C       -1.4081328089    -1.5651947693     1.8542367158
| 10>  C       -1.5082651668    -2.0226445728     0.3614191657
| 11>  C       -1.4440406098    -0.5130068853    -0.0368596360
| 12>  C       -2.0445214296    -0.2488968264     1.3558742376
| 13>  O       -2.7738872874     0.5755784967     1.8233086804
| 14>  H       -0.3255959799     1.7797628235     0.6289745811
| 15>  H        0.5339372182    -0.3854319804    -0.9345022116
| 16>  H        1.7645124644    -0.2390857471     1.3500583455
| 17>  H        0.4924095462    -1.5280889278     3.0690615856
| 18>  H       -1.8877554262    -2.1379818392     2.6465858046
| 19>  H       -0.6935170278    -2.6572490585     0.0079326570
| 20>  H       -2.4745522704    -2.4706738255     0.1186401936
| 21>  H       -1.9765516130    -0.1491339587    -0.9164616051
| 22> *
| 23>
| 24>                          ****END OF INPUT****

CARTESIAN COORDINATES (ANGSTROEM)
---------------------------------
  O      0.095135    1.397462   -0.150690
  C      0.025773   -0.017608   -0.034327
  C      0.722586   -0.513103    1.218301
  C      0.044506   -1.208897    2.133663
  C     -1.408133   -1.565195    1.854237
  C     -1.508265   -2.022645    0.361419
  C     -1.444041   -0.513007   -0.036860
  C     -2.044521   -0.248897    1.355874
  O     -2.773887    0.575578    1.823309
  H     -0.325596    1.779763    0.628975
  H      0.533937   -0.385432   -0.934502
  H      1.764512   -0.239086    1.350058
  H      0.492410   -1.528089    3.069062
  H     -1.887755   -2.137982    2.646586
  H     -0.693517   -2.657249    0.007933
  H     -2.474552   -2.470674    0.118640
  H     -1.976552   -0.149134   -0.916462

 Total Charge           Charge          ....    0
 Multiplicity           Mult            ....    1
 Number of Electrons    NEL             ....   66
 Basis Dimension        Dim             ....  327

ORBITAL ENERGIES
----------------

  NO   OCC          E(Eh)            E(eV)
   0   2.0000     -20.564922      -559.6000
   1   2.0000     -20.559861      -559.4622
   2   2.0000     -11.340697      -308.5961
   3   2.0000     -11.305789      -307.6461
   4   2.0000     -11.260327      -306.4091
   5   2.0000     -11.257720      -306.3381
   6   2.0000     -11.254175      -306.2417
   7   2.0000     -11.253640      -306.2271
   8   2.0000     -11.243391      -305.9482
   9   2.0000      -1.404072       -38.2067
  10   2.0000      -1.372530       -37.3484
  11   2.0000      -1.188590       -32.3432
  12   2.0000      -1.051230       -28.6054
  13   2.0000      -1.000137       -27.2151
  14   2.0000      -0.878876       -23.9154
  15   2.0000      -0.855364       -23.2757
  16   2.0000      -0.803287       -21.8585
  17   2.0000      -0.724870       -19.7247
  18   2.0000      -0.697481       -18.9794
  19   2.0000      -0.676714       -18.4143
  20   2.0000      -0.642711       -17.4891
  21   2.0000      -0.626737       -17.0544
  22   2.0000      -0.619601       -16.8602
  23   2.0000      -0.592082       -16.1114
  24   2.0000      -0.586423       -15.9574
  25   2.0000      -0.555718       -15.1218
  26   2.0000      -0.532467       -14.4892
  27   2.0000      -0.511097       -13.9077
  28   2.0000      -0.502886       -13.6842
  29   2.0000      -0.476152       -12.9568
  30   2.0000      -0.445306       -12.1174
  31   2.0000      -0.413466       -11.2510
  32   2.0000      -0.361793        -9.8449
  33   0.0000       0.118697         3.2299
  34   0.0000       0.130945         3.5632
  35   0.0000       0.147743         4.0203
  36   0.0000       0.157982         4.2989
  37   0.0000       0.165712         4.5093

MULLIKEN ATOMIC CHARGES
-----------------------
   0 O :   -0.456202
   1 C :    0.057524
   2 C :   -0.181527
   3 C :   -0.265625
   4 C :    0.131922
   5 C :   -0.347244
   6 C :    0.063747
   7 C :   -0.013378
   8 O :   -0.244047
   9 H :    0.324669
  10 H :    0.113383
  11 H :    0.135122
  12 H :    0.137232
  13 H :    0.141323
  14 H :    0.135186
  15 H :    0.137727
  16 H :    0.130186
Sum of atomic charges:   -0.0000000

LOEWDIN ATOMIC CHARGES
----------------------
   0 O :   -0.006773
   1 C :   -0.304610
   2 C :   -0.146087
   3 C :   -0.121146
   4 C :   -0.170137
   5 C :   -0.172896
   6 C :   -0.162275
   7 C :   -0.278776
   8 O :    0.165452
   9 H :    0.180937
  10 H :    0.150822
  11 H :    0.146358
  12 H :    0.145406
  13 H :    0.146632
  14 H :    0.137248
  15 H :    0.139708
  16 H :    0.150137

  Mayer bond orders larger than 0.1
B(  0-O ,  1-C ) :   0.9209 B(  0-O ,  9-H ) :   0.8340 B(  1-C ,  2-C ) :   0.9555
B(  1-C ,  6-C ) :   0.8882 B(  1-C , 10-H ) :   0.9155 B(  2-C ,  3-C ) :   1.7415
B(  2-C , 11-H ) :   0.9331 B(  3-C ,  4-C ) :   0.8584 B(  3-C , 12-H ) :   0.9247
B(  4-C ,  5-C ) :   0.8704 B(  4-C ,  6-C ) :  -0.1165 B(  4-C ,  7-C ) :   0.7855
B(  4-C , 13-H ) :   0.9075 B(  5-C ,  6-C ) :   0.8682 B(  5-C , 14-H ) :   0.9214
B(  5-C , 15-H ) :   0.9163 B(  6-C ,  7-C ) :   0.7947 B(  6-C , 16-H ) :   0.9158
B(  7-C ,  8-O ) :   2.0503

MP2 TOTAL ENERGY:     -421.124622705 Eh
FINAL SINGLE POINT ENERGY      -421.124622704925

DIPOLE MOMENT
-------------
                                X             Y             Z
Electronic contribution:     -2.24546       3.19445       1.40996
Nuclear contribution   :      2.64788      -4.27737      -1.35929
                        -----------------------------------------
Total Dipole Moment    :      0.40241      -1.08291       0.05067
                        -----------------------------------------
Magnitude (a.u.)       :      1.15637
Magnitude (Debye)      :      2.93927

                             ****ORCA TERMINATED NORMALLY****
TOTAL RUN TIME: 0 days 0 hours 16 minutes 25 seconds 137 msec
