                         Program Version 3.0.3 - RELEASE   -
|  1> ! RI-MP2 RIJK def2-TZVP def2-TZVP/C def2-TZVP/JK TIGHTSCF
|  2> % maxcore 2000
|  3> % mp2 density relaxed end
|  4> *xyz 0 1
|  5>  C       -1.6503260007    -1.3212761003     1.5920975281
|  6>  C       -2.5298879469    -0.0556275760     1.6088560336
|  7>  O       -2.6122551918     0.4883624607     2.9017492705
|  8>  C       -1.9426819759     0.9883208114     0.6587842462
|  9>  O       -1.3935124290     1.9691198696     1.1225342962
| 10>  C       -1.9894832408     0.7909575461    -0.8252482849
| 11>  N       -2.7490917309    -0.3419453250    -1.3726201443
| 12>  C       -3.2358491546     1.0113496537    -1.6377412921
| 13>  C       -4.5711370719     1.4243442970    -1.0692451418
| 14>  H       -2.0317459324    -2.0166319732     2.3437957059
| 15>  H       -1.6740845162    -1.8081246648     0.6144949507
| 16>  H       -0.6166546215    -1.0716889891     1.8518044702
| 17>  H       -3.5336002093    -0.3352333608     1.2658238275
| 18>  H       -2.0659884619     1.2903888644     2.8738729111
| 19>  H       -1.0646940865     1.0996555963    -1.3087732386
| 20>  H       -2.2745713194    -0.7358262563    -2.1797181543
| 21>  H       -3.0352077613     1.4147833029    -2.6300384908
| 22>  H       -4.7418008663     1.0010190473    -0.0777013546
| 23>  H       -4.6333752659     2.5147129483    -0.9943844340
| 24>  H       -5.3803030569     1.0834800679    -1.7235354045
| 25> *
| 26>
| 27>                          ****END OF INPUT****

CARTESIAN COORDINATES (ANGSTROEM)
---------------------------------
  C     -1.650326   -1.321276    1.592098
  C     -2.529888   -0.055628    1.608856
  O     -2.612255    0.488362    2.901749
  C     -1.942682    0.988321    0.658784
  O     -1.393512    1.969120    1.122534
  C     -1.989483    0.790958   -0.825248
  N     -2.749092   -0.341945   -1.372620
  C     -3.235849    1.011350   -1.637741
  C     -4.571137    1.424344   -1.069245
  H     -2.031746   -2.016632    2.343796
  H     -1.674085   -1.808125    0.614495
  H     -0.616655   -1.071689    1.851804
  H     -3.533600   -0.335233    1.265824
  H     -2.065988    1.290389    2.873873
  H     -1.064694    1.099656   -1.308773
  H     -2.274571   -0.735826   -2.179718
  H     -3.035208    1.414783   -2.630038
  H     -4.741801    1.001019   -0.077701
  H     -4.633375    2.514713   -0.994384
  H     -5.380303    1.083480   -1.723535

 Total Charge           Charge          ....    0
 Multiplicity           Mult            ....    1
 Number of Electrons    NEL             ....   70
 Basis Dimension        Dim             ....  345

ORBITAL ENERGIES
----------------

  NO   OCC          E(Eh)            E(eV)
   0   2.0000     -20.560343      -559.4754
   1   2.0000     -20.545255      -559.0648
   2   2.0000     -15.583327      -424.0439
   3   2.0000     -11.340881      -308.6011
   4   2.0000     -11.291095      -307.2463
   5   2.0000     -11.288683      -307.1807
   6   2.0000     -11.284245      -307.0599
   7   2.0000     -11.234559      -305.7079
   8   2.0000     -11.220267      -305.3190
   9   2.0000      -1.411812       -38.4174
  10   2.0000      -1.351446       -36.7747
  11   2.0000      -1.290449       -35.1149
  12   2.0000      -1.035692       -28.1826
  13   2.0000      -1.010626       -27.5005
  14   2.0000      -0.950092       -25.8533
  15   2.0000      -0.874567       -23.7982
  16   2.0000      -0.826657       -22.4945
  17   2.0000      -0.755819       -20.5669
  18   2.0000      -0.737245       -20.0615
  19   2.0000      -0.697489       -18.9796
  20   2.0000      -0.665054       -18.0970
  21   2.0000      -0.632368       -17.2076
  22   2.0000      -0.598296       -16.2804
  23   2.0000      -0.584218       -15.8974
  24   2.0000      -0.581286       -15.8176
  25   2.0000      -0.562725       -15.3125
  26   2.0000      -0.558752       -15.2044
  27   2.0000      -0.533625       -14.5207
  28   2.0000      -0.524219       -14.2647
  29   2.0000      -0.520902       -14.1745
  30   2.0000      -0.495364       -13.4795
  31   2.0000      -0.472946       -12.8695
  32   2.0000      -0.442416       -12.0388
  33   2.0000      -0.431263       -11.7353
  34   2.0000      -0.406366       -11.0578
  35   0.0000       0.112234         3.0540
  36   0.0000       0.126992         3.4556
  37   0.0000       0.150876         4.1055
  38   0.0000       0.168244         4.5782
  39   0.0000       0.177315         4.8250

MULLIKEN ATOMIC CHARGES
-----------------------
   0 C :   -0.406362
   1 C :    0.142608
   2 O :   -0.482858
   3 C :    0.192248
   4 O :   -0.323091
   5 C :   -0.086173
   6 N :   -0.399282
   7 C :   -0.001905
   8 C :   -0.386440
   9 H :    0.142730
  10 H :    0.136860
  11 H :    0.120446
  12 H :    0.099868
  13 H :    0.332715
  14 H :    0.144207
  15 H :    0.228724
  16 H :    0.127134
  17 H :    0.141377
  18 H :    0.139197
  19 H :    0.137997
Sum of atomic charges:   -0.0000000

LOEWDIN ATOMIC CHARGES
----------------------
   0 C :   -0.285368
   1 C :   -0.355540
   2 O :   -0.011105
   3 C :   -0.294556
   4 O :    0.145095
   5 C :   -0.225773
   6 N :    0.016339
   7 C :   -0.266284
   8 C :   -0.288200
   9 H :    0.129936
  10 H :    0.125946
  11 H :    0.124673
  12 H :    0.147946
  13 H :    0.180481
  14 H :    0.152006
  15 H :    0.170158
  16 H :    0.141640
  17 H :    0.129916
  18 H :    0.132354
  19 H :    0.130336

  Mayer bond orders larger than 0.1
B(  0-C ,  1-C ) :   0.8531 B(  0-C ,  9-H ) :   0.9337 B(  0-C , 10-H ) :   0.9251
B(  0-C , 11-H ) :   0.9278 B(  1-C ,  2-O ) :   1.0295 B(  1-C ,  3-C ) :   0.9440
B(  1-C , 12-H ) :   0.9184 B(  2-O , 13-H ) :   0.8033 B(  3-C ,  4-O ) :   1.8798
B(  3-C ,  5-C ) :   0.9144 B(  5-C ,  6-N ) :   0.9156 B(  5-C ,  7-C ) :   0.8771
B(  5-C , 14-H ) :   0.9176 B(  6-N ,  7-C ) :   0.8827 B(  6-N , 15-H ) :   0.8636
B(  7-C ,  8-C ) :   0.9220 B(  7-C , 16-H ) :   0.9230 B(  8-C , 17-H ) :   0.9359
B(  8-C , 18-H ) :   0.9341 B(  8-C , 19-H ) :   0.9325

MP2 TOTAL ENERGY:     -439.559921855 Eh
FINAL SINGLE POINT ENERGY      -439.559921855456

DIPOLE MOMENT
-------------
                                X             Y             Z
Electronic contribution:      3.15061       3.16752       2.29418
Nuclear contribution   :     -3.14229      -3.37765      -3.85331
                        -----------------------------------------
Total Dipole Moment    :      0.00831      -0.21013      -1.55913
                        -----------------------------------------
Magnitude (a.u.)       :      1.57325
Magnitude (Debye)      :      3.99888

                             ****ORCA TERMINATED NORMALLY****
TOTAL RUN TIME: 0 days 0 hours 19 minutes 16 seconds 1 msec
