                         Program Version 3.0.3 - RELEASE   -
|  1> ! RI-MP2 RIJK def2-TZVP def2-TZVP/C def2-TZVP/JK TIGHTSCF
|  2> % maxcore 2000
|  3> % mp2 density relaxed end
|  4> *xyz 0 1
|  5>  C        0.0787540329     1.4273701614     0.1032402467
|  6>  N       -0.2150727186     0.0308556114    -0.1567247071
|  7>  C        0.5078302564    -0.6437058228    -1.1278171381
|  8>  C        0.6683680029    -2.0315185968    -1.1900760288
|  9>  N        1.4030847071    -2.2999036991    -2.3411435865
| 10>  C        1.7053119936    -1.1397063483    -2.9769657359
| 11>  C        1.1717675290    -0.0892733244    -2.2555452852
| 12>  C        0.2165365777    -3.0214861937    -0.3087211895
| 13>  C       -0.1745325896    -3.8557344216     0.4738379998
| 14>  H        1.1331579325     1.6191413802     0.3599886762
| 15>  H       -0.1689035879     2.0345818289    -0.7741102787
| 16>  H       -0.5484026166     1.7741203643     0.9280628651
| 17>  H       -0.3606829315    -0.5225288888     0.6755842800
| 18>  H        1.6672120016    -3.2233615970    -2.6342674659
| 19>  H        2.2773623605    -1.1371963642    -3.8909430507
| 20>  H        1.2477210431     0.9545211369    -2.5137235188
| 21>  H       -0.5348818030    -4.5915761165     1.1482543674
| 22> *
| 23>
| 24>                          ****END OF INPUT****

CARTESIAN COORDINATES (ANGSTROEM)
---------------------------------
  C      0.078754    1.427370    0.103240
  N     -0.215073    0.030856   -0.156725
  C      0.507830   -0.643706   -1.127817
  C      0.668368   -2.031519   -1.190076
  N      1.403085   -2.299904   -2.341144
  C      1.705312   -1.139706   -2.976966
  C      1.171768   -0.089273   -2.255545
  C      0.216537   -3.021486   -0.308721
  C     -0.174533   -3.855734    0.473838
  H      1.133158    1.619141    0.359989
  H     -0.168904    2.034582   -0.774110
  H     -0.548403    1.774120    0.928063
  H     -0.360683   -0.522529    0.675584
  H      1.667212   -3.223362   -2.634267
  H      2.277362   -1.137196   -3.890943
  H      1.247721    0.954521   -2.513724
  H     -0.534882   -4.591576    1.148254

 Total Charge           Charge          ....    0
 Multiplicity           Mult            ....    1
 Number of Electrons    NEL             ....   64
 Basis Dimension        Dim             ....  327

ORBITAL ENERGIES
----------------

  NO   OCC          E(Eh)            E(eV)
   0   2.0000     -15.606269      -424.6682
   1   2.0000     -15.556635      -423.3175
   2   2.0000     -11.268632      -306.6351
   3   2.0000     -11.265266      -306.5435
   4   2.0000     -11.254223      -306.2430
   5   2.0000     -11.251803      -306.1771
   6   2.0000     -11.235934      -305.7453
   7   2.0000     -11.221160      -305.3433
   8   2.0000     -11.210972      -305.0661
   9   2.0000      -1.298706       -35.3396
  10   2.0000      -1.222315       -33.2609
  11   2.0000      -1.051104       -28.6020
  12   2.0000      -1.038408       -28.2565
  13   2.0000      -0.973350       -26.4862
  14   2.0000      -0.911885       -24.8137
  15   2.0000      -0.820864       -22.3368
  16   2.0000      -0.787513       -21.4293
  17   2.0000      -0.751305       -20.4441
  18   2.0000      -0.700018       -19.0485
  19   2.0000      -0.669107       -18.2073
  20   2.0000      -0.618554       -16.8317
  21   2.0000      -0.611473       -16.6390
  22   2.0000      -0.602600       -16.3976
  23   2.0000      -0.576551       -15.6887
  24   2.0000      -0.571649       -15.5554
  25   2.0000      -0.544463       -14.8156
  26   2.0000      -0.523077       -14.2337
  27   2.0000      -0.445170       -12.1137
  28   2.0000      -0.422810       -11.5052
  29   2.0000      -0.394445       -10.7334
  30   2.0000      -0.324110        -8.8195
  31   2.0000      -0.264542        -7.1986
  32   0.0000       0.127533         3.4704
  33   0.0000       0.137806         3.7499
  34   0.0000       0.148452         4.0396
  35   0.0000       0.159300         4.3348
  36   0.0000       0.172435         4.6922

MULLIKEN ATOMIC CHARGES
-----------------------
   0 C :   -0.287483
   1 N :   -0.333423
   2 C :    0.097799
   3 C :   -0.069724
   4 N :   -0.287329
   5 C :   -0.083301
   6 C :   -0.267451
   7 C :    0.055649
   8 C :   -0.159350
   9 H :    0.123723
  10 H :    0.134150
  11 H :    0.137582
  12 H :    0.228718
  13 H :    0.246523
  14 H :    0.145752
  15 H :    0.128763
  16 H :    0.189402
Sum of atomic charges:   -0.0000000

LOEWDIN ATOMIC CHARGES
----------------------
   0 C :   -0.330538
   1 N :    0.043067
   2 C :   -0.217730
   3 C :   -0.211010
   4 N :    0.211007
   5 C :   -0.237675
   6 C :   -0.180070
   7 C :   -0.103122
   8 C :   -0.096667
   9 H :    0.105651
  10 H :    0.117129
  11 H :    0.118023
  12 H :    0.184953
  13 H :    0.195816
  14 H :    0.133822
  15 H :    0.141063
  16 H :    0.126281

  Mayer bond orders larger than 0.1
B(  0-C ,  1-N ) :   0.9218 B(  0-C ,  9-H ) :   0.9284 B(  0-C , 10-H ) :   0.9370
B(  0-C , 11-H ) :   0.9373 B(  1-N ,  2-C ) :   1.1241 B(  1-N , 12-H ) :   0.8715
B(  2-C ,  3-C ) :   1.3674 B(  2-C ,  6-C ) :   1.3184 B(  3-C ,  4-N ) :   1.1061
B(  3-C ,  7-C ) :   1.1801 B(  4-N ,  5-C ) :   1.1896 B(  4-N , 13-H ) :   0.8716
B(  5-C ,  6-C ) :   1.4419 B(  5-C , 14-H ) :   0.9172 B(  6-C , 15-H ) :   0.9298
B(  7-C ,  8-C ) :   2.5999 B(  8-C , 16-H ) :   0.8811

MP2 TOTAL ENERGY:     -380.177762911 Eh
FINAL SINGLE POINT ENERGY      -380.177762910896

DIPOLE MOMENT
-------------
                                X             Y             Z
Electronic contribution:      0.40485      -6.42418      -1.79028
Nuclear contribution   :     -0.04655       6.29784       1.78207
                        -----------------------------------------
Total Dipole Moment    :      0.35830      -0.12634      -0.00821
                        -----------------------------------------
Magnitude (a.u.)       :      0.38001
Magnitude (Debye)      :      0.96590

                             ****ORCA TERMINATED NORMALLY****
TOTAL RUN TIME: 0 days 0 hours 17 minutes 3 seconds 557 msec
