                         Program Version 3.0.3 - RELEASE   -
|  1> ! RI-MP2 RIJK def2-TZVP def2-TZVP/C def2-TZVP/JK TIGHTSCF
|  2> % maxcore 2000
|  3> % mp2 density relaxed end
|  4> *xyz 0 1
|  5>  C        0.0772310940     1.5524162918     0.0420161972
|  6>  C       -0.0084775133     0.0203552691     0.0103907309
|  7>  C        0.6233757329    -0.5417675891    -1.2837764020
|  8>  C        0.7174024323    -2.0601082658    -1.3035307657
|  9>  O        2.0072933634    -2.6358457062    -1.0536312105
| 10>  C        1.0080835388    -2.7709498777    -0.0484474832
| 11>  C        1.1595910530    -1.9644577662     1.2146844461
| 12>  O        2.0398496942    -0.8413736755     1.1745316576
| 13>  C        0.6339745933    -0.5871034735     1.2443149607
| 14>  H        1.1223633761     1.8790835075     0.0549933596
| 15>  H       -0.4027501252     1.9897364953    -0.8393225967
| 16>  H       -0.4154242194     1.9617972779     0.9299402000
| 17>  H       -1.0705417129    -0.2670025475     0.0387369629
| 18>  H        0.0408856347    -0.1928707219    -2.1421773627
| 19>  H        1.6353425831    -0.1398043737    -1.3888581762
| 20>  H        0.1508683803    -2.5818135650    -2.0739940019
| 21>  H        0.6390971519    -3.7861393803     0.1000827603
| 22>  H        1.2035249386    -2.5362459074     2.1411154037
| 23>  H        0.2970440040    -0.1834057118     2.2006460598
| 24> *
| 25>
| 26>                          ****END OF INPUT****

CARTESIAN COORDINATES (ANGSTROEM)
---------------------------------
  C      0.077231    1.552416    0.042016
  C     -0.008478    0.020355    0.010391
  C      0.623376   -0.541768   -1.283776
  C      0.717402   -2.060108   -1.303531
  O      2.007293   -2.635846   -1.053631
  C      1.008084   -2.770950   -0.048447
  C      1.159591   -1.964458    1.214684
  O      2.039850   -0.841374    1.174532
  C      0.633975   -0.587103    1.244315
  H      1.122363    1.879084    0.054993
  H     -0.402750    1.989736   -0.839323
  H     -0.415424    1.961797    0.929940
  H     -1.070542   -0.267003    0.038737
  H      0.040886   -0.192871   -2.142177
  H      1.635343   -0.139804   -1.388858
  H      0.150868   -2.581814   -2.073994
  H      0.639097   -3.786139    0.100083
  H      1.203525   -2.536246    2.141115
  H      0.297044   -0.183406    2.200646

 Total Charge           Charge          ....    0
 Multiplicity           Mult            ....    1
 Number of Electrons    NEL             ....   68
 Basis Dimension        Dim             ....  339

ORBITAL ENERGIES
----------------

  NO   OCC          E(Eh)            E(eV)
   0   2.0000     -20.570342      -559.7475
   1   2.0000     -20.566222      -559.6354
   2   2.0000     -11.291123      -307.2471
   3   2.0000     -11.290006      -307.2167
   4   2.0000     -11.289118      -307.1925
   5   2.0000     -11.286276      -307.1152
   6   2.0000     -11.244230      -305.9711
   7   2.0000     -11.230192      -305.5891
   8   2.0000     -11.222597      -305.3824
   9   2.0000      -1.426320       -38.8121
  10   2.0000      -1.401727       -38.1429
  11   2.0000      -1.095059       -29.7981
  12   2.0000      -0.992443       -27.0057
  13   2.0000      -0.974937       -26.5294
  14   2.0000      -0.910081       -24.7646
  15   2.0000      -0.850288       -23.1375
  16   2.0000      -0.824093       -22.4247
  17   2.0000      -0.738798       -20.1037
  18   2.0000      -0.733100       -19.9487
  19   2.0000      -0.672517       -18.3001
  20   2.0000      -0.661081       -17.9889
  21   2.0000      -0.631423       -17.1819
  22   2.0000      -0.580206       -15.7882
  23   2.0000      -0.572470       -15.5777
  24   2.0000      -0.564384       -15.3577
  25   2.0000      -0.542925       -14.7737
  26   2.0000      -0.535991       -14.5850
  27   2.0000      -0.525112       -14.2890
  28   2.0000      -0.496328       -13.5058
  29   2.0000      -0.480786       -13.0828
  30   2.0000      -0.451822       -12.2947
  31   2.0000      -0.443441       -12.0667
  32   2.0000      -0.441283       -12.0079
  33   2.0000      -0.401296       -10.9198
  34   0.0000       0.133714         3.6385
  35   0.0000       0.156875         4.2688
  36   0.0000       0.162945         4.4340
  37   0.0000       0.164969         4.4890
  38   0.0000       0.187534         5.1030

MULLIKEN ATOMIC CHARGES
-----------------------
   0 C :   -0.424427
   1 C :   -0.008844
   2 C :   -0.250032
   3 C :    0.033223
   4 O :   -0.318510
   5 C :    0.013012
   6 C :    0.045414
   7 O :   -0.320958
   8 C :   -0.019198
   9 H :    0.145547
  10 H :    0.134313
  11 H :    0.132761
  12 H :    0.090863
  13 H :    0.128275
  14 H :    0.137177
  15 H :    0.118815
  16 H :    0.112189
  17 H :    0.131074
  18 H :    0.119306
Sum of atomic charges:   -0.0000000

LOEWDIN ATOMIC CHARGES
----------------------
   0 C :   -0.287355
   1 C :   -0.260134
   2 C :   -0.217421
   3 C :   -0.249659
   4 O :    0.178273
   5 C :   -0.256769
   6 C :   -0.247159
   7 O :    0.187530
   8 C :   -0.239787
   9 H :    0.129952
  10 H :    0.124785
  11 H :    0.123574
  12 H :    0.158601
  13 H :    0.143641
  14 H :    0.157494
  15 H :    0.135485
  16 H :    0.139365
  17 H :    0.139642
  18 H :    0.139941

  Mayer bond orders larger than 0.1
B(  0-C ,  1-C ) :   0.8944 B(  0-C ,  9-H ) :   0.9352 B(  0-C , 10-H ) :   0.9393
B(  0-C , 11-H ) :   0.9379 B(  1-C ,  2-C ) :   0.9388 B(  1-C ,  8-C ) :   0.9036
B(  1-C , 12-H ) :   0.9138 B(  2-C ,  3-C ) :   0.9089 B(  2-C , 13-H ) :   0.9278
B(  2-C , 14-H ) :   0.9053 B(  3-C ,  4-O ) :   0.9257 B(  3-C ,  5-C ) :   0.9815
B(  3-C , 15-H ) :   0.9296 B(  4-O ,  5-C ) :   0.9110 B(  5-C ,  6-C ) :   0.9311
B(  5-C , 16-H ) :   0.9194 B(  6-C ,  7-O ) :   0.8795 B(  6-C ,  8-C ) :   0.9513
B(  6-C , 17-H ) :   0.9213 B(  7-O ,  8-C ) :   0.9328 B(  8-C , 18-H ) :   0.9238

MP2 TOTAL ENERGY:     -422.293874703 Eh
FINAL SINGLE POINT ENERGY      -422.293874703394

DIPOLE MOMENT
-------------
                                X             Y             Z
Electronic contribution:      4.46594      -6.36546       1.04558
Nuclear contribution   :     -5.78210       6.46187      -0.87581
                        -----------------------------------------
Total Dipole Moment    :     -1.31616       0.09642       0.16977
                        -----------------------------------------
Magnitude (a.u.)       :      1.33056
Magnitude (Debye)      :      3.38202

                             ****ORCA TERMINATED NORMALLY****
TOTAL RUN TIME: 0 days 0 hours 18 minutes 26 seconds 535 msec
