                         Program Version 3.0.3 - RELEASE   -
|  1> ! RI-MP2 RIJK def2-TZVP def2-TZVP/C def2-TZVP/JK TIGHTSCF
|  2> % maxcore 2000
|  3> % mp2 density relaxed end
|  4> *xyz 0 1
|  5>  C       -0.1424924064     1.5804323397     0.2800115692
|  6>  C       -0.0468882045     0.0655408390     0.0756614555
|  7>  C        0.8234609476    -0.6125294073     1.1422708317
|  8>  C        0.8528745641    -2.1544838001     1.0891076366
|  9>  C        1.3569268527    -2.6970339469    -0.2490283736
| 10>  C        1.5004441047    -2.7897081257     2.3719134449
| 11>  C        0.1057653294    -3.2656224626     2.8782605872
| 12>  C       -0.4890724135    -2.7671221176     1.5529225159
| 13>  O       -1.5706826104    -2.8517064936     1.0429204904
| 14>  H        0.8471945257     2.0502699647     0.2476956097
| 15>  H       -0.7577411724     2.0475330493    -0.4950613418
| 16>  H       -0.5902270048     1.8219703326     1.2505725047
| 17>  H       -1.0487258450    -0.3781307957     0.0922900567
| 18>  H        0.3626589760    -0.1385742691    -0.9203530031
| 19>  H        1.8586539771    -0.2504211776     1.0640194249
| 20>  H        0.4716676937    -0.3008332434     2.1358526570
| 21>  H        2.3461416557    -2.2880166325    -0.4848230406
| 22>  H        1.4416531759    -3.7883442305    -0.2255676395
| 23>  H        0.6754338420    -2.4370507684    -1.0632859600
| 24>  H        2.1822319412    -3.6124431525     2.1461347846
| 25>  H        2.0133438252    -2.0797620499     3.0235546428
| 26>  H       -0.0215608169    -4.3360797520     3.0610343056
| 27>  H       -0.2809444970    -2.7260117097     3.7484819913
| 28> *
| 29>
| 30>                          ****END OF INPUT****

CARTESIAN COORDINATES (ANGSTROEM)
---------------------------------
  C     -0.142492    1.580432    0.280012
  C     -0.046888    0.065541    0.075661
  C      0.823461   -0.612529    1.142271
  C      0.852875   -2.154484    1.089108
  C      1.356927   -2.697034   -0.249028
  C      1.500444   -2.789708    2.371913
  C      0.105765   -3.265622    2.878261
  C     -0.489072   -2.767122    1.552923
  O     -1.570683   -2.851706    1.042920
  H      0.847195    2.050270    0.247696
  H     -0.757741    2.047533   -0.495061
  H     -0.590227    1.821970    1.250573
  H     -1.048726   -0.378131    0.092290
  H      0.362659   -0.138574   -0.920353
  H      1.858654   -0.250421    1.064019
  H      0.471668   -0.300833    2.135853
  H      2.346142   -2.288017   -0.484823
  H      1.441653   -3.788344   -0.225568
  H      0.675434   -2.437051   -1.063286
  H      2.182232   -3.612443    2.146135
  H      2.013344   -2.079762    3.023555
  H     -0.021561   -4.336080    3.061034
  H     -0.280944   -2.726012    3.748482

 Total Charge           Charge          ....    0
 Multiplicity           Mult            ....    1
 Number of Electrons    NEL             ....   70
 Basis Dimension        Dim             ....  363

ORBITAL ENERGIES
----------------

  NO   OCC          E(Eh)            E(eV)
   0   2.0000     -20.548249      -559.1463
   1   2.0000     -11.323610      -308.1311
   2   2.0000     -11.246159      -306.0235
   3   2.0000     -11.237603      -305.7907
   4   2.0000     -11.234160      -305.6970
   5   2.0000     -11.231103      -305.6138
   6   2.0000     -11.223995      -305.4204
   7   2.0000     -11.218104      -305.2601
   8   2.0000     -11.213052      -305.1227
   9   2.0000      -1.390273       -37.8313
  10   2.0000      -1.147750       -31.2319
  11   2.0000      -1.059396       -28.8276
  12   2.0000      -0.998310       -27.1654
  13   2.0000      -0.931452       -25.3461
  14   2.0000      -0.872395       -23.7391
  15   2.0000      -0.845941       -23.0192
  16   2.0000      -0.802316       -21.8321
  17   2.0000      -0.691210       -18.8088
  18   2.0000      -0.657917       -17.9028
  19   2.0000      -0.653497       -17.7825
  20   2.0000      -0.639476       -17.4010
  21   2.0000      -0.613011       -16.6809
  22   2.0000      -0.581532       -15.8243
  23   2.0000      -0.572788       -15.5864
  24   2.0000      -0.556015       -15.1299
  25   2.0000      -0.547459       -14.8971
  26   2.0000      -0.536063       -14.5870
  27   2.0000      -0.517706       -14.0875
  28   2.0000      -0.504821       -13.7369
  29   2.0000      -0.493975       -13.4418
  30   2.0000      -0.486099       -13.2274
  31   2.0000      -0.475758       -12.9460
  32   2.0000      -0.459148       -12.4940
  33   2.0000      -0.437266       -11.8986
  34   2.0000      -0.382489       -10.4080
  35   0.0000       0.127418         3.4672
  36   0.0000       0.134518         3.6604
  37   0.0000       0.149800         4.0763
  38   0.0000       0.154378         4.2008
  39   0.0000       0.167810         4.5664

MULLIKEN ATOMIC CHARGES
-----------------------
   0 C :   -0.386685
   1 C :   -0.227060
   2 C :   -0.310934
   3 C :    0.267179
   4 C :   -0.452107
   5 C :   -0.297273
   6 C :   -0.209434
   7 C :    0.054659
   8 O :   -0.260690
   9 H :    0.119810
  10 H :    0.136108
  11 H :    0.123880
  12 H :    0.140660
  13 H :    0.110885
  14 H :    0.121352
  15 H :    0.116463
  16 H :    0.136949
  17 H :    0.133700
  18 H :    0.154859
  19 H :    0.126682
  20 H :    0.126718
  21 H :    0.136457
  22 H :    0.137821
Sum of atomic charges:    0.0000000

LOEWDIN ATOMIC CHARGES
----------------------
   0 C :   -0.320156
   1 C :   -0.289065
   2 C :   -0.223634
   3 C :   -0.249768
   4 C :   -0.264412
   5 C :   -0.192452
   6 C :   -0.209559
   7 C :   -0.280904
   8 O :    0.161428
   9 H :    0.119632
  10 H :    0.121468
  11 H :    0.120269
  12 H :    0.143072
  13 H :    0.135361
  14 H :    0.143200
  15 H :    0.145204
  16 H :    0.129173
  17 H :    0.127979
  18 H :    0.132046
  19 H :    0.133299
  20 H :    0.131064
  21 H :    0.141337
  22 H :    0.145418

  Mayer bond orders larger than 0.1
B(  0-C ,  1-C ) :   0.9152 B(  0-C ,  9-H ) :   0.9370 B(  0-C , 10-H ) :   0.9438
B(  0-C , 11-H ) :   0.9420 B(  1-C ,  2-C ) :   0.9285 B(  1-C , 12-H ) :   0.9309
B(  1-C , 13-H ) :   0.9336 B(  2-C ,  3-C ) :   0.8995 B(  2-C , 14-H ) :   0.9311
B(  2-C , 15-H ) :   0.9180 B(  3-C ,  4-C ) :   0.8746 B(  3-C ,  5-C ) :   0.8749
B(  3-C ,  6-C ) :  -0.1319 B(  3-C ,  7-C ) :   0.7713 B(  4-C , 16-H ) :   0.9375
B(  4-C , 17-H ) :   0.9292 B(  4-C , 18-H ) :   0.9379 B(  5-C ,  6-C ) :   0.9700
B(  5-C , 19-H ) :   0.9207 B(  5-C , 20-H ) :   0.9256 B(  6-C ,  7-C ) :   0.9322
B(  6-C , 21-H ) :   0.9028 B(  6-C , 22-H ) :   0.8990 B(  7-C ,  8-O ) :   2.0261

MP2 TOTAL ENERGY:     -387.629192039 Eh
FINAL SINGLE POINT ENERGY      -387.629192038571

DIPOLE MOMENT
-------------
                                X             Y             Z
Electronic contribution:     -4.63286      -6.70749       2.16466
Nuclear contribution   :      5.55270       6.85416      -1.84847
                        -----------------------------------------
Total Dipole Moment    :      0.91984       0.14668       0.31619
                        -----------------------------------------
Magnitude (a.u.)       :      0.98367
Magnitude (Debye)      :      2.50028

                             ****ORCA TERMINATED NORMALLY****
TOTAL RUN TIME: 0 days 0 hours 21 minutes 5 seconds 62 msec
