                         Program Version 3.0.3 - RELEASE   -
|  1> ! RI-MP2 RIJK def2-TZVP def2-TZVP/C def2-TZVP/JK TIGHTSCF
|  2> % maxcore 2000
|  3> % mp2 density relaxed end
|  4> *xyz 0 1
|  5>  C       -0.0399904103     1.5507126205     0.0742424871
|  6>  C        0.0119487317     0.0209060097     0.0207099701
|  7>  C        1.1186974950    -0.6231041100    -0.9270159212
|  8>  C        1.7380192650    -1.2885999750     0.3025885371
|  9>  N        2.1201606409    -0.1868497996     1.2209813302
| 10>  C        0.7272605061    -0.6862304525     1.2059079113
| 11>  C       -1.3019122673    -0.5556644218    -0.2208343747
| 12>  C       -2.3926489836    -1.0259574261    -0.4111347650
| 13>  H        0.9503595348     1.9404926654     0.3182601829
| 14>  H       -0.3576260116     1.9578460400    -0.8904460279
| 15>  H       -0.7524451901     1.8876049342     0.8334464359
| 16>  H        0.6832520645    -1.3256225249    -1.6377995671
| 17>  H        1.7623532036     0.0916490536    -1.4455791124
| 18>  H        2.2312344735    -2.2508182274     0.3565632726
| 19>  H        2.5758808397    -0.6077761540     2.0301521837
| 20>  H        0.2529490653    -1.0732123708     2.0992497664
| 21>  H       -3.3554988072    -1.4388977913    -0.5830667191
| 22> *
| 23>
| 24>                          ****END OF INPUT****

CARTESIAN COORDINATES (ANGSTROEM)
---------------------------------
  C     -0.039990    1.550713    0.074242
  C      0.011949    0.020906    0.020710
  C      1.118697   -0.623104   -0.927016
  C      1.738019   -1.288600    0.302589
  N      2.120161   -0.186850    1.220981
  C      0.727261   -0.686230    1.205908
  C     -1.301912   -0.555664   -0.220834
  C     -2.392649   -1.025957   -0.411135
  H      0.950360    1.940493    0.318260
  H     -0.357626    1.957846   -0.890446
  H     -0.752445    1.887605    0.833446
  H      0.683252   -1.325623   -1.637800
  H      1.762353    0.091649   -1.445579
  H      2.231234   -2.250818    0.356563
  H      2.575881   -0.607776    2.030152
  H      0.252949   -1.073212    2.099250
  H     -3.355499   -1.438898   -0.583067

 Total Charge           Charge          ....    0
 Multiplicity           Mult            ....    1
 Number of Electrons    NEL             ....   58
 Basis Dimension        Dim             ....  302

ORBITAL ENERGIES
----------------

  NO   OCC          E(Eh)            E(eV)
   0   2.0000     -15.564046      -423.5192
   1   2.0000     -11.266470      -306.5762
   2   2.0000     -11.265290      -306.5441
   3   2.0000     -11.264428      -306.5207
   4   2.0000     -11.233498      -305.6790
   5   2.0000     -11.230515      -305.5978
   6   2.0000     -11.219443      -305.2966
   7   2.0000     -11.212639      -305.1114
   8   2.0000      -1.285597       -34.9829
   9   2.0000      -1.098657       -29.8960
  10   2.0000      -1.007203       -27.4074
  11   2.0000      -0.967697       -26.3324
  12   2.0000      -0.885673       -24.1004
  13   2.0000      -0.834702       -22.7134
  14   2.0000      -0.773565       -21.0498
  15   2.0000      -0.727588       -19.7987
  16   2.0000      -0.698947       -19.0193
  17   2.0000      -0.620201       -16.8765
  18   2.0000      -0.610042       -16.6001
  19   2.0000      -0.588443       -16.0123
  20   2.0000      -0.555345       -15.1117
  21   2.0000      -0.535008       -14.5583
  22   2.0000      -0.519610       -14.1393
  23   2.0000      -0.478671       -13.0253
  24   2.0000      -0.462967       -12.5980
  25   2.0000      -0.460524       -12.5315
  26   2.0000      -0.386291       -10.5115
  27   2.0000      -0.375940       -10.2298
  28   2.0000      -0.366256        -9.9663
  29   0.0000       0.139308         3.7908
  30   0.0000       0.151979         4.1356
  31   0.0000       0.164189         4.4678
  32   0.0000       0.168751         4.5919
  33   0.0000       0.177462         4.8290

MULLIKEN ATOMIC CHARGES
-----------------------
   0 C :   -0.434632
   1 C :    0.139814
   2 C :   -0.197485
   3 C :   -0.138574
   4 N :   -0.377210
   5 C :   -0.084255
   6 C :   -0.113679
   7 C :   -0.156566
   8 H :    0.159004
   9 H :    0.133278
  10 H :    0.130236
  11 H :    0.138564
  12 H :    0.110564
  13 H :    0.139064
  14 H :    0.217652
  15 H :    0.145021
  16 H :    0.189204
Sum of atomic charges:    0.0000000

LOEWDIN ATOMIC CHARGES
----------------------
   0 C :   -0.253010
   1 C :   -0.239036
   2 C :   -0.153583
   3 C :   -0.231913
   4 N :    0.001556
   5 C :   -0.187701
   6 C :   -0.067398
   7 C :   -0.097885
   8 H :    0.132609
   9 H :    0.128918
  10 H :    0.129176
  11 H :    0.141831
  12 H :    0.135066
  13 H :    0.128608
  14 H :    0.172710
  15 H :    0.133817
  16 H :    0.126235

  Mayer bond orders larger than 0.1
B(  0-C ,  1-C ) :   0.9017 B(  0-C ,  8-H ) :   0.9328 B(  0-C ,  9-H ) :   0.9323
B(  0-C , 10-H ) :   0.9340 B(  1-C ,  2-C ) :   0.9093 B(  1-C ,  5-C ) :   0.8257
B(  1-C ,  6-C ) :   1.1927 B(  1-C ,  7-C ) :  -0.1141 B(  2-C ,  3-C ) :   0.9576
B(  2-C , 11-H ) :   0.9277 B(  2-C , 12-H ) :   0.8890 B(  3-C ,  4-N ) :   0.9696
B(  3-C ,  5-C ) :   0.9269 B(  3-C , 13-H ) :   0.9181 B(  4-N ,  5-C ) :   0.9253
B(  4-N , 14-H ) :   0.8691 B(  5-C , 15-H ) :   0.9112 B(  6-C ,  7-C ) :   2.5595
B(  7-C , 16-H ) :   0.8864

MP2 TOTAL ENERGY:     -326.049913808 Eh
FINAL SINGLE POINT ENERGY      -326.049913807705

DIPOLE MOMENT
-------------
                                X             Y             Z
Electronic contribution:     -1.16133      -2.50989       0.67696
Nuclear contribution   :      1.22798       1.97214      -0.45581
                        -----------------------------------------
Total Dipole Moment    :      0.06665      -0.53775       0.22115
                        -----------------------------------------
Magnitude (a.u.)       :      0.58525
Magnitude (Debye)      :      1.48760

                             ****ORCA TERMINATED NORMALLY****
TOTAL RUN TIME: 0 days 0 hours 12 minutes 35 seconds 322 msec
