                         Program Version 3.0.3 - RELEASE   -
|  1> ! RI-MP2 RIJK def2-TZVP def2-TZVP/C def2-TZVP/JK TIGHTSCF
|  2> % maxcore 2000
|  3> % mp2 density relaxed end
|  4> *xyz 0 1
|  5>  C        0.0262041208     1.4538262167     0.0153414037
|  6>  N       -0.0104993480     0.0096926742     0.0655038388
|  7>  C       -0.1399283675    -0.7653491373    -1.0650535155
|  8>  O       -0.2394322073    -0.4241761074    -2.2160752176
|  9>  O       -0.1360398801    -2.0710430177    -0.6314748809
| 10>  C       -0.0052129406    -2.0824920733     0.7503172853
| 11>  C        0.0189993692    -3.4133973177     1.4024164046
| 12>  C        0.0735851638    -0.8184220450     1.1994442718
| 13>  C        0.2192272022    -0.2690694597     2.5749131313
| 14>  H        0.9701324698     1.8449513820     0.4098095188
| 15>  H       -0.0660453759     1.7366200604    -1.0344250435
| 16>  H       -0.8021682860     1.8958248825     0.5792639718
| 17>  H        0.8536321664    -4.0211449960     1.0340764119
| 18>  H        0.1251189601    -3.3076928649     2.4842554988
| 19>  H       -0.9030437004    -3.9711926857     1.2015658261
| 20>  H        0.2675804970    -1.0801134655     3.3040964577
| 21>  H        1.1321259339     0.3293637950     2.6794074723
| 22>  H       -0.6251520674     0.3754528392     2.8470810048
| 23> *
| 24>
| 25>                          ****END OF INPUT****

CARTESIAN COORDINATES (ANGSTROEM)
---------------------------------
  C      0.026204    1.453826    0.015341
  N     -0.010499    0.009693    0.065504
  C     -0.139928   -0.765349   -1.065054
  O     -0.239432   -0.424176   -2.216075
  O     -0.136040   -2.071043   -0.631475
  C     -0.005213   -2.082492    0.750317
  C      0.018999   -3.413397    1.402416
  C      0.073585   -0.818422    1.199444
  C      0.219227   -0.269069    2.574913
  H      0.970132    1.844951    0.409810
  H     -0.066045    1.736620   -1.034425
  H     -0.802168    1.895825    0.579264
  H      0.853632   -4.021145    1.034076
  H      0.125119   -3.307693    2.484255
  H     -0.903044   -3.971193    1.201566
  H      0.267580   -1.080113    3.304096
  H      1.132126    0.329364    2.679407
  H     -0.625152    0.375453    2.847081

 Total Charge           Charge          ....    0
 Multiplicity           Mult            ....    1
 Number of Electrons    NEL             ....   68
 Basis Dimension        Dim             ....  333

ORBITAL ENERGIES
----------------

  NO   OCC          E(Eh)            E(eV)
   0   2.0000     -20.614371      -560.9455
   1   2.0000     -20.519302      -558.3586
   2   2.0000     -15.608373      -424.7254
   3   2.0000     -11.396613      -310.1176
   4   2.0000     -11.294319      -307.3340
   5   2.0000     -11.281895      -306.9960
   6   2.0000     -11.274764      -306.8019
   7   2.0000     -11.253657      -306.2276
   8   2.0000     -11.243327      -305.9465
   9   2.0000      -1.480420       -40.2843
  10   2.0000      -1.364201       -37.1218
  11   2.0000      -1.271877       -34.6095
  12   2.0000      -1.085207       -29.5300
  13   2.0000      -1.014026       -27.5930
  14   2.0000      -0.986675       -26.8488
  15   2.0000      -0.911463       -24.8022
  16   2.0000      -0.807430       -21.9713
  17   2.0000      -0.806215       -21.9382
  18   2.0000      -0.690915       -18.8008
  19   2.0000      -0.690799       -18.7976
  20   2.0000      -0.639398       -17.3989
  21   2.0000      -0.624567       -16.9953
  22   2.0000      -0.614283       -16.7155
  23   2.0000      -0.594478       -16.1766
  24   2.0000      -0.591981       -16.1086
  25   2.0000      -0.578885       -15.7523
  26   2.0000      -0.574773       -15.6404
  27   2.0000      -0.567001       -15.4289
  28   2.0000      -0.563162       -15.3244
  29   2.0000      -0.536271       -14.5927
  30   2.0000      -0.500464       -13.6183
  31   2.0000      -0.455540       -12.3959
  32   2.0000      -0.450713       -12.2645
  33   2.0000      -0.308645        -8.3986
  34   0.0000       0.117196         3.1891
  35   0.0000       0.146925         3.9980
  36   0.0000       0.170767         4.6468
  37   0.0000       0.171795         4.6748
  38   0.0000       0.185982         5.0608

MULLIKEN ATOMIC CHARGES
-----------------------
   0 C :   -0.337077
   1 N :   -0.075633
   2 C :    0.305329
   3 O :   -0.358703
   4 O :   -0.220030
   5 C :    0.156310
   6 C :   -0.410231
   7 C :   -0.033371
   8 C :   -0.385292
   9 H :    0.143236
  10 H :    0.187952
  11 H :    0.143194
  12 H :    0.153184
  13 H :    0.135356
  14 H :    0.153188
  15 H :    0.142499
  16 H :    0.149999
  17 H :    0.150091
Sum of atomic charges:    0.0000000

LOEWDIN ATOMIC CHARGES
----------------------
   0 C :   -0.272956
   1 N :    0.219038
   2 C :   -0.524721
   3 O :    0.077815
   4 O :    0.323122
   5 C :   -0.259647
   6 C :   -0.270303
   7 C :   -0.225703
   8 C :   -0.266193
   9 H :    0.121066
  10 H :    0.141565
  11 H :    0.121077
  12 H :    0.136939
  13 H :    0.135369
  14 H :    0.136926
  15 H :    0.137957
  16 H :    0.134318
  17 H :    0.134331

  Mayer bond orders larger than 0.1
B(  0-C ,  1-N ) :   0.8601 B(  0-C ,  9-H ) :   0.9328 B(  0-C , 10-H ) :   0.9192
B(  0-C , 11-H ) :   0.9327 B(  1-N ,  2-C ) :   1.1249 B(  1-N ,  7-C ) :   1.0589
B(  2-C ,  3-O ) :   1.9677 B(  2-C ,  4-O ) :   1.0558 B(  4-O ,  5-C ) :   0.9920
B(  5-C ,  6-C ) :   0.8759 B(  5-C ,  7-C ) :   1.6775 B(  6-C , 12-H ) :   0.9285
B(  6-C , 13-H ) :   0.9532 B(  6-C , 14-H ) :   0.9285 B(  7-C ,  8-C ) :   0.8648
B(  8-C , 15-H ) :   0.9422 B(  8-C , 16-H ) :   0.9342 B(  8-C , 17-H ) :   0.9342

MP2 TOTAL ENERGY:     -438.428036580 Eh
FINAL SINGLE POINT ENERGY      -438.428036579513

DIPOLE MOMENT
-------------
                                X             Y             Z
Electronic contribution:     -0.87480      -1.56469      -8.74548
Nuclear contribution   :      1.07961       1.93977      10.79091
                        -----------------------------------------
Total Dipole Moment    :      0.20482       0.37508       2.04544
                        -----------------------------------------
Magnitude (a.u.)       :      2.08960
Magnitude (Debye)      :      5.31135

                             ****ORCA TERMINATED NORMALLY****
TOTAL RUN TIME: 0 days 0 hours 17 minutes 10 seconds 99 msec
