                         Program Version 3.0.3 - RELEASE   -
|  1> ! RI-MP2 RIJK def2-TZVP def2-TZVP/C def2-TZVP/JK TIGHTSCF
|  2> % maxcore 2000
|  3> % mp2 density relaxed end
|  4> *xyz 0 1
|  5>  N        0.0508259862     1.3810410930    -0.0793832110
|  6>  C        0.0191825962     0.0153226906    -0.0484989272
|  7>  C       -1.2028073653    -0.6673805180    -0.1102986488
|  8>  O       -2.3738706720     0.0380136582    -0.1523109243
|  9>  C       -1.1293265035    -2.0498938951    -0.1161501785
| 10>  O       -2.2951013892    -2.7386348864    -0.1697305234
| 11>  N        0.0158197741    -2.7257475775    -0.0688059694
| 12>  C        1.1164823452    -1.9756256457    -0.0081220467
| 13>  N        1.1847754393    -0.6498115750     0.0083950969
| 14>  H        0.9184550664     1.8043004079     0.2078407786
| 15>  H       -0.7981603140     1.8706000043     0.1507316331
| 16>  H       -3.1005145965    -0.5959707307    -0.1709914223
| 17>  H       -2.0585051904    -3.6759916777    -0.1632376602
| 18>  H        2.0619473635    -2.5097664979     0.0358251131
| 19> *
| 20>
| 21>                          ****END OF INPUT****

CARTESIAN COORDINATES (ANGSTROEM)
---------------------------------
  N      0.050826    1.381041   -0.079383
  C      0.019183    0.015323   -0.048499
  C     -1.202807   -0.667381   -0.110299
  O     -2.373871    0.038014   -0.152311
  C     -1.129327   -2.049894   -0.116150
  O     -2.295101   -2.738635   -0.169731
  N      0.015820   -2.725748   -0.068806
  C      1.116482   -1.975626   -0.008122
  N      1.184775   -0.649812    0.008395
  H      0.918455    1.804300    0.207841
  H     -0.798160    1.870600    0.150732
  H     -3.100515   -0.595971   -0.170991
  H     -2.058505   -3.675992   -0.163238
  H      2.061947   -2.509766    0.035825

 Total Charge           Charge          ....    0
 Multiplicity           Mult            ....    1
 Number of Electrons    NEL             ....   66
 Basis Dimension        Dim             ....  309

ORBITAL ENERGIES
----------------

  NO   OCC          E(Eh)            E(eV)
   0   2.0000     -20.613663      -560.9263
   1   2.0000     -20.594202      -560.3967
   2   2.0000     -15.579608      -423.9427
   3   2.0000     -15.560911      -423.4339
   4   2.0000     -15.556538      -423.3149
   5   2.0000     -11.352409      -308.9147
   6   2.0000     -11.333659      -308.4045
   7   2.0000     -11.312347      -307.8246
   8   2.0000     -11.291250      -307.2505
   9   2.0000      -1.447202       -39.3804
  10   2.0000      -1.405635       -38.2493
  11   2.0000      -1.312471       -35.7142
  12   2.0000      -1.240169       -33.7467
  13   2.0000      -1.161203       -31.5979
  14   2.0000      -1.043118       -28.3847
  15   2.0000      -0.892597       -24.2888
  16   2.0000      -0.890070       -24.2200
  17   2.0000      -0.787449       -21.4276
  18   2.0000      -0.757132       -20.6026
  19   2.0000      -0.726063       -19.7572
  20   2.0000      -0.693227       -18.8637
  21   2.0000      -0.650558       -17.7026
  22   2.0000      -0.645561       -17.5666
  23   2.0000      -0.632318       -17.2062
  24   2.0000      -0.592239       -16.1156
  25   2.0000      -0.589195       -16.0328
  26   2.0000      -0.582163       -15.8415
  27   2.0000      -0.552946       -15.0464
  28   2.0000      -0.487943       -13.2776
  29   2.0000      -0.480577       -13.0772
  30   2.0000      -0.422600       -11.4995
  31   2.0000      -0.382695       -10.4137
  32   2.0000      -0.320887        -8.7318
  33   0.0000       0.132220         3.5979
  34   0.0000       0.134530         3.6608
  35   0.0000       0.136939         3.7263
  36   0.0000       0.152925         4.1613
  37   0.0000       0.173112         4.7106

MULLIKEN ATOMIC CHARGES
-----------------------
   0 N :   -0.489589
   1 C :    0.222527
   2 C :    0.082513
   3 O :   -0.460251
   4 C :    0.279142
   5 O :   -0.460063
   6 N :   -0.299036
   7 C :    0.049443
   8 N :   -0.290018
   9 H :    0.262769
  10 H :    0.269460
  11 H :    0.353347
  12 H :    0.347743
  13 H :    0.132012
Sum of atomic charges:   -0.0000000

LOEWDIN ATOMIC CHARGES
----------------------
   0 N :   -0.017765
   1 C :   -0.309785
   2 C :   -0.247657
   3 O :    0.065739
   4 C :   -0.369916
   5 O :    0.067748
   6 N :    0.107350
   7 C :   -0.309533
   8 N :    0.122880
   9 H :    0.176503
  10 H :    0.176507
  11 H :    0.201264
  12 H :    0.202977
  13 H :    0.133690

  Mayer bond orders larger than 0.1
B(  0-N ,  1-C ) :   1.1456 B(  0-N ,  9-H ) :   0.8615 B(  0-N , 10-H ) :   0.8628
B(  1-C ,  2-C ) :   1.2976 B(  1-C ,  8-N ) :   1.3602 B(  2-C ,  3-O ) :   1.0815
B(  2-C ,  4-C ) :   1.3044 B(  3-O , 11-H ) :   0.8172 B(  4-C ,  5-O ) :   1.0786
B(  4-C ,  6-N ) :   1.3477 B(  5-O , 12-H ) :   0.8105 B(  6-N ,  7-C ) :   1.3905
B(  7-C ,  8-N ) :   1.4310 B(  7-C , 13-H ) :   0.9384

MP2 TOTAL ENERGY:     -469.330323936 Eh
FINAL SINGLE POINT ENERGY      -469.330323936413

DIPOLE MOMENT
-------------
                                X             Y             Z
Electronic contribution:     -0.60163      -1.67953      -0.16705
Nuclear contribution   :     -0.07682       1.89636       0.44037
                        -----------------------------------------
Total Dipole Moment    :     -0.67846       0.21683       0.27332
                        -----------------------------------------
Magnitude (a.u.)       :      0.76290
Magnitude (Debye)      :      1.93915

                             ****ORCA TERMINATED NORMALLY****
TOTAL RUN TIME: 0 days 0 hours 13 minutes 47 seconds 414 msec
