                         Program Version 3.0.3 - RELEASE   -
|  1> ! RI-MP2 RIJK def2-TZVP def2-TZVP/C def2-TZVP/JK TIGHTSCF
|  2> % maxcore 2000
|  3> % mp2 density relaxed end
|  4> *xyz 0 1
|  5>  O       -0.3740852466     0.4840215249     0.8221185102
|  6>  C        0.0351264822     1.0483078893    -0.1586344200
|  7>  C        1.1809596940     2.0334939956    -0.1414520443
|  8>  C        1.0923524832     3.4099396648    -0.8972861947
|  9>  C        1.4904762008     4.1048643367     0.4132355235
| 10>  C        0.4621547065     3.8228057965     1.4878476259
| 11>  C       -0.9390554449     3.7052681326     1.1796796527
| 12>  N       -2.0591478921     3.6395092959     0.8974165306
| 13>  C        1.5064028680     2.7734866934     1.1562256100
| 14>  H       -0.3915519938     0.8456724110    -1.1676191678
| 15>  H        2.0604337277     1.4878272433    -0.5061040989
| 16>  H        1.8419097771     3.5070621368    -1.6831373509
| 17>  H        0.1136583329     3.6865216209    -1.2987334812
| 18>  H        2.1580628694     4.9523633834     0.5020582631
| 19>  H        0.6561132629     4.3284940286     2.4288587887
| 20>  H        2.1711691125     2.4237651861     1.9352616631
| 21> *
| 22>
| 23>                          ****END OF INPUT****

CARTESIAN COORDINATES (ANGSTROEM)
---------------------------------
  O     -0.374085    0.484022    0.822119
  C      0.035126    1.048308   -0.158634
  C      1.180960    2.033494   -0.141452
  C      1.092352    3.409940   -0.897286
  C      1.490476    4.104864    0.413236
  C      0.462155    3.822806    1.487848
  C     -0.939055    3.705268    1.179680
  N     -2.059148    3.639509    0.897417
  C      1.506403    2.773487    1.156226
  H     -0.391552    0.845672   -1.167619
  H      2.060434    1.487827   -0.506104
  H      1.841910    3.507062   -1.683137
  H      0.113658    3.686522   -1.298733
  H      2.158063    4.952363    0.502058
  H      0.656113    4.328494    2.428859
  H      2.171169    2.423765    1.935262

 Total Charge           Charge          ....    0
 Multiplicity           Mult            ....    1
 Number of Electrons    NEL             ....   64
 Basis Dimension        Dim             ....  321

ORBITAL ENERGIES
----------------

  NO   OCC          E(Eh)            E(eV)
   0   2.0000     -20.560687      -559.4847
   1   2.0000     -15.568665      -423.6449
   2   2.0000     -11.336754      -308.4887
   3   2.0000     -11.293195      -307.3035
   4   2.0000     -11.277336      -306.8719
   5   2.0000     -11.276673      -306.8539
   6   2.0000     -11.273653      -306.7717
   7   2.0000     -11.270633      -306.6895
   8   2.0000     -11.262388      -306.4652
   9   2.0000      -1.400389       -38.1065
  10   2.0000      -1.243794       -33.8454
  11   2.0000      -1.207379       -32.8544
  12   2.0000      -1.050007       -28.5721
  13   2.0000      -0.953007       -25.9326
  14   2.0000      -0.907312       -24.6892
  15   2.0000      -0.830882       -22.6094
  16   2.0000      -0.756493       -20.5852
  17   2.0000      -0.738176       -20.0868
  18   2.0000      -0.691083       -18.8053
  19   2.0000      -0.682515       -18.5722
  20   2.0000      -0.646546       -17.5934
  21   2.0000      -0.602393       -16.3919
  22   2.0000      -0.586240       -15.9524
  23   2.0000      -0.559700       -15.2302
  24   2.0000      -0.546951       -14.8833
  25   2.0000      -0.517618       -14.0851
  26   2.0000      -0.503281       -13.6950
  27   2.0000      -0.496482       -13.5100
  28   2.0000      -0.470164       -12.7938
  29   2.0000      -0.445290       -12.1170
  30   2.0000      -0.418167       -11.3789
  31   2.0000      -0.409498       -11.1430
  32   0.0000       0.114491         3.1155
  33   0.0000       0.131336         3.5738
  34   0.0000       0.144502         3.9321
  35   0.0000       0.149563         4.0698
  36   0.0000       0.160866         4.3774

MULLIKEN ATOMIC CHARGES
-----------------------
   0 O :   -0.250497
   1 C :    0.067464
   2 C :   -0.040557
   3 C :   -0.270852
   4 C :   -0.080931
   5 C :   -0.071151
   6 C :   -0.182187
   7 N :   -0.052987
   8 C :   -0.092395
   9 H :    0.086928
  10 H :    0.133115
  11 H :    0.139207
  12 H :    0.152974
  13 H :    0.149950
  14 H :    0.160296
  15 H :    0.151622
Sum of atomic charges:   -0.0000000

LOEWDIN ATOMIC CHARGES
----------------------
   0 O :    0.151618
   1 C :   -0.276200
   2 C :   -0.203597
   3 C :   -0.175193
   4 C :   -0.134427
   5 C :   -0.175922
   6 C :   -0.173711
   7 N :    0.068397
   8 C :   -0.113275
   9 H :    0.114841
  10 H :    0.172289
  11 H :    0.138601
  12 H :    0.140886
  13 H :    0.141381
  14 H :    0.179561
  15 H :    0.144749

  Mayer bond orders larger than 0.1
B(  0-O ,  1-C ) :   2.0127 B(  1-C ,  2-C ) :   0.8617 B(  1-C ,  9-H ) :   0.9422
B(  2-C ,  3-C ) :   0.9494 B(  2-C ,  8-C ) :   0.9167 B(  2-C , 10-H ) :   0.8955
B(  3-C ,  4-C ) :   0.9375 B(  3-C , 11-H ) :   0.9278 B(  3-C , 12-H ) :   0.9138
B(  4-C ,  5-C ) :   0.8606 B(  4-C ,  8-C ) :   0.8232 B(  4-C , 13-H ) :   0.9213
B(  5-C ,  6-C ) :   0.9837 B(  5-C ,  8-C ) :   0.8568 B(  5-C , 14-H ) :   0.9102
B(  6-C ,  7-N ) :   2.8225 B(  8-C , 15-H ) :   0.9170

MP2 TOTAL ENERGY:     -400.039956353 Eh
FINAL SINGLE POINT ENERGY      -400.039956353448

DIPOLE MOMENT
-------------
                                X             Y             Z
Electronic contribution:     -4.27089      -1.36129       2.66064
Nuclear contribution   :      6.32889       1.93935      -3.18105
                        -----------------------------------------
Total Dipole Moment    :      2.05800       0.57807      -0.52041
                        -----------------------------------------
Magnitude (a.u.)       :      2.20008
Magnitude (Debye)      :      5.59216

                             ****ORCA TERMINATED NORMALLY****
TOTAL RUN TIME: 0 days 0 hours 18 minutes 32 seconds 292 msec
