                         Program Version 3.0.3 - RELEASE   -
|  1> ! RI-MP2 RIJK def2-TZVP def2-TZVP/C def2-TZVP/JK TIGHTSCF
|  2> % maxcore 2000
|  3> % mp2 density relaxed end
|  4> *xyz 0 1
|  5>  O        0.3491633069     1.2920330339    -0.3202886869
|  6>  C        0.1139501690    -0.0531756282    -0.0927835657
|  7>  C        0.0353527327    -0.6493429714     1.3733169854
|  8>  C       -1.4374154104    -0.0689434279     1.4649772237
|  9>  C       -1.6466386802     1.3485810484     1.6842097849
| 10>  C       -1.8689965559     2.5096374557     1.9149674112
| 11>  C       -1.3556190937    -0.6404061871    -0.0118586527
| 12>  C       -0.6594897542    -1.8250011856     0.6724741639
| 13>  O       -0.6575127627    -3.0151207279     0.6628074661
| 14>  H       -0.2168183422     1.8285455723     0.2513955693
| 15>  H        0.7803921336    -0.5966042040    -0.7655202318
| 16>  H        0.7915120866    -0.6433567688     2.1544274064
| 17>  H       -2.0998813454    -0.6341488494     2.1265693817
| 18>  H       -2.0602625422     3.5358374421     2.1136411924
| 19>  H       -2.1398122519    -0.6245343222    -0.7646773279
| 20> *
| 21>
| 22>                          ****END OF INPUT****

CARTESIAN COORDINATES (ANGSTROEM)
---------------------------------
  O      0.349163    1.292033   -0.320289
  C      0.113950   -0.053176   -0.092784
  C      0.035353   -0.649343    1.373317
  C     -1.437415   -0.068943    1.464977
  C     -1.646639    1.348581    1.684210
  C     -1.868997    2.509637    1.914967
  C     -1.355619   -0.640406   -0.011859
  C     -0.659490   -1.825001    0.672474
  O     -0.657513   -3.015121    0.662807
  H     -0.216818    1.828546    0.251396
  H      0.780392   -0.596604   -0.765520
  H      0.791512   -0.643357    2.154427
  H     -2.099881   -0.634149    2.126569
  H     -2.060263    3.535837    2.113641
  H     -2.139812   -0.624534   -0.764677

 Total Charge           Charge          ....    0
 Multiplicity           Mult            ....    1
 Number of Electrons    NEL             ....   64
 Basis Dimension        Dim             ....  315

ORBITAL ENERGIES
----------------

  NO   OCC          E(Eh)            E(eV)
   0   2.0000     -20.572762      -559.8133
   1   2.0000     -20.567874      -559.6803
   2   2.0000     -11.357332      -309.0487
   3   2.0000     -11.325579      -308.1847
   4   2.0000     -11.302779      -307.5643
   5   2.0000     -11.278854      -306.9132
   6   2.0000     -11.278839      -306.9128
   7   2.0000     -11.265509      -306.5501
   8   2.0000     -11.254894      -306.2612
   9   2.0000      -1.415954       -38.5301
  10   2.0000      -1.391212       -37.8568
  11   2.0000      -1.234315       -33.5874
  12   2.0000      -1.072287       -29.1784
  13   2.0000      -0.954138       -25.9634
  14   2.0000      -0.910080       -24.7645
  15   2.0000      -0.872992       -23.7553
  16   2.0000      -0.762056       -20.7366
  17   2.0000      -0.747433       -20.3387
  18   2.0000      -0.718907       -19.5625
  19   2.0000      -0.692944       -18.8560
  20   2.0000      -0.667046       -18.1512
  21   2.0000      -0.632948       -17.2234
  22   2.0000      -0.607111       -16.5203
  23   2.0000      -0.586269       -15.9532
  24   2.0000      -0.561147       -15.2696
  25   2.0000      -0.544221       -14.8090
  26   2.0000      -0.527422       -14.3519
  27   2.0000      -0.497570       -13.5396
  28   2.0000      -0.452060       -12.3012
  29   2.0000      -0.415151       -11.2968
  30   2.0000      -0.410566       -11.1721
  31   2.0000      -0.389053       -10.5867
  32   0.0000       0.135163         3.6780
  33   0.0000       0.138931         3.7805
  34   0.0000       0.140780         3.8308
  35   0.0000       0.153081         4.1655
  36   0.0000       0.164817         4.4849

MULLIKEN ATOMIC CHARGES
-----------------------
   0 O :   -0.441082
   1 C :    0.033723
   2 C :   -0.060741
   3 C :   -0.342304
   4 C :   -0.048618
   5 C :   -0.070534
   6 C :   -0.060746
   7 C :    0.104706
   8 O :   -0.239784
   9 H :    0.330600
  10 H :    0.125709
  11 H :    0.158977
  12 H :    0.146342
  13 H :    0.204774
  14 H :    0.158977
Sum of atomic charges:   -0.0000000

LOEWDIN ATOMIC CHARGES
----------------------
   0 O :    0.022515
   1 C :   -0.274884
   2 C :   -0.097149
   3 C :   -0.160977
   4 C :   -0.108998
   5 C :   -0.084469
   6 C :   -0.097152
   7 C :   -0.285012
   8 O :    0.177753
   9 H :    0.184034
  10 H :    0.147016
  11 H :    0.135811
  12 H :    0.173597
  13 H :    0.132104
  14 H :    0.135811

  Mayer bond orders larger than 0.1
B(  0-O ,  1-C ) :   1.0040 B(  0-O ,  9-H ) :   0.8058 B(  1-C ,  2-C ) :   0.8513
B(  1-C ,  6-C ) :   0.8513 B(  1-C , 10-H ) :   0.9411 B(  2-C ,  3-C ) :   0.8503
B(  2-C ,  7-C ) :   0.8330 B(  2-C , 11-H ) :   0.8821 B(  3-C ,  4-C ) :   1.1895
B(  3-C ,  5-C ) :  -0.1886 B(  3-C ,  6-C ) :   0.8503 B(  3-C , 12-H ) :   0.9437
B(  4-C ,  5-C ) :   2.6151 B(  5-C , 13-H ) :   0.8645 B(  6-C ,  7-C ) :   0.8330
B(  6-C , 14-H ) :   0.8821 B(  7-C ,  8-O ) :   2.0617

MP2 TOTAL ENERGY:     -419.831512143 Eh
FINAL SINGLE POINT ENERGY      -419.831512142837

DIPOLE MOMENT
-------------
                                X             Y             Z
Electronic contribution:     -0.03259      -2.57539       0.01618
Nuclear contribution   :     -0.38924       3.46080       0.41306
                        -----------------------------------------
Total Dipole Moment    :     -0.42182       0.88540       0.42923
                        -----------------------------------------
Magnitude (a.u.)       :      1.07057
Magnitude (Debye)      :      2.72117

                             ****ORCA TERMINATED NORMALLY****
TOTAL RUN TIME: 0 days 0 hours 14 minutes 0 seconds 692 msec
