                         Program Version 3.0.3 - RELEASE   -
|  1> ! RI-MP2 RIJK def2-TZVP def2-TZVP/C def2-TZVP/JK TIGHTSCF
|  2> % maxcore 2000
|  3> % mp2 density relaxed end
|  4> *xyz 0 1
|  5>  C        0.6502834745     0.2270500363    -1.3611094045
|  6>  C        0.0639624698     0.0428037142     0.0277815418
|  7>  C        0.9754957487    -0.5351929110     1.0883847091
|  8>  C        0.5963854582     0.9232063472     1.1378181681
|  9>  C       -1.3763156836    -0.4410385415     0.0317295746
| 10>  C       -2.4331947841     0.0532032336     1.0747997717
| 11>  C       -2.5142997946     1.3972620169     0.2868708405
| 12>  C       -2.5019511889     0.2757028019    -0.7904507526
| 13>  C       -3.5214563633    -0.4860512552     0.1025663137
| 14>  H        1.7143088293     0.4803017037    -1.3125528100
| 15>  H        0.5533075845    -0.6899558634    -1.9547225027
| 16>  H        0.1404301212     1.0293429458    -1.9065562329
| 17>  H        0.5351806456    -1.1940860270     1.8302989256
| 18>  H        1.9898976363    -0.7982995750     0.8066355030
| 19>  H        1.3524221831     1.6596166101     0.8836880948
| 20>  H       -0.0814331452     1.2401468791     1.9221767030
| 21>  H       -1.3867940570    -1.5295172428    -0.1134755129
| 22>  H       -2.4025096929    -0.0778412261     2.1583926297
| 23>  H       -3.4479768949     1.9581258180     0.3885716640
| 24>  H       -1.6495345664     2.0589607003     0.3288623663
| 25>  H       -2.5458978650     0.4002987844    -1.8737707622
| 26>  H       -3.5762734862    -1.5711951398    -0.0234335548
| 27>  H       -4.5156067490    -0.0402135796     0.1924169768
| 28> *
| 29>
| 30>                          ****END OF INPUT****

CARTESIAN COORDINATES (ANGSTROEM)
---------------------------------
  C      0.650283    0.227050   -1.361109
  C      0.063962    0.042804    0.027782
  C      0.975496   -0.535193    1.088385
  C      0.596385    0.923206    1.137818
  C     -1.376316   -0.441039    0.031730
  C     -2.433195    0.053203    1.074800
  C     -2.514300    1.397262    0.286871
  C     -2.501951    0.275703   -0.790451
  C     -3.521456   -0.486051    0.102566
  H      1.714309    0.480302   -1.312553
  H      0.553308   -0.689956   -1.954723
  H      0.140430    1.029343   -1.906556
  H      0.535181   -1.194086    1.830299
  H      1.989898   -0.798300    0.806636
  H      1.352422    1.659617    0.883688
  H     -0.081433    1.240147    1.922177
  H     -1.386794   -1.529517   -0.113476
  H     -2.402510   -0.077841    2.158393
  H     -3.447977    1.958126    0.388572
  H     -1.649535    2.058961    0.328862
  H     -2.545898    0.400299   -1.873771
  H     -3.576273   -1.571195   -0.023434
  H     -4.515607   -0.040214    0.192417

 Total Charge           Charge          ....    0
 Multiplicity           Mult            ....    1
 Number of Electrons    NEL             ....   68
 Basis Dimension        Dim             ....  363

ORBITAL ENERGIES
----------------

  NO   OCC          E(Eh)            E(eV)
   0   2.0000     -11.239227      -305.8349
   1   2.0000     -11.236943      -305.7728
   2   2.0000     -11.231493      -305.6245
   3   2.0000     -11.230263      -305.5910
   4   2.0000     -11.223164      -305.3978
   5   2.0000     -11.220836      -305.3345
   6   2.0000     -11.218179      -305.2622
   7   2.0000     -11.215775      -305.1967
   8   2.0000     -11.213351      -305.1308
   9   2.0000      -1.207234       -32.8505
  10   2.0000      -1.138958       -30.9926
  11   2.0000      -0.964774       -26.2528
  12   2.0000      -0.907810       -24.7028
  13   2.0000      -0.898755       -24.4564
  14   2.0000      -0.848020       -23.0758
  15   2.0000      -0.818195       -22.2642
  16   2.0000      -0.767416       -20.8825
  17   2.0000      -0.702564       -19.1177
  18   2.0000      -0.672244       -18.2927
  19   2.0000      -0.644429       -17.5358
  20   2.0000      -0.617822       -16.8118
  21   2.0000      -0.613508       -16.6944
  22   2.0000      -0.559913       -15.2360
  23   2.0000      -0.550612       -14.9829
  24   2.0000      -0.538068       -14.6416
  25   2.0000      -0.506887       -13.7931
  26   2.0000      -0.487627       -13.2690
  27   2.0000      -0.464147       -12.6301
  28   2.0000      -0.451802       -12.2942
  29   2.0000      -0.450423       -12.2566
  30   2.0000      -0.437802       -11.9132
  31   2.0000      -0.425840       -11.5877
  32   2.0000      -0.396328       -10.7846
  33   2.0000      -0.382531       -10.4092
  34   0.0000       0.143457         3.9037
  35   0.0000       0.155039         4.2188
  36   0.0000       0.164126         4.4661
  37   0.0000       0.164603         4.4791
  38   0.0000       0.184038         5.0079

MULLIKEN ATOMIC CHARGES
-----------------------
   0 C :   -0.420750
   1 C :    0.081612
   2 C :   -0.296194
   3 C :   -0.302393
   4 C :   -0.078208
   5 C :   -0.154094
   6 C :   -0.218898
   7 C :   -0.144572
   8 C :   -0.191722
   9 H :    0.126575
  10 H :    0.133698
  11 H :    0.132889
  12 H :    0.126634
  13 H :    0.127261
  14 H :    0.126622
  15 H :    0.137949
  16 H :    0.096823
  17 H :    0.130835
  18 H :    0.107508
  19 H :    0.130961
  20 H :    0.128124
  21 H :    0.108005
  22 H :    0.111333
Sum of atomic charges:    0.0000000

LOEWDIN ATOMIC CHARGES
----------------------
   0 C :   -0.262773
   1 C :   -0.259395
   2 C :   -0.209653
   3 C :   -0.213086
   4 C :   -0.147008
   5 C :   -0.167225
   6 C :   -0.194452
   7 C :   -0.166503
   8 C :   -0.199742
   9 H :    0.127050
  10 H :    0.127992
  11 H :    0.126409
  12 H :    0.133897
  13 H :    0.131490
  14 H :    0.131804
  15 H :    0.134083
  16 H :    0.151581
  17 H :    0.122707
  18 H :    0.125971
  19 H :    0.130398
  20 H :    0.122776
  21 H :    0.126460
  22 H :    0.127218

  Mayer bond orders larger than 0.1
B(  0-C ,  1-C ) :   0.9168 B(  0-C ,  9-H ) :   0.9270 B(  0-C , 10-H ) :   0.9409
B(  0-C , 11-H ) :   0.9393 B(  1-C ,  2-C ) :   0.8525 B(  1-C ,  3-C ) :   0.8684
B(  1-C ,  4-C ) :   0.9053 B(  2-C ,  3-C ) :   0.9152 B(  2-C , 12-H ) :   0.9283
B(  2-C , 13-H ) :   0.9294 B(  3-C , 14-H ) :   0.9282 B(  3-C , 15-H ) :   0.9245
B(  4-C ,  5-C ) :   0.8810 B(  4-C ,  7-C ) :   0.8753 B(  4-C , 16-H ) :   0.9381
B(  5-C ,  6-C ) :   0.9141 B(  5-C ,  8-C ) :   0.9149 B(  5-C , 17-H ) :   0.8949
B(  6-C ,  7-C ) :   0.9092 B(  6-C , 18-H ) :   0.9310 B(  6-C , 19-H ) :   0.9246
B(  7-C ,  8-C ) :   0.9083 B(  7-C , 20-H ) :   0.8944 B(  8-C , 21-H ) :   0.9280
B(  8-C , 22-H ) :   0.9283

MP2 TOTAL ENERGY:     -350.445118978 Eh
FINAL SINGLE POINT ENERGY      -350.445118977521

DIPOLE MOMENT
-------------
                                X             Y             Z
Electronic contribution:     -1.91926      -0.54294       0.91619
Nuclear contribution   :      1.93362       0.54714      -0.96250
                        -----------------------------------------
Total Dipole Moment    :      0.01436       0.00420      -0.04630
                        -----------------------------------------
Magnitude (a.u.)       :      0.04866
Magnitude (Debye)      :      0.12369

                             ****ORCA TERMINATED NORMALLY****
TOTAL RUN TIME: 0 days 0 hours 21 minutes 25 seconds 763 msec
