                         Program Version 3.0.3 - RELEASE   -
|  1> ! RI-MP2 RIJK def2-TZVP def2-TZVP/C def2-TZVP/JK TIGHTSCF
|  2> % maxcore 2000
|  3> % mp2 density relaxed end
|  4> *xyz 0 1
|  5>  C       -0.1361075809     1.5369597576    -0.0557020724
|  6>  C        0.0119981839     0.0159984989     0.0476801694
|  7>  C        0.7446155540    -0.4847289389     1.3101001601
|  8>  C       -0.0016142764    -0.1164031549     2.5995778670
|  9>  C        0.9838751474    -1.9909166878     1.1827849220
| 10>  C        1.6338292673    -2.7927821687     2.3352514167
| 11>  C        0.3482298719    -3.6399100166     2.2787048643
| 12>  O       -0.2375191327    -2.7706905858     1.2886047250
| 13>  H        0.8380543969     2.0359295161     0.0072159671
| 14>  H       -0.5899898719     1.8176928200    -1.0114250770
| 15>  H       -0.7698186431     1.9452143097     0.7371656445
| 16>  H       -0.9758536894    -0.4594220162     0.0071152844
| 17>  H        0.5582474468    -0.3449587811    -0.8334840847
| 18>  H        1.7426033735    -0.0186571578     1.3317659605
| 19>  H       -0.9825593036    -0.6001159456     2.6215231027
| 20>  H        0.5484543850    -0.4275142518     3.4929743730
| 21>  H       -0.1493109881     0.9636326712     2.6768898807
| 22>  H        1.4700427177    -2.1882805027     0.2153542527
| 23>  H        2.5625672224    -3.3082997063     2.0863587412
| 24>  H        1.7728018901    -2.2364430415     3.2631777037
| 25>  H        0.4816078755    -4.6604275204     1.8966222145
| 26>  H       -0.2535847463    -3.6815289274     3.1941707746
| 27> *
| 28>
| 29>                          ****END OF INPUT****

CARTESIAN COORDINATES (ANGSTROEM)
---------------------------------
  C     -0.136108    1.536960   -0.055702
  C      0.011998    0.015998    0.047680
  C      0.744616   -0.484729    1.310100
  C     -0.001614   -0.116403    2.599578
  C      0.983875   -1.990917    1.182785
  C      1.633829   -2.792782    2.335251
  C      0.348230   -3.639910    2.278705
  O     -0.237519   -2.770691    1.288605
  H      0.838054    2.035930    0.007216
  H     -0.589990    1.817693   -1.011425
  H     -0.769819    1.945214    0.737166
  H     -0.975854   -0.459422    0.007115
  H      0.558247   -0.344959   -0.833484
  H      1.742603   -0.018657    1.331766
  H     -0.982559   -0.600116    2.621523
  H      0.548454   -0.427514    3.492974
  H     -0.149311    0.963633    2.676890
  H      1.470043   -2.188281    0.215354
  H      2.562567   -3.308300    2.086359
  H      1.772802   -2.236443    3.263178
  H      0.481608   -4.660428    1.896622
  H     -0.253585   -3.681529    3.194171

 Total Charge           Charge          ....    0
 Multiplicity           Mult            ....    1
 Number of Electrons    NEL             ....   64
 Basis Dimension        Dim             ....  332

ORBITAL ENERGIES
----------------

  NO   OCC          E(Eh)            E(eV)
   0   2.0000     -20.539560      -558.9099
   1   2.0000     -11.276711      -306.8549
   2   2.0000     -11.274586      -306.7971
   3   2.0000     -11.225668      -305.4660
   4   2.0000     -11.224854      -305.4438
   5   2.0000     -11.213819      -305.1435
   6   2.0000     -11.209372      -305.0225
   7   2.0000     -11.207027      -304.9587
   8   2.0000      -1.370477       -37.2926
   9   2.0000      -1.084466       -29.5098
  10   2.0000      -1.009488       -27.4696
  11   2.0000      -0.978827       -26.6352
  12   2.0000      -0.926437       -25.2096
  13   2.0000      -0.861714       -23.4484
  14   2.0000      -0.788720       -21.4622
  15   2.0000      -0.736666       -20.0457
  16   2.0000      -0.680188       -18.5089
  17   2.0000      -0.658666       -17.9232
  18   2.0000      -0.631648       -17.1880
  19   2.0000      -0.592960       -16.1353
  20   2.0000      -0.587324       -15.9819
  21   2.0000      -0.566105       -15.4045
  22   2.0000      -0.540425       -14.7057
  23   2.0000      -0.527032       -14.3413
  24   2.0000      -0.519310       -14.1311
  25   2.0000      -0.505487       -13.7550
  26   2.0000      -0.499970       -13.6049
  27   2.0000      -0.471627       -12.8336
  28   2.0000      -0.461091       -12.5469
  29   2.0000      -0.448726       -12.2105
  30   2.0000      -0.429821       -11.6960
  31   2.0000      -0.402642       -10.9565
  32   0.0000       0.137951         3.7538
  33   0.0000       0.155357         4.2275
  34   0.0000       0.159990         4.3535
  35   0.0000       0.170534         4.6405
  36   0.0000       0.183263         4.9868

MULLIKEN ATOMIC CHARGES
-----------------------
   0 C :   -0.405688
   1 C :   -0.218076
   2 C :   -0.027277
   3 C :   -0.457495
   4 C :    0.129288
   5 C :   -0.297780
   6 C :   -0.006350
   7 O :   -0.351208
   8 H :    0.119639
   9 H :    0.135776
  10 H :    0.129424
  11 H :    0.131285
  12 H :    0.104983
  13 H :    0.083261
  14 H :    0.146465
  15 H :    0.121512
  16 H :    0.137539
  17 H :    0.080638
  18 H :    0.128540
  19 H :    0.120139
  20 H :    0.096947
  21 H :    0.098439
Sum of atomic charges:   -0.0000000

LOEWDIN ATOMIC CHARGES
----------------------
   0 C :   -0.320836
   1 C :   -0.269404
   2 C :   -0.272576
   3 C :   -0.291126
   4 C :   -0.261754
   5 C :   -0.230063
   6 C :   -0.277991
   7 O :    0.128776
   8 H :    0.119895
   9 H :    0.121657
  10 H :    0.118705
  11 H :    0.143275
  12 H :    0.137269
  13 H :    0.155778
  14 H :    0.130130
  15 H :    0.119566
  16 H :    0.122950
  17 H :    0.136752
  18 H :    0.128399
  19 H :    0.130324
  20 H :    0.115338
  21 H :    0.114933

  Mayer bond orders larger than 0.1
B(  0-C ,  1-C ) :   0.9079 B(  0-C ,  8-H ) :   0.9369 B(  0-C ,  9-H ) :   0.9432
B(  0-C , 10-H ) :   0.9434 B(  1-C ,  2-C ) :   0.9178 B(  1-C , 11-H ) :   0.9312
B(  1-C , 12-H ) :   0.9324 B(  2-C ,  3-C ) :   0.8978 B(  2-C ,  4-C ) :   0.9176
B(  2-C , 13-H ) :   0.9192 B(  3-C , 14-H ) :   0.9330 B(  3-C , 15-H ) :   0.9388
B(  3-C , 16-H ) :   0.9392 B(  4-C ,  5-C ) :   0.9060 B(  4-C ,  7-O ) :   0.9342
B(  4-C , 17-H ) :   0.9164 B(  5-C ,  6-C ) :   0.9797 B(  5-C , 18-H ) :   0.9301
B(  5-C , 19-H ) :   0.9312 B(  6-C ,  7-O ) :   0.9359 B(  6-C , 20-H ) :   0.9183
B(  6-C , 21-H ) :   0.9200

MP2 TOTAL ENERGY:     -349.586253585 Eh
FINAL SINGLE POINT ENERGY      -349.586253584676

DIPOLE MOMENT
-------------
                                X             Y             Z
Electronic contribution:     -0.02388      -6.20398      -0.13116
Nuclear contribution   :      0.61665       6.22074       0.41434
                        -----------------------------------------
Total Dipole Moment    :      0.59277       0.01676       0.28318
                        -----------------------------------------
Magnitude (a.u.)       :      0.65715
Magnitude (Debye)      :      1.67035

                             ****ORCA TERMINATED NORMALLY****
TOTAL RUN TIME: 0 days 0 hours 15 minutes 25 seconds 757 msec
