                         Program Version 3.0.3 - RELEASE   -
|  1> ! RI-MP2 RIJK def2-TZVP def2-TZVP/C def2-TZVP/JK TIGHTSCF
|  2> % maxcore 2000
|  3> % mp2 density relaxed end
|  4> *xyz 0 1
|  5>  O       -0.4690617508     1.2368947532     0.0883945809
|  6>  C       -0.0757558560    -0.1452882621     0.0347959052
|  7>  C        0.7414481760    -0.4076076935    -1.1506958457
|  8>  C        1.4372505415    -0.5981706007    -2.1120605749
|  9>  C        0.6247787777    -0.6070394039     1.3120342606
| 10>  C        1.4831126952     0.3482102160     2.1241465269
| 11>  C        0.1520441197    -0.1224040325     2.6599033163
| 12>  O       -0.9371093425     0.7321993027     2.8027192470
| 13>  H        0.2983718950     1.7674363942    -0.1533402342
| 14>  H       -1.0230624142    -0.6911291828    -0.0572823826
| 15>  H        2.0413260339    -0.7744959875    -2.9680212806
| 16>  H        0.9627112243    -1.6372595420     1.2452701259
| 17>  H        2.4052330153    -0.0215206626     2.5591554203
| 18>  H        1.5277887145     1.3834203016     1.8003503755
| 19>  H        0.1688598379    -0.8394836140     3.4748092897
| 20>  H       -1.0111436775     1.2433230439     1.9838189098
| 21> *
| 22>
| 23>                          ****END OF INPUT****

CARTESIAN COORDINATES (ANGSTROEM)
---------------------------------
  O     -0.469062    1.236895    0.088395
  C     -0.075756   -0.145288    0.034796
  C      0.741448   -0.407608   -1.150696
  C      1.437251   -0.598171   -2.112061
  C      0.624779   -0.607039    1.312034
  C      1.483113    0.348210    2.124147
  C      0.152044   -0.122404    2.659903
  O     -0.937109    0.732199    2.802719
  H      0.298372    1.767436   -0.153340
  H     -1.023062   -0.691129   -0.057282
  H      2.041326   -0.774496   -2.968021
  H      0.962711   -1.637260    1.245270
  H      2.405233   -0.021521    2.559155
  H      1.527789    1.383420    1.800350
  H      0.168860   -0.839484    3.474809
  H     -1.011144    1.243323    1.983819

 Total Charge           Charge          ....    0
 Multiplicity           Mult            ....    1
 Number of Electrons    NEL             ....   60
 Basis Dimension        Dim             ....  296

ORBITAL ENERGIES
----------------

  NO   OCC          E(Eh)            E(eV)
   0   2.0000     -20.588261      -560.2351
   1   2.0000     -20.549524      -559.1810
   2   2.0000     -11.329126      -308.2812
   3   2.0000     -11.287117      -307.1381
   4   2.0000     -11.248220      -306.0796
   5   2.0000     -11.244694      -305.9837
   6   2.0000     -11.242803      -305.9322
   7   2.0000     -11.231827      -305.6336
   8   2.0000      -1.395911       -37.9847
   9   2.0000      -1.361241       -37.0412
  10   2.0000      -1.140009       -31.0212
  11   2.0000      -1.061985       -28.8981
  12   2.0000      -0.970987       -26.4219
  13   2.0000      -0.832466       -22.6525
  14   2.0000      -0.814318       -22.1587
  15   2.0000      -0.767812       -20.8932
  16   2.0000      -0.718089       -19.5402
  17   2.0000      -0.694381       -18.8951
  18   2.0000      -0.674948       -18.3663
  19   2.0000      -0.640887       -17.4394
  20   2.0000      -0.599805       -16.3215
  21   2.0000      -0.577871       -15.7247
  22   2.0000      -0.562099       -15.2955
  23   2.0000      -0.547749       -14.9050
  24   2.0000      -0.538770       -14.6607
  25   2.0000      -0.486723       -13.2444
  26   2.0000      -0.421779       -11.4772
  27   2.0000      -0.417128       -11.3506
  28   2.0000      -0.406510       -11.0617
  29   2.0000      -0.380713       -10.3597
  30   0.0000       0.126071         3.4306
  31   0.0000       0.148693         4.0461
  32   0.0000       0.156708         4.2642
  33   0.0000       0.161992         4.4080
  34   0.0000       0.165438         4.5018

MULLIKEN ATOMIC CHARGES
-----------------------
   0 O :   -0.496168
   1 C :    0.036213
   2 C :   -0.106207
   3 C :   -0.119269
   4 C :   -0.129119
   5 C :   -0.299358
   6 C :    0.076734
   7 O :   -0.463012
   8 H :    0.332174
   9 H :    0.132537
  10 H :    0.198346
  11 H :    0.130760
  12 H :    0.134221
  13 H :    0.112851
  14 H :    0.122438
  15 H :    0.336858
Sum of atomic charges:   -0.0000000

LOEWDIN ATOMIC CHARGES
----------------------
   0 O :   -0.010335
   1 C :   -0.304237
   2 C :   -0.091040
   3 C :   -0.078879
   4 C :   -0.198500
   5 C :   -0.218618
   6 C :   -0.312827
   7 O :   -0.002432
   8 H :    0.181351
   9 H :    0.169017
  10 H :    0.129876
  11 H :    0.156709
  12 H :    0.132410
  13 H :    0.131862
  14 H :    0.140687
  15 H :    0.174956

  Mayer bond orders larger than 0.1
B(  0-O ,  1-C ) :   0.8368 B(  0-O ,  8-H ) :   0.8324 B(  1-C ,  2-C ) :   1.2056
B(  1-C ,  4-C ) :   0.9018 B(  1-C ,  9-H ) :   0.8988 B(  2-C ,  3-C ) :   2.5530
B(  3-C , 10-H ) :   0.8926 B(  4-C ,  5-C ) :   0.8604 B(  4-C ,  6-C ) :   0.8769
B(  4-C , 11-H ) :   0.9060 B(  5-C ,  6-C ) :   0.8718 B(  5-C , 12-H ) :   0.9155
B(  5-C , 13-H ) :   0.9219 B(  6-C ,  7-O ) :   1.0264 B(  6-C , 14-H ) :   0.9473
B(  7-O , 15-H ) :   0.8068

MP2 TOTAL ENERGY:     -383.038345088 Eh
FINAL SINGLE POINT ENERGY      -383.038345088372

DIPOLE MOMENT
-------------
                                X             Y             Z
Electronic contribution:     -1.74727       0.24931      -2.17780
Nuclear contribution   :      2.64391      -0.47659       1.48266
                        -----------------------------------------
Total Dipole Moment    :      0.89664      -0.22729      -0.69514
                        -----------------------------------------
Magnitude (a.u.)       :      1.15708
Magnitude (Debye)      :      2.94107

                             ****ORCA TERMINATED NORMALLY****
TOTAL RUN TIME: 0 days 0 hours 11 minutes 33 seconds 445 msec
