                         Program Version 3.0.3 - RELEASE   -
|  1> ! RI-MP2 RIJK def2-TZVP def2-TZVP/C def2-TZVP/JK TIGHTSCF
|  2> % maxcore 2000
|  3> % mp2 density relaxed end
|  4> *xyz 0 1
|  5>  O       -0.0973639286     1.4164267646    -0.0078154454
|  6>  C       -0.0315414069     0.0126251979    -0.0086680874
|  7>  C        0.6631553585    -0.5513412559    -1.2928495113
|  8>  C        0.0524747034    -0.0384154479    -2.5139567543
|  9>  N       -0.4134426052     0.3638869434    -3.4903684623
| 10>  C        0.7212789050    -0.4897893812     1.1679850742
| 11>  N        1.3695910379    -0.8436906909     2.0553319853
| 12>  C       -1.4223246553    -0.4820382040     0.0649605012
| 13>  N       -2.4935874132    -0.9076164527     0.1054481015
| 14>  H        0.7962578296     1.7735021017     0.0741979649
| 15>  H        1.7192901389    -0.2626426826    -1.2610649037
| 16>  H        0.6231273561    -1.6449723926    -1.2808402426
| 17> *
| 18>
| 19>                          ****END OF INPUT****

CARTESIAN COORDINATES (ANGSTROEM)
---------------------------------
  O     -0.097364    1.416427   -0.007815
  C     -0.031541    0.012625   -0.008668
  C      0.663155   -0.551341   -1.292850
  C      0.052475   -0.038415   -2.513957
  N     -0.413443    0.363887   -3.490368
  C      0.721279   -0.489789    1.167985
  N      1.369591   -0.843691    2.055332
  C     -1.422325   -0.482038    0.064961
  N     -2.493587   -0.907616    0.105448
  H      0.796258    1.773502    0.074198
  H      1.719290   -0.262643   -1.261065
  H      0.623127   -1.644972   -1.280840

 Total Charge           Charge          ....    0
 Multiplicity           Mult            ....    1
 Number of Electrons    NEL             ....   62
 Basis Dimension        Dim             ....  297

ORBITAL ENERGIES
----------------

  NO   OCC          E(Eh)            E(eV)
   0   2.0000     -20.649472      -561.9007
   1   2.0000     -15.634604      -425.4392
   2   2.0000     -15.623038      -425.1245
   3   2.0000     -15.606887      -424.6850
   4   2.0000     -11.449035      -311.5441
   5   2.0000     -11.348927      -308.8200
   6   2.0000     -11.328761      -308.2713
   7   2.0000     -11.318350      -307.9880
   8   2.0000     -11.307681      -307.6976
   9   2.0000      -1.469174       -39.9783
  10   2.0000      -1.278330       -34.7851
  11   2.0000      -1.263751       -34.3884
  12   2.0000      -1.253090       -34.0983
  13   2.0000      -1.152450       -31.3598
  14   2.0000      -1.027470       -27.9589
  15   2.0000      -0.869344       -23.6561
  16   2.0000      -0.783110       -21.3095
  17   2.0000      -0.752484       -20.4761
  18   2.0000      -0.727669       -19.8009
  19   2.0000      -0.671903       -18.2834
  20   2.0000      -0.644714       -17.5436
  21   2.0000      -0.614390       -16.7184
  22   2.0000      -0.597829       -16.2677
  23   2.0000      -0.587622       -15.9900
  24   2.0000      -0.569228       -15.4895
  25   2.0000      -0.529610       -14.4114
  26   2.0000      -0.526266       -14.3204
  27   2.0000      -0.516764       -14.0619
  28   2.0000      -0.507122       -13.7995
  29   2.0000      -0.494484       -13.4556
  30   2.0000      -0.490178       -13.3384
  31   0.0000       0.067888         1.8473
  32   0.0000       0.098928         2.6920
  33   0.0000       0.104771         2.8510
  34   0.0000       0.136185         3.7058
  35   0.0000       0.139870         3.8060

MULLIKEN ATOMIC CHARGES
-----------------------
   0 O :   -0.407625
   1 C :    0.414038
   2 C :   -0.157674
   3 C :   -0.171515
   4 N :   -0.023525
   5 C :   -0.185899
   6 N :   -0.020044
   7 C :   -0.149539
   8 N :   -0.019001
   9 H :    0.343590
  10 H :    0.184119
  11 H :    0.193076
Sum of atomic charges:    0.0000000

LOEWDIN ATOMIC CHARGES
----------------------
   0 O :    0.085757
   1 C :   -0.360360
   2 C :   -0.177914
   3 C :   -0.182955
   4 N :    0.094537
   5 C :   -0.133346
   6 N :    0.112352
   7 C :   -0.116891
   8 N :    0.122364
   9 H :    0.198683
  10 H :    0.175712
  11 H :    0.182062

  Mayer bond orders larger than 0.1
B(  0-O ,  1-C ) :   1.0274 B(  0-O ,  9-H ) :   0.8202 B(  1-C ,  2-C ) :   0.9125
B(  1-C ,  5-C ) :   0.9039 B(  1-C ,  7-C ) :   0.8716 B(  2-C ,  3-C ) :   0.9408
B(  2-C , 10-H ) :   0.8942 B(  2-C , 11-H ) :   0.8879 B(  3-C ,  4-N ) :   2.8488
B(  5-C ,  6-N ) :   2.8149 B(  7-C ,  8-N ) :   2.8079

MP2 TOTAL ENERGY:     -430.957966754 Eh
FINAL SINGLE POINT ENERGY      -430.957966754283

DIPOLE MOMENT
-------------
                                X             Y             Z
Electronic contribution:     -1.81324      -0.12852       1.19594
Nuclear contribution   :      3.40784       0.25202      -1.09459
                        -----------------------------------------
Total Dipole Moment    :      1.59460       0.12350       0.10135
                        -----------------------------------------
Magnitude (a.u.)       :      1.60258
Magnitude (Debye)      :      4.07344

                             ****ORCA TERMINATED NORMALLY****
TOTAL RUN TIME: 0 days 0 hours 12 minutes 11 seconds 530 msec
