                         Program Version 3.0.3 - RELEASE   -
|  1> ! RI-MP2 RIJK def2-TZVP def2-TZVP/C def2-TZVP/JK TIGHTSCF
|  2> % maxcore 2000
|  3> % mp2 density relaxed end
|  4> *xyz 0 1
|  5>  N       -0.2896706723     1.3776026034    -0.1974278876
|  6>  C       -0.5269645120     0.0521134416    -0.3785788230
|  7>  N       -0.4079851269    -0.7911840634     0.5729504098
|  8>  C       -0.7532072549    -2.1816528004     0.3555381426
|  9>  C       -1.7992791358    -2.5885509860     1.4175902832
| 10>  O       -2.7011093046    -3.3544654946     1.2355811217
| 11>  C       -1.1915989313    -2.5497144024    -0.9999649848
| 12>  N       -1.5060977984    -2.7592766255    -2.0918900953
| 13>  H       -0.1562587923     1.9669826631    -1.0000664970
| 14>  H        0.1411626902     1.6672763776     0.6664271619
| 15>  H       -0.8495493949    -0.2059805261    -1.3930949172
| 16>  H        0.1334313747    -2.7959937636     0.5890392820
| 17>  H       -1.6103407215    -2.0834522139     2.3868405237
| 18> *
| 19>
| 20>                          ****END OF INPUT****

CARTESIAN COORDINATES (ANGSTROEM)
---------------------------------
  N     -0.289671    1.377603   -0.197428
  C     -0.526965    0.052113   -0.378579
  N     -0.407985   -0.791184    0.572950
  C     -0.753207   -2.181653    0.355538
  C     -1.799279   -2.588551    1.417590
  O     -2.701109   -3.354465    1.235581
  C     -1.191599   -2.549714   -0.999965
  N     -1.506098   -2.759277   -2.091890
  H     -0.156259    1.966983   -1.000066
  H      0.141163    1.667276    0.666427
  H     -0.849549   -0.205981   -1.393095
  H      0.133431   -2.795994    0.589039
  H     -1.610341   -2.083452    2.386841

 Total Charge           Charge          ....    0
 Multiplicity           Mult            ....    1
 Number of Electrons    NEL             ....   58
 Basis Dimension        Dim             ....  278

ORBITAL ENERGIES
----------------

  NO   OCC          E(Eh)            E(eV)
   0   2.0000     -20.577854      -559.9519
   1   2.0000     -15.602206      -424.5576
   2   2.0000     -15.582025      -424.0084
   3   2.0000     -15.569055      -423.6555
   4   2.0000     -11.352671      -308.9219
   5   2.0000     -11.346510      -308.7542
   6   2.0000     -11.329305      -308.2861
   7   2.0000     -11.281982      -306.9983
   8   2.0000      -1.419960       -38.6391
   9   2.0000      -1.301534       -35.4165
  10   2.0000      -1.233021       -33.5522
  11   2.0000      -1.201592       -32.6970
  12   2.0000      -1.037848       -28.2413
  13   2.0000      -0.858056       -23.3489
  14   2.0000      -0.847407       -23.0591
  15   2.0000      -0.769062       -20.9272
  16   2.0000      -0.727606       -19.7992
  17   2.0000      -0.689115       -18.7518
  18   2.0000      -0.666827       -18.1453
  19   2.0000      -0.651627       -17.7317
  20   2.0000      -0.643554       -17.5120
  21   2.0000      -0.570952       -15.5364
  22   2.0000      -0.555887       -15.1264
  23   2.0000      -0.534604       -14.5473
  24   2.0000      -0.483821       -13.1654
  25   2.0000      -0.478472       -13.0199
  26   2.0000      -0.452436       -12.3114
  27   2.0000      -0.446918       -12.1613
  28   2.0000      -0.384266       -10.4564
  29   0.0000       0.111459         3.0329
  30   0.0000       0.121292         3.3005
  31   0.0000       0.139181         3.7873
  32   0.0000       0.145129         3.9492
  33   0.0000       0.157404         4.2832

MULLIKEN ATOMIC CHARGES
-----------------------
   0 N :   -0.470517
   1 C :    0.106387
   2 N :   -0.325851
   3 C :    0.211826
   4 C :    0.072949
   5 O :   -0.229436
   6 C :   -0.223042
   7 N :   -0.050759
   8 H :    0.266807
   9 H :    0.263110
  10 H :    0.119533
  11 H :    0.146992
  12 H :    0.112002
Sum of atomic charges:    0.0000000

LOEWDIN ATOMIC CHARGES
----------------------
   0 N :   -0.039310
   1 C :   -0.332660
   2 N :    0.073238
   3 C :   -0.298853
   4 C :   -0.256043
   5 O :    0.167018
   6 C :   -0.173114
   7 N :    0.073560
   8 H :    0.172549
   9 H :    0.174328
  10 H :    0.133815
  11 H :    0.183399
  12 H :    0.122072

  Mayer bond orders larger than 0.1
B(  0-N ,  1-C ) :   1.1579 B(  0-N ,  8-H ) :   0.8712 B(  0-N ,  9-H ) :   0.8605
B(  1-C ,  2-N ) :   1.7472 B(  1-C , 10-H ) :   0.9096 B(  2-N ,  3-C ) :   0.9507
B(  3-C ,  4-C ) :   0.8229 B(  3-C ,  6-C ) :   0.8658 B(  3-C , 11-H ) :   0.8777
B(  4-C ,  5-O ) :   2.0331 B(  4-C , 12-H ) :   0.9361 B(  6-C ,  7-N ) :   2.8350

MP2 TOTAL ENERGY:     -394.140905388 Eh
FINAL SINGLE POINT ENERGY      -394.140905388408

DIPOLE MOMENT
-------------
                                X             Y             Z
Electronic contribution:     -1.93274      -4.23362      -0.57707
Nuclear contribution   :      3.18051       5.92393       1.10741
                        -----------------------------------------
Total Dipole Moment    :      1.24777       1.69032       0.53034
                        -----------------------------------------
Magnitude (a.u.)       :      2.16688
Magnitude (Debye)      :      5.50776

                             ****ORCA TERMINATED NORMALLY****
TOTAL RUN TIME: 0 days 0 hours 8 minutes 29 seconds 113 msec
