                         Program Version 3.0.3 - RELEASE   -
|  1> ! RI-MP2 RIJK def2-TZVP def2-TZVP/C def2-TZVP/JK TIGHTSCF
|  2> % maxcore 2000
|  3> % mp2 density relaxed end
|  4> *xyz 0 1
|  5>  C       -0.0931419772     1.4415830568    -0.3662795699
|  6>  C        0.2668960133    -0.0065104050    -0.1144986203
|  7>  C        1.6621637222    -0.4155814637     0.2182724546
|  8>  N        0.5981118027    -0.5319761551     1.2112207991
|  9>  C        0.6329242655     0.3575600650     2.3641309624
| 10>  C        1.2727687144    -0.3627335370     3.5300903181
| 11>  C        2.6775242258    -0.1518233957     3.8989139231
| 12>  O        1.6209632440     0.4480453777     4.6520072592
| 13>  H        0.5668192488     2.1359200364     0.1593435772
| 14>  H       -0.0188109337     1.6609494011    -1.4366227345
| 15>  H       -1.1233789850     1.6527345009    -0.0586023397
| 16>  H       -0.3319258920    -0.7086381166    -0.6941289802
| 17>  H        2.0814472882    -1.3481273273    -0.1507291443
| 18>  H        2.3888660841     0.3870953524     0.3466284473
| 19>  H        1.1747083411     1.3021811205     2.1966716965
| 20>  H       -0.3994536122     0.6162964807     2.6309060161
| 21>  H        0.8140726737    -1.3192184091     3.7814017588
| 22>  H        3.2294940171    -0.9384251638     4.4112616718
| 23>  H        3.2871532792     0.5409207218     3.3193937646
| 24> *
| 25>
| 26>                          ****END OF INPUT****

CARTESIAN COORDINATES (ANGSTROEM)
---------------------------------
  C     -0.093142    1.441583   -0.366280
  C      0.266896   -0.006510   -0.114499
  C      1.662164   -0.415581    0.218272
  N      0.598112   -0.531976    1.211221
  C      0.632924    0.357560    2.364131
  C      1.272769   -0.362734    3.530090
  C      2.677524   -0.151823    3.898914
  O      1.620963    0.448045    4.652007
  H      0.566819    2.135920    0.159344
  H     -0.018811    1.660949   -1.436623
  H     -1.123379    1.652735   -0.058602
  H     -0.331926   -0.708638   -0.694129
  H      2.081447   -1.348127   -0.150729
  H      2.388866    0.387095    0.346628
  H      1.174708    1.302181    2.196672
  H     -0.399454    0.616296    2.630906
  H      0.814073   -1.319218    3.781402
  H      3.229494   -0.938425    4.411262
  H      3.287153    0.540921    3.319394

 Total Charge           Charge          ....    0
 Multiplicity           Mult            ....    1
 Number of Electrons    NEL             ....   62
 Basis Dimension        Dim             ....  314

ORBITAL ENERGIES
----------------

  NO   OCC          E(Eh)            E(eV)
   0   2.0000     -20.564398      -559.5857
   1   2.0000     -15.560078      -423.4113
   2   2.0000     -11.281940      -306.9972
   3   2.0000     -11.279305      -306.9255
   4   2.0000     -11.264044      -306.5102
   5   2.0000     -11.257985      -306.3453
   6   2.0000     -11.254306      -306.2452
   7   2.0000     -11.227668      -305.5204
   8   2.0000      -1.408251       -38.3205
   9   2.0000      -1.275746       -34.7148
  10   2.0000      -1.039221       -28.2786
  11   2.0000      -0.982067       -26.7234
  12   2.0000      -0.913718       -24.8635
  13   2.0000      -0.858217       -23.3533
  14   2.0000      -0.815706       -22.1965
  15   2.0000      -0.777608       -21.1598
  16   2.0000      -0.694914       -18.9096
  17   2.0000      -0.679453       -18.4889
  18   2.0000      -0.643333       -17.5060
  19   2.0000      -0.636466       -17.3191
  20   2.0000      -0.591994       -16.1090
  21   2.0000      -0.577689       -15.7197
  22   2.0000      -0.552361       -15.0305
  23   2.0000      -0.541246       -14.7281
  24   2.0000      -0.524358       -14.2685
  25   2.0000      -0.514123       -13.9900
  26   2.0000      -0.462314       -12.5802
  27   2.0000      -0.459790       -12.5115
  28   2.0000      -0.437047       -11.8926
  29   2.0000      -0.430203       -11.7064
  30   2.0000      -0.371721       -10.1151
  31   0.0000       0.137432         3.7397
  32   0.0000       0.154465         4.2032
  33   0.0000       0.172120         4.6836
  34   0.0000       0.175446         4.7741
  35   0.0000       0.192677         5.2430

MULLIKEN ATOMIC CHARGES
-----------------------
   0 C :   -0.390598
   1 C :   -0.018451
   2 C :   -0.201867
   3 N :   -0.231600
   4 C :   -0.137183
   5 C :    0.048463
   6 C :   -0.078574
   7 O :   -0.333937
   8 H :    0.126649
   9 H :    0.142062
  10 H :    0.135532
  11 H :    0.116978
  12 H :    0.128170
  13 H :    0.112912
  14 H :    0.106057
  15 H :    0.128165
  16 H :    0.120044
  17 H :    0.117798
  18 H :    0.109382
Sum of atomic charges:    0.0000000

LOEWDIN ATOMIC CHARGES
----------------------
   0 C :   -0.300960
   1 C :   -0.280939
   2 C :   -0.248932
   3 N :    0.112058
   4 C :   -0.280413
   5 C :   -0.290662
   6 C :   -0.268594
   7 O :    0.143710
   8 H :    0.124479
   9 H :    0.131035
  10 H :    0.127172
  11 H :    0.141168
  12 H :    0.123177
  13 H :    0.122868
  14 H :    0.128556
  15 H :    0.140819
  16 H :    0.138585
  17 H :    0.119011
  18 H :    0.117862

  Mayer bond orders larger than 0.1
B(  0-C ,  1-C ) :   0.9145 B(  0-C ,  8-H ) :   0.9347 B(  0-C ,  9-H ) :   0.9314
B(  0-C , 10-H ) :   0.9375 B(  1-C ,  2-C ) :   0.9412 B(  1-C ,  3-N ) :   0.8930
B(  1-C , 11-H ) :   0.9223 B(  2-C ,  3-N ) :   0.8902 B(  2-C , 12-H ) :   0.9215
B(  2-C , 13-H ) :   0.9198 B(  3-N ,  4-C ) :   0.8637 B(  4-C ,  5-C ) :   0.9133
B(  4-C , 14-H ) :   0.9189 B(  4-C , 15-H ) :   0.9196 B(  5-C ,  6-C ) :   0.9759
B(  5-C ,  7-O ) :   0.9066 B(  5-C , 16-H ) :   0.9212 B(  6-C ,  7-O ) :   0.9098
B(  6-C , 17-H ) :   0.9178 B(  6-C , 18-H ) :   0.9134

MP2 TOTAL ENERGY:     -364.379359314 Eh
FINAL SINGLE POINT ENERGY      -364.379359314161

DIPOLE MOMENT
-------------
                                X             Y             Z
Electronic contribution:      0.55019      -2.37232       5.62695
Nuclear contribution   :     -0.28046       2.45173      -6.46326
                        -----------------------------------------
Total Dipole Moment    :      0.26973       0.07941      -0.83631
                        -----------------------------------------
Magnitude (a.u.)       :      0.88231
Magnitude (Debye)      :      2.24265

                             ****ORCA TERMINATED NORMALLY****
TOTAL RUN TIME: 0 days 0 hours 11 minutes 55 seconds 394 msec
