                         Program Version 3.0.3 - RELEASE   -
|  1> ! RI-MP2 RIJK def2-TZVP def2-TZVP/C def2-TZVP/JK TIGHTSCF
|  2> % maxcore 2000
|  3> % mp2 density relaxed end
|  4> *xyz 0 1
|  5>  C        0.0038350957     1.5124059959    -0.1480229190
|  6>  C        1.3134086570     0.7763026316     0.0250416963
|  7>  C        2.2313409014     0.8380822380     1.2157430636
|  8>  C        1.8107405517    -0.2935812073     2.1852652510
|  9>  C        0.2896728695    -0.3411183335     2.3914500752
| 10>  O       -0.4540954473    -0.6386576296     1.1974994395
| 11>  C        0.0304609510     0.0135620396     0.0789166034
| 12>  C        0.5342598813    -0.7024358954    -1.1686143993
| 13>  O        1.7168694322     0.1548349859    -1.2086802451
| 14>  H       -0.3163959483     2.0995085324     0.7071135473
| 15>  H       -0.2601166143     1.9235758012    -1.1184185402
| 16>  H        3.2684087387     0.7123465262     0.8923308372
| 17>  H        2.1623184972     1.8109679024     1.7146385789
| 18>  H        2.1400558033    -1.2605035446     1.7867866626
| 19>  H        2.2875947515    -0.1648923280     3.1629326856
| 20>  H        0.0202070083    -1.1305429123     3.0975745274
| 21>  H       -0.0590571779     0.6146770307     2.8154471485
| 22>  H        0.8116548583    -1.7439454867    -0.9728642574
| 23>  H       -0.0604680794    -0.6339465167    -2.0862697953
| 24> *
| 25>
| 26>                          ****END OF INPUT****

CARTESIAN COORDINATES (ANGSTROEM)
---------------------------------
  C      0.003835    1.512406   -0.148023
  C      1.313409    0.776303    0.025042
  C      2.231341    0.838082    1.215743
  C      1.810741   -0.293581    2.185265
  C      0.289673   -0.341118    2.391450
  O     -0.454095   -0.638658    1.197499
  C      0.030461    0.013562    0.078917
  C      0.534260   -0.702436   -1.168614
  O      1.716869    0.154835   -1.208680
  H     -0.316396    2.099509    0.707114
  H     -0.260117    1.923576   -1.118419
  H      3.268409    0.712347    0.892331
  H      2.162318    1.810968    1.714639
  H      2.140056   -1.260504    1.786787
  H      2.287595   -0.164892    3.162933
  H      0.020207   -1.130543    3.097575
  H     -0.059057    0.614677    2.815447
  H      0.811655   -1.743945   -0.972864
  H     -0.060468   -0.633947   -2.086270

 Total Charge           Charge          ....    0
 Multiplicity           Mult            ....    1
 Number of Electrons    NEL             ....   68
 Basis Dimension        Dim             ....  339

ORBITAL ENERGIES
----------------

  NO   OCC          E(Eh)            E(eV)
   0   2.0000     -20.567740      -559.6767
   1   2.0000     -20.554703      -559.3219
   2   2.0000     -11.285546      -307.0953
   3   2.0000     -11.284506      -307.0670
   4   2.0000     -11.282820      -307.0211
   5   2.0000     -11.281174      -306.9764
   6   2.0000     -11.237390      -305.7849
   7   2.0000     -11.236087      -305.7495
   8   2.0000     -11.235369      -305.7299
   9   2.0000      -1.405945       -38.2577
  10   2.0000      -1.370663       -37.2976
  11   2.0000      -1.117853       -30.4183
  12   2.0000      -1.070993       -29.1432
  13   2.0000      -0.951701       -25.8971
  14   2.0000      -0.940789       -25.6002
  15   2.0000      -0.833743       -22.6873
  16   2.0000      -0.817679       -22.2502
  17   2.0000      -0.717710       -19.5299
  18   2.0000      -0.694584       -18.9006
  19   2.0000      -0.670420       -18.2431
  20   2.0000      -0.643292       -17.5049
  21   2.0000      -0.622205       -16.9310
  22   2.0000      -0.616891       -16.7865
  23   2.0000      -0.612436       -16.6652
  24   2.0000      -0.569281       -15.4909
  25   2.0000      -0.550528       -14.9806
  26   2.0000      -0.535004       -14.5582
  27   2.0000      -0.514155       -13.9909
  28   2.0000      -0.511420       -13.9164
  29   2.0000      -0.490585       -13.3495
  30   2.0000      -0.483122       -13.1464
  31   2.0000      -0.445865       -12.1326
  32   2.0000      -0.382620       -10.4116
  33   2.0000      -0.356152        -9.6914
  34   0.0000       0.133533         3.6336
  35   0.0000       0.155665         4.2359
  36   0.0000       0.166228         4.5233
  37   0.0000       0.176116         4.7924
  38   0.0000       0.187704         5.1077

MULLIKEN ATOMIC CHARGES
-----------------------
   0 C :   -0.316685
   1 C :    0.206546
   2 C :   -0.266748
   3 C :   -0.224687
   4 C :   -0.083966
   5 O :   -0.297572
   6 C :    0.096248
   7 C :   -0.022780
   8 O :   -0.329756
   9 H :    0.134760
  10 H :    0.136308
  11 H :    0.141426
  12 H :    0.129799
  13 H :    0.119965
  14 H :    0.128483
  15 H :    0.133216
  16 H :    0.102417
  17 H :    0.101457
  18 H :    0.111568
Sum of atomic charges:   -0.0000000

LOEWDIN ATOMIC CHARGES
----------------------
   0 C :   -0.167092
   1 C :   -0.272148
   2 C :   -0.222707
   3 C :   -0.255925
   4 C :   -0.289088
   5 O :    0.203195
   6 C :   -0.310163
   7 C :   -0.209398
   8 O :    0.157013
   9 H :    0.145384
  10 H :    0.138531
  11 H :    0.151504
  12 H :    0.144671
  13 H :    0.143449
  14 H :    0.141386
  15 H :    0.131415
  16 H :    0.121734
  17 H :    0.127738
  18 H :    0.120499

  Mayer bond orders larger than 0.1
B(  0-C ,  1-C ) :   0.8843 B(  0-C ,  6-C ) :   0.8951 B(  0-C ,  9-H ) :   0.9103
B(  0-C , 10-H ) :   0.9033 B(  1-C ,  2-C ) :   0.8908 B(  1-C ,  6-C ) :   0.8366
B(  1-C ,  8-O ) :   0.9771 B(  2-C ,  3-C ) :   0.9216 B(  2-C , 11-H ) :   0.9245
B(  2-C , 12-H ) :   0.9306 B(  3-C ,  4-C ) :   0.9241 B(  3-C , 13-H ) :   0.9216
B(  3-C , 14-H ) :   0.9228 B(  4-C ,  5-O ) :   0.9069 B(  4-C , 15-H ) :   0.9277
B(  4-C , 16-H ) :   0.9423 B(  5-O ,  6-C ) :   1.0368 B(  6-C ,  7-C ) :   0.9508
B(  7-C ,  8-O ) :   0.9247 B(  7-C , 17-H ) :   0.9005 B(  7-C , 18-H ) :   0.9207

MP2 TOTAL ENERGY:     -422.267712968 Eh
FINAL SINGLE POINT ENERGY      -422.267712967566

DIPOLE MOMENT
-------------
                                X             Y             Z
Electronic contribution:     -1.48079      -0.76010      -3.82032
Nuclear contribution   :      1.56855       0.87662       4.53868
                        -----------------------------------------
Total Dipole Moment    :      0.08776       0.11653       0.71835
                        -----------------------------------------
Magnitude (a.u.)       :      0.73301
Magnitude (Debye)      :      1.86317

                             ****ORCA TERMINATED NORMALLY****
TOTAL RUN TIME: 0 days 0 hours 24 minutes 18 seconds 477 msec
