                         Program Version 3.0.3 - RELEASE   -
|  1> ! RI-MP2 RIJK def2-TZVP def2-TZVP/C def2-TZVP/JK TIGHTSCF
|  2> % maxcore 2000
|  3> % mp2 density relaxed end
|  4> *xyz 0 1
|  5>  C        0.1660897691     1.4882135685    -0.0095946340
|  6>  C       -0.2401733398     0.0336512914     0.0390581436
|  7>  O       -0.6281819987    -0.5290365204     1.0377118948
|  8>  C       -0.1370075696    -0.6887212533    -1.2227951841
|  9>  C       -0.0457635189    -1.3027221498    -2.2618076419
| 10>  C        0.0275382396    -2.0324810654    -3.5057695360
| 11>  O        1.0387196577    -2.5344350868    -3.9345890426
| 12>  H        1.2092488380     1.5751418870    -0.3324605784
| 13>  H       -0.4431687002     2.0259533285    -0.7441342774
| 14>  H        0.0412227786     1.9322372140     0.9788655504
| 15>  H       -0.9371312858    -2.0949711037    -4.0474872344
| 16> *
| 17>
| 18>                          ****END OF INPUT****

CARTESIAN COORDINATES (ANGSTROEM)
---------------------------------
  C      0.166090    1.488214   -0.009595
  C     -0.240173    0.033651    0.039058
  O     -0.628182   -0.529037    1.037712
  C     -0.137008   -0.688721   -1.222795
  C     -0.045764   -1.302722   -2.261808
  C      0.027538   -2.032481   -3.505770
  O      1.038720   -2.534435   -3.934589
  H      1.209249    1.575142   -0.332461
  H     -0.443169    2.025953   -0.744134
  H      0.041223    1.932237    0.978866
  H     -0.937131   -2.094971   -4.047487

 Total Charge           Charge          ....    0
 Multiplicity           Mult            ....    1
 Number of Electrons    NEL             ....   50
 Basis Dimension        Dim             ....  241

ORBITAL ENERGIES
----------------

  NO   OCC          E(Eh)            E(eV)
   0   2.0000     -20.589478      -560.2682
   1   2.0000     -20.579281      -559.9907
   2   2.0000     -11.380236      -309.6720
   3   2.0000     -11.379203      -309.6439
   4   2.0000     -11.288179      -307.1670
   5   2.0000     -11.283553      -307.0411
   6   2.0000     -11.259797      -306.3947
   7   2.0000      -1.425077       -38.7783
   8   2.0000      -1.421438       -38.6793
   9   2.0000      -1.103428       -30.0258
  10   2.0000      -1.040294       -28.3078
  11   2.0000      -0.942817       -25.6553
  12   2.0000      -0.857869       -23.3438
  13   2.0000      -0.742133       -20.1945
  14   2.0000      -0.706758       -19.2319
  15   2.0000      -0.678350       -18.4588
  16   2.0000      -0.656051       -17.8521
  17   2.0000      -0.629826       -17.1384
  18   2.0000      -0.586599       -15.9622
  19   2.0000      -0.574185       -15.6244
  20   2.0000      -0.537580       -14.6283
  21   2.0000      -0.477821       -13.0022
  22   2.0000      -0.463465       -12.6115
  23   2.0000      -0.438183       -11.9236
  24   2.0000      -0.435406       -11.8480
  25   0.0000       0.057976         1.5776
  26   0.0000       0.072169         1.9638
  27   0.0000       0.129169         3.5149
  28   0.0000       0.157200         4.2776
  29   0.0000       0.192810         5.2466

MULLIKEN ATOMIC CHARGES
-----------------------
   0 C :   -0.393082
   1 C :    0.139206
   2 O :   -0.253258
   3 C :    0.058793
   4 C :    0.059894
   5 C :    0.043032
   6 O :   -0.239173
   7 H :    0.156887
   8 H :    0.151987
   9 H :    0.159368
  10 H :    0.116346
Sum of atomic charges:    0.0000000

LOEWDIN ATOMIC CHARGES
----------------------
   0 C :   -0.259769
   1 C :   -0.349363
   2 O :    0.184858
   3 C :    0.015028
   4 C :   -0.022629
   5 C :   -0.285064
   6 O :    0.163149
   7 H :    0.144364
   8 H :    0.142751
   9 H :    0.137779
  10 H :    0.128896

  Mayer bond orders larger than 0.1
B(  0-C ,  1-C ) :   0.9956 B(  0-C ,  3-C ) :  -0.1179 B(  0-C ,  7-H ) :   0.9066
B(  0-C ,  8-H ) :   0.9080 B(  0-C ,  9-H ) :   0.9338 B(  1-C ,  2-O ) :   2.0091
B(  1-C ,  3-C ) :   0.9064 B(  3-C ,  4-C ) :   2.6524 B(  4-C ,  5-C ) :   0.8718
B(  5-C ,  6-O ) :   2.0051 B(  5-C , 10-H ) :   0.9921

MP2 TOTAL ENERGY:     -342.658530461 Eh
FINAL SINGLE POINT ENERGY      -342.658530460591

DIPOLE MOMENT
-------------
                                X             Y             Z
Electronic contribution:     -0.13127      -5.08872      -1.67162
Nuclear contribution   :     -0.26071       6.15635       1.34822
                        -----------------------------------------
Total Dipole Moment    :     -0.39198       1.06763      -0.32340
                        -----------------------------------------
Magnitude (a.u.)       :      1.18240
Magnitude (Debye)      :      3.00542

                             ****ORCA TERMINATED NORMALLY****
TOTAL RUN TIME: 0 days 0 hours 5 minutes 4 seconds 489 msec
