                         Program Version 3.0.3 - RELEASE   -
|  1> ! RI-MP2 RIJK def2-TZVP def2-TZVP/C def2-TZVP/JK TIGHTSCF
|  2> % maxcore 2000
|  3> % mp2 density relaxed end
|  4> *xyz 0 1
|  5>  C       -0.1497126212     1.4659746120    -0.2623395633
|  6>  N        0.1334358176     0.0727115035     0.0660371235
|  7>  C        1.4076858383    -0.5682035770    -0.0963349691
|  8>  C        2.6013072273     0.3159665638     0.3397137796
|  9>  C        2.0169848048     0.3574301272     1.7821636077
| 10>  O        2.7216572142    -0.4446033484     2.7132766182
| 11>  C        1.8243544707     1.6823466201     2.4896946736
| 12>  O        1.7529117964     2.7559255534     1.9478839719
| 13>  C        0.7489092732    -0.4124163627     1.2641400735
| 14>  H        0.6705823388     2.1636200965    -0.0710403282
| 15>  H       -0.4216464058     1.5118130778    -1.3213537267
| 16>  H       -1.0157269672     1.7891301235     0.3227437933
| 17>  H        1.4740639381    -1.4447239815    -0.7328930829
| 18>  H        3.5616511671    -0.2036977193     0.3366875615
| 19>  H        2.7077803202     1.2739642420    -0.1732663932
| 20>  H        2.7109360133    -1.3541772638     2.3946051024
| 21>  H        1.7513188162     1.5766282043     3.5938512006
| 22>  H        0.2197684380    -1.1216371215     1.8960747876
| 23> *
| 24>
| 25>                          ****END OF INPUT****

CARTESIAN COORDINATES (ANGSTROEM)
---------------------------------
  C     -0.149713    1.465975   -0.262340
  N      0.133436    0.072712    0.066037
  C      1.407686   -0.568204   -0.096335
  C      2.601307    0.315967    0.339714
  C      2.016985    0.357430    1.782164
  O      2.721657   -0.444603    2.713277
  C      1.824354    1.682347    2.489695
  O      1.752912    2.755926    1.947884
  C      0.748909   -0.412416    1.264140
  H      0.670582    2.163620   -0.071040
  H     -0.421646    1.511813   -1.321354
  H     -1.015727    1.789130    0.322744
  H      1.474064   -1.444724   -0.732893
  H      3.561651   -0.203698    0.336688
  H      2.707780    1.273964   -0.173266
  H      2.710936   -1.354177    2.394605
  H      1.751319    1.576628    3.593851
  H      0.219768   -1.121637    1.896075

 Total Charge           Charge          ....    0
 Multiplicity           Mult            ....    1
 Number of Electrons    NEL             ....   68
 Basis Dimension        Dim             ....  333

ORBITAL ENERGIES
----------------

  NO   OCC          E(Eh)            E(eV)
   0   2.0000     -20.582752      -560.0852
   1   2.0000     -20.564523      -559.5891
   2   2.0000     -15.573800      -423.7846
   3   2.0000     -11.334992      -308.4408
   4   2.0000     -11.313882      -307.8664
   5   2.0000     -11.278262      -306.8971
   6   2.0000     -11.276934      -306.8610
   7   2.0000     -11.243997      -305.9647
   8   2.0000     -11.243000      -305.9376
   9   2.0000      -1.408566       -38.3290
  10   2.0000      -1.389945       -37.8223
  11   2.0000      -1.303449       -35.4687
  12   2.0000      -1.071366       -29.1534
  13   2.0000      -0.980124       -26.6705
  14   2.0000      -0.945618       -25.7316
  15   2.0000      -0.853331       -23.2203
  16   2.0000      -0.791624       -21.5412
  17   2.0000      -0.755132       -20.5482
  18   2.0000      -0.721495       -19.6329
  19   2.0000      -0.688232       -18.7277
  20   2.0000      -0.673273       -18.3207
  21   2.0000      -0.655181       -17.8284
  22   2.0000      -0.619006       -16.8440
  23   2.0000      -0.607864       -16.5408
  24   2.0000      -0.581330       -15.8188
  25   2.0000      -0.564737       -15.3673
  26   2.0000      -0.553429       -15.0596
  27   2.0000      -0.534067       -14.5327
  28   2.0000      -0.502405       -13.6711
  29   2.0000      -0.475892       -12.9497
  30   2.0000      -0.459720       -12.5096
  31   2.0000      -0.443435       -12.0665
  32   2.0000      -0.399618       -10.8742
  33   2.0000      -0.379497       -10.3266
  34   0.0000       0.113621         3.0918
  35   0.0000       0.134767         3.6672
  36   0.0000       0.162396         4.4190
  37   0.0000       0.169268         4.6060
  38   0.0000       0.184978         5.0335

MULLIKEN ATOMIC CHARGES
-----------------------
   0 C :   -0.303462
   1 N :   -0.179045
   2 C :   -0.079696
   3 C :   -0.292334
   4 C :    0.253059
   5 O :   -0.448673
   6 C :    0.114096
   7 O :   -0.273079
   8 C :   -0.199829
   9 H :    0.144017
  10 H :    0.140229
  11 H :    0.137766
  12 H :    0.138370
  13 H :    0.136541
  14 H :    0.146762
  15 H :    0.323553
  16 H :    0.099223
  17 H :    0.142501
Sum of atomic charges:    0.0000000

LOEWDIN ATOMIC CHARGES
----------------------
   0 C :   -0.315160
   1 N :    0.136713
   2 C :   -0.214525
   3 C :   -0.186650
   4 C :   -0.342015
   5 O :    0.024689
   6 C :   -0.250672
   7 O :    0.141261
   8 C :   -0.200548
   9 H :    0.112704
  10 H :    0.119360
  11 H :    0.122510
  12 H :    0.131770
  13 H :    0.142051
  14 H :    0.138269
  15 H :    0.182507
  16 H :    0.121534
  17 H :    0.136204

  Mayer bond orders larger than 0.1
B(  0-C ,  1-N ) :   0.8543 B(  0-C ,  9-H ) :   0.9168 B(  0-C , 10-H ) :   0.9339
B(  0-C , 11-H ) :   0.9372 B(  1-N ,  2-C ) :   0.9487 B(  1-N ,  8-C ) :   0.9414
B(  2-C ,  3-C ) :   0.8811 B(  2-C ,  8-C ) :   0.8163 B(  2-C , 12-H ) :   0.9262
B(  3-C ,  4-C ) :   0.9180 B(  3-C , 13-H ) :   0.9241 B(  3-C , 14-H ) :   0.9018
B(  4-C ,  5-O ) :   1.0000 B(  4-C ,  6-C ) :   0.8493 B(  4-C ,  8-C ) :   0.8296
B(  5-O , 15-H ) :   0.8325 B(  6-C ,  7-O ) :   1.9646 B(  6-C , 16-H ) :   0.9370
B(  8-C , 17-H ) :   0.9440

MP2 TOTAL ENERGY:     -438.308148109 Eh
FINAL SINGLE POINT ENERGY      -438.308148108890

DIPOLE MOMENT
-------------
                                X             Y             Z
Electronic contribution:      1.55239       0.25315       3.69567
Nuclear contribution   :     -1.44524      -1.12483      -3.94491
                        -----------------------------------------
Total Dipole Moment    :      0.10715      -0.87168      -0.24924
                        -----------------------------------------
Magnitude (a.u.)       :      0.91292
Magnitude (Debye)      :      2.32046

                             ****ORCA TERMINATED NORMALLY****
TOTAL RUN TIME: 0 days 0 hours 17 minutes 19 seconds 503 msec
