                         Program Version 3.0.3 - RELEASE   -
|  1> ! RI-MP2 RIJK def2-TZVP def2-TZVP/C def2-TZVP/JK TIGHTSCF
|  2> % maxcore 2000
|  3> % mp2 density relaxed end
|  4> *xyz 0 1
|  5>  C       -0.0682138232     1.3164439240    -0.1862871031
|  6>  C       -0.0420238521    -0.1207154504     0.2428921918
|  7>  C       -1.1235698996    -0.9128386066     0.2606449412
|  8>  C       -2.1833371320    -0.9613650394    -0.8365617466
|  9>  C       -1.6410431856    -2.3966487552    -1.0967989621
| 10>  C       -0.1168026019    -2.6647013410    -0.9318344793
| 11>  C        1.1197511517    -1.7625516827    -1.0818604540
| 12>  C        1.2728569648    -0.8656693628     0.1957353495
| 13>  C       -0.9819931232    -2.4317474389     0.2671993736
| 14>  H        0.4992866836     1.4660275731    -1.1156106563
| 15>  H       -1.0880160298     1.6781525559    -0.3408274996
| 16>  H        0.4039345014     1.9585978987     0.5685875122
| 17>  H       -3.2202442157    -1.0410354632    -0.4894629173
| 18>  H       -2.1251013959    -0.2102611888    -1.6319405841
| 19>  H       -2.2423511103    -3.1801172889    -1.5491636967
| 20>  H        0.0784692466    -3.7119289202    -1.1582407600
| 21>  H        2.0056866345    -2.3954798364    -1.2134240933
| 22>  H        1.0661960079    -1.1173850393    -1.9664473862
| 23>  H        2.1329536354    -0.1947730259     0.1115381024
| 24>  H        1.4365235589    -1.5108204790     1.0643431774
| 25>  H       -1.1324853754    -3.1085560630     1.0991181806
| 26> *
| 27>
| 28>                          ****END OF INPUT****

CARTESIAN COORDINATES (ANGSTROEM)
---------------------------------
  C     -0.068214    1.316444   -0.186287
  C     -0.042024   -0.120715    0.242892
  C     -1.123570   -0.912839    0.260645
  C     -2.183337   -0.961365   -0.836562
  C     -1.641043   -2.396649   -1.096799
  C     -0.116803   -2.664701   -0.931834
  C      1.119751   -1.762552   -1.081860
  C      1.272857   -0.865669    0.195735
  C     -0.981993   -2.431747    0.267199
  H      0.499287    1.466028   -1.115611
  H     -1.088016    1.678153   -0.340827
  H      0.403935    1.958598    0.568588
  H     -3.220244   -1.041035   -0.489463
  H     -2.125101   -0.210261   -1.631941
  H     -2.242351   -3.180117   -1.549164
  H      0.078469   -3.711929   -1.158241
  H      2.005687   -2.395480   -1.213424
  H      1.066196   -1.117385   -1.966447
  H      2.132954   -0.194773    0.111538
  H      1.436524   -1.510820    1.064343
  H     -1.132485   -3.108556    1.099118

 Total Charge           Charge          ....    0
 Multiplicity           Mult            ....    1
 Number of Electrons    NEL             ....   66
 Basis Dimension        Dim             ....  351

ORBITAL ENERGIES
----------------

  NO   OCC          E(Eh)            E(eV)
   0   2.0000     -11.235114      -305.7230
   1   2.0000     -11.234443      -305.7047
   2   2.0000     -11.231357      -305.6207
   3   2.0000     -11.227736      -305.5222
   4   2.0000     -11.225713      -305.4672
   5   2.0000     -11.224369      -305.4306
   6   2.0000     -11.220271      -305.3191
   7   2.0000     -11.219177      -305.2893
   8   2.0000     -11.215864      -305.1992
   9   2.0000      -1.201821       -32.7032
  10   2.0000      -1.076994       -29.3065
  11   2.0000      -1.024445       -27.8766
  12   2.0000      -0.947255       -25.7761
  13   2.0000      -0.903540       -24.5866
  14   2.0000      -0.859030       -23.3754
  15   2.0000      -0.792585       -21.5673
  16   2.0000      -0.735713       -20.0198
  17   2.0000      -0.690130       -18.7794
  18   2.0000      -0.653131       -17.7726
  19   2.0000      -0.624436       -16.9918
  20   2.0000      -0.611383       -16.6366
  21   2.0000      -0.574613       -15.6360
  22   2.0000      -0.556111       -15.1325
  23   2.0000      -0.554448       -15.0873
  24   2.0000      -0.540127       -14.6976
  25   2.0000      -0.514241       -13.9932
  26   2.0000      -0.499522       -13.5927
  27   2.0000      -0.496888       -13.5210
  28   2.0000      -0.463509       -12.6127
  29   2.0000      -0.432333       -11.7644
  30   2.0000      -0.398689       -10.8489
  31   2.0000      -0.375595       -10.2205
  32   2.0000      -0.311467        -8.4755
  33   0.0000       0.134039         3.6474
  34   0.0000       0.138537         3.7698
  35   0.0000       0.161784         4.4024
  36   0.0000       0.165448         4.5021
  37   0.0000       0.173510         4.7215

MULLIKEN ATOMIC CHARGES
-----------------------
   0 C :   -0.435710
   1 C :   -0.072041
   2 C :    0.053627
   3 C :   -0.205733
   4 C :   -0.160028
   5 C :   -0.149269
   6 C :   -0.196788
   7 C :   -0.205004
   8 C :   -0.136043
   9 H :    0.133589
  10 H :    0.138254
  11 H :    0.146605
  12 H :    0.115736
  13 H :    0.110361
  14 H :    0.121734
  15 H :    0.113014
  16 H :    0.120865
  17 H :    0.115719
  18 H :    0.128034
  19 H :    0.126381
  20 H :    0.136696
Sum of atomic charges:   -0.0000000

LOEWDIN ATOMIC CHARGES
----------------------
   0 C :   -0.275030
   1 C :   -0.167417
   2 C :   -0.118434
   3 C :   -0.179559
   4 C :   -0.148762
   5 C :   -0.174867
   6 C :   -0.226322
   7 C :   -0.210056
   8 C :   -0.138945
   9 H :    0.129533
  10 H :    0.129955
  11 H :    0.133386
  12 H :    0.140645
  13 H :    0.125462
  14 H :    0.133978
  15 H :    0.153039
  16 H :    0.136463
  17 H :    0.137924
  18 H :    0.137118
  19 H :    0.146168
  20 H :    0.135721

  Mayer bond orders larger than 0.1
B(  0-C ,  1-C ) :   0.9160 B(  0-C ,  9-H ) :   0.9216 B(  0-C , 10-H ) :   0.9423
B(  0-C , 11-H ) :   0.9299 B(  1-C ,  2-C ) :   1.7054 B(  1-C ,  7-C ) :   0.9280
B(  2-C ,  3-C ) :   0.9413 B(  2-C ,  8-C ) :   0.9187 B(  3-C ,  4-C ) :   0.9328
B(  3-C , 12-H ) :   0.9118 B(  3-C , 13-H ) :   0.9133 B(  4-C ,  5-C ) :   0.8714
B(  4-C ,  8-C ) :   0.8555 B(  4-C , 14-H ) :   0.9196 B(  5-C ,  6-C ) :   0.9304
B(  5-C ,  8-C ) :   0.8604 B(  5-C , 15-H ) :   0.9270 B(  6-C ,  7-C ) :   0.9181
B(  6-C , 16-H ) :   0.9239 B(  6-C , 17-H ) :   0.9229 B(  7-C , 18-H ) :   0.9350
B(  7-C , 19-H ) :   0.9233 B(  8-C , 20-H ) :   0.9134

MP2 TOTAL ENERGY:     -349.248885708 Eh
FINAL SINGLE POINT ENERGY      -349.248885708134

DIPOLE MOMENT
-------------
                                X             Y             Z
Electronic contribution:     -2.20648      -2.63578       1.81660
Nuclear contribution   :      2.39124       2.55841      -2.02421
                        -----------------------------------------
Total Dipole Moment    :      0.18476      -0.07738      -0.20761
                        -----------------------------------------
Magnitude (a.u.)       :      0.28849
Magnitude (Debye)      :      0.73329

                             ****ORCA TERMINATED NORMALLY****
TOTAL RUN TIME: 0 days 0 hours 29 minutes 17 seconds 451 msec
