                         Program Version 3.0.3 - RELEASE   -
|  1> ! RI-MP2 RIJK def2-TZVP def2-TZVP/C def2-TZVP/JK TIGHTSCF
|  2> % maxcore 2000
|  3> % mp2 density relaxed end
|  4> *xyz 0 1
|  5>  C       -0.0062103530     1.5861164248    -0.1345215359
|  6>  C        1.5424412609     1.5693343272    -0.0350859011
|  7>  C        2.0781613378     1.7580920009     1.3983809655
|  8>  C        1.8822681256     0.3824297173     2.0773458974
|  9>  C        2.2868210365    -0.5981536232     0.9581940522
| 10>  C        1.5192041085     0.0070910583    -0.2160557370
| 11>  C       -0.0220473330     0.0464235988     0.0703623549
| 12>  O       -0.3606188051    -0.4216664054     1.3614198898
| 13>  C        0.4052998975     0.1101553402     2.4408669354
| 14>  H       -0.5567818372     2.1882881665     0.5946456131
| 15>  H       -0.3557835969     1.8531463121    -1.1358934047
| 16>  H        2.0789702988     2.1723242710    -0.7698366611
| 17>  H        3.1469138121     1.9983687830     1.3689162506
| 18>  H        1.5762069486     2.5700356167     1.9365453886
| 19>  H        2.4882652131     0.2915589358     2.9835457399
| 20>  H        3.3678813808    -0.5775735824     0.7822567355
| 21>  H        1.9921466857    -1.6307494628     1.1687345052
| 22>  H        1.7815311193    -0.3798848646    -1.2019534673
| 23>  H       -0.6626203998    -0.5202115290    -0.6090312591
| 24>  H        0.3439467719    -0.6480708732     3.2287208494
| 25>  H       -0.0645427321     1.0275680480     2.8300376187
| 26> *
| 27>
| 28>                          ****END OF INPUT****

CARTESIAN COORDINATES (ANGSTROEM)
---------------------------------
  C     -0.006210    1.586116   -0.134522
  C      1.542441    1.569334   -0.035086
  C      2.078161    1.758092    1.398381
  C      1.882268    0.382430    2.077346
  C      2.286821   -0.598154    0.958194
  C      1.519204    0.007091   -0.216056
  C     -0.022047    0.046424    0.070362
  O     -0.360619   -0.421666    1.361420
  C      0.405300    0.110155    2.440867
  H     -0.556782    2.188288    0.594646
  H     -0.355784    1.853146   -1.135893
  H      2.078970    2.172324   -0.769837
  H      3.146914    1.998369    1.368916
  H      1.576207    2.570036    1.936545
  H      2.488265    0.291559    2.983546
  H      3.367881   -0.577574    0.782257
  H      1.992147   -1.630749    1.168735
  H      1.781531   -0.379885   -1.201953
  H     -0.662620   -0.520212   -0.609031
  H      0.343947   -0.648071    3.228721
  H     -0.064543    1.027568    2.830038

 Total Charge           Charge          ....    0
 Multiplicity           Mult            ....    1
 Number of Electrons    NEL             ....   68
 Basis Dimension        Dim             ....  351

ORBITAL ENERGIES
----------------

  NO   OCC          E(Eh)            E(eV)
   0   2.0000     -20.544883      -559.0547
   1   2.0000     -11.270758      -306.6929
   2   2.0000     -11.267676      -306.6090
   3   2.0000     -11.226022      -305.4756
   4   2.0000     -11.222893      -305.3904
   5   2.0000     -11.219771      -305.3055
   6   2.0000     -11.217829      -305.2527
   7   2.0000     -11.216483      -305.2160
   8   2.0000     -11.214593      -305.1646
   9   2.0000      -1.366643       -37.1882
  10   2.0000      -1.149173       -31.2706
  11   2.0000      -1.061573       -28.8869
  12   2.0000      -0.974910       -26.5287
  13   2.0000      -0.920788       -25.0559
  14   2.0000      -0.880559       -23.9612
  15   2.0000      -0.833501       -22.6807
  16   2.0000      -0.745309       -20.2809
  17   2.0000      -0.706541       -19.2260
  18   2.0000      -0.694759       -18.9053
  19   2.0000      -0.651570       -17.7301
  20   2.0000      -0.640308       -17.4237
  21   2.0000      -0.612742       -16.6735
  22   2.0000      -0.588749       -16.0207
  23   2.0000      -0.573493       -15.6055
  24   2.0000      -0.545430       -14.8419
  25   2.0000      -0.530264       -14.4292
  26   2.0000      -0.505511       -13.7557
  27   2.0000      -0.489174       -13.3111
  28   2.0000      -0.464441       -12.6381
  29   2.0000      -0.453347       -12.3362
  30   2.0000      -0.445788       -12.1305
  31   2.0000      -0.430915       -11.7258
  32   2.0000      -0.409097       -11.1321
  33   2.0000      -0.382168       -10.3993
  34   0.0000       0.131567         3.5801
  35   0.0000       0.159582         4.3424
  36   0.0000       0.163468         4.4482
  37   0.0000       0.176673         4.8075
  38   0.0000       0.183757         5.0003

MULLIKEN ATOMIC CHARGES
-----------------------
   0 C :   -0.268790
   1 C :   -0.052523
   2 C :   -0.310832
   3 C :   -0.012818
   4 C :   -0.289183
   5 C :   -0.074670
   6 C :    0.042014
   7 O :   -0.313531
   8 C :   -0.099330
   9 H :    0.113440
  10 H :    0.117744
  11 H :    0.108850
  12 H :    0.115935
  13 H :    0.123040
  14 H :    0.114040
  15 H :    0.116737
  16 H :    0.126347
  17 H :    0.116523
  18 H :    0.113569
  19 H :    0.119186
  20 H :    0.094252
Sum of atomic charges:    0.0000000

LOEWDIN ATOMIC CHARGES
----------------------
   0 C :   -0.206674
   1 C :   -0.195981
   2 C :   -0.217315
   3 C :   -0.244602
   4 C :   -0.213528
   5 C :   -0.177149
   6 C :   -0.269534
   7 O :    0.172874
   8 C :   -0.283211
   9 H :    0.129938
  10 H :    0.137654
  11 H :    0.135036
  12 H :    0.139981
  13 H :    0.135970
  14 H :    0.148745
  15 H :    0.139462
  16 H :    0.143404
  17 H :    0.141150
  18 H :    0.133170
  19 H :    0.129661
  20 H :    0.120950

  Mayer bond orders larger than 0.1
B(  0-C ,  1-C ) :   0.9394 B(  0-C ,  6-C ) :   0.9167 B(  0-C ,  9-H ) :   0.9113
B(  0-C , 10-H ) :   0.9127 B(  1-C ,  2-C ) :   0.9248 B(  1-C ,  5-C ) :   0.9131
B(  1-C , 11-H ) :   0.9191 B(  2-C ,  3-C ) :   0.9241 B(  2-C , 12-H ) :   0.9244
B(  2-C , 13-H ) :   0.9332 B(  3-C ,  4-C ) :   0.9113 B(  3-C ,  8-C ) :   0.9135
B(  3-C , 14-H ) :   0.9176 B(  4-C ,  5-C ) :   0.9450 B(  4-C , 15-H ) :   0.9245
B(  4-C , 16-H ) :   0.9162 B(  5-C ,  6-C ) :   0.8925 B(  5-C , 17-H ) :   0.9087
B(  6-C ,  7-O ) :   0.9607 B(  6-C , 18-H ) :   0.9340 B(  7-O ,  8-C ) :   0.9246
B(  8-C , 19-H ) :   0.9273 B(  8-C , 20-H ) :   0.9324

MP2 TOTAL ENERGY:     -386.428311694 Eh
FINAL SINGLE POINT ENERGY      -386.428311693658

DIPOLE MOMENT
-------------
                                X             Y             Z
Electronic contribution:     -2.28294      -2.07659      -0.43569
Nuclear contribution   :      2.77302       2.37092       0.35398
                        -----------------------------------------
Total Dipole Moment    :      0.49008       0.29433      -0.08170
                        -----------------------------------------
Magnitude (a.u.)       :      0.57748
Magnitude (Debye)      :      1.46785

                             ****ORCA TERMINATED NORMALLY****
TOTAL RUN TIME: 0 days 0 hours 22 minutes 58 seconds 143 msec
