                         Program Version 3.0.3 - RELEASE   -
|  1> ! RI-MP2 RIJK def2-TZVP def2-TZVP/C def2-TZVP/JK TIGHTSCF
|  2> % maxcore 2000
|  3> % mp2 density relaxed end
|  4> *xyz 0 1
|  5>  C       -0.0047719789     1.4506258751     0.0093470454
|  6>  N       -0.0390187489    -0.0015362862     0.0011907170
|  7>  C       -1.2141141317    -0.7138868408     0.0045930759
|  8>  C       -1.1873540749    -2.0573400364    -0.0025643893
|  9>  C        0.0987861793    -2.7240105647    -0.0137354725
| 10>  N        0.2266156771    -3.9964688745    -0.0213472111
| 11>  N        1.2547371566    -1.8719763456    -0.0161836258
| 12>  N        1.1750458652    -0.6154130651    -0.0091269181
| 13>  H        1.0429386387     1.7492039389     0.0021526594
| 14>  H       -0.5046945779     1.8572308196    -0.8758896833
| 15>  H       -0.4894840535     1.8471106111     0.9075724188
| 16>  H       -2.1221610637    -0.1223037666     0.0131117705
| 17>  H       -2.0946152659    -2.6462464197    -0.0002312719
| 18>  H        1.2235880285    -4.2253125851    -0.0285533149
| 19> *
| 20>
| 21>                          ****END OF INPUT****

CARTESIAN COORDINATES (ANGSTROEM)
---------------------------------
  C     -0.004772    1.450626    0.009347
  N     -0.039019   -0.001536    0.001191
  C     -1.214114   -0.713887    0.004593
  C     -1.187354   -2.057340   -0.002564
  C      0.098786   -2.724011   -0.013735
  N      0.226616   -3.996469   -0.021347
  N      1.254737   -1.871976   -0.016184
  N      1.175046   -0.615413   -0.009127
  H      1.042939    1.749204    0.002153
  H     -0.504695    1.857231   -0.875890
  H     -0.489484    1.847111    0.907572
  H     -2.122161   -0.122304    0.013112
  H     -2.094615   -2.646246   -0.000231
  H      1.223588   -4.225313   -0.028553

 Total Charge           Charge          ....    0
 Multiplicity           Mult            ....    1
 Number of Electrons    NEL             ....   58
 Basis Dimension        Dim             ....  284

ORBITAL ENERGIES
----------------

  NO   OCC          E(Eh)            E(eV)
   0   2.0000     -15.694944      -427.0811
   1   2.0000     -15.657764      -426.0694
   2   2.0000     -15.618168      -424.9920
   3   2.0000     -15.527739      -422.5313
   4   2.0000     -11.314090      -307.8720
   5   2.0000     -11.313781      -307.8636
   6   2.0000     -11.293532      -307.3126
   7   2.0000     -11.249176      -306.1056
   8   2.0000      -1.436685       -39.0942
   9   2.0000      -1.267915       -34.5017
  10   2.0000      -1.203077       -32.7374
  11   2.0000      -1.091666       -29.7057
  12   2.0000      -0.996084       -27.1048
  13   2.0000      -0.929915       -25.3043
  14   2.0000      -0.881901       -23.9977
  15   2.0000      -0.756082       -20.5740
  16   2.0000      -0.726409       -19.7666
  17   2.0000      -0.682038       -18.5592
  18   2.0000      -0.681012       -18.5313
  19   2.0000      -0.621302       -16.9065
  20   2.0000      -0.602021       -16.3818
  21   2.0000      -0.589210       -16.0332
  22   2.0000      -0.586465       -15.9585
  23   2.0000      -0.556686       -15.1482
  24   2.0000      -0.480225       -13.0676
  25   2.0000      -0.457634       -12.4529
  26   2.0000      -0.452838       -12.3223
  27   2.0000      -0.405125       -11.0240
  28   2.0000      -0.316194        -8.6041
  29   0.0000       0.091201         2.4817
  30   0.0000       0.105588         2.8732
  31   0.0000       0.122681         3.3383
  32   0.0000       0.160699         4.3729
  33   0.0000       0.184371         5.0170

MULLIKEN ATOMIC CHARGES
-----------------------
   0 C :   -0.328549
   1 N :    0.102345
   2 C :   -0.078002
   3 C :   -0.138282
   4 C :    0.053594
   5 N :   -0.372446
   6 N :   -0.127946
   7 N :   -0.132995
   8 H :    0.180383
   9 H :    0.153536
  10 H :    0.153559
  11 H :    0.158668
  12 H :    0.156338
  13 H :    0.219799
Sum of atomic charges:    0.0000000

LOEWDIN ATOMIC CHARGES
----------------------
   0 C :   -0.279949
   1 N :    0.131992
   2 C :   -0.188432
   3 C :   -0.122266
   4 C :   -0.390608
   5 N :   -0.062933
   6 N :    0.044543
   7 N :    0.008070
   8 H :    0.136122
   9 H :    0.123647
  10 H :    0.123626
  11 H :    0.152256
  12 H :    0.160585
  13 H :    0.163347

  Mayer bond orders larger than 0.1
B(  0-C ,  1-N ) :   0.8657 B(  0-C ,  8-H ) :   0.9227 B(  0-C ,  9-H ) :   0.9279
B(  0-C , 10-H ) :   0.9279 B(  1-N ,  2-C ) :   1.0860 B(  1-N ,  7-N ) :   0.9552
B(  2-C ,  3-C ) :   1.5763 B(  2-C , 11-H ) :   0.9139 B(  3-C ,  4-C ) :   1.0551
B(  3-C , 12-H ) :   0.9076 B(  4-C ,  5-N ) :   1.9564 B(  4-C ,  6-N ) :   1.0909
B(  5-N , 13-H ) :   0.8571 B(  6-N ,  7-N ) :   1.4339

MP2 TOTAL ENERGY:     -374.224119857 Eh
FINAL SINGLE POINT ENERGY      -374.224119856575

DIPOLE MOMENT
-------------
                                X             Y             Z
Electronic contribution:      2.04652      -3.79013      -0.03344
Nuclear contribution   :     -3.05480       5.75360       0.04999
                        -----------------------------------------
Total Dipole Moment    :     -1.00828       1.96347       0.01654
                        -----------------------------------------
Magnitude (a.u.)       :      2.20728
Magnitude (Debye)      :      5.61047

                             ****ORCA TERMINATED NORMALLY****
TOTAL RUN TIME: 0 days 0 hours 11 minutes 6 seconds 458 msec
