                         Program Version 3.0.3 - RELEASE   -
|  1> ! RI-MP2 RIJK def2-TZVP def2-TZVP/C def2-TZVP/JK TIGHTSCF
|  2> % maxcore 2000
|  3> % mp2 density relaxed end
|  4> *xyz 0 1
|  5>  O       -0.2738333593     1.0360868544    -0.5928712454
|  6>  C        0.0253105464    -0.2176285460    -0.0243702115
|  7>  C       -1.2513755268    -1.0864917809     0.1591344351
|  8>  C       -1.3308764964    -1.9144577652    -1.1143702184
|  9>  C       -1.1261065350    -1.2166507754    -2.4097130797
| 10>  N       -0.0140303637    -1.9518433819    -1.7777858385
| 11>  C        0.8854262533    -1.1001571181    -0.9890533773
| 12>  C        0.7361034780    -0.0019667924     1.2941716628
| 13>  O        0.9918363921     1.1009373881     1.7131806729
| 14>  H        0.0739098354     1.6956657175     0.0298258474
| 15>  H       -1.1472544297    -1.7554955025     1.0223216276
| 16>  H       -2.1166715843    -0.4419171331     0.3295492400
| 17>  H       -1.8843462079    -2.8484968526    -1.0784225315
| 18>  H       -1.4911088504    -1.6734678323    -3.3247689367
| 19>  H       -1.1003254257    -0.1318290067    -2.4083741926
| 20>  H        1.4985906752    -0.4612630994    -1.6290276159
| 21>  H        1.5483302328    -1.7627278860    -0.4191549087
| 22>  H        1.0144528260    -0.9183456075     1.8537137002
| 23> *
| 24>
| 25>                          ****END OF INPUT****

CARTESIAN COORDINATES (ANGSTROEM)
---------------------------------
  O     -0.273833    1.036087   -0.592871
  C      0.025311   -0.217629   -0.024370
  C     -1.251376   -1.086492    0.159134
  C     -1.330876   -1.914458   -1.114370
  C     -1.126107   -1.216651   -2.409713
  N     -0.014030   -1.951843   -1.777786
  C      0.885426   -1.100157   -0.989053
  C      0.736103   -0.001967    1.294172
  O      0.991836    1.100937    1.713181
  H      0.073910    1.695666    0.029826
  H     -1.147254   -1.755496    1.022322
  H     -2.116672   -0.441917    0.329549
  H     -1.884346   -2.848497   -1.078423
  H     -1.491109   -1.673468   -3.324769
  H     -1.100325   -0.131829   -2.408374
  H      1.498591   -0.461263   -1.629028
  H      1.548330   -1.762728   -0.419155
  H      1.014453   -0.918346    1.853714

 Total Charge           Charge          ....    0
 Multiplicity           Mult            ....    1
 Number of Electrons    NEL             ....   68
 Basis Dimension        Dim             ....  333

ORBITAL ENERGIES
----------------

  NO   OCC          E(Eh)            E(eV)
   0   2.0000     -20.583712      -560.1113
   1   2.0000     -20.564444      -559.5870
   2   2.0000     -15.565524      -423.5594
   3   2.0000     -11.352254      -308.9105
   4   2.0000     -11.309769      -307.7545
   5   2.0000     -11.267001      -306.5907
   6   2.0000     -11.266228      -306.5697
   7   2.0000     -11.252626      -306.1995
   8   2.0000     -11.248226      -306.0798
   9   2.0000      -1.430634       -38.9295
  10   2.0000      -1.373772       -37.3822
  11   2.0000      -1.286699       -35.0129
  12   2.0000      -1.068782       -29.0830
  13   2.0000      -1.011033       -27.5116
  14   2.0000      -0.913358       -24.8537
  15   2.0000      -0.841062       -22.8864
  16   2.0000      -0.799371       -21.7520
  17   2.0000      -0.782644       -21.2968
  18   2.0000      -0.743506       -20.2318
  19   2.0000      -0.690899       -18.8003
  20   2.0000      -0.677449       -18.4343
  21   2.0000      -0.633281       -17.2325
  22   2.0000      -0.622484       -16.9386
  23   2.0000      -0.613398       -16.6914
  24   2.0000      -0.576148       -15.6778
  25   2.0000      -0.570023       -15.5111
  26   2.0000      -0.549263       -14.9462
  27   2.0000      -0.528537       -14.3822
  28   2.0000      -0.513100       -13.9622
  29   2.0000      -0.475105       -12.9283
  30   2.0000      -0.457196       -12.4409
  31   2.0000      -0.451992       -12.2993
  32   2.0000      -0.441659       -12.0182
  33   2.0000      -0.376419       -10.2429
  34   0.0000       0.110207         2.9989
  35   0.0000       0.133567         3.6345
  36   0.0000       0.166472         4.5299
  37   0.0000       0.172508         4.6942
  38   0.0000       0.186071         5.0633

MULLIKEN ATOMIC CHARGES
-----------------------
   0 O :   -0.478337
   1 C :    0.242968
   2 C :   -0.266186
   3 C :   -0.048456
   4 C :   -0.206947
   5 N :   -0.226028
   6 C :   -0.176703
   7 C :    0.086661
   8 O :   -0.286789
   9 H :    0.330361
  10 H :    0.123120
  11 H :    0.130744
  12 H :    0.126621
  13 H :    0.127893
  14 H :    0.162209
  15 H :    0.127844
  16 H :    0.123640
  17 H :    0.107385
Sum of atomic charges:   -0.0000000

LOEWDIN ATOMIC CHARGES
----------------------
   0 O :    0.016060
   1 C :   -0.378579
   2 C :   -0.194435
   3 C :   -0.246251
   4 C :   -0.235500
   5 N :    0.107083
   6 C :   -0.231217
   7 C :   -0.257008
   8 O :    0.133211
   9 H :    0.182735
  10 H :    0.146624
  11 H :    0.150238
  12 H :    0.139479
  13 H :    0.126698
  14 H :    0.136147
  15 H :    0.141644
  16 H :    0.138253
  17 H :    0.124819

  Mayer bond orders larger than 0.1
B(  0-O ,  1-C ) :   1.1316 B(  0-O ,  9-H ) :   0.7978 B(  1-C ,  2-C ) :   0.8722
B(  1-C ,  6-C ) :   0.8728 B(  1-C ,  7-C ) :   0.8350 B(  2-C ,  3-C ) :   0.9528
B(  2-C , 10-H ) :   0.9138 B(  2-C , 11-H ) :   0.9002 B(  3-C ,  4-C ) :   0.9354
B(  3-C ,  5-N ) :   0.8936 B(  3-C , 12-H ) :   0.9208 B(  4-C ,  5-N ) :   0.8787
B(  4-C , 13-H ) :   0.9261 B(  4-C , 14-H ) :   0.9067 B(  5-N ,  6-C ) :   0.9473
B(  6-C , 15-H ) :   0.9233 B(  6-C , 16-H ) :   0.9144 B(  7-C ,  8-O ) :   1.9072
B(  7-C , 17-H ) :   0.9262

MP2 TOTAL ENERGY:     -438.358828591 Eh
FINAL SINGLE POINT ENERGY      -438.358828590662

DIPOLE MOMENT
-------------
                                X             Y             Z
Electronic contribution:      1.97068       2.79287       2.31245
Nuclear contribution   :     -2.23049      -3.22785      -1.95612
                        -----------------------------------------
Total Dipole Moment    :     -0.25981      -0.43498       0.35633
                        -----------------------------------------
Magnitude (a.u.)       :      0.61942
Magnitude (Debye)      :      1.57444

                             ****ORCA TERMINATED NORMALLY****
TOTAL RUN TIME: 0 days 0 hours 17 minutes 4 seconds 271 msec
