                         Program Version 3.0.3 - RELEASE   -
|  1> ! RI-MP2 RIJK def2-TZVP def2-TZVP/C def2-TZVP/JK TIGHTSCF
|  2> % maxcore 2000
|  3> % mp2 density relaxed end
|  4> *xyz 0 1
|  5>  C       -0.0709489959     1.5727658317    -0.0234429533
|  6>  C       -0.0115350991     0.0490636089     0.0129695903
|  7>  C       -1.3836539593    -0.5537866565    -0.3022505340
|  8>  C        1.1637959651    -0.6456803717    -0.7522103200
|  9>  O        2.3124692190     0.0787990670    -0.2910308925
| 10>  C        2.2334840939    -0.3259837490     1.0897434550
| 11>  C        2.5126398195    -1.8389431448     0.9871397096
| 12>  C        1.1400190705    -1.8370791827     0.2996432897
| 13>  C        0.6792477636    -0.6407524991     1.2125665374
| 14>  H        0.9168611372     2.0132976844     0.1186772593
| 15>  H       -0.4644922170     1.9261949045    -0.9839886212
| 16>  H       -0.7381814890     1.9497210305     0.7604961658
| 17>  H       -1.7203336140    -0.2384538186    -1.2965765623
| 18>  H       -1.3869459301    -1.6464408406    -0.2797050992
| 19>  H       -2.1309797746    -0.2069858286     0.4201649053
| 20>  H        1.1875757937    -0.7743008232    -1.8344102548
| 21>  H        2.7821679315     0.3609016668     1.7317063240
| 22>  H        3.4061124534    -2.1381697385     0.4336323169
| 23>  H        2.4608348100    -2.3468316905     1.9542593510
| 24>  H        0.5548169358    -2.7291600943     0.0942553872
| 25>  H        0.2410709860    -0.7567812455     2.2035438860
| 26> *
| 27>
| 28>                          ****END OF INPUT****

CARTESIAN COORDINATES (ANGSTROEM)
---------------------------------
  C     -0.070949    1.572766   -0.023443
  C     -0.011535    0.049064    0.012970
  C     -1.383654   -0.553787   -0.302251
  C      1.163796   -0.645680   -0.752210
  O      2.312469    0.078799   -0.291031
  C      2.233484   -0.325984    1.089743
  C      2.512640   -1.838943    0.987140
  C      1.140019   -1.837079    0.299643
  C      0.679248   -0.640752    1.212567
  H      0.916861    2.013298    0.118677
  H     -0.464492    1.926195   -0.983989
  H     -0.738181    1.949721    0.760496
  H     -1.720334   -0.238454   -1.296577
  H     -1.386946   -1.646441   -0.279705
  H     -2.130980   -0.206986    0.420165
  H      1.187576   -0.774301   -1.834410
  H      2.782168    0.360902    1.731706
  H      3.406112   -2.138170    0.433632
  H      2.460835   -2.346832    1.954259
  H      0.554817   -2.729160    0.094255
  H      0.241071   -0.756781    2.203544

 Total Charge           Charge          ....    0
 Multiplicity           Mult            ....    1
 Number of Electrons    NEL             ....   68
 Basis Dimension        Dim             ....  351

ORBITAL ENERGIES
----------------

  NO   OCC          E(Eh)            E(eV)
   0   2.0000     -20.547338      -559.1215
   1   2.0000     -11.282666      -307.0170
   2   2.0000     -11.279859      -306.9406
   3   2.0000     -11.235336      -305.7290
   4   2.0000     -11.234409      -305.7038
   5   2.0000     -11.233758      -305.6861
   6   2.0000     -11.221700      -305.3580
   7   2.0000     -11.215770      -305.1966
   8   2.0000     -11.203809      -304.8711
   9   2.0000      -1.391582       -37.8669
  10   2.0000      -1.144034       -31.1307
  11   2.0000      -1.063088       -28.9281
  12   2.0000      -0.958031       -26.0693
  13   2.0000      -0.928318       -25.2608
  14   2.0000      -0.903964       -24.5981
  15   2.0000      -0.795765       -21.6539
  16   2.0000      -0.763269       -20.7696
  17   2.0000      -0.729424       -19.8486
  18   2.0000      -0.705497       -19.1976
  19   2.0000      -0.644641       -17.5416
  20   2.0000      -0.625389       -17.0177
  21   2.0000      -0.593733       -16.1563
  22   2.0000      -0.574325       -15.6282
  23   2.0000      -0.550195       -14.9716
  24   2.0000      -0.538119       -14.6430
  25   2.0000      -0.531451       -14.4615
  26   2.0000      -0.528202       -14.3731
  27   2.0000      -0.501740       -13.6530
  28   2.0000      -0.480117       -13.0647
  29   2.0000      -0.465977       -12.6799
  30   2.0000      -0.449909       -12.2426
  31   2.0000      -0.423209       -11.5161
  32   2.0000      -0.405331       -11.0296
  33   2.0000      -0.384230       -10.4554
  34   0.0000       0.135758         3.6942
  35   0.0000       0.157023         4.2728
  36   0.0000       0.164895         4.4870
  37   0.0000       0.183080         4.9819
  38   0.0000       0.184721         5.0265

MULLIKEN ATOMIC CHARGES
-----------------------
   0 C :   -0.432803
   1 C :    0.051082
   2 C :   -0.433336
   3 C :    0.092265
   4 O :   -0.332776
   5 C :    0.009038
   6 C :   -0.209510
   7 C :   -0.197156
   8 C :   -0.094711
   9 H :    0.153025
  10 H :    0.123725
  11 H :    0.125458
  12 H :    0.132777
  13 H :    0.133120
  14 H :    0.132214
  15 H :    0.129007
  16 H :    0.128188
  17 H :    0.118493
  18 H :    0.113058
  19 H :    0.130126
  20 H :    0.128715
Sum of atomic charges:    0.0000000

LOEWDIN ATOMIC CHARGES
----------------------
   0 C :   -0.271639
   1 C :   -0.274056
   2 C :   -0.263530
   3 C :   -0.199267
   4 O :    0.186878
   5 C :   -0.231962
   6 C :   -0.214779
   7 C :   -0.166174
   8 C :   -0.124899
   9 H :    0.130607
  10 H :    0.126041
  11 H :    0.125825
  12 H :    0.127107
  13 H :    0.127099
  14 H :    0.127699
  15 H :    0.130113
  16 H :    0.127772
  17 H :    0.127924
  18 H :    0.141703
  19 H :    0.131428
  20 H :    0.136109

  Mayer bond orders larger than 0.1
B(  0-C ,  1-C ) :   0.9054 B(  0-C ,  9-H ) :   0.9340 B(  0-C , 10-H ) :   0.9339
B(  0-C , 11-H ) :   0.9353 B(  1-C ,  2-C ) :   0.9067 B(  1-C ,  3-C ) :   0.9172
B(  1-C ,  8-C ) :   0.9084 B(  2-C , 12-H ) :   0.9387 B(  2-C , 13-H ) :   0.9317
B(  2-C , 14-H ) :   0.9365 B(  3-C ,  4-O ) :   0.9190 B(  3-C ,  7-C ) :   0.8911
B(  3-C , 15-H ) :   0.8950 B(  4-O ,  5-C ) :   0.8953 B(  5-C ,  6-C ) :   0.9331
B(  5-C ,  8-C ) :   0.8760 B(  5-C , 16-H ) :   0.9164 B(  6-C ,  7-C ) :   0.9540
B(  6-C , 17-H ) :   0.9119 B(  6-C , 18-H ) :   0.9208 B(  7-C ,  8-C ) :   0.8775
B(  7-C , 19-H ) :   0.9147 B(  8-C , 20-H ) :   0.9003

MP2 TOTAL ENERGY:     -386.381306187 Eh
FINAL SINGLE POINT ENERGY      -386.381306187490

DIPOLE MOMENT
-------------
                                X             Y             Z
Electronic contribution:      5.40401      -0.96666      -0.15976
Nuclear contribution   :     -5.82775       0.60459       0.47893
                        -----------------------------------------
Total Dipole Moment    :     -0.42374      -0.36207       0.31917
                        -----------------------------------------
Magnitude (a.u.)       :      0.64228
Magnitude (Debye)      :      1.63254

                             ****ORCA TERMINATED NORMALLY****
TOTAL RUN TIME: 0 days 0 hours 22 minutes 34 seconds 39 msec
