                         Program Version 3.0.3 - RELEASE   -
|  1> ! RI-MP2 RIJK def2-TZVP def2-TZVP/C def2-TZVP/JK TIGHTSCF
|  2> % maxcore 2000
|  3> % mp2 density relaxed end
|  4> *xyz 0 1
|  5>  C        0.0137817746     1.5716887973     0.0155889044
|  6>  C        0.0259147351     0.0494665783     0.0656582392
|  7>  C        0.7392226764    -0.6322678724    -1.1458839646
|  8>  O        1.5366420183    -1.7295011234    -0.6207954513
|  9>  C        1.6451435459    -1.5017159381     0.7032304789
| 10>  C        2.2743905939    -1.9705333451     1.8288116673
| 11>  N        1.8099470147    -1.2171194809     2.8779572110
| 12>  N        0.9449525163    -0.3298008769     2.4673307106
| 13>  N        0.8578366599    -0.5002105344     1.1259802179
| 14>  H        1.0291322715     1.9642143637    -0.0911244817
| 15>  H       -0.5884447583     1.9166722344    -0.8303621925
| 16>  H       -0.4184610480     1.9770459274     0.9333553548
| 17>  H       -0.9971470838    -0.3293764016     0.1784256243
| 18>  H        0.0449769356    -1.0435592455    -1.8795621351
| 19>  H        1.4151937521     0.0752761287    -1.6391726183
| 20>  H        2.9958071157    -2.7571308014     1.9607457752
| 21> *
| 22>
| 23>                          ****END OF INPUT****

CARTESIAN COORDINATES (ANGSTROEM)
---------------------------------
  C      0.013782    1.571689    0.015589
  C      0.025915    0.049467    0.065658
  C      0.739223   -0.632268   -1.145884
  O      1.536642   -1.729501   -0.620795
  C      1.645144   -1.501716    0.703230
  C      2.274391   -1.970533    1.828812
  N      1.809947   -1.217119    2.877957
  N      0.944953   -0.329801    2.467331
  N      0.857837   -0.500211    1.125980
  H      1.029132    1.964214   -0.091124
  H     -0.588445    1.916672   -0.830362
  H     -0.418461    1.977046    0.933355
  H     -0.997147   -0.329376    0.178426
  H      0.044977   -1.043559   -1.879562
  H      1.415194    0.075276   -1.639173
  H      2.995807   -2.757131    1.960746

 Total Charge           Charge          ....    0
 Multiplicity           Mult            ....    1
 Number of Electrons    NEL             ....   66
 Basis Dimension        Dim             ....  321

ORBITAL ENERGIES
----------------

  NO   OCC          E(Eh)            E(eV)
   0   2.0000     -20.620386      -561.1092
   1   2.0000     -15.644539      -425.7096
   2   2.0000     -15.630025      -425.3146
   3   2.0000     -15.597920      -424.4410
   4   2.0000     -11.339696      -308.5688
   5   2.0000     -11.325015      -308.1693
   6   2.0000     -11.314519      -307.8837
   7   2.0000     -11.247879      -306.0703
   8   2.0000     -11.246720      -306.0388
   9   2.0000      -1.475251       -40.1436
  10   2.0000      -1.408523       -38.3279
  11   2.0000      -1.219729       -33.1905
  12   2.0000      -1.087932       -29.6041
  13   2.0000      -1.063273       -28.9331
  14   2.0000      -0.971544       -26.4371
  15   2.0000      -0.887812       -24.1586
  16   2.0000      -0.839054       -22.8318
  17   2.0000      -0.804201       -21.8834
  18   2.0000      -0.739491       -20.1226
  19   2.0000      -0.687727       -18.7140
  20   2.0000      -0.665185       -18.1006
  21   2.0000      -0.645657       -17.5692
  22   2.0000      -0.632246       -17.2043
  23   2.0000      -0.620470       -16.8838
  24   2.0000      -0.597379       -16.2555
  25   2.0000      -0.566101       -15.4044
  26   2.0000      -0.552246       -15.0274
  27   2.0000      -0.525491       -14.2993
  28   2.0000      -0.513180       -13.9643
  29   2.0000      -0.503498       -13.7009
  30   2.0000      -0.430964       -11.7271
  31   2.0000      -0.395888       -10.7727
  32   2.0000      -0.338066        -9.1992
  33   0.0000       0.119231         3.2444
  34   0.0000       0.141023         3.8374
  35   0.0000       0.155248         4.2245
  36   0.0000       0.171725         4.6729
  37   0.0000       0.180883         4.9221

MULLIKEN ATOMIC CHARGES
-----------------------
   0 C :   -0.399329
   1 C :   -0.050393
   2 C :   -0.012919
   3 O :   -0.276842
   4 C :    0.173422
   5 C :   -0.171534
   6 N :   -0.138411
   7 N :   -0.220153
   8 N :    0.123994
   9 H :    0.139406
  10 H :    0.139874
  11 H :    0.167232
  12 H :    0.125579
  13 H :    0.138201
  14 H :    0.115514
  15 H :    0.146359
Sum of atomic charges:    0.0000000

LOEWDIN ATOMIC CHARGES
----------------------
   0 C :   -0.281887
   1 C :   -0.253948
   2 C :   -0.208511
   3 O :    0.235377
   4 C :   -0.348953
   5 C :   -0.261184
   6 N :   -0.001258
   7 N :   -0.042415
   8 N :    0.205979
   9 H :    0.130912
  10 H :    0.131731
  11 H :    0.137368
  12 H :    0.154073
  13 H :    0.132570
  14 H :    0.132803
  15 H :    0.137341

  Mayer bond orders larger than 0.1
B(  0-C ,  1-C ) :   0.9285 B(  0-C ,  9-H ) :   0.9241 B(  0-C , 10-H ) :   0.9320
B(  0-C , 11-H ) :   0.9297 B(  1-C ,  2-C ) :   0.9271 B(  1-C ,  8-N ) :   0.8581
B(  1-C , 12-H ) :   0.9183 B(  2-C ,  3-O ) :   0.8630 B(  2-C , 13-H ) :   0.9250
B(  2-C , 14-H ) :   0.9140 B(  3-O ,  4-C ) :   1.0846 B(  4-C ,  5-C ) :   1.3963
B(  4-C ,  8-N ) :   1.1444 B(  5-C ,  6-N ) :   1.3454 B(  5-C , 15-H ) :   0.9474
B(  6-N ,  7-N ) :   1.2686 B(  7-N ,  8-N ) :   0.9714

MP2 TOTAL ENERGY:     -433.335861397 Eh
FINAL SINGLE POINT ENERGY      -433.335861396941

DIPOLE MOMENT
-------------
                                X             Y             Z
Electronic contribution:      3.14356      -5.62784       4.37068
Nuclear contribution   :     -3.81738       6.10309      -6.36954
                        -----------------------------------------
Total Dipole Moment    :     -0.67382       0.47525      -1.99886
                        -----------------------------------------
Magnitude (a.u.)       :      2.16225
Magnitude (Debye)      :      5.49601

                             ****ORCA TERMINATED NORMALLY****
TOTAL RUN TIME: 0 days 0 hours 17 minutes 10 seconds 911 msec
