                         Program Version 3.0.3 - RELEASE   -
|  1> ! RI-MP2 RIJK def2-TZVP def2-TZVP/C def2-TZVP/JK TIGHTSCF
|  2> % maxcore 2000
|  3> % mp2 density relaxed end
|  4> *xyz 0 1
|  5>  C        0.0182684187    -1.2338041272    -0.2812644789
|  6>  C       -0.0277765241    -0.0381128631    -0.1337392375
|  7>  C       -0.0198844458     1.3754791704     0.0485949807
|  8>  C       -1.1780788098     2.0592737444     0.0244332228
|  9>  C       -1.3390627425     3.5506221111     0.1634241974
| 10>  C       -0.5934585236     4.2004866717     1.3369815530
| 11>  O        0.8097896707     4.2403975798     1.1794893728
| 12>  C        1.4726004483     3.0088807734     1.3886705011
| 13>  C        1.3503491061     2.0183773197     0.2258629229
| 14>  H        0.0398417386    -2.2867486492    -0.4151597299
| 15>  H       -2.0880319101     1.4883018084    -0.1372610651
| 16>  H       -1.0090700832     4.0509136012    -0.7591400988
| 17>  H       -2.4039708208     3.7844795005     0.2730632839
| 18>  H       -0.9079695875     5.2461659558     1.4208395318
| 19>  H       -0.8596130922     3.6891404963     2.2763053356
| 20>  H        2.5288593422     3.2667473740     1.5194638901
| 21>  H        1.1207332845     2.5376484210     2.3205892653
| 22>  H        2.0927931047     1.2286479903     0.3744549842
| 23>  H        1.6303930659     2.5411123014    -0.6987973813
| 24> *
| 25>
| 26>                          ****END OF INPUT****

CARTESIAN COORDINATES (ANGSTROEM)
---------------------------------
  C      0.018268   -1.233804   -0.281264
  C     -0.027777   -0.038113   -0.133739
  C     -0.019884    1.375479    0.048595
  C     -1.178079    2.059274    0.024433
  C     -1.339063    3.550622    0.163424
  C     -0.593459    4.200487    1.336982
  O      0.809790    4.240398    1.179489
  C      1.472600    3.008881    1.388671
  C      1.350349    2.018377    0.225863
  H      0.039842   -2.286749   -0.415160
  H     -2.088032    1.488302   -0.137261
  H     -1.009070    4.050914   -0.759140
  H     -2.403971    3.784480    0.273063
  H     -0.907970    5.246166    1.420840
  H     -0.859613    3.689140    2.276305
  H      2.528859    3.266747    1.519464
  H      1.120733    2.537648    2.320589
  H      2.092793    1.228648    0.374455
  H      1.630393    2.541112   -0.698797

 Total Charge           Charge          ....    0
 Multiplicity           Mult            ....    1
 Number of Electrons    NEL             ....   66
 Basis Dimension        Dim             ....  339

ORBITAL ENERGIES
----------------

  NO   OCC          E(Eh)            E(eV)
   0   2.0000     -20.554928      -559.3280
   1   2.0000     -11.279513      -306.9311
   2   2.0000     -11.278232      -306.8963
   3   2.0000     -11.256935      -306.3168
   4   2.0000     -11.243921      -305.9627
   5   2.0000     -11.235556      -305.7350
   6   2.0000     -11.235042      -305.7210
   7   2.0000     -11.234193      -305.6979
   8   2.0000     -11.223809      -305.4154
   9   2.0000      -1.377161       -37.4744
  10   2.0000      -1.122169       -30.5358
  11   2.0000      -1.057343       -28.7718
  12   2.0000      -1.018903       -27.7258
  13   2.0000      -0.950076       -25.8529
  14   2.0000      -0.911248       -24.7963
  15   2.0000      -0.811651       -22.0862
  16   2.0000      -0.775929       -21.1141
  17   2.0000      -0.707740       -19.2586
  18   2.0000      -0.688580       -18.7372
  19   2.0000      -0.665977       -18.1221
  20   2.0000      -0.655184       -17.8285
  21   2.0000      -0.625133       -17.0107
  22   2.0000      -0.582679       -15.8555
  23   2.0000      -0.580312       -15.7911
  24   2.0000      -0.540856       -14.7174
  25   2.0000      -0.533277       -14.5112
  26   2.0000      -0.517170       -14.0729
  27   2.0000      -0.479685       -13.0529
  28   2.0000      -0.469393       -12.7728
  29   2.0000      -0.452444       -12.3116
  30   2.0000      -0.419270       -11.4089
  31   2.0000      -0.389559       -10.6004
  32   2.0000      -0.325174        -8.8484
  33   0.0000       0.106135         2.8881
  34   0.0000       0.142166         3.8685
  35   0.0000       0.161627         4.3981
  36   0.0000       0.165982         4.5166
  37   0.0000       0.168326         4.5804

MULLIKEN ATOMIC CHARGES
-----------------------
   0 C :   -0.107065
   1 C :    0.039489
   2 C :   -0.161667
   3 C :   -0.202901
   4 C :   -0.173618
   5 C :   -0.064097
   6 O :   -0.307335
   7 C :   -0.080729
   8 C :   -0.223454
   9 H :    0.191152
  10 H :    0.133356
  11 H :    0.121616
  12 H :    0.121926
  13 H :    0.123387
  14 H :    0.098813
  15 H :    0.124878
  16 H :    0.104773
  17 H :    0.137777
  18 H :    0.123699
Sum of atomic charges:   -0.0000000

LOEWDIN ATOMIC CHARGES
----------------------
   0 C :   -0.088399
   1 C :   -0.075986
   2 C :   -0.166715
   3 C :   -0.115216
   4 C :   -0.258213
   5 C :   -0.320136
   6 O :    0.155419
   7 C :   -0.316322
   8 C :   -0.211769
   9 H :    0.126791
  10 H :    0.151993
  11 H :    0.153088
  12 H :    0.148154
  13 H :    0.130927
  14 H :    0.121998
  15 H :    0.131904
  16 H :    0.123855
  17 H :    0.155117
  18 H :    0.153512

  Mayer bond orders larger than 0.1
B(  0-C ,  1-C ) :   2.5491 B(  0-C ,  2-C ) :  -0.1544 B(  0-C ,  9-H ) :   0.8870
B(  1-C ,  2-C ) :   1.1290 B(  2-C ,  3-C ) :   1.7115 B(  2-C ,  8-C ) :   0.9445
B(  3-C ,  4-C ) :   0.9441 B(  3-C , 10-H ) :   0.9272 B(  4-C ,  5-C ) :   0.9216
B(  4-C , 11-H ) :   0.9029 B(  4-C , 12-H ) :   0.9237 B(  5-C ,  6-O ) :   0.9357
B(  5-C , 13-H ) :   0.9310 B(  5-C , 14-H ) :   0.9365 B(  6-O ,  7-C ) :   0.9292
B(  7-C ,  8-C ) :   0.9252 B(  7-C , 15-H ) :   0.9298 B(  7-C , 16-H ) :   0.9379
B(  8-C , 17-H ) :   0.9244 B(  8-C , 18-H ) :   0.9009

MP2 TOTAL ENERGY:     -385.170825320 Eh
FINAL SINGLE POINT ENERGY      -385.170825320284

DIPOLE MOMENT
-------------
                                X             Y             Z
Electronic contribution:      0.34670      -3.13276      -1.23030
Nuclear contribution   :     -0.56773       3.02780       1.31817
                        -----------------------------------------
Total Dipole Moment    :     -0.22104      -0.10495       0.08788
                        -----------------------------------------
Magnitude (a.u.)       :      0.25999
Magnitude (Debye)      :      0.66084

                             ****ORCA TERMINATED NORMALLY****
TOTAL RUN TIME: 0 days 0 hours 18 minutes 33 seconds 250 msec
