                         Program Version 3.0.3 - RELEASE   -
|  1> ! RI-MP2 RIJK def2-TZVP def2-TZVP/C def2-TZVP/JK TIGHTSCF
|  2> % maxcore 2000
|  3> % mp2 density relaxed end
|  4> *xyz 0 1
|  5>  C       -0.7864855666     1.4640529545     0.0350550688
|  6>  C       -0.2484381951     0.0488061125    -0.0883905929
|  7>  C        0.6041560706    -0.3940752147    -1.3199897131
|  8>  C        0.9257622864     0.5720219488    -2.4462096343
|  9>  O       -0.2717045436     0.7719659339    -3.1883510281
| 10>  C        1.7023448138    -0.7566474241    -0.3141979321
| 11>  C        2.5071857043    -2.0229828789    -0.3546384881
| 12>  C        2.0464468662     0.4057326874     0.5311278143
| 13>  N        0.8387887801    -0.3696188829     0.8806512154
| 14>  H       -0.0111655087     2.2286329653    -0.0694713576
| 15>  H       -1.5319092340     1.6439774030    -0.7449890258
| 16>  H       -1.2597243275     1.6017026049     1.0126395265
| 17>  H       -1.0760052726    -0.6500276507     0.0590335875
| 18>  H        0.1735639422    -1.2923653651    -1.7725156531
| 19>  H        1.3075351107     1.5252991921    -2.0525512945
| 20>  H        1.7205418360     0.1414292825    -3.0781510096
| 21>  H       -0.0972002516     1.4235191970    -3.8737627283
| 22>  H        3.2635695544    -1.9824808025    -1.1477885188
| 23>  H        3.0235890804    -2.1839636993     0.5961075522
| 24>  H        1.8678403188    -2.8919683455    -0.5451071590
| 25>  H        2.8454237802     0.2707420974     1.2546108098
| 26>  H        1.9556732756     1.4230984044     0.1621047806
| 27> *
| 28>
| 29>                          ****END OF INPUT****

CARTESIAN COORDINATES (ANGSTROEM)
---------------------------------
  C     -0.786486    1.464053    0.035055
  C     -0.248438    0.048806   -0.088391
  C      0.604156   -0.394075   -1.319990
  C      0.925762    0.572022   -2.446210
  O     -0.271705    0.771966   -3.188351
  C      1.702345   -0.756647   -0.314198
  C      2.507186   -2.022983   -0.354638
  C      2.046447    0.405733    0.531128
  N      0.838789   -0.369619    0.880651
  H     -0.011166    2.228633   -0.069471
  H     -1.531909    1.643977   -0.744989
  H     -1.259724    1.601703    1.012640
  H     -1.076005   -0.650028    0.059034
  H      0.173564   -1.292365   -1.772516
  H      1.307535    1.525299   -2.052551
  H      1.720542    0.141429   -3.078151
  H     -0.097200    1.423519   -3.873763
  H      3.263570   -1.982481   -1.147789
  H      3.023589   -2.183964    0.596108
  H      1.867840   -2.891968   -0.545107
  H      2.845424    0.270742    1.254611
  H      1.955673    1.423098    0.162105

 Total Charge           Charge          ....    0
 Multiplicity           Mult            ....    1
 Number of Electrons    NEL             ....   70
 Basis Dimension        Dim             ....  357

ORBITAL ENERGIES
----------------

  NO   OCC          E(Eh)            E(eV)
   0   2.0000     -20.560097      -559.4687
   1   2.0000     -15.549368      -423.1198
   2   2.0000     -11.279526      -306.9315
   3   2.0000     -11.262385      -306.4651
   4   2.0000     -11.252829      -306.2051
   5   2.0000     -11.248254      -306.0806
   6   2.0000     -11.229142      -305.5605
   7   2.0000     -11.220321      -305.3205
   8   2.0000     -11.209385      -305.0229
   9   2.0000      -1.363606       -37.1056
  10   2.0000      -1.282209       -34.8907
  11   2.0000      -1.041687       -28.3457
  12   2.0000      -1.014625       -27.6093
  13   2.0000      -0.965183       -26.2640
  14   2.0000      -0.911151       -24.7937
  15   2.0000      -0.845493       -23.0070
  16   2.0000      -0.778682       -21.1890
  17   2.0000      -0.723576       -19.6895
  18   2.0000      -0.689692       -18.7675
  19   2.0000      -0.675585       -18.3836
  20   2.0000      -0.636677       -17.3249
  21   2.0000      -0.612278       -16.6609
  22   2.0000      -0.593032       -16.1372
  23   2.0000      -0.566963       -15.4278
  24   2.0000      -0.561529       -15.2800
  25   2.0000      -0.557677       -15.1752
  26   2.0000      -0.549070       -14.9409
  27   2.0000      -0.533300       -14.5118
  28   2.0000      -0.515188       -14.0190
  29   2.0000      -0.484110       -13.1733
  30   2.0000      -0.465735       -12.6733
  31   2.0000      -0.438825       -11.9410
  32   2.0000      -0.429679       -11.6921
  33   2.0000      -0.408578       -11.1180
  34   2.0000      -0.358400        -9.7525
  35   0.0000       0.128329         3.4920
  36   0.0000       0.143310         3.8997
  37   0.0000       0.163208         4.4411
  38   0.0000       0.166199         4.5225
  39   0.0000       0.188274         5.1232

MULLIKEN ATOMIC CHARGES
-----------------------
   0 C :   -0.388297
   1 C :   -0.011339
   2 C :   -0.007865
   3 C :   -0.097235
   4 O :   -0.467671
   5 C :    0.070334
   6 C :   -0.432412
   7 C :   -0.182635
   8 N :   -0.237030
   9 H :    0.102361
  10 H :    0.146137
  11 H :    0.142323
  12 H :    0.104177
  13 H :    0.103970
  14 H :    0.094294
  15 H :    0.104919
  16 H :    0.315619
  17 H :    0.130221
  18 H :    0.139705
  19 H :    0.132176
  20 H :    0.124941
  21 H :    0.113307
Sum of atomic charges:   -0.0000000

LOEWDIN ATOMIC CHARGES
----------------------
   0 C :   -0.297199
   1 C :   -0.243616
   2 C :   -0.188351
   3 C :   -0.328309
   4 O :   -0.047157
   5 C :   -0.254645
   6 C :   -0.272031
   7 C :   -0.234147
   8 N :    0.127325
   9 H :    0.117910
  10 H :    0.132432
  11 H :    0.128710
  12 H :    0.147549
  13 H :    0.158439
  14 H :    0.115515
  15 H :    0.119674
  16 H :    0.172123
  17 H :    0.129198
  18 H :    0.133556
  19 H :    0.128979
  20 H :    0.133278
  21 H :    0.120768

  Mayer bond orders larger than 0.1
B(  0-C ,  1-C ) :   0.9481 B(  0-C ,  9-H ) :   0.9247 B(  0-C , 10-H ) :   0.9344
B(  0-C , 11-H ) :   0.9355 B(  1-C ,  2-C ) :   0.9559 B(  1-C ,  8-N ) :   0.9285
B(  1-C , 12-H ) :   0.9140 B(  2-C ,  3-C ) :   0.9129 B(  2-C ,  5-C ) :   0.8741
B(  2-C , 13-H ) :   0.9221 B(  3-C ,  4-O ) :   1.0186 B(  3-C , 14-H ) :   0.9290
B(  3-C , 15-H ) :   0.9279 B(  4-O , 16-H ) :   0.8473 B(  5-C ,  6-C ) :   0.8730
B(  5-C ,  7-C ) :   0.9616 B(  5-C ,  8-N ) :   0.8563 B(  6-C , 17-H ) :   0.9361
B(  6-C , 18-H ) :   0.9394 B(  6-C , 19-H ) :   0.9401 B(  7-C ,  8-N ) :   0.8959
B(  7-C , 20-H ) :   0.9231 B(  7-C , 21-H ) :   0.9034

MP2 TOTAL ENERGY:     -403.619351125 Eh
FINAL SINGLE POINT ENERGY      -403.619351124932

DIPOLE MOMENT
-------------
                                X             Y             Z
Electronic contribution:     -1.18242      -0.68554      -0.43183
Nuclear contribution   :      1.75032       1.16651      -0.34376
                        -----------------------------------------
Total Dipole Moment    :      0.56790       0.48098      -0.77559
                        -----------------------------------------
Magnitude (a.u.)       :      1.07489
Magnitude (Debye)      :      2.73216

                             ****ORCA TERMINATED NORMALLY****
TOTAL RUN TIME: 0 days 0 hours 20 minutes 50 seconds 973 msec
