                         Program Version 3.0.3 - RELEASE   -
|  1> ! RI-MP2 RIJK def2-TZVP def2-TZVP/C def2-TZVP/JK TIGHTSCF
|  2> % maxcore 2000
|  3> % mp2 density relaxed end
|  4> *xyz 0 1
|  5>  C       -0.0109218786     1.5147338129     0.1732034799
|  6>  C        1.3950410633     2.1202068788    -0.0307407445
|  7>  C        2.1663103353     1.3395631823    -1.1034162663
|  8>  O        2.4166811980     0.0114148335    -0.5985438475
|  9>  C        1.2444524022    -0.7096503245    -0.3877231114
| 10>  C       -0.0201864474     0.0020874067    -0.0169251425
| 11>  C        0.1492375389    -0.5862473884    -1.4382534097
| 12>  C        0.4734583070     0.3221648634    -2.5557945194
| 13>  C        1.4264511938     1.2495137545    -2.4175457848
| 14>  H       -0.3740822944     1.7582805882     1.1763590827
| 15>  H       -0.7137892361     1.9728649546    -0.5315123652
| 16>  H        1.3189257525     3.1772962494    -0.3068359049
| 17>  H        1.9774149564     2.0620608579     0.8959847858
| 18>  H        3.1608062402     1.7710304255    -1.2456870646
| 19>  H        1.4740997051    -1.6834172375     0.0296798540
| 20>  H       -0.7126019622    -0.5491069328     0.6115920991
| 21>  H       -0.4429778146    -1.4647430694    -1.6682816774
| 22>  H       -0.0566744682     0.1948134618    -3.4949001606
| 23>  H        1.7024237789     1.9183166831    -3.2255195226
| 24> *
| 25>
| 26>                          ****END OF INPUT****

CARTESIAN COORDINATES (ANGSTROEM)
---------------------------------
  C     -0.010922    1.514734    0.173203
  C      1.395041    2.120207   -0.030741
  C      2.166310    1.339563   -1.103416
  O      2.416681    0.011415   -0.598544
  C      1.244452   -0.709650   -0.387723
  C     -0.020186    0.002087   -0.016925
  C      0.149238   -0.586247   -1.438253
  C      0.473458    0.322165   -2.555795
  C      1.426451    1.249514   -2.417546
  H     -0.374082    1.758281    1.176359
  H     -0.713789    1.972865   -0.531512
  H      1.318926    3.177296   -0.306836
  H      1.977415    2.062061    0.895985
  H      3.160806    1.771030   -1.245687
  H      1.474100   -1.683417    0.029680
  H     -0.712602   -0.549107    0.611592
  H     -0.442978   -1.464743   -1.668282
  H     -0.056674    0.194813   -3.494900
  H      1.702424    1.918317   -3.225520

 Total Charge           Charge          ....    0
 Multiplicity           Mult            ....    1
 Number of Electrons    NEL             ....   66
 Basis Dimension        Dim             ....  339

ORBITAL ENERGIES
----------------

  NO   OCC          E(Eh)            E(eV)
   0   2.0000     -20.554005      -559.3029
   1   2.0000     -11.280633      -306.9616
   2   2.0000     -11.279810      -306.9392
   3   2.0000     -11.233195      -305.6708
   4   2.0000     -11.231001      -305.6111
   5   2.0000     -11.228045      -305.5306
   6   2.0000     -11.224998      -305.4477
   7   2.0000     -11.221292      -305.3469
   8   2.0000     -11.219570      -305.3000
   9   2.0000      -1.381797       -37.6006
  10   2.0000      -1.144610       -31.1464
  11   2.0000      -1.073736       -29.2178
  12   2.0000      -1.038853       -28.2686
  13   2.0000      -0.909137       -24.7389
  14   2.0000      -0.867719       -23.6118
  15   2.0000      -0.841603       -22.9012
  16   2.0000      -0.746745       -20.3200
  17   2.0000      -0.721480       -19.6325
  18   2.0000      -0.676752       -18.4154
  19   2.0000      -0.645139       -17.5551
  20   2.0000      -0.628167       -17.0933
  21   2.0000      -0.614539       -16.7224
  22   2.0000      -0.600916       -16.3518
  23   2.0000      -0.578926       -15.7534
  24   2.0000      -0.547232       -14.8909
  25   2.0000      -0.524864       -14.2823
  26   2.0000      -0.505821       -13.7641
  27   2.0000      -0.483632       -13.1603
  28   2.0000      -0.478619       -13.0239
  29   2.0000      -0.464612       -12.6427
  30   2.0000      -0.420694       -11.4477
  31   2.0000      -0.370516       -10.0823
  32   2.0000      -0.327267        -8.9054
  33   0.0000       0.137293         3.7359
  34   0.0000       0.142950         3.8899
  35   0.0000       0.160745         4.3741
  36   0.0000       0.170169         4.6305
  37   0.0000       0.179866         4.8944

MULLIKEN ATOMIC CHARGES
-----------------------
   0 C :   -0.161433
   1 C :   -0.287171
   2 C :    0.218434
   3 O :   -0.311167
   4 C :    0.044981
   5 C :   -0.189925
   6 C :   -0.072328
   7 C :   -0.233533
   8 C :   -0.226092
   9 H :    0.125864
  10 H :    0.117459
  11 H :    0.114772
  12 H :    0.114625
  13 H :    0.119776
  14 H :    0.130332
  15 H :    0.124261
  16 H :    0.126432
  17 H :    0.121444
  18 H :    0.123268
Sum of atomic charges:   -0.0000000

LOEWDIN ATOMIC CHARGES
----------------------
   0 C :   -0.234559
   1 C :   -0.234306
   2 C :   -0.284893
   3 O :    0.218596
   4 C :   -0.260248
   5 C :   -0.176878
   6 C :   -0.177586
   7 C :   -0.144001
   8 C :   -0.148280
   9 H :    0.140791
  10 H :    0.144535
  11 H :    0.139994
  12 H :    0.141879
  13 H :    0.148744
  14 H :    0.142441
  15 H :    0.149483
  16 H :    0.148373
  17 H :    0.144914
  18 H :    0.141000

  Mayer bond orders larger than 0.1
B(  0-C ,  1-C ) :   0.9665 B(  0-C ,  5-C ) :   0.9250 B(  0-C ,  9-H ) :   0.9299
B(  0-C , 10-H ) :   0.9173 B(  1-C ,  2-C ) :   0.9082 B(  1-C , 11-H ) :   0.9203
B(  1-C , 12-H ) :   0.9201 B(  2-C ,  3-O ) :   0.8904 B(  2-C ,  8-C ) :   0.9279
B(  2-C , 13-H ) :   0.9247 B(  3-O ,  4-C ) :   1.0139 B(  4-C ,  5-C ) :   0.8903
B(  4-C ,  6-C ) :   0.8470 B(  4-C , 14-H ) :   0.9379 B(  5-C ,  6-C ) :   0.8158
B(  5-C , 15-H ) :   0.9193 B(  6-C ,  7-C ) :   0.9690 B(  6-C , 16-H ) :   0.9198
B(  7-C ,  8-C ) :   1.7777 B(  7-C , 17-H ) :   0.9346 B(  8-C , 18-H ) :   0.9211

MP2 TOTAL ENERGY:     -385.213149015 Eh
FINAL SINGLE POINT ENERGY      -385.213149015391

DIPOLE MOMENT
-------------
                                X             Y             Z
Electronic contribution:      2.43234      -2.79994      -1.17647
Nuclear contribution   :     -2.93068       3.01507       1.23468
                        -----------------------------------------
Total Dipole Moment    :     -0.49833       0.21513       0.05821
                        -----------------------------------------
Magnitude (a.u.)       :      0.54590
Magnitude (Debye)      :      1.38757

                             ****ORCA TERMINATED NORMALLY****
TOTAL RUN TIME: 0 days 0 hours 20 minutes 55 seconds 542 msec
