                         Program Version 3.0.3 - RELEASE   -
|  1> ! RI-MP2 RIJK def2-TZVP def2-TZVP/C def2-TZVP/JK TIGHTSCF
|  2> % maxcore 2000
|  3> % mp2 density relaxed end
|  4> *xyz 0 1
|  5>  C       -0.0755463533     1.5113560317    -0.0630149287
|  6>  C       -0.0440114530     0.0120752199     0.0798052888
|  7>  O        1.2482480648    -0.6212443779    -0.0475255337
|  8>  C        0.5930238005    -0.6740918439     1.2067998289
|  9>  C        1.2593501875    -0.1343516619     2.4903026262
| 10>  C        0.8607281848    -1.4549072009     3.1785535948
| 11>  O        1.6776998820    -2.1458352402     4.0522435059
| 12>  C       -0.6197851022    -1.6805867307     3.0969583389
| 13>  C        0.2480472377    -1.9825817308     1.8851883941
| 14>  H        0.7232705986     1.9766871753     0.5201248570
| 15>  H        0.0518632860     1.8021821608    -1.1111418046
| 16>  H       -1.0371012177     1.9086999517     0.2804435896
| 17>  H       -0.8380669545    -0.5234689212    -0.4448346018
| 18>  H        2.3411157794    -0.0689250886     2.3504388827
| 19>  H        0.8835950274     0.7985330737     2.9244433894
| 20>  H        1.4647795715    -1.8698259880     4.9505257911
| 21>  H       -0.9639228004    -2.5668079134     3.6211943212
| 22>  H       -1.3262650865    -0.8532115640     3.0837657582
| 23>  H        0.2976489474    -2.9654890518     1.4345612619
| 24> *
| 25>
| 26>                          ****END OF INPUT****

CARTESIAN COORDINATES (ANGSTROEM)
---------------------------------
  C     -0.075546    1.511356   -0.063015
  C     -0.044011    0.012075    0.079805
  O      1.248248   -0.621244   -0.047526
  C      0.593024   -0.674092    1.206800
  C      1.259350   -0.134352    2.490303
  C      0.860728   -1.454907    3.178554
  O      1.677700   -2.145835    4.052244
  C     -0.619785   -1.680587    3.096958
  C      0.248047   -1.982582    1.885188
  H      0.723271    1.976687    0.520125
  H      0.051863    1.802182   -1.111142
  H     -1.037101    1.908700    0.280444
  H     -0.838067   -0.523469   -0.444835
  H      2.341116   -0.068925    2.350439
  H      0.883595    0.798533    2.924443
  H      1.464780   -1.869826    4.950526
  H     -0.963923   -2.566808    3.621194
  H     -1.326265   -0.853212    3.083766
  H      0.297649   -2.965489    1.434561

 Total Charge           Charge          ....    0
 Multiplicity           Mult            ....    1
 Number of Electrons    NEL             ....   68
 Basis Dimension        Dim             ....  339

ORBITAL ENERGIES
----------------

  NO   OCC          E(Eh)            E(eV)
   0   2.0000     -20.572853      -559.8158
   1   2.0000     -20.559169      -559.4434
   2   2.0000     -11.297271      -307.4144
   3   2.0000     -11.291784      -307.2651
   4   2.0000     -11.281931      -306.9970
   5   2.0000     -11.238001      -305.8016
   6   2.0000     -11.236500      -305.7607
   7   2.0000     -11.232609      -305.6548
   8   2.0000     -11.224934      -305.4460
   9   2.0000      -1.406985       -38.2860
  10   2.0000      -1.384569       -37.6760
  11   2.0000      -1.184707       -32.2375
  12   2.0000      -1.010278       -27.4911
  13   2.0000      -0.983755       -26.7693
  14   2.0000      -0.886537       -24.1239
  15   2.0000      -0.838362       -22.8130
  16   2.0000      -0.804400       -21.8888
  17   2.0000      -0.734527       -19.9875
  18   2.0000      -0.713870       -19.4254
  19   2.0000      -0.676609       -18.4115
  20   2.0000      -0.644278       -17.5317
  21   2.0000      -0.620966       -16.8974
  22   2.0000      -0.608962       -16.5707
  23   2.0000      -0.590834       -16.0774
  24   2.0000      -0.571465       -15.5504
  25   2.0000      -0.550835       -14.9890
  26   2.0000      -0.540577       -14.7099
  27   2.0000      -0.515764       -14.0347
  28   2.0000      -0.513949       -13.9853
  29   2.0000      -0.485325       -13.2064
  30   2.0000      -0.433154       -11.7867
  31   2.0000      -0.425995       -11.5919
  32   2.0000      -0.407906       -11.0997
  33   2.0000      -0.375283       -10.2120
  34   0.0000       0.131987         3.5915
  35   0.0000       0.146078         3.9750
  36   0.0000       0.167665         4.5624
  37   0.0000       0.175886         4.7861
  38   0.0000       0.178321         4.8523

MULLIKEN ATOMIC CHARGES
-----------------------
   0 C :   -0.400162
   1 C :    0.049915
   2 O :   -0.335721
   3 C :    0.054878
   4 C :   -0.161817
   5 C :    0.159577
   6 O :   -0.448018
   7 C :   -0.298224
   8 C :   -0.124803
   9 H :    0.141533
  10 H :    0.140931
  11 H :    0.126222
  12 H :    0.114773
  13 H :    0.118598
  14 H :    0.119432
  15 H :    0.327945
  16 H :    0.135275
  17 H :    0.130303
  18 H :    0.149363
Sum of atomic charges:   -0.0000000

LOEWDIN ATOMIC CHARGES
----------------------
   0 C :   -0.293893
   1 C :   -0.264483
   2 O :    0.185139
   3 C :   -0.277720
   4 C :   -0.157094
   5 C :   -0.330529
   6 O :    0.032555
   7 C :   -0.189353
   8 C :   -0.120041
   9 H :    0.130174
  10 H :    0.129560
  11 H :    0.129299
  12 H :    0.138572
  13 H :    0.150879
  14 H :    0.129824
  15 H :    0.186433
  16 H :    0.143831
  17 H :    0.131382
  18 H :    0.145466

  Mayer bond orders larger than 0.1
B(  0-C ,  1-C ) :   0.8811 B(  0-C ,  9-H ) :   0.9436 B(  0-C , 10-H ) :   0.9357
B(  0-C , 11-H ) :   0.9243 B(  1-C ,  2-O ) :   0.8786 B(  1-C ,  3-C ) :   0.9787
B(  1-C , 12-H ) :   0.9079 B(  2-O ,  3-C ) :   0.9260 B(  3-C ,  4-C ) :   0.9408
B(  3-C ,  8-C ) :   0.8929 B(  4-C ,  5-C ) :   0.9658 B(  4-C , 13-H ) :   0.8914
B(  4-C , 14-H ) :   0.9025 B(  5-C ,  6-O ) :   1.0599 B(  5-C ,  7-C ) :   0.9152
B(  5-C ,  8-C ) :   0.8620 B(  6-O , 15-H ) :   0.8342 B(  7-C ,  8-C ) :   0.8447
B(  7-C , 16-H ) :   0.9217 B(  7-C , 17-H ) :   0.9035 B(  8-C , 18-H ) :   0.8897

MP2 TOTAL ENERGY:     -422.266650112 Eh
FINAL SINGLE POINT ENERGY      -422.266650112379

DIPOLE MOMENT
-------------
                                X             Y             Z
Electronic contribution:      3.16702      -4.65869       0.87995
Nuclear contribution   :     -4.06170       5.16902      -0.16405
                        -----------------------------------------
Total Dipole Moment    :     -0.89469       0.51033       0.71590
                        -----------------------------------------
Magnitude (a.u.)       :      1.25436
Magnitude (Debye)      :      3.18833

                             ****ORCA TERMINATED NORMALLY****
TOTAL RUN TIME: 0 days 0 hours 15 minutes 46 seconds 904 msec
