                         Program Version 3.0.3 - RELEASE   -
|  1> ! RI-MP2 RIJK def2-TZVP def2-TZVP/C def2-TZVP/JK TIGHTSCF
|  2> % maxcore 2000
|  3> % mp2 density relaxed end
|  4> *xyz 0 1
|  5>  C        0.4642681674     1.5488217911     0.1789655326
|  6>  C       -0.1990495845     0.1957928915    -0.1012453189
|  7>  C        0.3880251094    -0.4783150103    -1.3212778090
|  8>  N        1.6442994773    -1.2312143942    -1.1463976082
|  9>  C        0.4258426607    -1.9458254319    -1.5522868386
| 10>  C       -0.1376675637    -2.9546490450    -0.5595604914
| 11>  O       -1.5638499334    -2.9785943444    -0.5887673183
| 12>  C        0.4297325909    -4.2858677862    -0.7951862331
| 13>  C        0.8664091921    -5.3780591202    -1.0444194747
| 14>  H        1.5381469170     1.4233165433     0.3494764348
| 15>  H        0.3364958824     2.2369059836    -0.6645732033
| 16>  H        0.0330814942     2.0254428698     1.0643679421
| 17>  H       -0.0812272656    -0.4543006554     0.7705853836
| 18>  H       -1.2774107087     0.3249261622    -0.2541266984
| 19>  H        0.3052858399     0.1191982575    -2.2305185382
| 20>  H        2.2685836581    -1.1047387147    -1.9374961072
| 21>  H        0.3540726778    -2.2765348407    -2.5882196514
| 22>  H        0.1296495335    -2.6278638484     0.4493922771
| 23>  H       -1.8306771246    -3.4598003845    -1.3796523620
| 24>  H        1.2606849298    -6.3452522129    -1.2372135074
| 25> *
| 26>
| 27>                          ****END OF INPUT****

CARTESIAN COORDINATES (ANGSTROEM)
---------------------------------
  C      0.464268    1.548822    0.178966
  C     -0.199050    0.195793   -0.101245
  C      0.388025   -0.478315   -1.321278
  N      1.644299   -1.231214   -1.146398
  C      0.425843   -1.945825   -1.552287
  C     -0.137668   -2.954649   -0.559560
  O     -1.563850   -2.978594   -0.588767
  C      0.429733   -4.285868   -0.795186
  C      0.866409   -5.378059   -1.044419
  H      1.538147    1.423317    0.349476
  H      0.336496    2.236906   -0.664573
  H      0.033081    2.025443    1.064368
  H     -0.081227   -0.454301    0.770585
  H     -1.277411    0.324926   -0.254127
  H      0.305286    0.119198   -2.230519
  H      2.268584   -1.104739   -1.937496
  H      0.354073   -2.276535   -2.588220
  H      0.129650   -2.627864    0.449392
  H     -1.830677   -3.459800   -1.379652
  H      1.260685   -6.345252   -1.237214

 Total Charge           Charge          ....    0
 Multiplicity           Mult            ....    1
 Number of Electrons    NEL             ....   68
 Basis Dimension        Dim             ....  345

ORBITAL ENERGIES
----------------

  NO   OCC          E(Eh)            E(eV)
   0   2.0000     -20.567136      -559.6602
   1   2.0000     -15.561609      -423.4529
   2   2.0000     -11.312019      -307.8157
   3   2.0000     -11.266661      -306.5814
   4   2.0000     -11.263196      -306.4871
   5   2.0000     -11.238731      -305.8214
   6   2.0000     -11.232505      -305.6520
   7   2.0000     -11.222270      -305.3735
   8   2.0000     -11.212664      -305.1121
   9   2.0000      -1.374066       -37.3902
  10   2.0000      -1.267620       -34.4937
  11   2.0000      -1.058000       -28.7897
  12   2.0000      -1.038238       -28.2519
  13   2.0000      -0.972867       -26.4731
  14   2.0000      -0.900009       -24.4905
  15   2.0000      -0.842406       -22.9230
  16   2.0000      -0.777341       -21.1525
  17   2.0000      -0.755467       -20.5573
  18   2.0000      -0.716466       -19.4960
  19   2.0000      -0.693566       -18.8729
  20   2.0000      -0.643018       -17.4974
  21   2.0000      -0.624500       -16.9935
  22   2.0000      -0.599833       -16.3223
  23   2.0000      -0.579440       -15.7674
  24   2.0000      -0.540008       -14.6944
  25   2.0000      -0.530286       -14.4298
  26   2.0000      -0.506184       -13.7740
  27   2.0000      -0.505538       -13.7564
  28   2.0000      -0.474640       -12.9156
  29   2.0000      -0.456111       -12.4114
  30   2.0000      -0.454573       -12.3696
  31   2.0000      -0.411216       -11.1898
  32   2.0000      -0.399906       -10.8820
  33   2.0000      -0.383071       -10.4239
  34   0.0000       0.127728         3.4757
  35   0.0000       0.141019         3.8373
  36   0.0000       0.152140         4.1399
  37   0.0000       0.162726         4.4280
  38   0.0000       0.172059         4.6820

MULLIKEN ATOMIC CHARGES
-----------------------
   0 C :   -0.397945
   1 C :   -0.193346
   2 C :    0.007594
   3 N :   -0.406711
   4 C :   -0.055970
   5 C :    0.015133
   6 O :   -0.463392
   7 C :   -0.100347
   8 C :   -0.117658
   9 H :    0.137450
  10 H :    0.117448
  11 H :    0.134831
  12 H :    0.105902
  13 H :    0.114810
  14 H :    0.120376
  15 H :    0.220724
  16 H :    0.122577
  17 H :    0.125086
  18 H :    0.318982
  19 H :    0.194457
Sum of atomic charges:   -0.0000000

LOEWDIN ATOMIC CHARGES
----------------------
   0 C :   -0.315344
   1 C :   -0.273023
   2 C :   -0.254198
   3 N :    0.011122
   4 C :   -0.239894
   5 C :   -0.320656
   6 O :   -0.002737
   7 C :   -0.088359
   8 C :   -0.087011
   9 H :    0.124632
  10 H :    0.119062
  11 H :    0.121218
  12 H :    0.141418
  13 H :    0.142684
  14 H :    0.140212
  15 H :    0.166802
  16 H :    0.141114
  17 H :    0.166245
  18 H :    0.178524
  19 H :    0.128190

  Mayer bond orders larger than 0.1
B(  0-C ,  1-C ) :   0.9107 B(  0-C ,  9-H ) :   0.9374 B(  0-C , 10-H ) :   0.9384
B(  0-C , 11-H ) :   0.9418 B(  1-C ,  2-C ) :   0.9387 B(  1-C , 12-H ) :   0.9335
B(  1-C , 13-H ) :   0.9344 B(  2-C ,  3-N ) :   0.8362 B(  2-C ,  4-C ) :   0.8954
B(  2-C , 14-H ) :   0.9098 B(  3-N ,  4-C ) :   0.9790 B(  3-N , 15-H ) :   0.8661
B(  4-C ,  5-C ) :   0.8782 B(  4-C , 16-H ) :   0.9058 B(  5-C ,  6-O ) :   0.8830
B(  5-C ,  7-C ) :   1.2023 B(  5-C , 17-H ) :   0.9166 B(  6-O , 18-H ) :   0.8394
B(  7-C ,  8-C ) :   2.5565 B(  8-C , 19-H ) :   0.8943

MP2 TOTAL ENERGY:     -402.388562707 Eh
FINAL SINGLE POINT ENERGY      -402.388562706876

DIPOLE MOMENT
-------------
                                X             Y             Z
Electronic contribution:     -0.44694      -9.80669      -1.63134
Nuclear contribution   :      0.52612       9.83743       0.69734
                        -----------------------------------------
Total Dipole Moment    :      0.07918       0.03074      -0.93400
                        -----------------------------------------
Magnitude (a.u.)       :      0.93785
Magnitude (Debye)      :      2.38383

                             ****ORCA TERMINATED NORMALLY****
TOTAL RUN TIME: 0 days 0 hours 29 minutes 6 seconds 385 msec
