                         Program Version 3.0.3 - RELEASE   -
|  1> ! RI-MP2 RIJK def2-TZVP def2-TZVP/C def2-TZVP/JK TIGHTSCF
|  2> % maxcore 2000
|  3> % mp2 density relaxed end
|  4> *xyz 0 1
|  5>  C       -0.1165216751     1.4853108889    -0.0840725379
|  6>  O       -0.0218908138     0.0657621097     0.0562836251
|  7>  C       -1.2407977580    -0.5729152044     0.0426337999
|  8>  C       -1.9453468765    -1.0080428631     1.1418444747
|  9>  O       -1.6750621887    -0.9377684683     2.4686584714
| 10>  N       -3.0858109537    -1.6064327007     0.7095016732
| 11>  C       -3.1284227399    -1.5926189621    -0.6867314482
| 12>  C       -1.9943390800    -0.9530003592    -1.1118576444
| 13>  O       -1.6419165677    -0.6911738074    -2.4047588072
| 14>  H        0.9052105365     1.8732070838    -0.0773692525
| 15>  H       -0.6057380492     1.7592125083    -1.0268524710
| 16>  H       -0.6833371331     1.9288733758     0.7442182233
| 17>  H       -0.7659452909    -0.6274779857     2.5524674593
| 18>  H       -3.7374948957    -2.0765383842     1.3112527251
| 19>  H       -3.9528482876    -2.0172199845    -1.2307738051
| 20>  H       -0.6962496467    -0.5049185369    -2.4062315754
| 21> *
| 22>
| 23>                          ****END OF INPUT****

CARTESIAN COORDINATES (ANGSTROEM)
---------------------------------
  C     -0.116522    1.485311   -0.084073
  O     -0.021891    0.065762    0.056284
  C     -1.240798   -0.572915    0.042634
  C     -1.945347   -1.008043    1.141844
  O     -1.675062   -0.937768    2.468658
  N     -3.085811   -1.606433    0.709502
  C     -3.128423   -1.592619   -0.686731
  C     -1.994339   -0.953000   -1.111858
  O     -1.641917   -0.691174   -2.404759
  H      0.905211    1.873207   -0.077369
  H     -0.605738    1.759213   -1.026852
  H     -0.683337    1.928873    0.744218
  H     -0.765945   -0.627478    2.552467
  H     -3.737495   -2.076538    1.311253
  H     -3.952848   -2.017220   -1.230774
  H     -0.696250   -0.504919   -2.406232

 Total Charge           Charge          ....    0
 Multiplicity           Mult            ....    1
 Number of Electrons    NEL             ....   68
 Basis Dimension        Dim             ....  321

ORBITAL ENERGIES
----------------

  NO   OCC          E(Eh)            E(eV)
   0   2.0000     -20.603031      -560.6370
   1   2.0000     -20.581773      -560.0585
   2   2.0000     -20.578230      -559.9621
   3   2.0000     -15.599728      -424.4902
   4   2.0000     -11.323091      -308.1170
   5   2.0000     -11.283503      -307.0397
   6   2.0000     -11.277089      -306.8652
   7   2.0000     -11.258698      -306.3647
   8   2.0000     -11.236581      -305.7629
   9   2.0000      -1.427532       -38.8451
  10   2.0000      -1.400406       -38.1070
  11   2.0000      -1.383363       -37.6432
  12   2.0000      -1.279792       -34.8249
  13   2.0000      -1.041510       -28.3409
  14   2.0000      -0.975671       -26.5494
  15   2.0000      -0.932411       -25.3722
  16   2.0000      -0.808357       -21.9965
  17   2.0000      -0.798250       -21.7215
  18   2.0000      -0.750889       -20.4327
  19   2.0000      -0.728763       -19.8306
  20   2.0000      -0.668872       -18.2009
  21   2.0000      -0.650098       -17.6901
  22   2.0000      -0.634677       -17.2705
  23   2.0000      -0.619608       -16.8604
  24   2.0000      -0.612105       -16.6562
  25   2.0000      -0.604596       -16.4519
  26   2.0000      -0.594572       -16.1791
  27   2.0000      -0.571767       -15.5586
  28   2.0000      -0.531733       -14.4692
  29   2.0000      -0.521161       -14.1815
  30   2.0000      -0.508652       -13.8411
  31   2.0000      -0.448957       -12.2168
  32   2.0000      -0.331145        -9.0109
  33   2.0000      -0.279061        -7.5936
  34   0.0000       0.126890         3.4528
  35   0.0000       0.143803         3.9131
  36   0.0000       0.159138         4.3304
  37   0.0000       0.174486         4.7480
  38   0.0000       0.192149         5.2286

MULLIKEN ATOMIC CHARGES
-----------------------
   0 C :   -0.195007
   1 O :   -0.364309
   2 C :    0.083956
   3 C :    0.170409
   4 O :   -0.435606
   5 N :   -0.255607
   6 C :   -0.167163
   7 C :    0.138129
   8 O :   -0.456976
   9 H :    0.139395
  10 H :    0.130186
  11 H :    0.123940
  12 H :    0.348872
  13 H :    0.251982
  14 H :    0.148581
  15 H :    0.339219
Sum of atomic charges:   -0.0000000

LOEWDIN ATOMIC CHARGES
----------------------
   0 C :   -0.329657
   1 O :    0.174114
   2 C :   -0.303224
   3 C :   -0.357716
   4 O :    0.061571
   5 N :    0.186964
   6 C :   -0.228942
   7 C :   -0.309242
   8 O :    0.053298
   9 H :    0.111858
  10 H :    0.107408
  11 H :    0.106219
  12 H :    0.204604
  13 H :    0.194438
  14 H :    0.133712
  15 H :    0.194595

  Mayer bond orders larger than 0.1
B(  0-C ,  1-O ) :   0.8564 B(  0-C ,  9-H ) :   0.9365 B(  0-C , 10-H ) :   0.9334
B(  0-C , 11-H ) :   0.9325 B(  1-O ,  2-C ) :   0.9727 B(  2-C ,  3-C ) :   1.3965
B(  2-C ,  7-C ) :   1.1608 B(  3-C ,  4-O ) :   1.1131 B(  3-C ,  5-N ) :   1.1752
B(  4-O , 12-H ) :   0.8207 B(  5-N ,  6-C ) :   1.0374 B(  5-N , 13-H ) :   0.8660
B(  6-C ,  7-C ) :   1.5372 B(  6-C , 14-H ) :   0.9102 B(  7-C ,  8-O ) :   1.0338
B(  8-O , 15-H ) :   0.8298

MP2 TOTAL ENERGY:     -474.274434485 Eh
FINAL SINGLE POINT ENERGY      -474.274434484904

DIPOLE MOMENT
-------------
                                X             Y             Z
Electronic contribution:     -1.43523      -3.98817       0.82148
Nuclear contribution   :      1.61866       4.32591      -0.29057
                        -----------------------------------------
Total Dipole Moment    :      0.18343       0.33774       0.53091
                        -----------------------------------------
Magnitude (a.u.)       :      0.65543
Magnitude (Debye)      :      1.66596

                             ****ORCA TERMINATED NORMALLY****
TOTAL RUN TIME: 0 days 0 hours 14 minutes 58 seconds 771 msec
