                         Program Version 3.0.3 - RELEASE   -
|  1> ! RI-MP2 RIJK def2-TZVP def2-TZVP/C def2-TZVP/JK TIGHTSCF
|  2> % maxcore 2000
|  3> % mp2 density relaxed end
|  4> *xyz 0 1
|  5>  C       -0.5873505262     0.8323437213    -1.5907674104
|  6>  C        0.2336665924    -0.2696862211    -0.9412607972
|  7>  C        1.7407049321    -0.4239374590    -1.3104572165
|  8>  O        2.2494810747     0.8281551993    -1.7312018371
|  9>  C        2.0526564580    -0.7586805357     0.1902303668
| 10>  C        3.3118164118    -0.1975913627     0.8307826264
| 11>  C        0.6824615978    -0.1534118890     0.5204621100
| 12>  C        0.3459183394     0.8706461907     1.5092921424
| 13>  O       -0.1061800584    -0.4868502134     1.6471907744
| 14>  H       -0.0706339230     1.7924348687    -1.5288026401
| 15>  H       -0.7694234193     0.6165017927    -2.6485137320
| 16>  H       -1.5612513987     0.9248270677    -1.0982659263
| 17>  H       -0.2571024643    -1.2414858827    -1.0714695939
| 18>  H        1.9805780436    -1.2093137889    -2.0380533629
| 19>  H        3.2021906446     0.7440952431    -1.8368069229
| 20>  H        1.9986803301    -1.8446684436     0.3326527404
| 21>  H        3.4029029243     0.8752992806     0.6378334899
| 22>  H        3.2962672729    -0.3471251821     1.9153071813
| 23>  H        4.2113607176    -0.6937914849     0.4480205382
| 24>  H        1.0906573716     1.1896610220     2.2372897836
| 25>  H       -0.4318540809     1.6017167269     1.2936940960
| 26> *
| 27>
| 28>                          ****END OF INPUT****

CARTESIAN COORDINATES (ANGSTROEM)
---------------------------------
  C     -0.587351    0.832344   -1.590767
  C      0.233667   -0.269686   -0.941261
  C      1.740705   -0.423937   -1.310457
  O      2.249481    0.828155   -1.731202
  C      2.052656   -0.758681    0.190230
  C      3.311816   -0.197591    0.830783
  C      0.682462   -0.153412    0.520462
  C      0.345918    0.870646    1.509292
  O     -0.106180   -0.486850    1.647191
  H     -0.070634    1.792435   -1.528803
  H     -0.769423    0.616502   -2.648514
  H     -1.561251    0.924827   -1.098266
  H     -0.257102   -1.241486   -1.071470
  H      1.980578   -1.209314   -2.038053
  H      3.202191    0.744095   -1.836807
  H      1.998680   -1.844668    0.332653
  H      3.402903    0.875299    0.637833
  H      3.296267   -0.347125    1.915307
  H      4.211361   -0.693791    0.448021
  H      1.090657    1.189661    2.237290
  H     -0.431854    1.601717    1.293694

 Total Charge           Charge          ....    0
 Multiplicity           Mult            ....    1
 Number of Electrons    NEL             ....   70
 Basis Dimension        Dim             ....  351

ORBITAL ENERGIES
----------------

  NO   OCC          E(Eh)            E(eV)
   0   2.0000     -20.562624      -559.5374
   1   2.0000     -20.560798      -559.4878
   2   2.0000     -11.284522      -307.0674
   3   2.0000     -11.283141      -307.0299
   4   2.0000     -11.275963      -306.8346
   5   2.0000     -11.233544      -305.6803
   6   2.0000     -11.230961      -305.6100
   7   2.0000     -11.222592      -305.3822
   8   2.0000     -11.211034      -305.0677
   9   2.0000      -1.406279       -38.2668
  10   2.0000      -1.370599       -37.2959
  11   2.0000      -1.126332       -30.6490
  12   2.0000      -1.017993       -27.7010
  13   2.0000      -0.944190       -25.6927
  14   2.0000      -0.911769       -24.8105
  15   2.0000      -0.848583       -23.0911
  16   2.0000      -0.816388       -22.2150
  17   2.0000      -0.740389       -20.1470
  18   2.0000      -0.704146       -19.1608
  19   2.0000      -0.676364       -18.4048
  20   2.0000      -0.656193       -17.8559
  21   2.0000      -0.617968       -16.8158
  22   2.0000      -0.598912       -16.2972
  23   2.0000      -0.572999       -15.5921
  24   2.0000      -0.572344       -15.5743
  25   2.0000      -0.552468       -15.0334
  26   2.0000      -0.545559       -14.8454
  27   2.0000      -0.525351       -14.2955
  28   2.0000      -0.506320       -13.7777
  29   2.0000      -0.499689       -13.5972
  30   2.0000      -0.486550       -13.2397
  31   2.0000      -0.449254       -12.2248
  32   2.0000      -0.425705       -11.5840
  33   2.0000      -0.413147       -11.2423
  34   2.0000      -0.411637       -11.2012
  35   0.0000       0.121796         3.3142
  36   0.0000       0.150349         4.0912
  37   0.0000       0.158256         4.3064
  38   0.0000       0.168854         4.5947
  39   0.0000       0.192155         5.2288

MULLIKEN ATOMIC CHARGES
-----------------------
   0 C :   -0.463797
   1 C :    0.102934
   2 C :   -0.079523
   3 O :   -0.463945
   4 C :    0.127239
   5 C :   -0.530924
   6 C :    0.000761
   7 C :   -0.087033
   8 O :   -0.336632
   9 H :    0.151948
  10 H :    0.132308
  11 H :    0.140965
  12 H :    0.108663
  13 H :    0.098136
  14 H :    0.319866
  15 H :    0.106122
  16 H :    0.150679
  17 H :    0.148883
  18 H :    0.138443
  19 H :    0.115836
  20 H :    0.119070
Sum of atomic charges:   -0.0000000

LOEWDIN ATOMIC CHARGES
----------------------
   0 C :   -0.293547
   1 C :   -0.197352
   2 C :   -0.271852
   3 O :   -0.005207
   4 C :   -0.204858
   5 C :   -0.304954
   6 C :   -0.282834
   7 C :   -0.230266
   8 O :    0.166334
   9 H :    0.129453
  10 H :    0.126483
  11 H :    0.127282
  12 H :    0.161290
  13 H :    0.121654
  14 H :    0.176626
  15 H :    0.159477
  16 H :    0.125831
  17 H :    0.130725
  18 H :    0.123830
  19 H :    0.120395
  20 H :    0.121492

  Mayer bond orders larger than 0.1
B(  0-C ,  1-C ) :   0.8736 B(  0-C ,  9-H ) :   0.9349 B(  0-C , 10-H ) :   0.9365
B(  0-C , 11-H ) :   0.9399 B(  1-C ,  2-C ) :   0.8736 B(  1-C ,  6-C ) :   0.8622
B(  1-C , 12-H ) :   0.9123 B(  2-C ,  3-O ) :   1.0413 B(  2-C ,  4-C ) :   0.8735
B(  2-C , 13-H ) :   0.9527 B(  3-O , 14-H ) :   0.8428 B(  4-C ,  5-C ) :   0.8343
B(  4-C ,  6-C ) :   0.8455 B(  4-C , 15-H ) :   0.9045 B(  5-C , 16-H ) :   0.9436
B(  5-C , 17-H ) :   0.9382 B(  5-C , 18-H ) :   0.9389 B(  6-C ,  7-C ) :   0.9835
B(  6-C ,  8-O ) :   0.8886 B(  7-C ,  8-O ) :   0.9068 B(  7-C , 19-H ) :   0.9112
B(  7-C , 20-H ) :   0.9082

MP2 TOTAL ENERGY:     -423.493121037 Eh
FINAL SINGLE POINT ENERGY      -423.493121037281

DIPOLE MOMENT
-------------
                                X             Y             Z
Electronic contribution:     -1.68199      -1.65175       1.53277
Nuclear contribution   :      2.45135       1.67576      -1.89696
                        -----------------------------------------
Total Dipole Moment    :      0.76937       0.02401      -0.36418
                        -----------------------------------------
Magnitude (a.u.)       :      0.85155
Magnitude (Debye)      :      2.16446

                             ****ORCA TERMINATED NORMALLY****
TOTAL RUN TIME: 0 days 0 hours 18 minutes 29 seconds 593 msec
