                         Program Version 3.0.3 - RELEASE   -
|  1> ! RI-MP2 RIJK def2-TZVP def2-TZVP/C def2-TZVP/JK TIGHTSCF
|  2> % maxcore 2000
|  3> % mp2 density relaxed end
|  4> *xyz 0 1
|  5>  O       -0.1809319025     0.0527977759    -0.4298150622
|  6>  C       -0.0064350734     1.2328182597    -0.2691330243
|  7>  C        1.3508093913     1.8844429373    -0.0930864507
|  8>  C        1.5150246202     3.0150040199    -1.1448739914
|  9>  O        1.0113875191     4.1792855506    -0.5285175642
| 10>  C        1.5018629791     4.1694985035     0.8039524287
| 11>  C        1.4869302183     2.6898998113     1.2464646088
| 12>  C        0.4160356029     2.3698883220     2.2811340249
| 13>  O       -0.2292759366     3.1934395751     2.8749863046
| 14>  H       -0.8590594150     1.9505286565    -0.2681751040
| 15>  H        2.1110356377     1.1078091399    -0.1914267351
| 16>  H        2.5797347026     3.1214064322    -1.4075144636
| 17>  H        0.9479079623     2.8436795983    -2.0645199958
| 18>  H        2.5240234356     4.5732455254     0.8430364035
| 19>  H        0.8455281157     4.7863073618     1.4197318290
| 20>  H        2.4335149012     2.4027724393     1.7218554355
| 21>  H        0.2831072616     1.2839201613     2.4846506763
| 22> *
| 23>
| 24>                          ****END OF INPUT****

CARTESIAN COORDINATES (ANGSTROEM)
---------------------------------
  O     -0.180932    0.052798   -0.429815
  C     -0.006435    1.232818   -0.269133
  C      1.350809    1.884443   -0.093086
  C      1.515025    3.015004   -1.144874
  O      1.011388    4.179286   -0.528518
  C      1.501863    4.169499    0.803952
  C      1.486930    2.689900    1.246465
  C      0.416036    2.369888    2.281134
  O     -0.229276    3.193440    2.874986
  H     -0.859059    1.950529   -0.268175
  H      2.111036    1.107809   -0.191427
  H      2.579735    3.121406   -1.407514
  H      0.947908    2.843680   -2.064520
  H      2.524023    4.573246    0.843036
  H      0.845528    4.786307    1.419732
  H      2.433515    2.402772    1.721855
  H      0.283107    1.283920    2.484651

 Total Charge           Charge          ....    0
 Multiplicity           Mult            ....    1
 Number of Electrons    NEL             ....   68
 Basis Dimension        Dim             ....  327

ORBITAL ENERGIES
----------------

  NO   OCC          E(Eh)            E(eV)
   0   2.0000     -20.578779      -559.9770
   1   2.0000     -20.576256      -559.9084
   2   2.0000     -20.573169      -559.8244
   3   2.0000     -11.351099      -308.8791
   4   2.0000     -11.346177      -308.7452
   5   2.0000     -11.306137      -307.6556
   6   2.0000     -11.294120      -307.3286
   7   2.0000     -11.275511      -306.8223
   8   2.0000     -11.271687      -306.7182
   9   2.0000      -1.417978       -38.5851
  10   2.0000      -1.412305       -38.4308
  11   2.0000      -1.406355       -38.2689
  12   2.0000      -1.115502       -30.3544
  13   2.0000      -1.035943       -28.1895
  14   2.0000      -0.911070       -24.7915
  15   2.0000      -0.891488       -24.2586
  16   2.0000      -0.813995       -22.1499
  17   2.0000      -0.779994       -21.2247
  18   2.0000      -0.720957       -19.6182
  19   2.0000      -0.716597       -19.4996
  20   2.0000      -0.673973       -18.3397
  21   2.0000      -0.661979       -18.0134
  22   2.0000      -0.651114       -17.7177
  23   2.0000      -0.643717       -17.5164
  24   2.0000      -0.598978       -16.2990
  25   2.0000      -0.583697       -15.8832
  26   2.0000      -0.554367       -15.0851
  27   2.0000      -0.540936       -14.7196
  28   2.0000      -0.526894       -14.3375
  29   2.0000      -0.511201       -13.9105
  30   2.0000      -0.497634       -13.5413
  31   2.0000      -0.454751       -12.3744
  32   2.0000      -0.438221       -11.9246
  33   2.0000      -0.424429       -11.5493
  34   0.0000       0.100909         2.7459
  35   0.0000       0.119443         3.2502
  36   0.0000       0.137376         3.7382
  37   0.0000       0.158678         4.3179
  38   0.0000       0.166660         4.5351

MULLIKEN ATOMIC CHARGES
-----------------------
   0 O :   -0.248010
   1 C :   -0.028248
   2 C :    0.038418
   3 C :   -0.074595
   4 O :   -0.307199
   5 C :   -0.086143
   6 C :   -0.071197
   7 C :    0.054139
   8 O :   -0.258509
   9 H :    0.115387
  10 H :    0.121781
  11 H :    0.107216
  12 H :    0.138802
  13 H :    0.097003
  14 H :    0.156363
  15 H :    0.133133
  16 H :    0.111657
Sum of atomic charges:   -0.0000000

LOEWDIN ATOMIC CHARGES
----------------------
   0 O :    0.141093
   1 C :   -0.284032
   2 C :   -0.214143
   3 C :   -0.283585
   4 O :    0.163215
   5 C :   -0.272608
   6 C :   -0.219448
   7 C :   -0.275973
   8 O :    0.145963
   9 H :    0.124750
  10 H :    0.157694
  11 H :    0.126330
  12 H :    0.135656
  13 H :    0.122608
  14 H :    0.138340
  15 H :    0.171333
  16 H :    0.122808

  Mayer bond orders larger than 0.1
B(  0-O ,  1-C ) :   1.9940 B(  1-C ,  2-C ) :   0.8088 B(  1-C ,  9-H ) :   0.9493
B(  2-C ,  3-C ) :   0.8812 B(  2-C ,  6-C ) :   0.8729 B(  2-C ,  9-H ) :  -0.1025
B(  2-C , 10-H ) :   0.8900 B(  3-C ,  4-O ) :   0.9288 B(  3-C , 11-H ) :   0.9172
B(  3-C , 12-H ) :   0.9227 B(  4-O ,  5-C ) :   0.9386 B(  5-C ,  6-C ) :   0.9217
B(  5-C , 13-H ) :   0.9259 B(  5-C , 14-H ) :   0.9086 B(  6-C ,  7-C ) :   0.8428
B(  6-C , 15-H ) :   0.8885 B(  7-C ,  8-O ) :   1.9878 B(  7-C , 16-H ) :   0.9417

MP2 TOTAL ENERGY:     -458.234632324 Eh
FINAL SINGLE POINT ENERGY      -458.234632324098

DIPOLE MOMENT
-------------
                                X             Y             Z
Electronic contribution:     -3.33712      -1.56364       1.40340
Nuclear contribution   :      4.55736       1.63201      -1.54749
                        -----------------------------------------
Total Dipole Moment    :      1.22024       0.06837      -0.14409
                        -----------------------------------------
Magnitude (a.u.)       :      1.23061
Magnitude (Debye)      :      3.12797

                             ****ORCA TERMINATED NORMALLY****
TOTAL RUN TIME: 0 days 0 hours 16 minutes 31 seconds 9 msec
