                         Program Version 3.0.3 - RELEASE   -
|  1> ! RI-MP2 RIJK def2-TZVP def2-TZVP/C def2-TZVP/JK TIGHTSCF
|  2> % maxcore 2000
|  3> % mp2 density relaxed end
|  4> *xyz 0 1
|  5>  O       -0.5031343795     0.2681843541     0.0822993907
|  6>  C        0.0303535779     1.3448916884     0.1115126682
|  7>  C        1.4429255066     1.6110280720    -0.3884118719
|  8>  C        1.4708774025     2.7602220759    -1.3694451926
|  9>  O        1.2206915340     4.0665421269    -0.8477010253
| 10>  C        2.5234417846     3.8024571216    -1.3690033072
| 11>  C        3.6097278155     3.7633421502    -0.4139829574
| 12>  N        4.4901857717     3.7275349989     0.3338650007
| 13>  H       -0.4835650719     2.2400657423     0.5240691600
| 14>  H        2.0661826412     1.8598130044     0.4797138660
| 15>  H        1.8317141271     0.6991627180    -0.8502685599
| 16>  H        0.9910416901     2.5730512318    -2.3307693427
| 17>  H        2.7618298704     4.3123062856    -2.3002719986
| 18> *
| 19>
| 20>                          ****END OF INPUT****

CARTESIAN COORDINATES (ANGSTROEM)
---------------------------------
  O     -0.503134    0.268184    0.082299
  C      0.030354    1.344892    0.111513
  C      1.442926    1.611028   -0.388412
  C      1.470877    2.760222   -1.369445
  O      1.220692    4.066542   -0.847701
  C      2.523442    3.802457   -1.369003
  C      3.609728    3.763342   -0.413983
  N      4.490186    3.727535    0.333865
  H     -0.483565    2.240066    0.524069
  H      2.066183    1.859813    0.479714
  H      1.831714    0.699163   -0.850269
  H      0.991042    2.573051   -2.330769
  H      2.761830    4.312306   -2.300272

 Total Charge           Charge          ....    0
 Multiplicity           Mult            ....    1
 Number of Electrons    NEL             ....   58
 Basis Dimension        Dim             ....  278

ORBITAL ENERGIES
----------------

  NO   OCC          E(Eh)            E(eV)
   0   2.0000     -20.626677      -561.2804
   1   2.0000     -20.576263      -559.9086
   2   2.0000     -15.601740      -424.5449
   3   2.0000     -11.364769      -309.2511
   4   2.0000     -11.351350      -308.8859
   5   2.0000     -11.348670      -308.8130
   6   2.0000     -11.299862      -307.4849
   7   2.0000     -11.273575      -306.7696
   8   2.0000      -1.473288       -40.0902
   9   2.0000      -1.415235       -38.5105
  10   2.0000      -1.244441       -33.8630
  11   2.0000      -1.083826       -29.4924
  12   2.0000      -1.013224       -27.5712
  13   2.0000      -0.907094       -24.6833
  14   2.0000      -0.820947       -22.3391
  15   2.0000      -0.773465       -21.0471
  16   2.0000      -0.738230       -20.0883
  17   2.0000      -0.685619       -18.6566
  18   2.0000      -0.654852       -17.8194
  19   2.0000      -0.632313       -17.2061
  20   2.0000      -0.616490       -16.7755
  21   2.0000      -0.583220       -15.8702
  22   2.0000      -0.575956       -15.6726
  23   2.0000      -0.545366       -14.8402
  24   2.0000      -0.535891       -14.5823
  25   2.0000      -0.505837       -13.7645
  26   2.0000      -0.490964       -13.3598
  27   2.0000      -0.467969       -12.7341
  28   2.0000      -0.433414       -11.7938
  29   0.0000       0.103742         2.8230
  30   0.0000       0.126598         3.4449
  31   0.0000       0.127202         3.4613
  32   0.0000       0.150352         4.0913
  33   0.0000       0.158247         4.3061

MULLIKEN ATOMIC CHARGES
-----------------------
   0 O :   -0.251835
   1 C :    0.089527
   2 C :   -0.178737
   3 C :    0.026759
   4 O :   -0.300468
   5 C :    0.117783
   6 C :   -0.169595
   7 N :   -0.048347
   8 H :    0.104433
   9 H :    0.161312
  10 H :    0.135077
  11 H :    0.149199
  12 H :    0.164892
Sum of atomic charges:   -0.0000000

LOEWDIN ATOMIC CHARGES
----------------------
   0 O :    0.143706
   1 C :   -0.284409
   2 C :   -0.235262
   3 C :   -0.241542
   4 O :    0.198627
   5 C :   -0.253512
   6 C :   -0.168677
   7 N :    0.088240
   8 H :    0.118402
   9 H :    0.167288
  10 H :    0.157137
  11 H :    0.148341
  12 H :    0.161660

  Mayer bond orders larger than 0.1
B(  0-O ,  1-C ) :   1.9904 B(  1-C ,  2-C ) :   0.8758 B(  1-C ,  8-H ) :   0.9314
B(  2-C ,  3-C ) :   0.8983 B(  2-C ,  9-H ) :   0.9132 B(  2-C , 10-H ) :   0.9030
B(  3-C ,  4-O ) :   0.8605 B(  3-C ,  5-C ) :   0.9300 B(  3-C , 11-H ) :   0.9077
B(  4-O ,  5-C ) :   0.9324 B(  5-C ,  6-C ) :   0.9095 B(  5-C , 12-H ) :   0.9046
B(  6-C ,  7-N ) :   2.8093

MP2 TOTAL ENERGY:     -397.933465224 Eh
FINAL SINGLE POINT ENERGY      -397.933465224010

DIPOLE MOMENT
-------------
                                X             Y             Z
Electronic contribution:      1.21343       1.67263       0.82210
Nuclear contribution   :     -1.34942      -1.41144      -1.94410
                        -----------------------------------------
Total Dipole Moment    :     -0.13599       0.26120      -1.12200
                        -----------------------------------------
Magnitude (a.u.)       :      1.16000
Magnitude (Debye)      :      2.94848

                             ****ORCA TERMINATED NORMALLY****
TOTAL RUN TIME: 0 days 0 hours 8 minutes 42 seconds 879 msec
