                         Program Version 3.0.3 - RELEASE   -
|  1> ! RI-MP2 RIJK def2-TZVP def2-TZVP/C def2-TZVP/JK TIGHTSCF
|  2> % maxcore 2000
|  3> % mp2 density relaxed end
|  4> *xyz 0 1
|  5>  C        0.2011721282     1.5336645847     0.3128086980
|  6>  C        0.0045225888     0.1027030650    -0.0333998631
|  7>  C       -1.0934964779    -0.6735575484    -0.2690057693
|  8>  N       -0.6212669901    -1.9419457083    -0.5369813945
|  9>  N        0.6348193326    -1.9779974570    -0.4849933093
| 10>  O        1.0907920880    -0.6700926453    -0.1635559370
| 11>  C       -2.5326499563    -0.3657130726    -0.2512405501
| 12>  C       -3.4607722108    -1.0873865594    -1.1663536708
| 13>  N       -3.4869104434    -1.3616797867     0.2752019801
| 14>  H        0.7810855087     1.6330112897     1.2356570812
| 15>  H        0.7470868832     2.0564449773    -0.4793688421
| 16>  H       -0.7621054400     2.0277715441     0.4522471259
| 17>  H       -2.7701017169     0.6576424668     0.0268029913
| 18>  H       -4.3361852930    -0.5743565540    -1.5544912716
| 19>  H       -3.0222600993    -1.8284651548    -1.8283275219
| 20>  H       -2.9829680717    -2.2275553608     0.4596544533
| 21> *
| 22>
| 23>                          ****END OF INPUT****

CARTESIAN COORDINATES (ANGSTROEM)
---------------------------------
  C      0.201172    1.533665    0.312809
  C      0.004523    0.102703   -0.033400
  C     -1.093496   -0.673558   -0.269006
  N     -0.621267   -1.941946   -0.536981
  N      0.634819   -1.977997   -0.484993
  O      1.090792   -0.670093   -0.163556
  C     -2.532650   -0.365713   -0.251241
  C     -3.460772   -1.087387   -1.166354
  N     -3.486910   -1.361680    0.275202
  H      0.781086    1.633011    1.235657
  H      0.747087    2.056445   -0.479369
  H     -0.762105    2.027772    0.452247
  H     -2.770102    0.657642    0.026803
  H     -4.336185   -0.574357   -1.554491
  H     -3.022260   -1.828465   -1.828328
  H     -2.982968   -2.227555    0.459654

 Total Charge           Charge          ....    0
 Multiplicity           Mult            ....    1
 Number of Electrons    NEL             ....   66
 Basis Dimension        Dim             ....  321

ORBITAL ENERGIES
----------------

  NO   OCC          E(Eh)            E(eV)
   0   2.0000     -20.661515      -562.2284
   1   2.0000     -15.693333      -427.0373
   2   2.0000     -15.640203      -425.5916
   3   2.0000     -15.567631      -423.6168
   4   2.0000     -11.333367      -308.3966
   5   2.0000     -11.282971      -307.0253
   6   2.0000     -11.278535      -306.9045
   7   2.0000     -11.264758      -306.5297
   8   2.0000     -11.263875      -306.5056
   9   2.0000      -1.532369       -41.6979
  10   2.0000      -1.319142       -35.8957
  11   2.0000      -1.272898       -34.6373
  12   2.0000      -1.123988       -30.5853
  13   2.0000      -1.012856       -27.5612
  14   2.0000      -0.923105       -25.1190
  15   2.0000      -0.882493       -24.0139
  16   2.0000      -0.855723       -23.2854
  17   2.0000      -0.815578       -22.1930
  18   2.0000      -0.729830       -19.8597
  19   2.0000      -0.693894       -18.8818
  20   2.0000      -0.666743       -18.1430
  21   2.0000      -0.654647       -17.8139
  22   2.0000      -0.603967       -16.4348
  23   2.0000      -0.597639       -16.2626
  24   2.0000      -0.586686       -15.9645
  25   2.0000      -0.558905       -15.2086
  26   2.0000      -0.543027       -14.7765
  27   2.0000      -0.514632       -14.0039
  28   2.0000      -0.494926       -13.4676
  29   2.0000      -0.488275       -13.2866
  30   2.0000      -0.471026       -12.8173
  31   2.0000      -0.425163       -11.5693
  32   2.0000      -0.346900        -9.4396
  33   0.0000       0.098922         2.6918
  34   0.0000       0.129036         3.5113
  35   0.0000       0.166879         4.5410
  36   0.0000       0.168939         4.5971
  37   0.0000       0.173137         4.7113

MULLIKEN ATOMIC CHARGES
-----------------------
   0 C :   -0.405857
   1 C :    0.080667
   2 C :    0.008341
   3 N :   -0.111243
   4 N :   -0.050554
   5 O :   -0.096785
   6 C :   -0.031115
   7 C :   -0.157094
   8 N :   -0.362775
   9 H :    0.164265
  10 H :    0.163379
  11 H :    0.150226
  12 H :    0.131188
  13 H :    0.129314
  14 H :    0.149878
  15 H :    0.238164
Sum of atomic charges:    0.0000000

LOEWDIN ATOMIC CHARGES
----------------------
   0 C :   -0.261250
   1 C :   -0.286863
   2 C :   -0.249718
   3 N :    0.042024
   4 N :   -0.017919
   5 O :    0.274667
   6 C :   -0.248986
   7 C :   -0.250505
   8 N :   -0.001973
   9 H :    0.142841
  10 H :    0.142345
  11 H :    0.139425
  12 H :    0.149250
  13 H :    0.125803
  14 H :    0.129218
  15 H :    0.171642

  Mayer bond orders larger than 0.1
B(  0-C ,  1-C ) :   0.8696 B(  0-C ,  9-H ) :   0.9259 B(  0-C , 10-H ) :   0.9233
B(  0-C , 11-H ) :   0.9494 B(  1-C ,  2-C ) :   1.4594 B(  1-C ,  4-N ) :   0.1082
B(  1-C ,  5-O ) :   1.1775 B(  2-C ,  3-N ) :   1.2379 B(  2-C ,  6-C ) :   0.9465
B(  3-N ,  4-N ) :   1.4253 B(  4-N ,  5-O ) :   0.8644 B(  6-C ,  7-C ) :   0.9338
B(  6-C ,  8-N ) :   0.9338 B(  6-C , 12-H ) :   0.9118 B(  7-C ,  8-N ) :   0.9081
B(  7-C , 13-H ) :   0.9246 B(  7-C , 14-H ) :   0.9163 B(  8-N , 15-H ) :   0.8735

MP2 TOTAL ENERGY:     -433.299433446 Eh
FINAL SINGLE POINT ENERGY      -433.299433446351

DIPOLE MOMENT
-------------
                                X             Y             Z
Electronic contribution:      4.83350      -4.97825      -0.19013
Nuclear contribution   :     -4.92531       6.28198       0.08057
                        -----------------------------------------
Total Dipole Moment    :     -0.09181       1.30373      -0.10956
                        -----------------------------------------
Magnitude (a.u.)       :      1.31154
Magnitude (Debye)      :      3.33367

                             ****ORCA TERMINATED NORMALLY****
TOTAL RUN TIME: 0 days 0 hours 15 minutes 39 seconds 156 msec
