                         Program Version 3.0.3 - RELEASE   -
|  1> ! RI-MP2 RIJK def2-TZVP def2-TZVP/C def2-TZVP/JK TIGHTSCF
|  2> % maxcore 2000
|  3> % mp2 density relaxed end
|  4> *xyz 0 1
|  5>  C        0.1445391045     1.5966211497    -0.2002257736
|  6>  C        0.1002007544     0.1500778016    -0.0496441367
|  7>  C        0.0641027229    -1.0460587772     0.0832669436
|  8>  C        0.0357794897    -2.4923489166     0.2150759740
|  9>  O        0.3467670224    -2.8757195915     1.5927992161
| 10>  C       -0.6682655837    -3.6803103511     1.9828032019
| 11>  N       -1.6195154636    -3.9440273120     1.1920956622
| 12>  C       -1.3461056754    -3.2080817962    -0.0566612144
| 13>  C       -2.5133318475    -2.2923328075    -0.4143141204
| 14>  H        0.9110329868     1.8985586230    -0.9220976424
| 15>  H       -0.8167145375     1.9913560391    -0.5466456848
| 16>  H        0.3780489739     2.0808503981     0.7541991316
| 17>  H        0.8212392673    -2.9331361959    -0.4076985553
| 18>  H       -0.5731038422    -4.0504509830     2.9981451014
| 19>  H       -1.2122778204    -3.9393473621    -0.8614814389
| 20>  H       -2.6764921015    -1.5449789893     0.3665795863
| 21>  H       -2.3266199128    -1.7690741988    -1.3561966941
| 22>  H       -3.4225052274    -2.8901031106    -0.5171253464
| 23> *
| 24>
| 25>                          ****END OF INPUT****

CARTESIAN COORDINATES (ANGSTROEM)
---------------------------------
  C      0.144539    1.596621   -0.200226
  C      0.100201    0.150078   -0.049644
  C      0.064103   -1.046059    0.083267
  C      0.035779   -2.492349    0.215076
  O      0.346767   -2.875720    1.592799
  C     -0.668266   -3.680310    1.982803
  N     -1.619515   -3.944027    1.192096
  C     -1.346106   -3.208082   -0.056661
  C     -2.513332   -2.292333   -0.414314
  H      0.911033    1.898559   -0.922098
  H     -0.816715    1.991356   -0.546646
  H      0.378049    2.080850    0.754199
  H      0.821239   -2.933136   -0.407699
  H     -0.573104   -4.050451    2.998145
  H     -1.212278   -3.939347   -0.861481
  H     -2.676492   -1.544979    0.366580
  H     -2.326620   -1.769074   -1.356197
  H     -3.422505   -2.890103   -0.517125

 Total Charge           Charge          ....    0
 Multiplicity           Mult            ....    1
 Number of Electrons    NEL             ....   66
 Basis Dimension        Dim             ....  333

ORBITAL ENERGIES
----------------

  NO   OCC          E(Eh)            E(eV)
   0   2.0000     -20.596969      -560.4720
   1   2.0000     -15.546789      -423.0496
   2   2.0000     -11.330493      -308.3184
   3   2.0000     -11.319720      -308.0252
   4   2.0000     -11.272399      -306.7376
   5   2.0000     -11.253707      -306.2289
   6   2.0000     -11.237583      -305.7902
   7   2.0000     -11.224848      -305.4436
   8   2.0000     -11.214860      -305.1718
   9   2.0000      -1.437793       -39.1243
  10   2.0000      -1.215393       -33.0725
  11   2.0000      -1.088509       -29.6198
  12   2.0000      -1.044843       -28.4316
  13   2.0000      -0.979589       -26.6560
  14   2.0000      -0.934021       -25.4160
  15   2.0000      -0.836234       -22.7551
  16   2.0000      -0.801435       -21.8082
  17   2.0000      -0.712771       -19.3955
  18   2.0000      -0.707881       -19.2624
  19   2.0000      -0.644090       -17.5266
  20   2.0000      -0.627077       -17.0636
  21   2.0000      -0.598937       -16.2979
  22   2.0000      -0.595600       -16.2071
  23   2.0000      -0.592650       -16.1268
  24   2.0000      -0.579130       -15.7589
  25   2.0000      -0.551680       -15.0120
  26   2.0000      -0.535494       -14.5715
  27   2.0000      -0.516702       -14.0602
  28   2.0000      -0.493348       -13.4247
  29   2.0000      -0.446677       -12.1547
  30   2.0000      -0.387936       -10.5563
  31   2.0000      -0.384193       -10.4544
  32   2.0000      -0.371943       -10.1211
  33   0.0000       0.127528         3.4702
  34   0.0000       0.141290         3.8447
  35   0.0000       0.163492         4.4488
  36   0.0000       0.170412         4.6371
  37   0.0000       0.177605         4.8329

MULLIKEN ATOMIC CHARGES
-----------------------
   0 C :   -0.480955
   1 C :    0.072938
   2 C :   -0.034302
   3 C :   -0.068180
   4 O :   -0.263312
   5 C :    0.099158
   6 N :   -0.281794
   7 C :    0.070279
   8 C :   -0.400262
   9 H :    0.164956
  10 H :    0.164158
  11 H :    0.168183
  12 H :    0.132627
  13 H :    0.146500
  14 H :    0.104324
  15 H :    0.132298
  16 H :    0.128813
  17 H :    0.144573
Sum of atomic charges:   -0.0000000

LOEWDIN ATOMIC CHARGES
----------------------
   0 C :   -0.290429
   1 C :   -0.083728
   2 C :   -0.066045
   3 C :   -0.227064
   4 O :    0.235840
   5 C :   -0.351518
   6 N :    0.083059
   7 C :   -0.267112
   8 C :   -0.288026
   9 H :    0.142499
  10 H :    0.142077
  11 H :    0.144634
  12 H :    0.158144
  13 H :    0.134817
  14 H :    0.147506
  15 H :    0.129206
  16 H :    0.126654
  17 H :    0.129485

  Mayer bond orders larger than 0.1
B(  0-C ,  1-C ) :   0.8628 B(  0-C ,  9-H ) :   0.9481 B(  0-C , 10-H ) :   0.9453
B(  0-C , 11-H ) :   0.9419 B(  1-C ,  2-C ) :   2.6847 B(  2-C ,  3-C ) :   0.9972
B(  3-C ,  4-O ) :   0.8694 B(  3-C ,  7-C ) :   0.9620 B(  3-C , 12-H ) :   0.9317
B(  4-O ,  5-C ) :   1.0739 B(  5-C ,  6-N ) :   1.8227 B(  5-C , 13-H ) :   0.9200
B(  6-N ,  7-C ) :   0.8897 B(  7-C ,  8-C ) :   0.9224 B(  7-C , 14-H ) :   0.9238
B(  8-C , 15-H ) :   0.9315 B(  8-C , 16-H ) :   0.9345 B(  8-C , 17-H ) :   0.9355

MP2 TOTAL ENERGY:     -401.235772936 Eh
FINAL SINGLE POINT ENERGY      -401.235772936182

DIPOLE MOMENT
-------------
                                X             Y             Z
Electronic contribution:      3.39394      -5.54056       4.11175
Nuclear contribution   :     -3.12143       6.25796      -4.58453
                        -----------------------------------------
Total Dipole Moment    :      0.27251       0.71741      -0.47278
                        -----------------------------------------
Magnitude (a.u.)       :      0.90136
Magnitude (Debye)      :      2.29108

                             ****ORCA TERMINATED NORMALLY****
TOTAL RUN TIME: 0 days 0 hours 17 minutes 37 seconds 305 msec
