                         Program Version 3.0.3 - RELEASE   -
|  1> ! RI-MP2 RIJK def2-TZVP def2-TZVP/C def2-TZVP/JK TIGHTSCF
|  2> % maxcore 2000
|  3> % mp2 density relaxed end
|  4> *xyz 0 1
|  5>  C       -0.0118329274     1.4040378750    -0.0056328341
|  6>  N        0.0323606611    -0.0479554218    -0.0323112866
|  7>  C        0.5793151745    -0.6377906484     0.9407793363
|  8>  N        0.7262291507    -2.0011918380     1.1103271442
|  9>  C        1.4069365238    -2.2696242407     2.2998702888
| 10>  C        1.7254681718    -3.6502450573     2.7503729961
| 11>  C        1.6533441100    -1.0768346375     2.8568288463
| 12>  O        1.1564883671    -0.0581789270     2.0563387873
| 13>  H        0.9764347331     1.8583186436     0.1553013820
| 14>  H       -0.3979355493     1.7650919343    -0.9626658936
| 15>  H       -0.6732303023     1.7857783120     0.7858031904
| 16>  H        0.4301298405    -2.6622614902     0.4156091582
| 17>  H        2.3610012852    -4.1729067948     2.0255330902
| 18>  H        2.2543520975    -3.6226269965     3.7053491663
| 19>  H        0.8163703487    -4.2489395131     2.8820233326
| 20>  H        2.1375663149    -0.7841594695     3.7713761257
| 21> *
| 22>
| 23>                          ****END OF INPUT****

CARTESIAN COORDINATES (ANGSTROEM)
---------------------------------
  C     -0.011833    1.404038   -0.005633
  N      0.032361   -0.047955   -0.032311
  C      0.579315   -0.637791    0.940779
  N      0.726229   -2.001192    1.110327
  C      1.406937   -2.269624    2.299870
  C      1.725468   -3.650245    2.750373
  C      1.653344   -1.076835    2.856829
  O      1.156488   -0.058179    2.056339
  H      0.976435    1.858319    0.155301
  H     -0.397936    1.765092   -0.962666
  H     -0.673230    1.785778    0.785803
  H      0.430130   -2.662261    0.415609
  H      2.361001   -4.172907    2.025533
  H      2.254352   -3.622627    3.705349
  H      0.816370   -4.248940    2.882023
  H      2.137566   -0.784159    3.771376

 Total Charge           Charge          ....    0
 Multiplicity           Mult            ....    1
 Number of Electrons    NEL             ....   60
 Basis Dimension        Dim             ....  296

ORBITAL ENERGIES
----------------

  NO   OCC          E(Eh)            E(eV)
   0   2.0000     -20.610447      -560.8388
   1   2.0000     -15.598484      -424.4563
   2   2.0000     -15.511991      -422.1027
   3   2.0000     -11.362508      -309.1896
   4   2.0000     -11.288827      -307.1846
   5   2.0000     -11.282699      -307.0178
   6   2.0000     -11.253365      -306.2196
   7   2.0000     -11.228144      -305.5333
   8   2.0000      -1.461866       -39.7794
   9   2.0000      -1.260190       -34.2915
  10   2.0000      -1.200454       -32.6660
  11   2.0000      -1.056565       -28.7506
  12   2.0000      -0.963302       -26.2128
  13   2.0000      -0.915611       -24.9150
  14   2.0000      -0.848165       -23.0797
  15   2.0000      -0.793297       -21.5867
  16   2.0000      -0.713336       -19.4109
  17   2.0000      -0.666305       -18.1311
  18   2.0000      -0.640495       -17.4288
  19   2.0000      -0.622672       -16.9438
  20   2.0000      -0.605160       -16.4672
  21   2.0000      -0.595818       -16.2130
  22   2.0000      -0.582163       -15.8415
  23   2.0000      -0.557514       -15.1707
  24   2.0000      -0.548978       -14.9384
  25   2.0000      -0.532207       -14.4821
  26   2.0000      -0.498016       -13.5517
  27   2.0000      -0.407743       -11.0952
  28   2.0000      -0.400565       -10.8999
  29   2.0000      -0.293785        -7.9943
  30   0.0000       0.125306         3.4098
  31   0.0000       0.160859         4.3772
  32   0.0000       0.167653         4.5621
  33   0.0000       0.171712         4.6725
  34   0.0000       0.175576         4.7777

MULLIKEN ATOMIC CHARGES
-----------------------
   0 C :   -0.273829
   1 N :   -0.303379
   2 C :    0.272084
   3 N :   -0.306017
   4 C :    0.106853
   5 C :   -0.419407
   6 C :   -0.065102
   7 O :   -0.245298
   8 H :    0.119210
   9 H :    0.134751
  10 H :    0.120923
  11 H :    0.255538
  12 H :    0.149940
  13 H :    0.148305
  14 H :    0.150942
  15 H :    0.154484
Sum of atomic charges:    0.0000000

LOEWDIN ATOMIC CHARGES
----------------------
   0 C :   -0.343547
   1 N :    0.017518
   2 C :   -0.428391
   3 N :    0.171743
   4 C :   -0.272526
   5 C :   -0.268634
   6 C :   -0.236973
   7 O :    0.289160
   8 H :    0.108255
   9 H :    0.112523
  10 H :    0.109934
  11 H :    0.196077
  12 H :    0.133867
  13 H :    0.140437
  14 H :    0.134173
  15 H :    0.136383

  Mayer bond orders larger than 0.1
B(  0-C ,  1-N ) :   0.8909 B(  0-C ,  8-H ) :   0.9317 B(  0-C ,  9-H ) :   0.9457
B(  0-C , 10-H ) :   0.9331 B(  1-N ,  2-C ) :   1.9376 B(  2-C ,  3-N ) :   1.0911
B(  2-C ,  7-O ) :   1.0085 B(  3-N ,  4-C ) :   1.0411 B(  3-N , 11-H ) :   0.8653
B(  4-C ,  5-C ) :   0.8675 B(  4-C ,  6-C ) :   1.6825 B(  5-C , 12-H ) :   0.9305
B(  5-C , 13-H ) :   0.9475 B(  5-C , 14-H ) :   0.9305 B(  6-C ,  7-O ) :   0.9759
B(  6-C , 15-H ) :   0.9351

MP2 TOTAL ENERGY:     -379.297318779 Eh
FINAL SINGLE POINT ENERGY      -379.297318779222

DIPOLE MOMENT
-------------
                                X             Y             Z
Electronic contribution:     -0.14515       0.70640      -0.06764
Nuclear contribution   :      0.62728      -1.77160       0.80270
                        -----------------------------------------
Total Dipole Moment    :      0.48213      -1.06520       0.73506
                        -----------------------------------------
Magnitude (a.u.)       :      1.38109
Magnitude (Debye)      :      3.51046

                             ****ORCA TERMINATED NORMALLY****
TOTAL RUN TIME: 0 days 0 hours 10 minutes 53 seconds 721 msec
