                         Program Version 3.0.3 - RELEASE   -
|  1> ! RI-MP2 RIJK def2-TZVP def2-TZVP/C def2-TZVP/JK TIGHTSCF
|  2> % maxcore 2000
|  3> % mp2 density relaxed end
|  4> *xyz 0 1
|  5>  O       -0.0185603410     1.3476317316    -0.0828653584
|  6>  C        0.0110205872    -0.0407798930    -0.0470314129
|  7>  C       -0.3898965506    -0.7702835800     1.2268125989
|  8>  C       -1.2724365369    -0.8229588450    -0.0034115632
|  9>  O       -2.4527411621    -0.0719775016    -0.0407616073
| 10>  C       -1.0929038916    -2.0049486610    -0.9097165990
| 11>  C       -0.8713201581    -1.6782518579    -2.3393641493
| 12>  N        0.2786795842    -1.9804443366    -1.4786282188
| 13>  C        0.9753580436    -0.7620153704    -0.9802439751
| 14>  H       -0.9529050219     1.5991121479    -0.1064963156
| 15>  H        0.1429763657    -1.6659697608     1.5321474327
| 16>  H       -0.7279817182    -0.1283194914     2.0337817695
| 17>  H       -3.0367508848    -0.3707479790     0.6638789777
| 18>  H       -1.4676189216    -2.9812742846    -0.6109658987
| 19>  H       -1.0752351882    -2.4216006404    -3.1042908679
| 20>  H       -1.0326962378    -0.6466060291    -2.6465290716
| 21>  H        1.2559997444    -0.1088065957    -1.8120182277
| 22>  H        1.8920284478    -1.0786177832    -0.4721458433
| 23> *
| 24>
| 25>                          ****END OF INPUT****

CARTESIAN COORDINATES (ANGSTROEM)
---------------------------------
  O     -0.018560    1.347632   -0.082865
  C      0.011021   -0.040780   -0.047031
  C     -0.389897   -0.770284    1.226813
  C     -1.272437   -0.822959   -0.003412
  O     -2.452741   -0.071978   -0.040762
  C     -1.092904   -2.004949   -0.909717
  C     -0.871320   -1.678252   -2.339364
  N      0.278680   -1.980444   -1.478628
  C      0.975358   -0.762015   -0.980244
  H     -0.952905    1.599112   -0.106496
  H      0.142976   -1.665970    1.532147
  H     -0.727982   -0.128319    2.033782
  H     -3.036751   -0.370748    0.663879
  H     -1.467619   -2.981274   -0.610966
  H     -1.075235   -2.421601   -3.104291
  H     -1.032696   -0.646606   -2.646529
  H      1.256000   -0.108807   -1.812018
  H      1.892028   -1.078618   -0.472146

 Total Charge           Charge          ....    0
 Multiplicity           Mult            ....    1
 Number of Electrons    NEL             ....   68
 Basis Dimension        Dim             ....  333

ORBITAL ENERGIES
----------------

  NO   OCC          E(Eh)            E(eV)
   0   2.0000     -20.586870      -560.1972
   1   2.0000     -20.563933      -559.5731
   2   2.0000     -15.564429      -423.5297
   3   2.0000     -11.296602      -307.3962
   4   2.0000     -11.289825      -307.2118
   5   2.0000     -11.263750      -306.5022
   6   2.0000     -11.256256      -306.2983
   7   2.0000     -11.254252      -306.2438
   8   2.0000     -11.234871      -305.7164
   9   2.0000      -1.404676       -38.2232
  10   2.0000      -1.369138       -37.2561
  11   2.0000      -1.283882       -34.9362
  12   2.0000      -1.125805       -30.6347
  13   2.0000      -1.003368       -27.3030
  14   2.0000      -0.887256       -24.1435
  15   2.0000      -0.854216       -23.2444
  16   2.0000      -0.805324       -21.9140
  17   2.0000      -0.778938       -21.1960
  18   2.0000      -0.720835       -19.6149
  19   2.0000      -0.686870       -18.6907
  20   2.0000      -0.672591       -18.3021
  21   2.0000      -0.637317       -17.3423
  22   2.0000      -0.614979       -16.7344
  23   2.0000      -0.603286       -16.4162
  24   2.0000      -0.574300       -15.6275
  25   2.0000      -0.564798       -15.3689
  26   2.0000      -0.548973       -14.9383
  27   2.0000      -0.535477       -14.5711
  28   2.0000      -0.508016       -13.8238
  29   2.0000      -0.472269       -12.8511
  30   2.0000      -0.452944       -12.3252
  31   2.0000      -0.421847       -11.4790
  32   2.0000      -0.382853       -10.4180
  33   2.0000      -0.372510       -10.1365
  34   0.0000       0.124208         3.3799
  35   0.0000       0.164670         4.4809
  36   0.0000       0.172203         4.6859
  37   0.0000       0.176829         4.8118
  38   0.0000       0.190347         5.1796

MULLIKEN ATOMIC CHARGES
-----------------------
   0 O :   -0.453124
   1 C :    0.104641
   2 C :   -0.321756
   3 C :    0.108451
   4 O :   -0.470947
   5 C :   -0.043382
   6 C :   -0.203538
   7 N :   -0.228563
   8 C :   -0.085471
   9 H :    0.336366
  10 H :    0.141468
  11 H :    0.139361
  12 H :    0.339840
  13 H :    0.126189
  14 H :    0.130015
  15 H :    0.133019
  16 H :    0.121365
  17 H :    0.126066
Sum of atomic charges:   -0.0000000

LOEWDIN ATOMIC CHARGES
----------------------
   0 O :    0.030134
   1 C :   -0.330278
   2 C :   -0.172680
   3 C :   -0.338320
   4 O :    0.026591
   5 C :   -0.211497
   6 C :   -0.233171
   7 N :    0.116079
   8 C :   -0.220447
   9 H :    0.188521
  10 H :    0.140946
  11 H :    0.142546
  12 H :    0.186267
  13 H :    0.140236
  14 H :    0.128009
  15 H :    0.133215
  16 H :    0.138984
  17 H :    0.134863

  Mayer bond orders larger than 0.1
B(  0-O ,  1-C ) :   1.1541 B(  0-O ,  9-H ) :   0.8166 B(  1-C ,  2-C ) :   0.8555
B(  1-C ,  3-C ) :   0.8525 B(  1-C ,  8-C ) :   0.9140 B(  2-C ,  3-C ) :   0.9040
B(  2-C , 10-H ) :   0.8926 B(  2-C , 11-H ) :   0.9206 B(  3-C ,  4-O ) :   1.0399
B(  3-C ,  5-C ) :   0.9711 B(  4-O , 12-H ) :   0.8309 B(  5-C ,  6-C ) :   0.9225
B(  5-C ,  7-N ) :   0.9198 B(  5-C , 13-H ) :   0.9030 B(  6-C ,  7-N ) :   0.8868
B(  6-C , 14-H ) :   0.9219 B(  6-C , 15-H ) :   0.9092 B(  7-N ,  8-C ) :   0.9161
B(  8-C , 16-H ) :   0.9273 B(  8-C , 17-H ) :   0.9220

MP2 TOTAL ENERGY:     -438.325990579 Eh
FINAL SINGLE POINT ENERGY      -438.325990578655

DIPOLE MOMENT
-------------
                                X             Y             Z
Electronic contribution:     -0.94026       1.21708       0.44814
Nuclear contribution   :      0.09935      -1.42983       0.00937
                        -----------------------------------------
Total Dipole Moment    :     -0.84092      -0.21275       0.45751
                        -----------------------------------------
Magnitude (a.u.)       :      0.98067
Magnitude (Debye)      :      2.49267

                             ****ORCA TERMINATED NORMALLY****
TOTAL RUN TIME: 0 days 0 hours 15 minutes 43 seconds 816 msec
