                         Program Version 3.0.3 - RELEASE   -
|  1> ! RI-MP2 RIJK def2-TZVP def2-TZVP/C def2-TZVP/JK TIGHTSCF
|  2> % maxcore 2000
|  3> % mp2 density relaxed end
|  4> *xyz 0 1
|  5>  N        0.2560096520     1.4182057560    -0.1603502298
|  6>  C        0.1386097878     0.0501018583    -0.0529793276
|  7>  N       -0.9983229577    -0.5776953511     0.1159917595
|  8>  O       -0.6650959674    -1.9102277328     0.2564457986
|  9>  N        0.6752314163    -2.0952776238     0.1557979634
| 10>  C        1.2017895546    -0.9156926325    -0.0268301575
| 11>  C        2.6850322972    -0.7489153189    -0.1134116803
| 12>  C        3.2068584968     0.0731649529    -1.2733531958
| 13>  O        2.5524332941     0.8385816457    -1.9371276390
| 14>  H        0.9254821815     1.6871346627    -0.8724113538
| 15>  H       -0.6369730511     1.8792864099    -0.2737335372
| 16>  H        3.0721603327    -0.2520270974     0.7919838039
| 17>  H        3.1611015295    -1.7348751847    -0.1310530655
| 18>  H        4.2938413638    -0.0538765942    -1.4633093590
| 19> *
| 20>
| 21>                          ****END OF INPUT****

CARTESIAN COORDINATES (ANGSTROEM)
---------------------------------
  N      0.256010    1.418206   -0.160350
  C      0.138610    0.050102   -0.052979
  N     -0.998323   -0.577695    0.115992
  O     -0.665096   -1.910228    0.256446
  N      0.675231   -2.095278    0.155798
  C      1.201790   -0.915693   -0.026830
  C      2.685032   -0.748915   -0.113412
  C      3.206858    0.073165   -1.273353
  O      2.552433    0.838582   -1.937128
  H      0.925482    1.687135   -0.872411
  H     -0.636973    1.879286   -0.273734
  H      3.072160   -0.252027    0.791984
  H      3.161102   -1.734875   -0.131053
  H      4.293841   -0.053877   -1.463309

 Total Charge           Charge          ....    0
 Multiplicity           Mult            ....    1
 Number of Electrons    NEL             ....   66
 Basis Dimension        Dim             ....  309

ORBITAL ENERGIES
----------------

  NO   OCC          E(Eh)            E(eV)
   0   2.0000     -20.665922      -562.3483
   1   2.0000     -20.593297      -560.3721
   2   2.0000     -15.656932      -426.0468
   3   2.0000     -15.626123      -425.2084
   4   2.0000     -15.583848      -424.0581
   5   2.0000     -11.372501      -309.4615
   6   2.0000     -11.328401      -308.2615
   7   2.0000     -11.303873      -307.5940
   8   2.0000     -11.288646      -307.1797
   9   2.0000      -1.532390       -41.6985
  10   2.0000      -1.434432       -39.0329
  11   2.0000      -1.262945       -34.3665
  12   2.0000      -1.208196       -32.8767
  13   2.0000      -1.134254       -30.8646
  14   2.0000      -1.057504       -28.7761
  15   2.0000      -0.877982       -23.8911
  16   2.0000      -0.852353       -23.1937
  17   2.0000      -0.802570       -21.8390
  18   2.0000      -0.732595       -19.9349
  19   2.0000      -0.713528       -19.4161
  20   2.0000      -0.695840       -18.9348
  21   2.0000      -0.681282       -18.5386
  22   2.0000      -0.654103       -17.7991
  23   2.0000      -0.641706       -17.4617
  24   2.0000      -0.631810       -17.1924
  25   2.0000      -0.577920       -15.7260
  26   2.0000      -0.545020       -14.8307
  27   2.0000      -0.529042       -14.3960
  28   2.0000      -0.509637       -13.8679
  29   2.0000      -0.480991       -13.0884
  30   2.0000      -0.468796       -12.7566
  31   2.0000      -0.420300       -11.4369
  32   2.0000      -0.374719       -10.1966
  33   0.0000       0.096261         2.6194
  34   0.0000       0.104771         2.8510
  35   0.0000       0.125273         3.4089
  36   0.0000       0.147485         4.0133
  37   0.0000       0.166402         4.5280

MULLIKEN ATOMIC CHARGES
-----------------------
   0 N :   -0.522379
   1 C :    0.139527
   2 N :   -0.118902
   3 O :   -0.021592
   4 N :   -0.101230
   5 C :    0.038635
   6 C :   -0.239161
   7 C :    0.134538
   8 O :   -0.301651
   9 H :    0.282883
  10 H :    0.258560
  11 H :    0.165888
  12 H :    0.173790
  13 H :    0.111095
Sum of atomic charges:   -0.0000000

LOEWDIN ATOMIC CHARGES
----------------------
   0 N :   -0.059244
   1 C :   -0.382972
   2 N :    0.025196
   3 O :    0.193684
   4 N :    0.040360
   5 C :   -0.268189
   6 C :   -0.225892
   7 C :   -0.273633
   8 O :    0.131029
   9 H :    0.175853
  10 H :    0.177242
  11 H :    0.176122
  12 H :    0.169271
  13 H :    0.121175

  Mayer bond orders larger than 0.1
B(  0-N ,  1-C ) :   1.0942 B(  0-N ,  9-H ) :   0.8483 B(  0-N , 10-H ) :   0.8699
B(  1-C ,  2-N ) :   1.5923 B(  1-C ,  5-C ) :   1.1905 B(  2-N ,  3-O ) :   0.9054
B(  2-N ,  4-N ) :   0.1152 B(  3-O ,  4-N ) :   0.9533 B(  4-N ,  5-C ) :   1.6046
B(  5-C ,  6-C ) :   0.8774 B(  6-C ,  7-C ) :   0.8913 B(  6-C , 11-H ) :   0.8796
B(  6-C , 12-H ) :   0.9306 B(  7-C ,  8-O ) :   1.9135 B(  7-C , 13-H ) :   0.9330

MP2 TOTAL ENERGY:     -469.219221764 Eh
FINAL SINGLE POINT ENERGY      -469.219221763843

DIPOLE MOMENT
-------------
                                X             Y             Z
Electronic contribution:     -4.02634      -2.66491       0.11053
Nuclear contribution   :      5.44042       3.33521      -0.17865
                        -----------------------------------------
Total Dipole Moment    :      1.41407       0.67030      -0.06812
                        -----------------------------------------
Magnitude (a.u.)       :      1.56638
Magnitude (Debye)      :      3.98143

                             ****ORCA TERMINATED NORMALLY****
TOTAL RUN TIME: 0 days 0 hours 15 minutes 0 seconds 533 msec
