                         Program Version 3.0.3 - RELEASE   -
|  1> ! RI-MP2 RIJK def2-TZVP def2-TZVP/C def2-TZVP/JK TIGHTSCF
|  2> % maxcore 2000
|  3> % mp2 density relaxed end
|  4> *xyz 0 1
|  5>  C        0.2255742282    -2.9500311647     0.1914006280
|  6>  C       -0.0663207630    -1.5883745438     0.8335709550
|  7>  C       -1.4989534195    -1.1537700136     0.5907626341
|  8>  C       -2.5852721224    -1.4733061676     1.5621296888
|  9>  N       -2.1666132010    -0.0902685074     1.3421432239
| 10>  C       -1.4674860643     0.5912088144     2.4221976367
| 11>  C       -2.4833885347     1.4049630729     3.2463827334
| 12>  C       -1.8556481008     2.1440400633     4.3336119263
| 13>  C       -1.3086978426     2.7431104449     5.2208238685
| 14>  H        1.2689366363    -3.2423336484     0.3425166081
| 15>  H       -0.4105893871    -3.7315112964     0.6195995091
| 16>  H        0.0392176625    -2.9256666602    -0.8878359701
| 17>  H        0.1432475631    -1.6384089956     1.9067430974
| 18>  H        0.6156921561    -0.8351423169     0.4174729015
| 19>  H       -1.7669393028    -1.1389602257    -0.4665468857
| 20>  H       -3.5864145608    -1.7329394976     1.2278970315
| 21>  H       -2.2810674667    -1.9503169435     2.4946214846
| 22>  H       -0.9247764173    -0.0861146647     3.0994895691
| 23>  H       -0.7307214425     1.2741529484     1.9856264991
| 24>  H       -3.0117700184     2.0894362946     2.5729723977
| 25>  H       -3.2432248088     0.7232793252     3.6493543668
| 26>  H       -0.8394917734     3.2790567725     6.0079744563
| 27> *
| 28>
| 29>                          ****END OF INPUT****

CARTESIAN COORDINATES (ANGSTROEM)
---------------------------------
  C      0.225574   -2.950031    0.191401
  C     -0.066321   -1.588375    0.833571
  C     -1.498953   -1.153770    0.590763
  C     -2.585272   -1.473306    1.562130
  N     -2.166613   -0.090269    1.342143
  C     -1.467486    0.591209    2.422198
  C     -2.483389    1.404963    3.246383
  C     -1.855648    2.144040    4.333612
  C     -1.308698    2.743110    5.220824
  H      1.268937   -3.242334    0.342517
  H     -0.410589   -3.731511    0.619600
  H      0.039218   -2.925667   -0.887836
  H      0.143248   -1.638409    1.906743
  H      0.615692   -0.835142    0.417473
  H     -1.766939   -1.138960   -0.466547
  H     -3.586415   -1.732939    1.227897
  H     -2.281067   -1.950317    2.494621
  H     -0.924776   -0.086115    3.099490
  H     -0.730721    1.274153    1.985626
  H     -3.011770    2.089436    2.572972
  H     -3.243225    0.723279    3.649354
  H     -0.839492    3.279057    6.007974

 Total Charge           Charge          ....    0
 Multiplicity           Mult            ....    1
 Number of Electrons    NEL             ....   68
 Basis Dimension        Dim             ....  357

ORBITAL ENERGIES
----------------

  NO   OCC          E(Eh)            E(eV)
   0   2.0000     -15.557272      -423.3349
   1   2.0000     -11.259251      -306.3798
   2   2.0000     -11.258487      -306.3590
   3   2.0000     -11.252009      -306.1827
   4   2.0000     -11.246308      -306.0276
   5   2.0000     -11.230581      -305.5996
   6   2.0000     -11.230382      -305.5942
   7   2.0000     -11.220590      -305.3278
   8   2.0000     -11.216727      -305.2227
   9   2.0000      -1.273708       -34.6593
  10   2.0000      -1.083756       -29.4905
  11   2.0000      -1.044405       -28.4197
  12   2.0000      -1.000881       -27.2353
  13   2.0000      -0.916849       -24.9487
  14   2.0000      -0.881419       -23.9846
  15   2.0000      -0.820580       -22.3291
  16   2.0000      -0.770406       -20.9638
  17   2.0000      -0.718120       -19.5410
  18   2.0000      -0.677985       -18.4489
  19   2.0000      -0.657384       -17.8883
  20   2.0000      -0.633672       -17.2431
  21   2.0000      -0.613487       -16.6938
  22   2.0000      -0.591756       -16.1025
  23   2.0000      -0.574591       -15.6354
  24   2.0000      -0.549650       -14.9567
  25   2.0000      -0.525477       -14.2990
  26   2.0000      -0.521996       -14.2042
  27   2.0000      -0.504512       -13.7285
  28   2.0000      -0.492706       -13.4072
  29   2.0000      -0.451053       -12.2738
  30   2.0000      -0.445246       -12.1158
  31   2.0000      -0.384367       -10.4592
  32   2.0000      -0.382215       -10.4006
  33   2.0000      -0.366201        -9.9648
  34   0.0000       0.133258         3.6261
  35   0.0000       0.149684         4.0731
  36   0.0000       0.164248         4.4694
  37   0.0000       0.167166         4.5488
  38   0.0000       0.171761         4.6738

MULLIKEN ATOMIC CHARGES
-----------------------
   0 C :   -0.395527
   1 C :   -0.193591
   2 C :   -0.038374
   3 C :   -0.210397
   4 N :   -0.204789
   5 C :   -0.143214
   6 C :   -0.305078
   7 C :   -0.031384
   8 C :   -0.161281
   9 H :    0.136008
  10 H :    0.129264
  11 H :    0.126601
  12 H :    0.107309
  13 H :    0.116263
  14 H :    0.115625
  15 H :    0.129524
  16 H :    0.117621
  17 H :    0.103743
  18 H :    0.125039
  19 H :    0.146488
  20 H :    0.142170
  21 H :    0.187981
Sum of atomic charges:   -0.0000000

LOEWDIN ATOMIC CHARGES
----------------------
   0 C :   -0.311852
   1 C :   -0.280605
   2 C :   -0.260049
   3 C :   -0.248180
   4 N :    0.111188
   5 C :   -0.279544
   6 C :   -0.246045
   7 C :   -0.113439
   8 C :   -0.110620
   9 H :    0.121552
  10 H :    0.122405
  11 H :    0.122185
  12 H :    0.137680
  13 H :    0.139764
  14 H :    0.143587
  15 H :    0.122967
  16 H :    0.124896
  17 H :    0.124997
  18 H :    0.138228
  19 H :    0.158755
  20 H :    0.156657
  21 H :    0.125474

  Mayer bond orders larger than 0.1
B(  0-C ,  1-C ) :   0.9217 B(  0-C ,  9-H ) :   0.9398 B(  0-C , 10-H ) :   0.9384
B(  0-C , 11-H ) :   0.9397 B(  1-C ,  2-C ) :   0.9119 B(  1-C , 12-H ) :   0.9291
B(  1-C , 13-H ) :   0.9325 B(  2-C ,  3-C ) :   0.9433 B(  2-C ,  4-N ) :   0.9050
B(  2-C , 14-H ) :   0.9221 B(  3-C ,  4-N ) :   0.8879 B(  3-C , 15-H ) :   0.9185
B(  3-C , 16-H ) :   0.9168 B(  4-N ,  5-C ) :   0.9252 B(  5-C ,  6-C ) :   0.9339
B(  5-C , 17-H ) :   0.9331 B(  5-C , 18-H ) :   0.9181 B(  6-C ,  7-C ) :   1.0598
B(  6-C , 19-H ) :   0.9245 B(  6-C , 20-H ) :   0.9293 B(  7-C ,  8-C ) :   2.6248
B(  8-C , 21-H ) :   0.9028

MP2 TOTAL ENERGY:     -366.476930707 Eh
FINAL SINGLE POINT ENERGY      -366.476930707011

DIPOLE MOMENT
-------------
                                X             Y             Z
Electronic contribution:     -3.47435       7.31827       4.43948
Nuclear contribution   :      3.77998      -7.85218      -4.48732
                        -----------------------------------------
Total Dipole Moment    :      0.30563      -0.53391      -0.04784
                        -----------------------------------------
Magnitude (a.u.)       :      0.61706
Magnitude (Debye)      :      1.56844

                             ****ORCA TERMINATED NORMALLY****
TOTAL RUN TIME: 0 days 0 hours 27 minutes 23 seconds 230 msec
