                         Program Version 3.0.3 - RELEASE   -
|  1> ! RI-MP2 RIJK def2-TZVP def2-TZVP/C def2-TZVP/JK TIGHTSCF
|  2> % maxcore 2000
|  3> % mp2 density relaxed end
|  4> *xyz 0 1
|  5>  C       -0.0155576203     1.4183801496    -0.0343605067
|  6>  N        0.0009938163    -0.0414721983    -0.0254400089
|  7>  N       -0.0731408018    -0.6453556754    -1.2539860444
|  8>  C       -0.0599227775    -1.9266862996    -1.2665580081
|  9>  N        0.0226252830    -2.7112925256    -0.1414648284
| 10>  C        0.1017915463    -2.2007097040     1.1479538659
| 11>  O        0.1736854205    -2.9027813963     2.1245148288
| 12>  C        0.0884789300    -0.6775744457     1.1991883445
| 13>  O        0.1503918472    -0.0648135605     2.2426337894
| 14>  H        0.8968208552     1.8083900137     0.4240692981
| 15>  H       -0.0876467818     1.7360050254    -1.0725276066
| 16>  H       -0.8679395651     1.7890480067     0.5407355597
| 17>  H       -0.1170702570    -2.4351755962    -2.2205354779
| 18>  H        0.0285531549    -3.7202406437    -0.2201133153
| 19> *
| 20>
| 21>                          ****END OF INPUT****

CARTESIAN COORDINATES (ANGSTROEM)
---------------------------------
  C     -0.015558    1.418380   -0.034361
  N      0.000994   -0.041472   -0.025440
  N     -0.073141   -0.645356   -1.253986
  C     -0.059923   -1.926686   -1.266558
  N      0.022625   -2.711293   -0.141465
  C      0.101792   -2.200710    1.147954
  O      0.173685   -2.902781    2.124515
  C      0.088479   -0.677574    1.199188
  O      0.150392   -0.064814    2.242634
  H      0.896821    1.808390    0.424069
  H     -0.087647    1.736005   -1.072528
  H     -0.867940    1.789048    0.540736
  H     -0.117070   -2.435176   -2.220535
  H      0.028553   -3.720241   -0.220113

 Total Charge           Charge          ....    0
 Multiplicity           Mult            ....    1
 Number of Electrons    NEL             ....   66
 Basis Dimension        Dim             ....  309

ORBITAL ENERGIES
----------------

  NO   OCC          E(Eh)            E(eV)
   0   2.0000     -20.564088      -559.5773
   1   2.0000     -20.546032      -559.0859
   2   2.0000     -15.650616      -425.8749
   3   2.0000     -15.649480      -425.8440
   4   2.0000     -15.629211      -425.2925
   5   2.0000     -11.394340      -310.0558
   6   2.0000     -11.379517      -309.6524
   7   2.0000     -11.351497      -308.8899
   8   2.0000     -11.270754      -306.6928
   9   2.0000      -1.444484       -39.3064
  10   2.0000      -1.405698       -38.2510
  11   2.0000      -1.371679       -37.3253
  12   2.0000      -1.282415       -34.8963
  13   2.0000      -1.156229       -31.4626
  14   2.0000      -1.006617       -27.3915
  15   2.0000      -0.923529       -25.1305
  16   2.0000      -0.902710       -24.5640
  17   2.0000      -0.801282       -21.8040
  18   2.0000      -0.767082       -20.8734
  19   2.0000      -0.715487       -19.4694
  20   2.0000      -0.686202       -18.6725
  21   2.0000      -0.660688       -17.9782
  22   2.0000      -0.656058       -17.8523
  23   2.0000      -0.618612       -16.8333
  24   2.0000      -0.617151       -16.7935
  25   2.0000      -0.571741       -15.5579
  26   2.0000      -0.556909       -15.1543
  27   2.0000      -0.540180       -14.6991
  28   2.0000      -0.528371       -14.3777
  29   2.0000      -0.481550       -13.1037
  30   2.0000      -0.462160       -12.5760
  31   2.0000      -0.437808       -11.9134
  32   2.0000      -0.351044        -9.5524
  33   0.0000       0.085342         2.3223
  34   0.0000       0.115917         3.1543
  35   0.0000       0.122743         3.3400
  36   0.0000       0.150624         4.0987
  37   0.0000       0.170601         4.6423

MULLIKEN ATOMIC CHARGES
-----------------------
   0 C :   -0.310727
   1 N :    0.035341
   2 N :   -0.229469
   3 C :    0.060087
   4 N :   -0.257430
   5 C :    0.184254
   6 O :   -0.275053
   7 C :    0.214142
   8 O :   -0.324172
   9 H :    0.155858
  10 H :    0.167778
  11 H :    0.155879
  12 H :    0.164236
  13 H :    0.259277
Sum of atomic charges:    0.0000000

LOEWDIN ATOMIC CHARGES
----------------------
   0 C :   -0.270610
   1 N :    0.156474
   2 N :    0.063151
   3 C :   -0.316004
   4 N :    0.165223
   5 C :   -0.399266
   6 O :    0.145708
   7 C :   -0.411429
   8 O :    0.131064
   9 H :    0.127918
  10 H :    0.128381
  11 H :    0.127926
  12 H :    0.144970
  13 H :    0.206495

  Mayer bond orders larger than 0.1
B(  0-C ,  1-N ) :   0.8521 B(  0-C ,  9-H ) :   0.9295 B(  0-C , 10-H ) :   0.9243
B(  0-C , 11-H ) :   0.9294 B(  1-N ,  2-N ) :   0.8755 B(  1-N ,  7-C ) :   1.1213
B(  2-N ,  3-C ) :   1.7161 B(  3-C ,  4-N ) :   1.0787 B(  3-C , 12-H ) :   0.9168
B(  4-N ,  5-C ) :   1.0722 B(  4-N , 13-H ) :   0.8458 B(  5-C ,  6-O ) :   2.0403
B(  5-C ,  7-C ) :   0.8868 B(  7-C ,  8-O ) :   1.8906

MP2 TOTAL ENERGY:     -469.295282303 Eh
FINAL SINGLE POINT ENERGY      -469.295282302961

DIPOLE MOMENT
-------------
                                X             Y             Z
Electronic contribution:      0.22204      -4.58192       2.61531
Nuclear contribution   :     -0.34689       4.25645      -4.56889
                        -----------------------------------------
Total Dipole Moment    :     -0.12485      -0.32547      -1.95357
                        -----------------------------------------
Magnitude (a.u.)       :      1.98443
Magnitude (Debye)      :      5.04403

                             ****ORCA TERMINATED NORMALLY****
TOTAL RUN TIME: 0 days 0 hours 15 minutes 15 seconds 10 msec
