                         Program Version 3.0.3 - RELEASE   -
|  1> ! RI-MP2 RIJK def2-TZVP def2-TZVP/C def2-TZVP/JK TIGHTSCF
|  2> % maxcore 2000
|  3> % mp2 density relaxed end
|  4> *xyz 0 1
|  5>  C        0.0158010789     1.5565940716     0.1465251230
|  6>  O        1.3921133768     1.9397821566     0.0374067370
|  7>  C        2.0988392179     1.0187847601    -0.8024021512
|  8>  C        1.3292682733    -0.2700508788    -0.6872857331
|  9>  O        0.9929079207    -0.6715823746     0.6410928089
| 10>  C        0.0141787584     0.0694855925    -0.0881962303
| 11>  C       -0.6763140265    -0.8565355510    -1.0876538814
| 12>  O       -0.3237303768    -0.4014463805    -2.4022234592
| 13>  C        0.6326612485    -1.1944939116    -1.6839578405
| 14>  H       -0.3252700478     1.8712271506     1.1365748323
| 15>  H       -0.6080617657     2.0389724066    -0.6204016413
| 16>  H        2.1013114583     1.3394541149    -1.8546545819
| 17>  H        3.1285598440     0.9794989468    -0.4368149801
| 18>  H       -1.5733020033    -1.4531612386    -0.9848033417
| 19>  H        0.9753699733    -2.1111907547    -2.1458512406
| 20> *
| 21>
| 22>                          ****END OF INPUT****

CARTESIAN COORDINATES (ANGSTROEM)
---------------------------------
  C      0.015801    1.556594    0.146525
  O      1.392113    1.939782    0.037407
  C      2.098839    1.018785   -0.802402
  C      1.329268   -0.270051   -0.687286
  O      0.992908   -0.671582    0.641093
  C      0.014179    0.069486   -0.088196
  C     -0.676314   -0.856536   -1.087654
  O     -0.323730   -0.401446   -2.402223
  C      0.632661   -1.194494   -1.683958
  H     -0.325270    1.871227    1.136575
  H     -0.608062    2.038972   -0.620402
  H      2.101311    1.339454   -1.854655
  H      3.128560    0.979499   -0.436815
  H     -1.573302   -1.453161   -0.984803
  H      0.975370   -2.111191   -2.145851

 Total Charge           Charge          ....    0
 Multiplicity           Mult            ....    1
 Number of Electrons    NEL             ....   66
 Basis Dimension        Dim             ....  315

ORBITAL ENERGIES
----------------

  NO   OCC          E(Eh)            E(eV)
   0   2.0000     -20.596921      -560.4707
   1   2.0000     -20.596480      -560.4587
   2   2.0000     -20.566074      -559.6313
   3   2.0000     -11.320354      -308.0425
   4   2.0000     -11.319588      -308.0216
   5   2.0000     -11.304842      -307.6204
   6   2.0000     -11.304049      -307.5988
   7   2.0000     -11.297037      -307.4080
   8   2.0000     -11.297017      -307.4074
   9   2.0000      -1.474082       -40.1118
  10   2.0000      -1.423473       -38.7347
  11   2.0000      -1.372715       -37.3535
  12   2.0000      -1.056199       -28.7406
  13   2.0000      -1.020661       -27.7736
  14   2.0000      -0.949404       -25.8346
  15   2.0000      -0.897431       -24.4203
  16   2.0000      -0.826285       -22.4844
  17   2.0000      -0.758157       -20.6305
  18   2.0000      -0.740717       -20.1559
  19   2.0000      -0.690769       -18.7968
  20   2.0000      -0.673777       -18.3344
  21   2.0000      -0.645866       -17.5749
  22   2.0000      -0.645663       -17.5694
  23   2.0000      -0.576838       -15.6966
  24   2.0000      -0.570319       -15.5192
  25   2.0000      -0.559127       -15.2146
  26   2.0000      -0.534990       -14.5578
  27   2.0000      -0.527668       -14.3586
  28   2.0000      -0.517048       -14.0696
  29   2.0000      -0.474493       -12.9116
  30   2.0000      -0.449535       -12.2325
  31   2.0000      -0.420102       -11.4316
  32   2.0000      -0.402139       -10.9428
  33   0.0000       0.147610         4.0167
  34   0.0000       0.158533         4.3139
  35   0.0000       0.164135         4.4663
  36   0.0000       0.186617         5.0781
  37   0.0000       0.189920         5.1680

MULLIKEN ATOMIC CHARGES
-----------------------
   0 C :   -0.059517
   1 O :   -0.302164
   2 C :   -0.059517
   3 C :    0.182057
   4 O :   -0.308063
   5 C :    0.182058
   6 C :   -0.052589
   7 O :   -0.306925
   8 C :   -0.052588
   9 H :    0.127728
  10 H :    0.108716
  11 H :    0.108716
  12 H :    0.127728
  13 H :    0.152180
  14 H :    0.152180
Sum of atomic charges:   -0.0000000

LOEWDIN ATOMIC CHARGES
----------------------
   0 C :   -0.259099
   1 O :    0.152777
   2 C :   -0.259099
   3 C :   -0.243033
   4 O :    0.244181
   5 C :   -0.243033
   6 C :   -0.196917
   7 O :    0.182637
   8 C :   -0.196917
   9 H :    0.135844
  10 H :    0.136202
  11 H :    0.136201
  12 H :    0.135844
  13 H :    0.137207
  14 H :    0.137207

  Mayer bond orders larger than 0.1
B(  0-C ,  1-O ) :   0.9492 B(  0-C ,  5-C ) :   0.9734 B(  0-C ,  9-H ) :   0.9107
B(  0-C , 10-H ) :   0.9118 B(  1-O ,  2-C ) :   0.9492 B(  2-C ,  3-C ) :   0.9734
B(  2-C , 11-H ) :   0.9118 B(  2-C , 12-H ) :   0.9107 B(  3-C ,  4-O ) :   0.8997
B(  3-C ,  5-C ) :   0.8446 B(  3-C ,  8-C ) :   0.8996 B(  4-O ,  5-C ) :   0.8997
B(  5-C ,  6-C ) :   0.8996 B(  6-C ,  7-O ) :   0.9281 B(  6-C ,  8-C ) :   0.9296
B(  6-C , 13-H ) :   0.9181 B(  7-O ,  8-C ) :   0.9281 B(  8-C , 14-H ) :   0.9181

MP2 TOTAL ENERGY:     -456.933601411 Eh
FINAL SINGLE POINT ENERGY      -456.933601410908

DIPOLE MOMENT
-------------
                                X             Y             Z
Electronic contribution:     -0.26211      -1.98513       0.54971
Nuclear contribution   :      0.00411       1.59322      -0.89395
                        -----------------------------------------
Total Dipole Moment    :     -0.25800      -0.39190      -0.34425
                        -----------------------------------------
Magnitude (a.u.)       :      0.58195
Magnitude (Debye)      :      1.47919

                             ****ORCA TERMINATED NORMALLY****
TOTAL RUN TIME: 0 days 0 hours 15 minutes 16 seconds 836 msec
