                         Program Version 3.0.3 - RELEASE   -
|  1> ! RI-MP2 RIJK def2-TZVP def2-TZVP/C def2-TZVP/JK TIGHTSCF
|  2> % maxcore 2000
|  3> % mp2 density relaxed end
|  4> *xyz 0 1
|  5>  C       -0.0519495790     1.6075750364     0.2064894439
|  6>  C        1.4745282663     1.4026996397     0.0391037178
|  7>  C        1.7112679004     0.4371069552     1.2324483903
|  8>  O        0.5616386625    -0.4566439964     1.1203761070
|  9>  C       -0.0322243092     0.0677009913    -0.0598262001
| 10>  C       -1.1523992775    -0.6067630630    -0.8216648337
| 11>  C       -0.8368681182    -0.0831126243    -2.2231042084
| 12>  C        0.3775200066     0.4771634276    -2.3266985767
| 13>  C        1.1475573240     0.3199132508    -1.0420152915
| 14>  H       -0.4216245204     1.9195424245     1.1862918675
| 15>  H       -0.5070038658     2.1899509661    -0.5920742696
| 16>  H        2.1920086158     2.2150028495    -0.0811502848
| 17>  H        2.6361886330    -0.1455946512     1.1480488436
| 18>  H        1.6914666067     0.9452481622     2.2025645733
| 19>  H       -1.0856286513    -1.7019128339    -0.7729072434
| 20>  H       -2.1532268511    -0.3234074220    -0.4777043878
| 21>  H       -1.5494478867    -0.1665870589    -3.0374076584
| 22>  H        0.7861195448     0.8915590788    -3.2421903512
| 23>  H        1.9004882792    -0.4744718823    -1.1264838677
| 24> *
| 25>
| 26>                          ****END OF INPUT****

CARTESIAN COORDINATES (ANGSTROEM)
---------------------------------
  C     -0.051950    1.607575    0.206489
  C      1.474528    1.402700    0.039104
  C      1.711268    0.437107    1.232448
  O      0.561639   -0.456644    1.120376
  C     -0.032224    0.067701   -0.059826
  C     -1.152399   -0.606763   -0.821665
  C     -0.836868   -0.083113   -2.223104
  C      0.377520    0.477163   -2.326699
  C      1.147557    0.319913   -1.042015
  H     -0.421625    1.919542    1.186292
  H     -0.507004    2.189951   -0.592074
  H      2.192009    2.215003   -0.081150
  H      2.636189   -0.145595    1.148049
  H      1.691467    0.945248    2.202565
  H     -1.085629   -1.701913   -0.772907
  H     -2.153227   -0.323407   -0.477704
  H     -1.549448   -0.166587   -3.037408
  H      0.786120    0.891559   -3.242190
  H      1.900488   -0.474472   -1.126484

 Total Charge           Charge          ....    0
 Multiplicity           Mult            ....    1
 Number of Electrons    NEL             ....   66
 Basis Dimension        Dim             ....  339

ORBITAL ENERGIES
----------------

  NO   OCC          E(Eh)            E(eV)
   0   2.0000     -20.549105      -559.1696
   1   2.0000     -11.282455      -307.0112
   2   2.0000     -11.275220      -306.8143
   3   2.0000     -11.242513      -305.9243
   4   2.0000     -11.233904      -305.6901
   5   2.0000     -11.230549      -305.5988
   6   2.0000     -11.230167      -305.5884
   7   2.0000     -11.226696      -305.4939
   8   2.0000     -11.218644      -305.2748
   9   2.0000      -1.379957       -37.5505
  10   2.0000      -1.157984       -31.5103
  11   2.0000      -1.069714       -29.1084
  12   2.0000      -0.977037       -26.5865
  13   2.0000      -0.934065       -25.4172
  14   2.0000      -0.892245       -24.2792
  15   2.0000      -0.787937       -21.4408
  16   2.0000      -0.754948       -20.5432
  17   2.0000      -0.722513       -19.6606
  18   2.0000      -0.679029       -18.4773
  19   2.0000      -0.659796       -17.9540
  20   2.0000      -0.640220       -17.4213
  21   2.0000      -0.614851       -16.7310
  22   2.0000      -0.581854       -15.8331
  23   2.0000      -0.540354       -14.7038
  24   2.0000      -0.528260       -14.3747
  25   2.0000      -0.523093       -14.2341
  26   2.0000      -0.508733       -13.8433
  27   2.0000      -0.500264       -13.6129
  28   2.0000      -0.465041       -12.6544
  29   2.0000      -0.459570       -12.5055
  30   2.0000      -0.421173       -11.4607
  31   2.0000      -0.384219       -10.4551
  32   2.0000      -0.349987        -9.5236
  33   0.0000       0.143880         3.9152
  34   0.0000       0.151551         4.1239
  35   0.0000       0.159173         4.3313
  36   0.0000       0.173603         4.7240
  37   0.0000       0.178780         4.8648

MULLIKEN ATOMIC CHARGES
-----------------------
   0 C :   -0.282050
   1 C :   -0.098372
   2 C :   -0.053244
   3 O :   -0.318315
   4 C :    0.185785
   5 C :   -0.136746
   6 C :   -0.195457
   7 C :   -0.202729
   8 C :   -0.116737
   9 H :    0.118725
  10 H :    0.135186
  11 H :    0.134330
  12 H :    0.105834
  13 H :    0.111718
  14 H :    0.123748
  15 H :    0.129485
  16 H :    0.126622
  17 H :    0.128032
  18 H :    0.104185
Sum of atomic charges:   -0.0000000

LOEWDIN ATOMIC CHARGES
----------------------
   0 C :   -0.173645
   1 C :   -0.199963
   2 C :   -0.238801
   3 O :    0.167349
   4 C :   -0.294303
   5 C :   -0.195899
   6 C :   -0.136992
   7 C :   -0.141728
   8 C :   -0.153384
   9 H :    0.130719
  10 H :    0.142119
  11 H :    0.132943
  12 H :    0.121586
  13 H :    0.122631
  14 H :    0.149953
  15 H :    0.143990
  16 H :    0.134630
  17 H :    0.136500
  18 H :    0.152296

  Mayer bond orders larger than 0.1
B(  0-C ,  1-C ) :   0.9268 B(  0-C ,  4-C ) :   0.9226 B(  0-C ,  9-H ) :   0.9266
B(  0-C , 10-H ) :   0.9090 B(  1-C ,  2-C ) :   0.9215 B(  1-C ,  8-C ) :   0.8837
B(  1-C , 11-H ) :   0.9025 B(  2-C ,  3-O ) :   0.9099 B(  2-C , 12-H ) :   0.9222
B(  2-C , 13-H ) :   0.9243 B(  3-O ,  4-C ) :   1.0279 B(  4-C ,  5-C ) :   0.9163
B(  4-C ,  8-C ) :   0.8913 B(  5-C ,  6-C ) :   0.9431 B(  5-C , 14-H ) :   0.8934
B(  5-C , 15-H ) :   0.9217 B(  6-C ,  7-C ) :   1.7619 B(  6-C , 16-H ) :   0.9282
B(  7-C ,  8-C ) :   0.9389 B(  7-C , 17-H ) :   0.9294 B(  8-C , 18-H ) :   0.9032

MP2 TOTAL ENERGY:     -385.187070446 Eh
FINAL SINGLE POINT ENERGY      -385.187070445760

DIPOLE MOMENT
-------------
                                X             Y             Z
Electronic contribution:      0.21983      -1.39815       0.49054
Nuclear contribution   :     -0.11630       1.81267      -0.87242
                        -----------------------------------------
Total Dipole Moment    :      0.10354       0.41452      -0.38189
                        -----------------------------------------
Magnitude (a.u.)       :      0.57305
Magnitude (Debye)      :      1.45657

                             ****ORCA TERMINATED NORMALLY****
TOTAL RUN TIME: 0 days 0 hours 18 minutes 47 seconds 715 msec
