                         Program Version 3.0.3 - RELEASE   -
|  1> ! RI-MP2 RIJK def2-TZVP def2-TZVP/C def2-TZVP/JK TIGHTSCF
|  2> % maxcore 2000
|  3> % mp2 density relaxed end
|  4> *xyz 0 1
|  5>  N       -0.1502666401     0.1809530795    -1.2210139532
|  6>  C       -0.2793349586     0.0611373257     0.1162143266
|  7>  O        0.4673619677     0.5543342820     0.9429101864
|  8>  C       -1.5209294800    -0.7583683749     0.5617132566
|  9>  N       -1.5174777238    -2.1414126664     0.1298907515
| 10>  C       -1.8553217239    -2.5403769341    -1.1131950116
| 11>  O       -2.0487804833    -1.7910174170    -2.0588965556
| 12>  C       -1.5843753073    -0.7305859030     2.0854079936
| 13>  O       -1.6440237384    -1.7352397140     2.7469855676
| 14>  H        0.6629171175     0.6563753344    -1.5785331879
| 15>  H       -0.7833415452    -0.3126241326    -1.8427394500
| 16>  H       -2.4155236733    -0.2526830505     0.1667016666
| 17>  H       -1.4609567960    -2.8124446980     0.8869132380
| 18>  H       -1.9332566607    -3.6382661645    -1.2006571769
| 19>  H       -1.5743665546     0.2762496134     2.5340930784
| 20> *
| 21>
| 22>                          ****END OF INPUT****

CARTESIAN COORDINATES (ANGSTROEM)
---------------------------------
  N     -0.150267    0.180953   -1.221014
  C     -0.279335    0.061137    0.116214
  O      0.467362    0.554334    0.942910
  C     -1.520929   -0.758368    0.561713
  N     -1.517478   -2.141413    0.129891
  C     -1.855322   -2.540377   -1.113195
  O     -2.048780   -1.791017   -2.058897
  C     -1.584375   -0.730586    2.085408
  O     -1.644024   -1.735240    2.746986
  H      0.662917    0.656375   -1.578533
  H     -0.783342   -0.312624   -1.842739
  H     -2.415524   -0.252683    0.166702
  H     -1.460957   -2.812445    0.886913
  H     -1.933257   -3.638266   -1.200657
  H     -1.574367    0.276250    2.534093

 Total Charge           Charge          ....    0
 Multiplicity           Mult            ....    1
 Number of Electrons    NEL             ....   68
 Basis Dimension        Dim             ....  315

ORBITAL ENERGIES
----------------

  NO   OCC          E(Eh)            E(eV)
   0   2.0000     -20.585842      -560.1692
   1   2.0000     -20.554501      -559.3164
   2   2.0000     -20.538532      -558.8819
   3   2.0000     -15.620452      -425.0541
   4   2.0000     -15.588492      -424.1844
   5   2.0000     -11.380314      -309.6741
   6   2.0000     -11.373511      -309.4890
   7   2.0000     -11.360300      -309.1295
   8   2.0000     -11.318942      -308.0041
   9   2.0000      -1.430261       -38.9194
  10   2.0000      -1.414025       -38.4776
  11   2.0000      -1.400955       -38.1219
  12   2.0000      -1.271912       -34.6105
  13   2.0000      -1.223610       -33.2961
  14   2.0000      -1.050953       -28.5979
  15   2.0000      -0.873068       -23.7574
  16   2.0000      -0.860136       -23.4055
  17   2.0000      -0.796060       -21.6619
  18   2.0000      -0.764809       -20.8115
  19   2.0000      -0.749142       -20.3852
  20   2.0000      -0.700511       -19.0619
  21   2.0000      -0.694303       -18.8929
  22   2.0000      -0.672501       -18.2997
  23   2.0000      -0.646701       -17.5976
  24   2.0000      -0.627934       -17.0870
  25   2.0000      -0.611078       -16.6283
  26   2.0000      -0.588074       -16.0023
  27   2.0000      -0.568525       -15.4704
  28   2.0000      -0.541982       -14.7481
  29   2.0000      -0.475187       -12.9305
  30   2.0000      -0.463934       -12.6243
  31   2.0000      -0.456635       -12.4257
  32   2.0000      -0.427038       -11.6203
  33   2.0000      -0.415432       -11.3045
  34   0.0000       0.118438         3.2229
  35   0.0000       0.126905         3.4533
  36   0.0000       0.139485         3.7956
  37   0.0000       0.147505         4.0138
  38   0.0000       0.158506         4.3132

MULLIKEN ATOMIC CHARGES
-----------------------
   0 N :   -0.463453
   1 C :    0.237776
   2 O :   -0.348166
   3 C :    0.031397
   4 N :   -0.327305
   5 C :    0.222906
   6 O :   -0.420477
   7 C :    0.131011
   8 O :   -0.283609
   9 H :    0.258888
  10 H :    0.299157
  11 H :    0.152311
  12 H :    0.269092
  13 H :    0.111859
  14 H :    0.128611
Sum of atomic charges:    0.0000000

LOEWDIN ATOMIC CHARGES
----------------------
   0 N :    0.010771
   1 C :   -0.465453
   2 O :    0.087973
   3 C :   -0.242000
   4 N :    0.124537
   5 C :   -0.421551
   6 O :    0.033824
   7 C :   -0.245136
   8 O :    0.137690
   9 H :    0.177051
  10 H :    0.178551
  11 H :    0.172591
  12 H :    0.199227
  13 H :    0.121081
  14 H :    0.130845

  Mayer bond orders larger than 0.1
B(  0-N ,  1-C ) :   1.2565 B(  0-N ,  9-H ) :   0.8576 B(  0-N , 10-H ) :   0.8153
B(  1-C ,  2-O ) :   1.9497 B(  1-C ,  3-C ) :   0.8675 B(  3-C ,  4-N ) :   0.8410
B(  3-C ,  7-C ) :   0.8643 B(  3-C , 11-H ) :   0.9058 B(  4-N ,  5-C ) :   1.2072
B(  4-N , 12-H ) :   0.8374 B(  5-C ,  6-O ) :   1.7580 B(  5-C , 13-H ) :   0.9268
B(  7-C ,  8-O ) :   1.9370 B(  7-C , 14-H ) :   0.9339

MP2 TOTAL ENERGY:     -490.384165445 Eh
FINAL SINGLE POINT ENERGY      -490.384165445060

DIPOLE MOMENT
-------------
                                X             Y             Z
Electronic contribution:      0.36809      -0.13432       1.81392
Nuclear contribution   :     -0.74179      -0.13445      -2.24494
                        -----------------------------------------
Total Dipole Moment    :     -0.37370      -0.26877      -0.43101
                        -----------------------------------------
Magnitude (a.u.)       :      0.63060
Magnitude (Debye)      :      1.60287

                             ****ORCA TERMINATED NORMALLY****
TOTAL RUN TIME: 0 days 0 hours 15 minutes 6 seconds 369 msec
