                         Program Version 3.0.3 - RELEASE   -
|  1> ! RI-MP2 RIJK def2-TZVP def2-TZVP/C def2-TZVP/JK TIGHTSCF
|  2> % maxcore 2000
|  3> % mp2 density relaxed end
|  4> *xyz 0 1
|  5>  C        0.0035233701     1.4859701287     0.0549412192
|  6>  C        0.0064187689     0.0296412061     0.0352900855
|  7>  C        0.0432349805    -1.1762854972     0.0318248926
|  8>  C        0.0480421891    -2.6105863317     0.0048060089
|  9>  C       -0.4739286979    -3.4040551455     1.1999553900
| 10>  C       -1.2748860898    -3.3561774259    -0.0703474328
| 11>  N       -2.4683374953    -2.5759799419    -0.1503394109
| 12>  C       -3.6997245832    -3.1388317895    -0.2670934342
| 13>  O       -3.9235539137    -4.3307242184    -0.2552852311
| 14>  H        1.0167769456     1.8782767635     0.1949919630
| 15>  H       -0.3860336915     1.9013888038    -0.8810167587
| 16>  H       -0.6147388032     1.8714878427     0.8730934109
| 17>  H        0.8675761765    -3.0591611106    -0.5485221136
| 18>  H        0.0375674246    -4.3256293982     1.4535499062
| 19>  H       -0.8434103736    -2.8298351129     2.0410301807
| 20>  H       -1.3147466112    -4.2532379861    -0.6774670780
| 21>  H       -2.3663151478    -1.5741100145    -0.2330980044
| 22>  H       -4.4911691780    -2.3711592126    -0.3808855334
| 23> *
| 24>
| 25>                          ****END OF INPUT****

CARTESIAN COORDINATES (ANGSTROEM)
---------------------------------
  C      0.003523    1.485970    0.054941
  C      0.006419    0.029641    0.035290
  C      0.043235   -1.176285    0.031825
  C      0.048042   -2.610586    0.004806
  C     -0.473929   -3.404055    1.199955
  C     -1.274886   -3.356177   -0.070347
  N     -2.468337   -2.575980   -0.150339
  C     -3.699725   -3.138832   -0.267093
  O     -3.923554   -4.330724   -0.255285
  H      1.016777    1.878277    0.194992
  H     -0.386034    1.901389   -0.881017
  H     -0.614739    1.871488    0.873093
  H      0.867576   -3.059161   -0.548522
  H      0.037567   -4.325629    1.453550
  H     -0.843410   -2.829835    2.041030
  H     -1.314747   -4.253238   -0.677467
  H     -2.366315   -1.574110   -0.233098
  H     -4.491169   -2.371159   -0.380886

 Total Charge           Charge          ....    0
 Multiplicity           Mult            ....    1
 Number of Electrons    NEL             ....   66
 Basis Dimension        Dim             ....  333

ORBITAL ENERGIES
----------------

  NO   OCC          E(Eh)            E(eV)
   0   2.0000     -20.520915      -558.4025
   1   2.0000     -15.590080      -424.2277
   2   2.0000     -11.347343      -308.7769
   3   2.0000     -11.284763      -307.0740
   4   2.0000     -11.267240      -306.5972
   5   2.0000     -11.256892      -306.3156
   6   2.0000     -11.242136      -305.9141
   7   2.0000     -11.237921      -305.7994
   8   2.0000     -11.233094      -305.6680
   9   2.0000      -1.381787       -37.6003
  10   2.0000      -1.252334       -34.0777
  11   2.0000      -1.145248       -31.1638
  12   2.0000      -1.064339       -28.9621
  13   2.0000      -0.975352       -26.5407
  14   2.0000      -0.885506       -24.0959
  15   2.0000      -0.862575       -23.4719
  16   2.0000      -0.801034       -21.7972
  17   2.0000      -0.738887       -20.1061
  18   2.0000      -0.703249       -19.1364
  19   2.0000      -0.661994       -18.0138
  20   2.0000      -0.642388       -17.4803
  21   2.0000      -0.618811       -16.8387
  22   2.0000      -0.598551       -16.2874
  23   2.0000      -0.597162       -16.2496
  24   2.0000      -0.588369       -16.0103
  25   2.0000      -0.567983       -15.4556
  26   2.0000      -0.546223       -14.8635
  27   2.0000      -0.487044       -13.2532
  28   2.0000      -0.483251       -13.1499
  29   2.0000      -0.430358       -11.7106
  30   2.0000      -0.400969       -10.9109
  31   2.0000      -0.364657        -9.9228
  32   2.0000      -0.360554        -9.8112
  33   0.0000       0.123497         3.3605
  34   0.0000       0.144460         3.9310
  35   0.0000       0.161583         4.3969
  36   0.0000       0.166521         4.5313
  37   0.0000       0.174849         4.7579

MULLIKEN ATOMIC CHARGES
-----------------------
   0 C :   -0.481481
   1 C :    0.040536
   2 C :   -0.036103
   3 C :   -0.222637
   4 C :   -0.235918
   5 C :    0.039587
   6 N :   -0.325957
   7 C :    0.182916
   8 O :   -0.363860
   9 H :    0.166960
  10 H :    0.164020
  11 H :    0.164035
  12 H :    0.147484
  13 H :    0.140891
  14 H :    0.140680
  15 H :    0.148240
  16 H :    0.250980
  17 H :    0.079627
Sum of atomic charges:    0.0000000

LOEWDIN ATOMIC CHARGES
----------------------
   0 C :   -0.294548
   1 C :   -0.101801
   2 C :   -0.081046
   3 C :   -0.194208
   4 C :   -0.176968
   5 C :   -0.218556
   6 N :    0.112587
   7 C :   -0.432166
   8 O :    0.058053
   9 H :    0.143852
  10 H :    0.140843
  11 H :    0.141682
  12 H :    0.165136
  13 H :    0.136834
  14 H :    0.141931
  15 H :    0.154309
  16 H :    0.194605
  17 H :    0.109461

  Mayer bond orders larger than 0.1
B(  0-C ,  1-C ) :   0.8680 B(  0-C ,  9-H ) :   0.9455 B(  0-C , 10-H ) :   0.9464
B(  0-C , 11-H ) :   0.9447 B(  1-C ,  2-C ) :   2.6311 B(  1-C ,  3-C ) :  -0.1203
B(  2-C ,  3-C ) :   1.1174 B(  3-C ,  4-C ) :   0.8481 B(  3-C ,  5-C ) :   0.8435
B(  3-C , 12-H ) :   0.9343 B(  4-C ,  5-C ) :   0.8892 B(  4-C , 13-H ) :   0.9250
B(  4-C , 14-H ) :   0.9297 B(  5-C ,  6-N ) :   0.8519 B(  5-C , 15-H ) :   0.9371
B(  6-N ,  7-C ) :   1.1481 B(  6-N , 16-H ) :   0.8530 B(  7-C ,  8-O ) :   1.8934
B(  7-C , 17-H ) :   0.9297

MP2 TOTAL ENERGY:     -401.230569056 Eh
FINAL SINGLE POINT ENERGY      -401.230569056172

DIPOLE MOMENT
-------------
                                X             Y             Z
Electronic contribution:     -3.13036      -4.71193      -1.14993
Nuclear contribution   :      3.99929       6.12054       1.20436
                        -----------------------------------------
Total Dipole Moment    :      0.86893       1.40861       0.05442
                        -----------------------------------------
Magnitude (a.u.)       :      1.65595
Magnitude (Debye)      :      4.20909

                             ****ORCA TERMINATED NORMALLY****
TOTAL RUN TIME: 0 days 0 hours 16 minutes 4 seconds 214 msec
