                         Program Version 3.0.3 - RELEASE   -
|  1> ! RI-MP2 RIJK def2-TZVP def2-TZVP/C def2-TZVP/JK TIGHTSCF
|  2> % maxcore 2000
|  3> % mp2 density relaxed end
|  4> *xyz 0 1
|  5>  C       -0.0558473600     1.5664658223     0.0150796834
|  6>  C        1.4676410718     1.8091680467     0.0138597126
|  7>  C        2.1093186643     0.7223881249    -0.5105291844
|  8>  C        2.6164695274    -0.3072255619     0.4832190956
|  9>  C        1.1748348951    -0.9423555130     0.5510446490
| 10>  C        0.7818178329    -1.4872311702    -0.8259996417
| 11>  O       -0.6620152123    -1.1180605345    -0.6272827853
| 12>  C        0.1194695829     0.0401102990    -0.1978532684
| 13>  C        1.1129626772    -0.0657749642    -1.3559517532
| 14>  H       -0.4817787642     1.8970767185     0.9682488039
| 15>  H       -0.6694677202     1.9870896281    -0.7912547542
| 16>  H        1.9059615073     2.3893752233     0.8198344783
| 17>  H        3.3622521571    -1.0254689375     0.1261979406
| 18>  H        2.9352346759     0.1175887755     1.4378057386
| 19>  H        0.8558885512    -1.4822684153     1.4428126185
| 20>  H        0.9524455739    -2.4709253368    -1.2630945272
| 21>  H        0.8044973895     0.2607533849    -2.3453555759
| 22> *
| 23>
| 24>                          ****END OF INPUT****

CARTESIAN COORDINATES (ANGSTROEM)
---------------------------------
  C     -0.055847    1.566466    0.015080
  C      1.467641    1.809168    0.013860
  C      2.109319    0.722388   -0.510529
  C      2.616470   -0.307226    0.483219
  C      1.174835   -0.942356    0.551045
  C      0.781818   -1.487231   -0.826000
  O     -0.662015   -1.118061   -0.627283
  C      0.119470    0.040110   -0.197853
  C      1.112963   -0.065775   -1.355952
  H     -0.481779    1.897077    0.968249
  H     -0.669468    1.987090   -0.791255
  H      1.905962    2.389375    0.819834
  H      3.362252   -1.025469    0.126198
  H      2.935235    0.117589    1.437806
  H      0.855889   -1.482268    1.442813
  H      0.952446   -2.470925   -1.263095
  H      0.804497    0.260753   -2.345356

 Total Charge           Charge          ....    0
 Multiplicity           Mult            ....    1
 Number of Electrons    NEL             ....   64
 Basis Dimension        Dim             ....  327

ORBITAL ENERGIES
----------------

  NO   OCC          E(Eh)            E(eV)
   0   2.0000     -20.553195      -559.2809
   1   2.0000     -11.314785      -307.8910
   2   2.0000     -11.307767      -307.7000
   3   2.0000     -11.258594      -306.3619
   4   2.0000     -11.256413      -306.3026
   5   2.0000     -11.255852      -306.2873
   6   2.0000     -11.254742      -306.2571
   7   2.0000     -11.235871      -305.7436
   8   2.0000     -11.232263      -305.6454
   9   2.0000      -1.397947       -38.0401
  10   2.0000      -1.194700       -32.5095
  11   2.0000      -1.054418       -28.6922
  12   2.0000      -0.993007       -27.0211
  13   2.0000      -0.939651       -25.5692
  14   2.0000      -0.872497       -23.7418
  15   2.0000      -0.837666       -22.7941
  16   2.0000      -0.734875       -19.9970
  17   2.0000      -0.715021       -19.4567
  18   2.0000      -0.681701       -18.5500
  19   2.0000      -0.631227       -17.1766
  20   2.0000      -0.618524       -16.8309
  21   2.0000      -0.610336       -16.6081
  22   2.0000      -0.594066       -16.1654
  23   2.0000      -0.546683       -14.8760
  24   2.0000      -0.531068       -14.4511
  25   2.0000      -0.509351       -13.8601
  26   2.0000      -0.501236       -13.6393
  27   2.0000      -0.475526       -12.9397
  28   2.0000      -0.444360       -12.0917
  29   2.0000      -0.415643       -11.3102
  30   2.0000      -0.404623       -11.0103
  31   2.0000      -0.310991        -8.4625
  32   0.0000       0.089841         2.4447
  33   0.0000       0.143359         3.9010
  34   0.0000       0.154911         4.2153
  35   0.0000       0.170357         4.6356
  36   0.0000       0.179606         4.8873

MULLIKEN ATOMIC CHARGES
-----------------------
   0 C :   -0.163446
   1 C :   -0.235403
   2 C :    0.082951
   3 C :   -0.240550
   4 C :   -0.080646
   5 C :   -0.011873
   6 O :   -0.316866
   7 C :    0.063264
   8 C :   -0.131242
   9 H :    0.131139
  10 H :    0.133631
  11 H :    0.126995
  12 H :    0.122376
  13 H :    0.120151
  14 H :    0.136002
  15 H :    0.140153
  16 H :    0.123363
Sum of atomic charges:    0.0000000

LOEWDIN ATOMIC CHARGES
----------------------
   0 C :   -0.196168
   1 C :   -0.115365
   2 C :   -0.134721
   3 C :   -0.181615
   4 C :   -0.110661
   5 C :   -0.175895
   6 O :    0.133648
   7 C :   -0.220872
   8 C :   -0.110180
   9 H :    0.139555
  10 H :    0.144873
  11 H :    0.135212
  12 H :    0.136413
  13 H :    0.139470
  14 H :    0.141130
  15 H :    0.128404
  16 H :    0.146771

  Mayer bond orders larger than 0.1
B(  0-C ,  1-C ) :   0.9553 B(  0-C ,  7-C ) :   0.8936 B(  0-C ,  9-H ) :   0.9180
B(  0-C , 10-H ) :   0.8955 B(  1-C ,  2-C ) :   1.6030 B(  1-C , 11-H ) :   0.9340
B(  2-C ,  3-C ) :   0.9172 B(  2-C ,  8-C ) :   0.8907 B(  3-C ,  4-C ) :   0.8482
B(  3-C , 12-H ) :   0.9022 B(  3-C , 13-H ) :   0.9166 B(  4-C ,  5-C ) :   0.9117
B(  4-C ,  7-C ) :   0.8817 B(  4-C , 14-H ) :   0.8993 B(  5-C ,  6-O ) :   0.8532
B(  5-C ,  8-C ) :   0.8765 B(  5-C , 15-H ) :   0.8900 B(  6-O ,  7-C ) :   0.9589
B(  7-C ,  8-C ) :   0.8728 B(  8-C , 16-H ) :   0.9153

MP2 TOTAL ENERGY:     -383.858557293 Eh
FINAL SINGLE POINT ENERGY      -383.858557292673

DIPOLE MOMENT
-------------
                                X             Y             Z
Electronic contribution:     -1.57403      -1.49892      -1.91126
Nuclear contribution   :      2.09942       1.56326       2.33827
                        -----------------------------------------
Total Dipole Moment    :      0.52539       0.06434       0.42700
                        -----------------------------------------
Magnitude (a.u.)       :      0.68008
Magnitude (Debye)      :      1.72863

                             ****ORCA TERMINATED NORMALLY****
TOTAL RUN TIME: 0 days 0 hours 21 minutes 29 seconds 70 msec
