                         Program Version 3.0.3 - RELEASE   -
|  1> ! RI-MP2 RIJK def2-TZVP def2-TZVP/C def2-TZVP/JK TIGHTSCF
|  2> % maxcore 2000
|  3> % mp2 density relaxed end
|  4> *xyz 0 1
|  5>  C       -0.0593155778     1.5775981523    -0.0495660897
|  6>  C        0.0858329140     0.0729480256     0.0469723164
|  7>  N        1.2808909678    -0.6104930885    -0.6790627332
|  8>  C        2.1371411929    -0.1637557245     0.5161207844
|  9>  C        0.8299564456    -0.6456836805     1.1886192097
| 10>  O        0.4341121864    -0.6293188895     2.5099626527
| 11>  C        0.9487333205    -1.8520839818     0.1900357809
| 12>  C       -0.1963470044    -2.6542553674    -0.1757315334
| 13>  C       -1.1263903505    -3.3662517789    -0.4493321698
| 14>  H       -0.2446744797     1.8639069255    -1.0898849446
| 15>  H       -0.9249143363     1.8920599106     0.5424257485
| 16>  H        0.8056129456     2.1399350885     0.3074900166
| 17>  H       -0.8520904650    -0.4036107884    -0.2475330595
| 18>  H        3.0389838780    -0.7679151321     0.6488522381
| 19>  H        2.3741438018     0.8980323680     0.5200227472
| 20>  H        1.0655388109    -1.1332962774     3.0356281597
| 21>  H        1.8338660826    -2.4823454672     0.3199612757
| 22>  H       -1.9527903725    -3.9854682545    -0.6975066096
| 23> *
| 24>
| 25>                          ****END OF INPUT****

CARTESIAN COORDINATES (ANGSTROEM)
---------------------------------
  C     -0.059316    1.577598   -0.049566
  C      0.085833    0.072948    0.046972
  N      1.280891   -0.610493   -0.679063
  C      2.137141   -0.163756    0.516121
  C      0.829956   -0.645684    1.188619
  O      0.434112   -0.629319    2.509963
  C      0.948733   -1.852084    0.190036
  C     -0.196347   -2.654255   -0.175732
  C     -1.126390   -3.366252   -0.449332
  H     -0.244674    1.863907   -1.089885
  H     -0.924914    1.892060    0.542426
  H      0.805613    2.139935    0.307490
  H     -0.852090   -0.403611   -0.247533
  H      3.038984   -0.767915    0.648852
  H      2.374144    0.898032    0.520023
  H      1.065539   -1.133296    3.035628
  H      1.833866   -2.482345    0.319961
  H     -1.952790   -3.985468   -0.697507

 Total Charge           Charge          ....    0
 Multiplicity           Mult            ....    1
 Number of Electrons    NEL             ....   66
 Basis Dimension        Dim             ....  333

ORBITAL ENERGIES
----------------

  NO   OCC          E(Eh)            E(eV)
   0   2.0000     -20.578848      -559.9789
   1   2.0000     -15.582185      -424.0128
   2   2.0000     -11.316211      -307.9297
   3   2.0000     -11.290491      -307.2299
   4   2.0000     -11.267432      -306.6024
   5   2.0000     -11.265271      -306.5436
   6   2.0000     -11.237330      -305.7833
   7   2.0000     -11.229953      -305.5826
   8   2.0000     -11.220720      -305.3313
   9   2.0000      -1.394237       -37.9391
  10   2.0000      -1.298192       -35.3256
  11   2.0000      -1.051357       -28.6089
  12   2.0000      -1.012856       -27.5612
  13   2.0000      -0.939999       -25.5787
  14   2.0000      -0.917278       -24.9604
  15   2.0000      -0.885361       -24.0919
  16   2.0000      -0.765834       -20.8394
  17   2.0000      -0.734145       -19.9771
  18   2.0000      -0.709048       -19.2942
  19   2.0000      -0.676415       -18.4062
  20   2.0000      -0.640498       -17.4288
  21   2.0000      -0.626348       -17.0438
  22   2.0000      -0.592672       -16.1274
  23   2.0000      -0.567688       -15.4476
  24   2.0000      -0.553522       -15.0621
  25   2.0000      -0.534278       -14.5384
  26   2.0000      -0.488575       -13.2948
  27   2.0000      -0.480548       -13.0764
  28   2.0000      -0.464240       -12.6326
  29   2.0000      -0.448309       -12.1991
  30   2.0000      -0.403718       -10.9857
  31   2.0000      -0.392164       -10.6713
  32   2.0000      -0.376040       -10.2326
  33   0.0000       0.127066         3.4576
  34   0.0000       0.150814         4.1038
  35   0.0000       0.153933         4.1887
  36   0.0000       0.160793         4.3754
  37   0.0000       0.169840         4.6216

MULLIKEN ATOMIC CHARGES
-----------------------
   0 C :   -0.415010
   1 C :   -0.001919
   2 N :   -0.192138
   3 C :   -0.167285
   4 C :    0.151524
   5 O :   -0.443917
   6 C :   -0.216318
   7 C :   -0.034717
   8 C :   -0.095965
   9 H :    0.146535
  10 H :    0.143118
  11 H :    0.120960
  12 H :    0.124655
  13 H :    0.113182
  14 H :    0.124702
  15 H :    0.325149
  16 H :    0.122594
  17 H :    0.194849
Sum of atomic charges:   -0.0000000

LOEWDIN ATOMIC CHARGES
----------------------
   0 C :   -0.290615
   1 C :   -0.214948
   2 N :    0.142199
   3 C :   -0.214188
   4 C :   -0.337223
   5 O :    0.030211
   6 C :   -0.203718
   7 C :   -0.094638
   8 C :   -0.079073
   9 H :    0.133350
  10 H :    0.134104
  11 H :    0.122286
  12 H :    0.155031
  13 H :    0.123676
  14 H :    0.123675
  15 H :    0.183422
  16 H :    0.158132
  17 H :    0.128318

  Mayer bond orders larger than 0.1
B(  0-C ,  1-C ) :   0.9114 B(  0-C ,  9-H ) :   0.9352 B(  0-C , 10-H ) :   0.9346
B(  0-C , 11-H ) :   0.9296 B(  1-C ,  2-N ) :   0.9003 B(  1-C ,  4-C ) :   0.9335
B(  1-C , 12-H ) :   0.9168 B(  2-N ,  3-C ) :   0.9165 B(  2-N ,  6-C ) :   0.9421
B(  3-C ,  4-C ) :   0.9291 B(  3-C , 13-H ) :   0.9131 B(  3-C , 14-H ) :   0.9270
B(  4-C ,  5-O ) :   1.0394 B(  4-C ,  6-C ) :   0.8999 B(  5-O , 15-H ) :   0.8313
B(  6-C ,  7-C ) :   1.2151 B(  6-C ,  8-C ) :  -0.1469 B(  6-C , 16-H ) :   0.8963
B(  7-C ,  8-C ) :   2.5996 B(  8-C , 17-H ) :   0.8768

MP2 TOTAL ENERGY:     -401.147259462 Eh
FINAL SINGLE POINT ENERGY      -401.147259461555

DIPOLE MOMENT
-------------
                                X             Y             Z
Electronic contribution:     -0.31629      -5.43669       0.81089
Nuclear contribution   :      0.61007       5.35190      -0.21703
                        -----------------------------------------
Total Dipole Moment    :      0.29378      -0.08479       0.59386
                        -----------------------------------------
Magnitude (a.u.)       :      0.66796
Magnitude (Debye)      :      1.69782

                             ****ORCA TERMINATED NORMALLY****
TOTAL RUN TIME: 0 days 0 hours 19 minutes 34 seconds 174 msec
