                         Program Version 3.0.3 - RELEASE   -
|  1> ! RI-MP2 RIJK def2-TZVP def2-TZVP/C def2-TZVP/JK TIGHTSCF
|  2> % maxcore 2000
|  3> % mp2 density relaxed end
|  4> *xyz 0 1
|  5>  C       -0.0143586462     1.4533110731     0.0589767152
|  6>  C       -0.0048093312    -0.0259771611    -0.0600048932
|  7>  N       -0.1051830368    -0.7369933961    -1.1502307404
|  8>  C       -0.0374499871    -2.0251495795    -0.6677391285
|  9>  C        0.1013005159    -2.0413957011     0.6968227355
| 10>  O        0.1248598091    -0.7367455465     1.1142604635
| 11>  C        0.1608486615    -3.3865024250     1.0878809630
| 12>  N        0.0612904827    -4.1548495576    -0.0042194743
| 13>  N       -0.0593095765    -3.3155141302    -1.0699481054
| 14>  H        0.9140370821     1.8141871707     0.5135609877
| 15>  H       -0.1215045111     1.8892463423    -0.9341534222
| 16>  H       -0.8425819642     1.7885458171     0.6918038504
| 17>  H        0.2659930556    -3.8448061969     2.0579071512
| 18>  H       -0.1464356138    -3.7066886492    -1.9914444325
| 19> *
| 20>
| 21>                          ****END OF INPUT****

CARTESIAN COORDINATES (ANGSTROEM)
---------------------------------
  C     -0.014359    1.453311    0.058977
  C     -0.004809   -0.025977   -0.060005
  N     -0.105183   -0.736993   -1.150231
  C     -0.037450   -2.025150   -0.667739
  C      0.101301   -2.041396    0.696823
  O      0.124860   -0.736746    1.114260
  C      0.160849   -3.386502    1.087881
  N      0.061290   -4.154850   -0.004219
  N     -0.059310   -3.315514   -1.069948
  H      0.914037    1.814187    0.513561
  H     -0.121505    1.889246   -0.934153
  H     -0.842582    1.788546    0.691804
  H      0.265993   -3.844806    2.057907
  H     -0.146436   -3.706689   -1.991444

 Total Charge           Charge          ....    0
 Multiplicity           Mult            ....    1
 Number of Electrons    NEL             ....   64
 Basis Dimension        Dim             ....  309

ORBITAL ENERGIES
----------------

  NO   OCC          E(Eh)            E(eV)
   0   2.0000     -20.641615      -561.6869
   1   2.0000     -15.640455      -425.5984
   2   2.0000     -15.592618      -424.2967
   3   2.0000     -15.581457      -423.9930
   4   2.0000     -11.364741      -309.2503
   5   2.0000     -11.297448      -307.4192
   6   2.0000     -11.275441      -306.8203
   7   2.0000     -11.270722      -306.6919
   8   2.0000     -11.255511      -306.2780
   9   2.0000      -1.485701       -40.4280
  10   2.0000      -1.371442       -37.3188
  11   2.0000      -1.249817       -34.0092
  12   2.0000      -1.099361       -29.9151
  13   2.0000      -1.076653       -29.2972
  14   2.0000      -0.994792       -27.0697
  15   2.0000      -0.844936       -22.9919
  16   2.0000      -0.828638       -22.5484
  17   2.0000      -0.809115       -22.0171
  18   2.0000      -0.745904       -20.2971
  19   2.0000      -0.685728       -18.6596
  20   2.0000      -0.684599       -18.6289
  21   2.0000      -0.621654       -16.9161
  22   2.0000      -0.607732       -16.5372
  23   2.0000      -0.604485       -16.4489
  24   2.0000      -0.579542       -15.7701
  25   2.0000      -0.574851       -15.6425
  26   2.0000      -0.557086       -15.1591
  27   2.0000      -0.473611       -12.8876
  28   2.0000      -0.470710       -12.8087
  29   2.0000      -0.462654       -12.5895
  30   2.0000      -0.366174        -9.9641
  31   2.0000      -0.317753        -8.6465
  32   0.0000       0.117692         3.2026
  33   0.0000       0.135228         3.6797
  34   0.0000       0.144423         3.9300
  35   0.0000       0.183019         4.9802
  36   0.0000       0.190619         5.1870

MULLIKEN ATOMIC CHARGES
-----------------------
   0 C :   -0.441926
   1 C :    0.299593
   2 N :   -0.282429
   3 C :    0.122082
   4 C :    0.153709
   5 O :   -0.233509
   6 C :   -0.160680
   7 N :   -0.181122
   8 N :   -0.160975
   9 H :    0.155422
  10 H :    0.166652
  11 H :    0.155419
  12 H :    0.143714
  13 H :    0.264051
Sum of atomic charges:   -0.0000000

LOEWDIN ATOMIC CHARGES
----------------------
   0 C :   -0.266149
   1 C :   -0.330857
   2 N :    0.140636
   3 C :   -0.316819
   4 C :   -0.253554
   5 O :    0.345190
   6 C :   -0.253618
   7 N :    0.036643
   8 N :    0.145440
   9 H :    0.140264
  10 H :    0.144824
  11 H :    0.140265
  12 H :    0.137025
  13 H :    0.190711

  Mayer bond orders larger than 0.1
B(  0-C ,  1-C ) :   0.8666 B(  0-C ,  9-H ) :   0.9283 B(  0-C , 10-H ) :   0.9489
B(  0-C , 11-H ) :   0.9283 B(  1-C ,  2-N ) :   1.6459 B(  1-C ,  5-O ) :   1.0535
B(  2-N ,  3-C ) :   1.2003 B(  3-C ,  4-C ) :   1.3026 B(  3-C ,  8-N ) :   1.1691
B(  4-C ,  5-O ) :   1.0317 B(  4-C ,  6-C ) :   1.2703 B(  6-C ,  7-N ) :   1.5183
B(  6-C , 12-H ) :   0.9433 B(  7-N ,  8-N ) :   1.0448 B(  8-N , 13-H ) :   0.8637

MP2 TOTAL ENERGY:     -432.166906380 Eh
FINAL SINGLE POINT ENERGY      -432.166906380423

DIPOLE MOMENT
-------------
                                X             Y             Z
Electronic contribution:      0.03543      -5.05835      -0.37602
Nuclear contribution   :     -0.05206       5.72888       0.30516
                        -----------------------------------------
Total Dipole Moment    :     -0.01663       0.67053      -0.07086
                        -----------------------------------------
Magnitude (a.u.)       :      0.67447
Magnitude (Debye)      :      1.71437

                             ****ORCA TERMINATED NORMALLY****
TOTAL RUN TIME: 0 days 0 hours 15 minutes 13 seconds 842 msec
