                         Program Version 3.0.3 - RELEASE   -
|  1> ! RI-MP2 RIJK def2-TZVP def2-TZVP/C def2-TZVP/JK TIGHTSCF
|  2> % maxcore 2000
|  3> % mp2 density relaxed end
|  4> *xyz 0 1
|  5>  C       -0.2213095043     1.5202547830     0.1799224039
|  6>  C        0.0586467863     0.0177260731     0.0660398755
|  7>  N        0.7110461371    -0.4588732028     1.2749557704
|  8>  C        0.1625754618    -1.3189578338     2.0241159603
|  9>  N        0.8184672385    -1.7841315644     3.1749664873
| 10>  C        0.0462123787    -2.2367786528     4.0867870344
| 11>  N       -1.3175747139    -2.3037943315     3.9276515260
| 12>  N       -1.8306748255    -2.3676300991     2.6361208223
| 13>  N       -1.1180345051    -1.9196123189     1.7175833756
| 14>  H        0.6951244749     2.0656550013     0.4214539426
| 15>  H       -0.6218723346     1.9049972633    -0.7630409640
| 16>  H       -0.9530746785     1.7207526905     0.9689726311
| 17>  H       -0.8634107674    -0.5229717998    -0.1745027382
| 18>  H        0.7661994403    -0.1466535649    -0.7567649263
| 19>  H        0.4429529122    -2.6209921657     5.0256918786
| 20>  H       -1.8932909207    -2.8084434776     4.5852738405
| 21> *
| 22>
| 23>                          ****END OF INPUT****

CARTESIAN COORDINATES (ANGSTROEM)
---------------------------------
  C     -0.221310    1.520255    0.179922
  C      0.058647    0.017726    0.066040
  N      0.711046   -0.458873    1.274956
  C      0.162575   -1.318958    2.024116
  N      0.818467   -1.784132    3.174966
  C      0.046212   -2.236779    4.086787
  N     -1.317575   -2.303794    3.927652
  N     -1.830675   -2.367630    2.636121
  N     -1.118035   -1.919612    1.717583
  H      0.695124    2.065655    0.421454
  H     -0.621872    1.904997   -0.763041
  H     -0.953075    1.720753    0.968973
  H     -0.863411   -0.522972   -0.174503
  H      0.766199   -0.146654   -0.756765
  H      0.442953   -2.620992    5.025692
  H     -1.893291   -2.808443    4.585274

 Total Charge           Charge          ....    0
 Multiplicity           Mult            ....    1
 Number of Electrons    NEL             ....   66
 Basis Dimension        Dim             ....  321

ORBITAL ENERGIES
----------------

  NO   OCC          E(Eh)            E(eV)
   0   2.0000     -15.708242      -427.4430
   1   2.0000     -15.660522      -426.1445
   2   2.0000     -15.640568      -425.6015
   3   2.0000     -15.579031      -423.9270
   4   2.0000     -15.549707      -423.1290
   5   2.0000     -11.357200      -309.0451
   6   2.0000     -11.340755      -308.5976
   7   2.0000     -11.243361      -305.9474
   8   2.0000     -11.207650      -304.9757
   9   2.0000      -1.455911       -39.6173
  10   2.0000      -1.285097       -34.9693
  11   2.0000      -1.271808       -34.6076
  12   2.0000      -1.186910       -32.2975
  13   2.0000      -1.014491       -27.6057
  14   2.0000      -0.970027       -26.3958
  15   2.0000      -0.915051       -24.8998
  16   2.0000      -0.833932       -22.6925
  17   2.0000      -0.797870       -21.7111
  18   2.0000      -0.769283       -20.9333
  19   2.0000      -0.694915       -18.9096
  20   2.0000      -0.668919       -18.2022
  21   2.0000      -0.645260       -17.5584
  22   2.0000      -0.603313       -16.4170
  23   2.0000      -0.585577       -15.9344
  24   2.0000      -0.551739       -15.0136
  25   2.0000      -0.526813       -14.3353
  26   2.0000      -0.514767       -14.0075
  27   2.0000      -0.504596       -13.7308
  28   2.0000      -0.492364       -13.3979
  29   2.0000      -0.471666       -12.8347
  30   2.0000      -0.441712       -12.0196
  31   2.0000      -0.387952       -10.5567
  32   2.0000      -0.352972        -9.6049
  33   0.0000       0.082813         2.2535
  34   0.0000       0.105857         2.8805
  35   0.0000       0.114995         3.1292
  36   0.0000       0.158356         4.3091
  37   0.0000       0.173388         4.7181

MULLIKEN ATOMIC CHARGES
-----------------------
   0 C :   -0.369157
   1 C :   -0.093866
   2 N :   -0.199172
   3 C :    0.111053
   4 N :   -0.201229
   5 C :    0.061655
   6 N :   -0.173308
   7 N :   -0.051356
   8 N :   -0.118540
   9 H :    0.132417
  10 H :    0.122582
  11 H :    0.116951
  12 H :    0.121713
  13 H :    0.116791
  14 H :    0.158421
  15 H :    0.265045
Sum of atomic charges:    0.0000000

LOEWDIN ATOMIC CHARGES
----------------------
   0 C :   -0.316839
   1 C :   -0.318875
   2 N :    0.136427
   3 C :   -0.411499
   4 N :    0.143635
   5 C :   -0.296668
   6 N :    0.048507
   7 N :    0.006580
   8 N :    0.054300
   9 H :    0.123424
  10 H :    0.121329
  11 H :    0.118659
  12 H :    0.124297
  13 H :    0.134532
  14 H :    0.141414
  15 H :    0.190776

  Mayer bond orders larger than 0.1
B(  0-C ,  1-C ) :   0.9226 B(  0-C ,  9-H ) :   0.9359 B(  0-C , 10-H ) :   0.9348
B(  0-C , 11-H ) :   0.9341 B(  1-C ,  2-N ) :   0.8692 B(  1-C , 12-H ) :   0.9235
B(  1-C , 13-H ) :   0.9256 B(  2-N ,  3-C ) :   1.8980 B(  3-C ,  4-N ) :   1.0838
B(  3-C ,  8-N ) :   0.9851 B(  4-N ,  5-C ) :   1.7010 B(  5-C ,  6-N ) :   1.0812
B(  5-C , 14-H ) :   0.9151 B(  6-N ,  7-N ) :   0.9283 B(  6-N , 15-H ) :   0.8654
B(  7-N ,  8-N ) :   1.5654

MP2 TOTAL ENERGY:     -429.476354883 Eh
FINAL SINGLE POINT ENERGY      -429.476354882762

DIPOLE MOMENT
-------------
                                X             Y             Z
Electronic contribution:     -0.63282      -7.92819       6.30888
Nuclear contribution   :     -0.17238       7.38895      -5.11454
                        -----------------------------------------
Total Dipole Moment    :     -0.80520      -0.53924       1.19434
                        -----------------------------------------
Magnitude (a.u.)       :      1.53804
Magnitude (Debye)      :      3.90939

                             ****ORCA TERMINATED NORMALLY****
TOTAL RUN TIME: 0 days 0 hours 16 minutes 9 seconds 999 msec
