                         Program Version 3.0.3 - RELEASE   -
|  1> ! RI-MP2 RIJK def2-TZVP def2-TZVP/C def2-TZVP/JK TIGHTSCF
|  2> % maxcore 2000
|  3> % mp2 density relaxed end
|  4> *xyz 0 1
|  5>  N        0.1893071654     1.2927874173     0.3398539094
|  6>  C       -0.0364053341    -0.0579029995     0.0969531987
|  7>  C       -1.1448684180    -0.7999743007    -0.1716351698
|  8>  C       -0.6971153843    -2.1681275934    -0.1999136864
|  9>  C        0.6377485877    -2.1596563460     0.0418992707
| 10>  O        1.0539926175    -0.8552564066     0.2321839500
| 11>  C        1.6611799923    -3.2050325996     0.1296567053
| 12>  C        3.0792900196    -2.9666323388    -0.3530324779
| 13>  C        2.8068836281    -3.1090171521     1.1191857299
| 14>  H        1.0808002414     1.6075099442    -0.0243960596
| 15>  H       -0.5575114629     1.8730149211    -0.0174567139
| 16>  H       -2.1450502942    -0.4304318866    -0.3309695179
| 17>  H       -1.3000823393    -3.0432554871    -0.3872153928
| 18>  H        1.2549542448    -4.1961940935    -0.0416154472
| 19>  H        3.5809440047    -3.7764735130    -0.8711644151
| 20>  H        3.3103096676    -1.9762545045    -0.7280100859
| 21>  H        2.8543473611    -2.2138621960     1.7284399928
| 22>  H        3.1200995827    -4.0177938652     1.6211271395
| 23> *
| 24>
| 25>                          ****END OF INPUT****

CARTESIAN COORDINATES (ANGSTROEM)
---------------------------------
  N      0.189307    1.292787    0.339854
  C     -0.036405   -0.057903    0.096953
  C     -1.144868   -0.799974   -0.171635
  C     -0.697115   -2.168128   -0.199914
  C      0.637749   -2.159656    0.041899
  O      1.053993   -0.855256    0.232184
  C      1.661180   -3.205033    0.129657
  C      3.079290   -2.966632   -0.353032
  C      2.806884   -3.109017    1.119186
  H      1.080800    1.607510   -0.024396
  H     -0.557511    1.873015   -0.017457
  H     -2.145050   -0.430432   -0.330970
  H     -1.300082   -3.043255   -0.387215
  H      1.254954   -4.196194   -0.041615
  H      3.580944   -3.776474   -0.871164
  H      3.310310   -1.976255   -0.728010
  H      2.854347   -2.213862    1.728440
  H      3.120100   -4.017794    1.621127

 Total Charge           Charge          ....    0
 Multiplicity           Mult            ....    1
 Number of Electrons    NEL             ....   66
 Basis Dimension        Dim             ....  333

ORBITAL ENERGIES
----------------

  NO   OCC          E(Eh)            E(eV)
   0   2.0000     -20.609346      -560.8088
   1   2.0000     -15.573337      -423.7720
   2   2.0000     -11.320009      -308.0331
   3   2.0000     -11.275909      -306.8331
   4   2.0000     -11.239523      -305.8430
   5   2.0000     -11.225958      -305.4738
   6   2.0000     -11.224985      -305.4474
   7   2.0000     -11.214544      -305.1633
   8   2.0000     -11.204822      -304.8987
   9   2.0000      -1.452617       -39.5277
  10   2.0000      -1.213271       -33.0148
  11   2.0000      -1.142924       -31.1005
  12   2.0000      -1.069796       -29.1106
  13   2.0000      -0.979072       -26.6419
  14   2.0000      -0.840013       -22.8579
  15   2.0000      -0.821311       -22.3490
  16   2.0000      -0.808167       -21.9913
  17   2.0000      -0.748094       -20.3567
  18   2.0000      -0.714146       -19.4329
  19   2.0000      -0.675818       -18.3899
  20   2.0000      -0.648507       -17.6468
  21   2.0000      -0.641062       -17.4442
  22   2.0000      -0.629998       -17.1431
  23   2.0000      -0.566896       -15.4260
  24   2.0000      -0.556583       -15.1454
  25   2.0000      -0.546712       -14.8768
  26   2.0000      -0.521291       -14.1851
  27   2.0000      -0.514868       -14.0103
  28   2.0000      -0.485077       -13.1996
  29   2.0000      -0.440621       -11.9899
  30   2.0000      -0.426514       -11.6060
  31   2.0000      -0.381361       -10.3774
  32   2.0000      -0.267013        -7.2658
  33   0.0000       0.131984         3.5915
  34   0.0000       0.158901         4.3239
  35   0.0000       0.166958         4.5432
  36   0.0000       0.170760         4.6466
  37   0.0000       0.181637         4.9426

MULLIKEN ATOMIC CHARGES
-----------------------
   0 N :   -0.511439
   1 C :    0.263568
   2 C :   -0.249538
   3 C :   -0.252166
   4 C :    0.197875
   5 O :   -0.257516
   6 C :   -0.124141
   7 C :   -0.252496
   8 C :   -0.251590
   9 H :    0.257085
  10 H :    0.252185
  11 H :    0.134049
  12 H :    0.127548
  13 H :    0.128296
  14 H :    0.129805
  15 H :    0.136401
  16 H :    0.142276
  17 H :    0.129797
Sum of atomic charges:    0.0000000

LOEWDIN ATOMIC CHARGES
----------------------
   0 N :   -0.084030
   1 C :   -0.357170
   2 C :   -0.200664
   3 C :   -0.168398
   4 C :   -0.230229
   5 O :    0.357124
   6 C :   -0.200502
   7 C :   -0.218880
   8 C :   -0.217484
   9 H :    0.172475
  10 H :    0.174148
  11 H :    0.138926
  12 H :    0.142904
  13 H :    0.159580
  14 H :    0.130262
  15 H :    0.134918
  16 H :    0.136658
  17 H :    0.130362

  Mayer bond orders larger than 0.1
B(  0-N ,  1-C ) :   1.0441 B(  0-N ,  9-H ) :   0.8679 B(  0-N , 10-H ) :   0.8796
B(  1-C ,  2-C ) :   1.5406 B(  1-C ,  5-O ) :   1.0727 B(  2-C ,  3-C ) :   1.1694
B(  2-C , 11-H ) :   0.9132 B(  3-C ,  4-C ) :   1.5598 B(  3-C , 12-H ) :   0.9379
B(  4-C ,  5-O ) :   0.9399 B(  4-C ,  6-C ) :   0.9685 B(  6-C ,  7-C ) :   0.8536
B(  6-C ,  8-C ) :   0.8482 B(  6-C , 13-H ) :   0.9383 B(  7-C ,  8-C ) :   0.8915
B(  7-C , 14-H ) :   0.9280 B(  7-C , 15-H ) :   0.9304 B(  8-C , 16-H ) :   0.9294
B(  8-C , 17-H ) :   0.9284

MP2 TOTAL ENERGY:     -401.263807869 Eh
FINAL SINGLE POINT ENERGY      -401.263807868819

DIPOLE MOMENT
-------------
                                X             Y             Z
Electronic contribution:     -3.18189       2.70315      -0.14282
Nuclear contribution   :      3.20020      -2.42160      -0.30016
                        -----------------------------------------
Total Dipole Moment    :      0.01831       0.28155      -0.44298
                        -----------------------------------------
Magnitude (a.u.)       :      0.52520
Magnitude (Debye)      :      1.33495

                             ****ORCA TERMINATED NORMALLY****
TOTAL RUN TIME: 0 days 0 hours 17 minutes 10 seconds 822 msec
