                         Program Version 3.0.3 - RELEASE   -
|  1> ! RI-MP2 RIJK def2-TZVP def2-TZVP/C def2-TZVP/JK TIGHTSCF
|  2> % maxcore 2000
|  3> % mp2 density relaxed end
|  4> *xyz 0 1
|  5>  C       -0.0617349275     1.6491905118     0.1228853493
|  6>  C        0.0453577184     0.1251094666     0.0141157897
|  7>  C       -1.3252051411    -0.5500542483    -0.1084808312
|  8>  C       -1.3039453835    -2.0981202368    -0.0404414826
|  9>  C       -0.5565172018    -2.7024668781    -1.2293739339
| 10>  O       -0.6225606084    -2.5374144012     1.1351213532
| 11>  C       -2.7679012617    -2.6131885873     0.0333442634
| 12>  C       -2.9006008165    -4.1334821217    -0.0103716979
| 13>  O       -3.2664695758    -2.1075393014     1.2804978708
| 14>  H        0.9260567472     2.1128294460     0.2111145448
| 15>  H       -0.5528258751     2.0792358760    -0.7577389998
| 16>  H       -0.6475806848     1.9437347881     1.0009380722
| 17>  H        0.6730270213    -0.1269940083    -0.8490672122
| 18>  H        0.5564575695    -0.2794591958     0.8940374146
| 19>  H       -1.9733783098    -0.1894945431     0.6979904386
| 20>  H       -1.8079863739    -0.2460985513    -1.0478124289
| 21>  H        0.4547568776    -2.2948945158    -1.2883536416
| 22>  H       -0.4679529730    -3.7856410368    -1.1237834862
| 23>  H       -1.0710246201    -2.4791784932    -2.1696779937
| 24>  H       -1.2260948650    -2.3434648978     1.8648456746
| 25>  H       -3.3373631697    -2.1676297730    -0.7974154036
| 26>  H       -2.2368952721    -4.5913995946     0.7277574322
| 27>  H       -3.9330708247    -4.4308485673     0.2103404683
| 28>  H       -2.6569440911    -4.5313867281    -0.9987288591
| 29>  H       -4.0741028285    -2.5814668287     1.4981342793
| 30> *
| 31>
| 32>                          ****END OF INPUT****

CARTESIAN COORDINATES (ANGSTROEM)
---------------------------------
  C     -0.061735    1.649191    0.122885
  C      0.045358    0.125109    0.014116
  C     -1.325205   -0.550054   -0.108481
  C     -1.303945   -2.098120   -0.040441
  C     -0.556517   -2.702467   -1.229374
  O     -0.622561   -2.537414    1.135121
  C     -2.767901   -2.613189    0.033344
  C     -2.900601   -4.133482   -0.010372
  O     -3.266470   -2.107539    1.280498
  H      0.926057    2.112829    0.211115
  H     -0.552826    2.079236   -0.757739
  H     -0.647581    1.943735    1.000938
  H      0.673027   -0.126994   -0.849067
  H      0.556458   -0.279459    0.894037
  H     -1.973378   -0.189495    0.697990
  H     -1.807986   -0.246099   -1.047812
  H      0.454757   -2.294895   -1.288354
  H     -0.467953   -3.785641   -1.123783
  H     -1.071025   -2.479178   -2.169678
  H     -1.226095   -2.343465    1.864846
  H     -3.337363   -2.167630   -0.797415
  H     -2.236895   -4.591400    0.727757
  H     -3.933071   -4.430849    0.210340
  H     -2.656944   -4.531387   -0.998729
  H     -4.074103   -2.581467    1.498134

 Total Charge           Charge          ....    0
 Multiplicity           Mult            ....    1
 Number of Electrons    NEL             ....   74
 Basis Dimension        Dim             ....  375

ORBITAL ENERGIES
----------------

  NO   OCC          E(Eh)            E(eV)
   0   2.0000     -20.564344      -559.5842
   1   2.0000     -20.538623      -558.8844
   2   2.0000     -11.284127      -307.0567
   3   2.0000     -11.279859      -306.9406
   4   2.0000     -11.221753      -305.3594
   5   2.0000     -11.209737      -305.0324
   6   2.0000     -11.208143      -304.9891
   7   2.0000     -11.207355      -304.9676
   8   2.0000     -11.205154      -304.9078
   9   2.0000      -1.378926       -37.5225
  10   2.0000      -1.341116       -36.4936
  11   2.0000      -1.074204       -29.2306
  12   2.0000      -1.032958       -28.1082
  13   2.0000      -0.982348       -26.7310
  14   2.0000      -0.924846       -25.1663
  15   2.0000      -0.872992       -23.7553
  16   2.0000      -0.795903       -21.6576
  17   2.0000      -0.758112       -20.6293
  18   2.0000      -0.704392       -19.1675
  19   2.0000      -0.662770       -18.0349
  20   2.0000      -0.644790       -17.5456
  21   2.0000      -0.629205       -17.1215
  22   2.0000      -0.620330       -16.8800
  23   2.0000      -0.571676       -15.5561
  24   2.0000      -0.561851       -15.2887
  25   2.0000      -0.552388       -15.0312
  26   2.0000      -0.542865       -14.7721
  27   2.0000      -0.536040       -14.5864
  28   2.0000      -0.526597       -14.3294
  29   2.0000      -0.519932       -14.1481
  30   2.0000      -0.499159       -13.5828
  31   2.0000      -0.487425       -13.2635
  32   2.0000      -0.485900       -13.2220
  33   2.0000      -0.461276       -12.5520
  34   2.0000      -0.456892       -12.4327
  35   2.0000      -0.436907       -11.8888
  36   2.0000      -0.412404       -11.2221
  37   0.0000       0.126650         3.4463
  38   0.0000       0.147408         4.0112
  39   0.0000       0.160077         4.3559
  40   0.0000       0.170710         4.6452
  41   0.0000       0.188237         5.1222

MULLIKEN ATOMIC CHARGES
-----------------------
   0 C :   -0.386208
   1 C :   -0.205764
   2 C :   -0.278247
   3 C :    0.322066
   4 C :   -0.460490
   5 O :   -0.494587
   6 C :    0.036577
   7 C :   -0.429916
   8 O :   -0.491974
   9 H :    0.131867
  10 H :    0.116548
  11 H :    0.122417
  12 H :    0.099381
  13 H :    0.127656
  14 H :    0.132499
  15 H :    0.100177
  16 H :    0.148338
  17 H :    0.143212
  18 H :    0.126344
  19 H :    0.325309
  20 H :    0.083027
  21 H :    0.153438
  22 H :    0.122658
  23 H :    0.139413
  24 H :    0.316261
Sum of atomic charges:   -0.0000000

LOEWDIN ATOMIC CHARGES
----------------------
   0 C :   -0.322793
   1 C :   -0.294721
   2 C :   -0.237480
   3 C :   -0.387107
   4 C :   -0.265299
   5 O :    0.008195
   6 C :   -0.333139
   7 C :   -0.306152
   8 O :   -0.031210
   9 H :    0.119399
  10 H :    0.118393
  11 H :    0.119583
  12 H :    0.131301
  13 H :    0.139226
  14 H :    0.146359
  15 H :    0.140158
  16 H :    0.130024
  17 H :    0.128355
  18 H :    0.128697
  19 H :    0.177848
  20 H :    0.137965
  21 H :    0.131095
  22 H :    0.119803
  23 H :    0.128196
  24 H :    0.173302

  Mayer bond orders larger than 0.1
B(  0-C ,  1-C ) :   0.9136 B(  0-C ,  9-H ) :   0.9455 B(  0-C , 10-H ) :   0.9372
B(  0-C , 11-H ) :   0.9430 B(  1-C ,  2-C ) :   0.9277 B(  1-C , 12-H ) :   0.9324
B(  1-C , 13-H ) :   0.9365 B(  2-C ,  3-C ) :   0.9290 B(  2-C , 14-H ) :   0.9223
B(  2-C , 15-H ) :   0.9143 B(  3-C ,  4-C ) :   0.8554 B(  3-C ,  5-O ) :   0.9150
B(  3-C ,  6-C ) :   0.8965 B(  4-C , 16-H ) :   0.9422 B(  4-C , 17-H ) :   0.9428
B(  4-C , 18-H ) :   0.9361 B(  5-O , 19-H ) :   0.8210 B(  6-C ,  7-C ) :   0.9152
B(  6-C ,  8-O ) :   0.9410 B(  6-C , 20-H ) :   0.9300 B(  7-C , 21-H ) :   0.9313
B(  7-C , 22-H ) :   0.9363 B(  7-C , 23-H ) :   0.9313 B(  8-O , 24-H ) :   0.8428

MP2 TOTAL ENERGY:     -425.945446768 Eh
FINAL SINGLE POINT ENERGY      -425.945446767756

DIPOLE MOMENT
-------------
                                X             Y             Z
Electronic contribution:     -2.39270      -3.08753       3.98261
Nuclear contribution   :      1.54020       2.80025      -4.28354
                        -----------------------------------------
Total Dipole Moment    :     -0.85250      -0.28727      -0.30093
                        -----------------------------------------
Magnitude (a.u.)       :      0.94860
Magnitude (Debye)      :      2.41116

                             ****ORCA TERMINATED NORMALLY****
TOTAL RUN TIME: 0 days 0 hours 20 minutes 37 seconds 504 msec
