                         Program Version 3.0.3 - RELEASE   -
|  1> ! RI-MP2 RIJK def2-TZVP def2-TZVP/C def2-TZVP/JK TIGHTSCF
|  2> % maxcore 2000
|  3> % mp2 density relaxed end
|  4> *xyz 0 1
|  5>  C        0.0456440262     1.5350191758    -0.0319739218
|  6>  C       -0.0459776909     0.0211139106     0.0120009974
|  7>  C       -0.9080922153    -0.6165775409     1.0944295370
|  8>  C        0.5935051251    -0.7340288105     1.1648812135
|  9>  N        1.3452288546    -1.9500316673     0.9471649793
| 10>  C        0.6838126340    -3.2165721444     0.6839469388
| 11>  C        1.4092078296    -2.5003779796    -0.4152013420
| 12>  C        0.6765557932    -1.8115926434    -1.4970891502
| 13>  C        0.0221484187    -0.6623001417    -1.3018244520
| 14>  H        0.9850663742     1.8637514272    -0.4895897086
| 15>  H       -0.7785599684     1.9597885954    -0.6175632787
| 16>  H       -0.0071061427     1.9645723552     0.9729655339
| 17>  H       -1.3878582458     0.0414243168     1.8126695117
| 18>  H       -1.4992778994    -1.4821483745     0.8201981820
| 19>  H        1.0729789890    -0.1131825940     1.9163830592
| 20>  H        1.1404761439    -4.0829315899     1.1564884501
| 21>  H       -0.4007267329    -3.2494267775     0.6241691344
| 22>  H        2.3905487987    -2.8827281878    -0.6949212342
| 23>  H        0.7330475885    -2.2526288864    -2.4883636524
| 24>  H       -0.4696849001    -0.1681749330    -2.1366809776
| 25> *
| 26>
| 27>                          ****END OF INPUT****

CARTESIAN COORDINATES (ANGSTROEM)
---------------------------------
  C      0.045644    1.535019   -0.031974
  C     -0.045978    0.021114    0.012001
  C     -0.908092   -0.616578    1.094430
  C      0.593505   -0.734029    1.164881
  N      1.345229   -1.950032    0.947165
  C      0.683813   -3.216572    0.683947
  C      1.409208   -2.500378   -0.415201
  C      0.676556   -1.811593   -1.497089
  C      0.022148   -0.662300   -1.301824
  H      0.985066    1.863751   -0.489590
  H     -0.778560    1.959789   -0.617563
  H     -0.007106    1.964572    0.972966
  H     -1.387858    0.041424    1.812670
  H     -1.499278   -1.482148    0.820198
  H      1.072979   -0.113183    1.916383
  H      1.140476   -4.082932    1.156488
  H     -0.400727   -3.249427    0.624169
  H      2.390549   -2.882728   -0.694921
  H      0.733048   -2.252629   -2.488364
  H     -0.469685   -0.168175   -2.136681

 Total Charge           Charge          ....    0
 Multiplicity           Mult            ....    1
 Number of Electrons    NEL             ....   66
 Basis Dimension        Dim             ....  345

ORBITAL ENERGIES
----------------

  NO   OCC          E(Eh)            E(eV)
   0   2.0000     -15.558092      -423.3572
   1   2.0000     -11.259262      -306.3801
   2   2.0000     -11.256509      -306.3052
   3   2.0000     -11.252676      -306.2009
   4   2.0000     -11.239985      -305.8555
   5   2.0000     -11.230415      -305.5951
   6   2.0000     -11.228207      -305.5350
   7   2.0000     -11.225708      -305.4670
   8   2.0000     -11.219836      -305.3073
   9   2.0000      -1.279581       -34.8192
  10   2.0000      -1.149931       -31.2912
  11   2.0000      -1.054537       -28.6954
  12   2.0000      -0.968493       -26.3540
  13   2.0000      -0.919900       -25.0318
  14   2.0000      -0.871134       -23.7048
  15   2.0000      -0.805459       -21.9177
  16   2.0000      -0.784444       -21.3458
  17   2.0000      -0.707026       -19.2392
  18   2.0000      -0.676398       -18.4057
  19   2.0000      -0.646275       -17.5860
  20   2.0000      -0.621185       -16.9033
  21   2.0000      -0.616569       -16.7777
  22   2.0000      -0.575063       -15.6483
  23   2.0000      -0.558496       -15.1974
  24   2.0000      -0.537273       -14.6199
  25   2.0000      -0.523063       -14.2333
  26   2.0000      -0.511366       -13.9150
  27   2.0000      -0.487915       -13.2768
  28   2.0000      -0.471654       -12.8344
  29   2.0000      -0.459317       -12.4987
  30   2.0000      -0.385308       -10.4848
  31   2.0000      -0.362086        -9.8529
  32   2.0000      -0.334145        -9.0926
  33   0.0000       0.142422         3.8755
  34   0.0000       0.150592         4.0978
  35   0.0000       0.166548         4.5320
  36   0.0000       0.170751         4.6464
  37   0.0000       0.180309         4.9065

MULLIKEN ATOMIC CHARGES
-----------------------
   0 C :   -0.424752
   1 C :    0.199343
   2 C :   -0.284872
   3 C :   -0.110834
   4 N :   -0.198591
   5 C :   -0.159963
   6 C :   -0.019638
   7 C :   -0.147258
   8 C :   -0.235844
   9 H :    0.138935
  10 H :    0.131344
  11 H :    0.128404
  12 H :    0.129153
  13 H :    0.130251
  14 H :    0.122992
  15 H :    0.126067
  16 H :    0.111290
  17 H :    0.125710
  18 H :    0.121058
  19 H :    0.117205
Sum of atomic charges:   -0.0000000

LOEWDIN ATOMIC CHARGES
----------------------
   0 C :   -0.261849
   1 C :   -0.240973
   2 C :   -0.179122
   3 C :   -0.219261
   4 N :    0.147137
   5 C :   -0.229974
   6 C :   -0.232286
   7 C :   -0.154716
   8 C :   -0.123664
   9 H :    0.129040
  10 H :    0.127751
  11 H :    0.128064
  12 H :    0.135546
  13 H :    0.134509
  14 H :    0.149173
  15 H :    0.124958
  16 H :    0.123249
  17 H :    0.146572
  18 H :    0.146920
  19 H :    0.148926

  Mayer bond orders larger than 0.1
B(  0-C ,  1-C ) :   0.8981 B(  0-C ,  9-H ) :   0.9397 B(  0-C , 10-H ) :   0.9396
B(  0-C , 11-H ) :   0.9317 B(  1-C ,  2-C ) :   0.8348 B(  1-C ,  3-C ) :   0.8415
B(  1-C ,  8-C ) :   0.9459 B(  2-C ,  3-C ) :   0.8890 B(  2-C , 12-H ) :   0.9216
B(  2-C , 13-H ) :   0.9165 B(  3-C ,  4-N ) :   0.9877 B(  3-C , 14-H ) :   0.9483
B(  4-N ,  5-C ) :   0.8925 B(  4-N ,  6-C ) :   0.9176 B(  5-C ,  6-C ) :   0.9037
B(  5-C , 15-H ) :   0.9225 B(  5-C , 16-H ) :   0.9094 B(  6-C ,  7-C ) :   0.9752
B(  6-C , 17-H ) :   0.9106 B(  7-C ,  8-C ) :   1.7749 B(  7-C , 18-H ) :   0.9250
B(  8-C , 19-H ) :   0.9342

MP2 TOTAL ENERGY:     -365.312127986 Eh
FINAL SINGLE POINT ENERGY      -365.312127985604

DIPOLE MOMENT
-------------
                                X             Y             Z
Electronic contribution:      2.22719      -3.27015      -0.13697
Nuclear contribution   :     -2.61671       3.32809      -0.08117
                        -----------------------------------------
Total Dipole Moment    :     -0.38952       0.05794      -0.21813
                        -----------------------------------------
Magnitude (a.u.)       :      0.45019
Magnitude (Debye)      :      1.14428

                             ****ORCA TERMINATED NORMALLY****
TOTAL RUN TIME: 0 days 0 hours 22 minutes 40 seconds 898 msec
