                         Program Version 3.0.3 - RELEASE   -
|  1> ! RI-MP2 RIJK def2-TZVP def2-TZVP/C def2-TZVP/JK TIGHTSCF
|  2> % maxcore 2000
|  3> % mp2 density relaxed end
|  4> *xyz 0 1
|  5>  C       -0.0573258319     1.5737571389    -0.2366212524
|  6>  C       -0.0251519337     0.0438575329    -0.2015040273
|  7>  O        0.9941480358    -0.4053596113     0.6905608561
|  8>  C       -1.3964076870    -0.5842135224     0.1508472343
|  9>  C       -2.5152814954    -0.0428975113    -0.7187478107
| 10>  C       -2.9343124307    -0.9329843263    -1.6169598488
| 11>  C       -2.2095719404    -2.2480540780    -1.4807204750
| 12>  C       -1.5274444933    -2.1274502358    -0.0919087226
| 13>  C       -0.2835562664    -3.0020751653     0.0648430372
| 14>  H        0.9549088151     1.9577618463    -0.3890762752
| 15>  H       -0.6963898272     1.9489590621    -1.0404473922
| 16>  H       -0.4367709297     1.9785115405     0.7110400629
| 17>  H        0.2898586083    -0.3236249946    -1.1854752818
| 18>  H        0.7722539977    -0.0769771156     1.5691250815
| 19>  H       -1.5706951939    -0.3516821399     1.2131218227
| 20>  H       -2.8850447660     0.9724666601    -0.6302339256
| 21>  H       -3.6926513407    -0.7501378395    -2.3708265137
| 22>  H       -2.8759596029    -3.1167753598    -1.5357549104
| 23>  H       -1.4723101507    -2.3784131947    -2.2872610755
| 24>  H       -2.2698311279    -2.4693894401     0.6405693422
| 25>  H        0.4999232041    -2.7346780412    -0.6499964484
| 26>  H        0.1505843857    -2.9184717291     1.0635237609
| 27>  H       -0.5472271590    -4.0518599057    -0.1083307981
| 28> *
| 29>
| 30>                          ****END OF INPUT****

CARTESIAN COORDINATES (ANGSTROEM)
---------------------------------
  C     -0.057326    1.573757   -0.236621
  C     -0.025152    0.043858   -0.201504
  O      0.994148   -0.405360    0.690561
  C     -1.396408   -0.584214    0.150847
  C     -2.515281   -0.042898   -0.718748
  C     -2.934312   -0.932984   -1.616960
  C     -2.209572   -2.248054   -1.480720
  C     -1.527444   -2.127450   -0.091909
  C     -0.283556   -3.002075    0.064843
  H      0.954909    1.957762   -0.389076
  H     -0.696390    1.948959   -1.040447
  H     -0.436771    1.978512    0.711040
  H      0.289859   -0.323625   -1.185475
  H      0.772254   -0.076977    1.569125
  H     -1.570695   -0.351682    1.213122
  H     -2.885045    0.972467   -0.630234
  H     -3.692651   -0.750138   -2.370827
  H     -2.875960   -3.116775   -1.535755
  H     -1.472310   -2.378413   -2.287261
  H     -2.269831   -2.469389    0.640569
  H      0.499923   -2.734678   -0.649996
  H      0.150584   -2.918472    1.063524
  H     -0.547227   -4.051860   -0.108331

 Total Charge           Charge          ....    0
 Multiplicity           Mult            ....    1
 Number of Electrons    NEL             ....   70
 Basis Dimension        Dim             ....  363

ORBITAL ENERGIES
----------------

  NO   OCC          E(Eh)            E(eV)
   0   2.0000     -20.548659      -559.1574
   1   2.0000     -11.277049      -306.8641
   2   2.0000     -11.229221      -305.5626
   3   2.0000     -11.224652      -305.4383
   4   2.0000     -11.224456      -305.4330
   5   2.0000     -11.220912      -305.3365
   6   2.0000     -11.219722      -305.3042
   7   2.0000     -11.215317      -305.1843
   8   2.0000     -11.202005      -304.8221
   9   2.0000      -1.356032       -36.8995
  10   2.0000      -1.139112       -30.9968
  11   2.0000      -1.024428       -27.8761
  12   2.0000      -1.006095       -27.3772
  13   2.0000      -0.945092       -25.7173
  14   2.0000      -0.894028       -24.3277
  15   2.0000      -0.833711       -22.6864
  16   2.0000      -0.758354       -20.6359
  17   2.0000      -0.728623       -19.8268
  18   2.0000      -0.676842       -18.4178
  19   2.0000      -0.648634       -17.6502
  20   2.0000      -0.632258       -17.2046
  21   2.0000      -0.614159       -16.7121
  22   2.0000      -0.583498       -15.8778
  23   2.0000      -0.558746       -15.2043
  24   2.0000      -0.546760       -14.8781
  25   2.0000      -0.542372       -14.7587
  26   2.0000      -0.527418       -14.3518
  27   2.0000      -0.521621       -14.1940
  28   2.0000      -0.497215       -13.5299
  29   2.0000      -0.485682       -13.2161
  30   2.0000      -0.468886       -12.7590
  31   2.0000      -0.461588       -12.5604
  32   2.0000      -0.443054       -12.0561
  33   2.0000      -0.424572       -11.5532
  34   2.0000      -0.344502        -9.3744
  35   0.0000       0.128990         3.5100
  36   0.0000       0.150781         4.1030
  37   0.0000       0.155001         4.2178
  38   0.0000       0.160462         4.3664
  39   0.0000       0.171311         4.6616

MULLIKEN ATOMIC CHARGES
-----------------------
   0 C :   -0.407804
   1 C :    0.056235
   2 O :   -0.469846
   3 C :    0.011372
   4 C :   -0.227753
   5 C :   -0.166540
   6 C :   -0.197726
   7 C :   -0.091007
   8 C :   -0.341760
   9 H :    0.148880
  10 H :    0.135049
  11 H :    0.114675
  12 H :    0.097277
  13 H :    0.308433
  14 H :    0.088524
  15 H :    0.131867
  16 H :    0.124106
  17 H :    0.121699
  18 H :    0.108932
  19 H :    0.088070
  20 H :    0.119974
  21 H :    0.121785
  22 H :    0.125558
Sum of atomic charges:    0.0000000

LOEWDIN ATOMIC CHARGES
----------------------
   0 C :   -0.303840
   1 C :   -0.342601
   2 O :   -0.016725
   3 C :   -0.204286
   4 C :   -0.144282
   5 C :   -0.155010
   6 C :   -0.222996
   7 C :   -0.229191
   8 C :   -0.297631
   9 H :    0.126821
  10 H :    0.126499
  11 H :    0.121224
  12 H :    0.147211
  13 H :    0.171099
  14 H :    0.149434
  15 H :    0.136898
  16 H :    0.135340
  17 H :    0.137215
  18 H :    0.141251
  19 H :    0.155724
  20 H :    0.123588
  21 H :    0.122445
  22 H :    0.121811

  Mayer bond orders larger than 0.1
B(  0-C ,  1-C ) :   0.9280 B(  0-C ,  9-H ) :   0.9425 B(  0-C , 10-H ) :   0.9324
B(  0-C , 11-H ) :   0.9223 B(  1-C ,  2-O ) :   0.8907 B(  1-C ,  3-C ) :   0.8998
B(  1-C , 12-H ) :   0.9177 B(  2-O , 13-H ) :   0.8427 B(  3-C ,  4-C ) :   0.8953
B(  3-C ,  7-C ) :   0.8985 B(  3-C , 14-H ) :   0.9023 B(  4-C ,  5-C ) :   1.7862
B(  4-C , 15-H ) :   0.9272 B(  5-C ,  6-C ) :   0.9423 B(  5-C , 16-H ) :   0.9311
B(  6-C ,  7-C ) :   0.9612 B(  6-C , 17-H ) :   0.9262 B(  6-C , 18-H ) :   0.9002
B(  7-C ,  8-C ) :   0.9457 B(  7-C , 19-H ) :   0.9267 B(  8-C , 20-H ) :   0.9267
B(  8-C , 21-H ) :   0.9388 B(  8-C , 22-H ) :   0.9332

MP2 TOTAL ENERGY:     -387.629599059 Eh
FINAL SINGLE POINT ENERGY      -387.629599058996

DIPOLE MOMENT
-------------
                                X             Y             Z
Electronic contribution:     -1.02309       0.70753       0.27837
Nuclear contribution   :      0.57975      -0.42898      -0.13713
                        -----------------------------------------
Total Dipole Moment    :     -0.44334       0.27854       0.14124
                        -----------------------------------------
Magnitude (a.u.)       :      0.54230
Magnitude (Debye)      :      1.37841

                             ****ORCA TERMINATED NORMALLY****
TOTAL RUN TIME: 0 days 0 hours 23 minutes 10 seconds 670 msec
