                         Program Version 3.0.3 - RELEASE   -
|  1> ! RI-MP2 RIJK def2-TZVP def2-TZVP/C def2-TZVP/JK TIGHTSCF
|  2> % maxcore 2000
|  3> % mp2 density relaxed end
|  4> *xyz 0 1
|  5>  C       -0.0585881608     1.2013323178    -0.5424333029
|  6>  C        1.1681033145     1.2840136360     0.3135471062
|  7>  C        0.5101229253    -0.0681118627     0.0756992388
|  8>  C       -0.1929245736    -0.7244669861     1.1370150166
|  9>  C       -0.7882938291    -1.2802859557     2.0274045138
| 10>  C       -1.4897418021    -1.9486167226     3.1054136688
| 11>  C       -1.4199884307    -1.3231782717     4.5273838669
| 12>  C       -2.9571118204    -1.3126435794     4.4440063722
| 13>  O       -2.9352616636    -1.7735328171     3.0769406014
| 14>  H       -0.9926758272     1.5688458361    -0.1353368633
| 15>  H        0.0465026034     1.3160192111    -1.6152663906
| 16>  H        2.1256818140     1.4582314311    -0.1639926840
| 17>  H        1.0705900299     1.7090673706     1.3052049356
| 18>  H        1.0310574504    -0.7304083883    -0.6097395146
| 19>  H       -1.2408764690    -3.0191738260     3.0979955997
| 20>  H       -0.9728907813    -1.9525629880     5.2975635910
| 21>  H       -0.9576012754    -0.3363377777     4.5445644071
| 22>  H       -3.4635730935    -2.0261298767     5.1068162219
| 23>  H       -3.4443029010    -0.3353884906     4.5375187154
| 24> *
| 25>
| 26>                          ****END OF INPUT****

CARTESIAN COORDINATES (ANGSTROEM)
---------------------------------
  C     -0.058588    1.201332   -0.542433
  C      1.168103    1.284014    0.313547
  C      0.510123   -0.068112    0.075699
  C     -0.192925   -0.724467    1.137015
  C     -0.788294   -1.280286    2.027405
  C     -1.489742   -1.948617    3.105414
  C     -1.419988   -1.323178    4.527384
  C     -2.957112   -1.312644    4.444006
  O     -2.935262   -1.773533    3.076941
  H     -0.992676    1.568846   -0.135337
  H      0.046503    1.316019   -1.615266
  H      2.125682    1.458231   -0.163993
  H      1.070590    1.709067    1.305205
  H      1.031057   -0.730408   -0.609740
  H     -1.240876   -3.019174    3.097996
  H     -0.972891   -1.952563    5.297564
  H     -0.957601   -0.336338    4.544564
  H     -3.463573   -2.026130    5.106816
  H     -3.444303   -0.335388    4.537519

 Total Charge           Charge          ....    0
 Multiplicity           Mult            ....    1
 Number of Electrons    NEL             ....   66
 Basis Dimension        Dim             ....  339

ORBITAL ENERGIES
----------------

  NO   OCC          E(Eh)            E(eV)
   0   2.0000     -20.548665      -559.1576
   1   2.0000     -11.305212      -307.6305
   2   2.0000     -11.279059      -306.9188
   3   2.0000     -11.256336      -306.3005
   4   2.0000     -11.238880      -305.8255
   5   2.0000     -11.238059      -305.8031
   6   2.0000     -11.235665      -305.7380
   7   2.0000     -11.227967      -305.5285
   8   2.0000     -11.216080      -305.2050
   9   2.0000      -1.377050       -37.4714
  10   2.0000      -1.157414       -31.4948
  11   2.0000      -1.048093       -28.5201
  12   2.0000      -1.006932       -27.4000
  13   2.0000      -0.945934       -25.7402
  14   2.0000      -0.858172       -23.3520
  15   2.0000      -0.831573       -22.6283
  16   2.0000      -0.789835       -21.4925
  17   2.0000      -0.711013       -19.3477
  18   2.0000      -0.693584       -18.8734
  19   2.0000      -0.674976       -18.3670
  20   2.0000      -0.652211       -17.7476
  21   2.0000      -0.605729       -16.4827
  22   2.0000      -0.588856       -16.0236
  23   2.0000      -0.557869       -15.1804
  24   2.0000      -0.543029       -14.7766
  25   2.0000      -0.526217       -14.3191
  26   2.0000      -0.496694       -13.5157
  27   2.0000      -0.475262       -12.9325
  28   2.0000      -0.462596       -12.5879
  29   2.0000      -0.455742       -12.4014
  30   2.0000      -0.423460       -11.5229
  31   2.0000      -0.366540        -9.9741
  32   2.0000      -0.349930        -9.5221
  33   0.0000       0.142563         3.8793
  34   0.0000       0.148698         4.0463
  35   0.0000       0.154781         4.2118
  36   0.0000       0.165243         4.4965
  37   0.0000       0.172566         4.6957

MULLIKEN ATOMIC CHARGES
-----------------------
   0 C :   -0.229774
   1 C :   -0.232902
   2 C :   -0.234485
   3 C :    0.094189
   4 C :   -0.049542
   5 C :    0.018332
   6 C :   -0.282042
   7 C :   -0.012892
   8 O :   -0.321275
   9 H :    0.144471
  10 H :    0.135148
  11 H :    0.134387
  12 H :    0.138839
  13 H :    0.138328
  14 H :    0.107105
  15 H :    0.128149
  16 H :    0.129418
  17 H :    0.093208
  18 H :    0.101336
Sum of atomic charges:    0.0000000

LOEWDIN ATOMIC CHARGES
----------------------
   0 C :   -0.204639
   1 C :   -0.207469
   2 C :   -0.213157
   3 C :   -0.045806
   4 C :   -0.051633
   5 C :   -0.271414
   6 C :   -0.213261
   7 C :   -0.277121
   8 O :    0.133906
   9 H :    0.138826
  10 H :    0.133164
  11 H :    0.132754
  12 H :    0.136964
  13 H :    0.161784
  14 H :    0.150782
  15 H :    0.129305
  16 H :    0.135651
  17 H :    0.115268
  18 H :    0.116094

  Mayer bond orders larger than 0.1
B(  0-C ,  1-C ) :   0.9009 B(  0-C ,  2-C ) :   0.8578 B(  0-C ,  9-H ) :   0.9327
B(  0-C , 10-H ) :   0.9307 B(  1-C ,  2-C ) :   0.8590 B(  1-C , 11-H ) :   0.9300
B(  1-C , 12-H ) :   0.9334 B(  2-C ,  3-C ) :   1.0750 B(  2-C ,  4-C ) :  -0.1137
B(  2-C , 13-H ) :   0.9383 B(  3-C ,  4-C ) :   2.5674 B(  3-C ,  5-C ) :  -0.1241
B(  4-C ,  5-C ) :   1.1029 B(  5-C ,  6-C ) :   0.9143 B(  5-C ,  8-O ) :   1.0007
B(  5-C , 14-H ) :   0.9109 B(  6-C ,  7-C ) :   0.9787 B(  6-C , 15-H ) :   0.9274
B(  6-C , 16-H ) :   0.9294 B(  7-C ,  8-O ) :   0.9452 B(  7-C , 17-H ) :   0.9183
B(  7-C , 18-H ) :   0.9152

MP2 TOTAL ENERGY:     -385.131067699 Eh
FINAL SINGLE POINT ENERGY      -385.131067699397

DIPOLE MOMENT
-------------
                                X             Y             Z
Electronic contribution:     -1.90728      -3.63783      -0.37231
Nuclear contribution   :      2.54809       3.98977       0.70824
                        -----------------------------------------
Total Dipole Moment    :      0.64081       0.35194       0.33593
                        -----------------------------------------
Magnitude (a.u.)       :      0.80458
Magnitude (Debye)      :      2.04509

                             ****ORCA TERMINATED NORMALLY****
TOTAL RUN TIME: 0 days 0 hours 14 minutes 51 seconds 159 msec
