                         Program Version 3.0.3 - RELEASE   -
|  1> ! RI-MP2 RIJK def2-TZVP def2-TZVP/C def2-TZVP/JK TIGHTSCF
|  2> % maxcore 2000
|  3> % mp2 density relaxed end
|  4> *xyz 0 1
|  5>  C       -0.0366771446     1.5004273781    -0.0839202629
|  6>  N       -0.0249548932     0.0470613003    -0.0412269332
|  7>  C       -1.3846802919    -0.5198740320     0.0314787023
|  8>  C       -1.3986494922    -2.0691706047    -0.0380952570
|  9>  N       -0.2786346869    -2.7718588978     0.6062954350
| 10>  C        0.5660055127    -1.9840116767     1.0855657081
| 11>  O        1.8644740286    -2.2125444265     1.4737346714
| 12>  C        2.1855351144    -0.8032184032     1.1814098798
| 13>  C        0.6701649421    -0.4877743332     1.1040491963
| 14>  H        0.9898807700     1.8774459955    -0.1304354749
| 15>  H       -0.5633709222     1.8401058179    -0.9808123945
| 16>  H       -0.5294222784     1.9533583772     0.7975895010
| 17>  H       -1.8858989046    -0.1834937756     0.9604314718
| 18>  H       -1.9701270965    -0.1256369961    -0.8051295422
| 19>  H       -2.3465114050    -2.4298786402     0.3771450087
| 20>  H       -1.3819364992    -2.3849190174    -1.0882369657
| 21>  H        2.7546767887    -0.3492028779     1.9941383936
| 22>  H        2.7138650622    -0.7264752703     0.2278523713
| 23>  H        0.3283654757    -0.0494015276     2.0605159811
| 24> *
| 25>
| 26>                          ****END OF INPUT****

CARTESIAN COORDINATES (ANGSTROEM)
---------------------------------
  C     -0.036677    1.500427   -0.083920
  N     -0.024955    0.047061   -0.041227
  C     -1.384680   -0.519874    0.031479
  C     -1.398649   -2.069171   -0.038095
  N     -0.278635   -2.771859    0.606295
  C      0.566006   -1.984012    1.085566
  O      1.864474   -2.212544    1.473735
  C      2.185535   -0.803218    1.181410
  C      0.670165   -0.487774    1.104049
  H      0.989881    1.877446   -0.130435
  H     -0.563371    1.840106   -0.980812
  H     -0.529422    1.953358    0.797590
  H     -1.885899   -0.183494    0.960431
  H     -1.970127   -0.125637   -0.805130
  H     -2.346511   -2.429879    0.377145
  H     -1.381936   -2.384919   -1.088237
  H      2.754677   -0.349203    1.994138
  H      2.713865   -0.726475    0.227852
  H      0.328365   -0.049402    2.060516

 Total Charge           Charge          ....    0
 Multiplicity           Mult            ....    1
 Number of Electrons    NEL             ....   68
 Basis Dimension        Dim             ....  339

ORBITAL ENERGIES
----------------

  NO   OCC          E(Eh)            E(eV)
   0   2.0000     -20.586855      -560.1968
   1   2.0000     -15.571395      -423.7192
   2   2.0000     -15.541536      -422.9067
   3   2.0000     -11.327282      -308.2310
   4   2.0000     -11.304874      -307.6213
   5   2.0000     -11.280373      -306.9545
   6   2.0000     -11.264066      -306.5108
   7   2.0000     -11.260377      -306.4104
   8   2.0000     -11.257806      -306.3405
   9   2.0000      -1.430354       -38.9219
  10   2.0000      -1.264076       -34.3972
  11   2.0000      -1.211018       -32.9535
  12   2.0000      -1.030803       -28.0496
  13   2.0000      -1.001963       -27.2648
  14   2.0000      -0.936800       -25.4916
  15   2.0000      -0.859531       -23.3890
  16   2.0000      -0.842689       -22.9307
  17   2.0000      -0.742390       -20.2015
  18   2.0000      -0.689153       -18.7528
  19   2.0000      -0.687136       -18.6979
  20   2.0000      -0.649331       -17.6692
  21   2.0000      -0.627049       -17.0629
  22   2.0000      -0.620798       -16.8928
  23   2.0000      -0.590537       -16.0693
  24   2.0000      -0.587332       -15.9821
  25   2.0000      -0.553465       -15.0606
  26   2.0000      -0.540640       -14.7116
  27   2.0000      -0.529315       -14.4034
  28   2.0000      -0.526614       -14.3299
  29   2.0000      -0.502199       -13.6655
  30   2.0000      -0.485306       -13.2059
  31   2.0000      -0.405651       -11.0383
  32   2.0000      -0.383444       -10.4340
  33   2.0000      -0.375468       -10.2170
  34   0.0000       0.125103         3.4042
  35   0.0000       0.147690         4.0189
  36   0.0000       0.160073         4.3558
  37   0.0000       0.166643         4.5346
  38   0.0000       0.182914         4.9773

MULLIKEN ATOMIC CHARGES
-----------------------
   0 C :   -0.318202
   1 N :   -0.155631
   2 C :   -0.194794
   3 C :   -0.070663
   4 N :   -0.194085
   5 C :    0.115584
   6 O :   -0.254719
   7 C :    0.004496
   8 C :   -0.114290
   9 H :    0.137894
  10 H :    0.140676
  11 H :    0.110848
  12 H :    0.097823
  13 H :    0.131335
  14 H :    0.119177
  15 H :    0.119555
  16 H :    0.120805
  17 H :    0.110994
  18 H :    0.093198
Sum of atomic charges:   -0.0000000

LOEWDIN ATOMIC CHARGES
----------------------
   0 C :   -0.324351
   1 N :    0.079926
   2 C :   -0.272287
   3 C :   -0.273327
   4 N :    0.112981
   5 C :   -0.362893
   6 O :    0.221503
   7 C :   -0.198453
   8 C :   -0.253114
   9 H :    0.119762
  10 H :    0.120570
  11 H :    0.104293
  12 H :    0.121263
  13 H :    0.137761
  14 H :    0.134517
  15 H :    0.136916
  16 H :    0.121358
  17 H :    0.128330
  18 H :    0.145243

  Mayer bond orders larger than 0.1
B(  0-C ,  1-N ) :   0.8992 B(  0-C ,  9-H ) :   0.9375 B(  0-C , 10-H ) :   0.9380
B(  0-C , 11-H ) :   0.9280 B(  1-N ,  2-C ) :   0.8867 B(  1-N ,  8-C ) :   0.9503
B(  2-C ,  3-C ) :   0.9345 B(  2-C , 12-H ) :   0.9218 B(  2-C , 13-H ) :   0.9207
B(  3-C ,  4-N ) :   0.9051 B(  3-C , 14-H ) :   0.9267 B(  3-C , 15-H ) :   0.9252
B(  4-N ,  5-C ) :   1.9075 B(  5-C ,  6-O ) :   1.1012 B(  5-C ,  8-C ) :   0.9468
B(  6-O ,  7-C ) :   0.8992 B(  7-C ,  8-C ) :   0.9549 B(  7-C , 16-H ) :   0.9155
B(  7-C , 17-H ) :   0.8960 B(  8-C , 18-H ) :   0.8916

MP2 TOTAL ENERGY:     -418.473817872 Eh
FINAL SINGLE POINT ENERGY      -418.473817871838

DIPOLE MOMENT
-------------
                                X             Y             Z
Electronic contribution:      3.76968      -7.22776       2.25842
Nuclear contribution   :     -4.05179       8.84730      -2.31618
                        -----------------------------------------
Total Dipole Moment    :     -0.28211       1.61954      -0.05775
                        -----------------------------------------
Magnitude (a.u.)       :      1.64495
Magnitude (Debye)      :      4.18112

                             ****ORCA TERMINATED NORMALLY****
TOTAL RUN TIME: 0 days 0 hours 18 minutes 8 seconds 138 msec
