                         Program Version 3.0.3 - RELEASE   -
|  1> ! RI-MP2 RIJK def2-TZVP def2-TZVP/C def2-TZVP/JK TIGHTSCF
|  2> % maxcore 2000
|  3> % mp2 density relaxed end
|  4> *xyz 0 1
|  5>  C        0.6421019985     1.4094219613     0.1586435199
|  6>  C       -0.1649341726     0.1297777253    -0.0952305338
|  7>  C        0.2848286251    -0.5737913048    -1.3535056529
|  8>  O        1.5524503992    -1.2520281200    -1.3132690673
|  9>  C        0.3562077453    -2.0331615256    -1.5438167627
| 10>  C        0.0006489828    -3.0338498331    -0.4676590132
| 11>  C        0.3201822792    -2.5811123971    -2.9609251998
| 12>  O        1.3221265700    -3.5664418988    -3.1487121673
| 13>  H        1.7048317399     1.1755680472     0.2710646859
| 14>  H        0.5400595642     2.1150282395    -0.6730859186
| 15>  H        0.3043244899     1.9136273352     1.0686523371
| 16>  H       -0.0750326771    -0.5403515546     0.7639632325
| 17>  H       -1.2303311905     0.3733395342    -0.2004479268
| 18>  H        0.1539400807     0.0277093536    -2.2580002658
| 19>  H       -1.0719038782    -3.2565427476    -0.4870859327
| 20>  H        0.5413590879    -3.9664274850    -0.6529828112
| 21>  H        0.2662722652    -2.6709268906     0.5258049037
| 22>  H       -0.6380101565    -3.0731440975    -3.1607407262
| 23>  H        0.4345539965    -1.7542550850    -3.6772964558
| 24>  H        2.1587258803    -3.1424089669    -2.9227404148
| 25> *
| 26>
| 27>                          ****END OF INPUT****

CARTESIAN COORDINATES (ANGSTROEM)
---------------------------------
  C      0.642102    1.409422    0.158644
  C     -0.164934    0.129778   -0.095231
  C      0.284829   -0.573791   -1.353506
  O      1.552450   -1.252028   -1.313269
  C      0.356208   -2.033162   -1.543817
  C      0.000649   -3.033850   -0.467659
  C      0.320182   -2.581112   -2.960925
  O      1.322127   -3.566442   -3.148712
  H      1.704832    1.175568    0.271065
  H      0.540060    2.115028   -0.673086
  H      0.304324    1.913627    1.068652
  H     -0.075033   -0.540352    0.763963
  H     -1.230331    0.373340   -0.200448
  H      0.153940    0.027709   -2.258000
  H     -1.071904   -3.256543   -0.487086
  H      0.541359   -3.966427   -0.652983
  H      0.266272   -2.670927    0.525805
  H     -0.638010   -3.073144   -3.160741
  H      0.434554   -1.754255   -3.677296
  H      2.158726   -3.142409   -2.922740

 Total Charge           Charge          ....    0
 Multiplicity           Mult            ....    1
 Number of Electrons    NEL             ....   64
 Basis Dimension        Dim             ....  320

ORBITAL ENERGIES
----------------

  NO   OCC          E(Eh)            E(eV)
   0   2.0000     -20.563850      -559.5708
   1   2.0000     -20.555323      -559.3388
   2   2.0000     -11.290852      -307.2397
   3   2.0000     -11.288020      -307.1626
   4   2.0000     -11.279713      -306.9366
   5   2.0000     -11.233271      -305.6728
   6   2.0000     -11.222376      -305.3764
   7   2.0000     -11.219720      -305.3041
   8   2.0000      -1.409626       -38.3579
   9   2.0000      -1.358163       -36.9575
  10   2.0000      -1.055303       -28.7163
  11   2.0000      -1.030329       -28.0367
  12   2.0000      -0.939259       -25.5585
  13   2.0000      -0.912848       -24.8399
  14   2.0000      -0.822072       -22.3697
  15   2.0000      -0.771043       -20.9811
  16   2.0000      -0.708556       -19.2808
  17   2.0000      -0.671143       -18.2627
  18   2.0000      -0.637760       -17.3543
  19   2.0000      -0.618309       -16.8250
  20   2.0000      -0.611649       -16.6438
  21   2.0000      -0.571422       -15.5492
  22   2.0000      -0.567918       -15.4538
  23   2.0000      -0.550578       -14.9820
  24   2.0000      -0.543697       -14.7948
  25   2.0000      -0.529983       -14.4216
  26   2.0000      -0.505878       -13.7656
  27   2.0000      -0.494921       -13.4675
  28   2.0000      -0.484230       -13.1766
  29   2.0000      -0.459269       -12.4974
  30   2.0000      -0.434493       -11.8232
  31   2.0000      -0.418730       -11.3942
  32   0.0000       0.136281         3.7084
  33   0.0000       0.154098         4.1932
  34   0.0000       0.165051         4.4913
  35   0.0000       0.167017         4.5448
  36   0.0000       0.188613         5.1324

MULLIKEN ATOMIC CHARGES
-----------------------
   0 C :   -0.398534
   1 C :   -0.187309
   2 C :    0.029714
   3 O :   -0.368318
   4 C :    0.104363
   5 C :   -0.421958
   6 C :    0.022072
   7 O :   -0.475169
   8 H :    0.143162
   9 H :    0.122758
  10 H :    0.135178
  11 H :    0.113667
  12 H :    0.109413
  13 H :    0.109250
  14 H :    0.132583
  15 H :    0.157257
  16 H :    0.136517
  17 H :    0.104644
  18 H :    0.103947
  19 H :    0.326763
Sum of atomic charges:    0.0000000

LOEWDIN ATOMIC CHARGES
----------------------
   0 C :   -0.311770
   1 C :   -0.274133
   2 C :   -0.250566
   3 O :    0.159779
   4 C :   -0.335799
   5 C :   -0.267965
   6 C :   -0.306513
   7 O :   -0.042325
   8 H :    0.126942
   9 H :    0.121231
  10 H :    0.121542
  11 H :    0.140923
  12 H :    0.143290
  13 H :    0.139679
  14 H :    0.132094
  15 H :    0.136908
  16 H :    0.127977
  17 H :    0.133900
  18 H :    0.123896
  19 H :    0.180912

  Mayer bond orders larger than 0.1
B(  0-C ,  1-C ) :   0.9205 B(  0-C ,  8-H ) :   0.9367 B(  0-C ,  9-H ) :   0.9375
B(  0-C , 10-H ) :   0.9399 B(  1-C ,  2-C ) :   0.9199 B(  1-C , 11-H ) :   0.9369
B(  1-C , 12-H ) :   0.9260 B(  2-C ,  3-O ) :   0.8418 B(  2-C ,  4-C ) :   0.9819
B(  2-C , 13-H ) :   0.8881 B(  3-O ,  4-C ) :   0.8654 B(  4-C ,  5-C ) :   0.8806
B(  4-C ,  6-C ) :   0.9353 B(  5-C , 14-H ) :   0.9297 B(  5-C , 15-H ) :   0.9337
B(  5-C , 16-H ) :   0.9416 B(  6-C ,  7-O ) :   0.9156 B(  6-C , 17-H ) :   0.9208
B(  6-C , 18-H ) :   0.9166 B(  7-O , 19-H ) :   0.8350

MP2 TOTAL ENERGY:     -385.497426138 Eh
FINAL SINGLE POINT ENERGY      -385.497426137957

DIPOLE MOMENT
-------------
                                X             Y             Z
Electronic contribution:      2.87944      -3.89078      -4.31606
Nuclear contribution   :     -3.51084       4.46582       4.59926
                        -----------------------------------------
Total Dipole Moment    :     -0.63139       0.57503       0.28320
                        -----------------------------------------
Magnitude (a.u.)       :      0.89974
Magnitude (Debye)      :      2.28695

                             ****ORCA TERMINATED NORMALLY****
TOTAL RUN TIME: 0 days 0 hours 12 minutes 17 seconds 43 msec
