                         Program Version 3.0.3 - RELEASE   -
|  1> ! RI-MP2 RIJK def2-TZVP def2-TZVP/C def2-TZVP/JK TIGHTSCF
|  2> % maxcore 2000
|  3> % mp2 density relaxed end
|  4> *xyz 0 1
|  5>  C        0.3370455375     1.3092451837     0.0271195530
|  6>  O       -0.1979267732     0.0264296079    -0.2140356608
|  7>  C        0.4227927667    -0.6468882895    -1.2856880652
|  8>  C        1.7689039770    -1.3363045681    -0.8978534858
|  9>  C        0.9575103236    -2.6156736163    -0.5959517260
| 10>  C       -0.2116576685    -2.0497493179    -1.4316171337
| 11>  O        1.5255541827    -3.8320239384    -1.0681690704
| 12>  C        1.6515640646    -4.8640476226    -0.2127743458
| 13>  O        2.1174223249    -5.9160789216    -0.5313653053
| 14>  H        1.4010358972     1.2725817115     0.3045956378
| 15>  H        0.2347378665     1.9603995120    -0.8547698370
| 16>  H       -0.2263884313     1.7440328177     0.8558820745
| 17>  H        0.4418345568    -0.0095716623    -2.1796080337
| 18>  H        2.4113850471    -1.4885624910    -1.7688636580
| 19>  H        2.3512951011    -0.8953379680    -0.0862459592
| 20>  H        0.7039152018    -2.7083250282     0.4648115230
| 21>  H       -1.2256098750    -2.1619869951    -1.0445136338
| 22>  H       -0.1588184703    -2.4142646154    -2.4599579297
| 23>  H        1.2789922608    -4.6257071983     0.8031294561
| 24> *
| 25>
| 26>                          ****END OF INPUT****

CARTESIAN COORDINATES (ANGSTROEM)
---------------------------------
  C      0.337046    1.309245    0.027120
  O     -0.197927    0.026430   -0.214036
  C      0.422793   -0.646888   -1.285688
  C      1.768904   -1.336305   -0.897853
  C      0.957510   -2.615674   -0.595952
  C     -0.211658   -2.049749   -1.431617
  O      1.525554   -3.832024   -1.068169
  C      1.651564   -4.864048   -0.212774
  O      2.117422   -5.916079   -0.531365
  H      1.401036    1.272582    0.304596
  H      0.234738    1.960400   -0.854770
  H     -0.226388    1.744033    0.855882
  H      0.441835   -0.009572   -2.179608
  H      2.411385   -1.488562   -1.768864
  H      2.351295   -0.895338   -0.086246
  H      0.703915   -2.708325    0.464812
  H     -1.225610   -2.161987   -1.044514
  H     -0.158818   -2.414265   -2.459958
  H      1.278992   -4.625707    0.803129

 Total Charge           Charge          ....    0
 Multiplicity           Mult            ....    1
 Number of Electrons    NEL             ....   70
 Basis Dimension        Dim             ....  339

ORBITAL ENERGIES
----------------

  NO   OCC          E(Eh)            E(eV)
   0   2.0000     -20.608035      -560.7731
   1   2.0000     -20.569590      -559.7270
   2   2.0000     -20.548795      -559.1611
   3   2.0000     -11.382441      -309.7320
   4   2.0000     -11.308826      -307.7288
   5   2.0000     -11.296273      -307.3872
   6   2.0000     -11.281719      -306.9912
   7   2.0000     -11.239120      -305.8320
   8   2.0000     -11.236684      -305.7657
   9   2.0000      -1.462413       -39.7943
  10   2.0000      -1.392160       -37.8826
  11   2.0000      -1.372823       -37.3564
  12   2.0000      -1.140831       -31.0436
  13   2.0000      -0.960800       -26.1447
  14   2.0000      -0.926663       -25.2158
  15   2.0000      -0.899684       -24.4816
  16   2.0000      -0.848079       -23.0774
  17   2.0000      -0.786736       -21.4082
  18   2.0000      -0.734657       -19.9910
  19   2.0000      -0.688243       -18.7280
  20   2.0000      -0.674064       -18.3422
  21   2.0000      -0.659343       -17.9416
  22   2.0000      -0.656989       -17.8776
  23   2.0000      -0.632908       -17.2223
  24   2.0000      -0.612969       -16.6797
  25   2.0000      -0.573808       -15.6141
  26   2.0000      -0.558378       -15.1942
  27   2.0000      -0.539209       -14.6726
  28   2.0000      -0.526612       -14.3298
  29   2.0000      -0.508441       -13.8354
  30   2.0000      -0.499723       -13.5981
  31   2.0000      -0.464715       -12.6455
  32   2.0000      -0.453057       -12.3283
  33   2.0000      -0.439203       -11.9513
  34   2.0000      -0.422179       -11.4881
  35   0.0000       0.136271         3.7081
  36   0.0000       0.143005         3.8914
  37   0.0000       0.151550         4.1239
  38   0.0000       0.159666         4.3447
  39   0.0000       0.172719         4.6999

MULLIKEN ATOMIC CHARGES
-----------------------
   0 C :   -0.218727
   1 O :   -0.311043
   2 C :    0.031831
   3 C :   -0.237592
   4 C :    0.028572
   5 C :   -0.189800
   6 O :   -0.203158
   7 C :    0.195615
   8 O :   -0.269225
   9 H :    0.109977
  10 H :    0.116382
  11 H :    0.144694
  12 H :    0.098483
  13 H :    0.134793
  14 H :    0.128807
  15 H :    0.102026
  16 H :    0.131691
  17 H :    0.136299
  18 H :    0.070377
Sum of atomic charges:   -0.0000000

LOEWDIN ATOMIC CHARGES
----------------------
   0 C :   -0.353138
   1 O :    0.157554
   2 C :   -0.300811
   3 C :   -0.205196
   4 C :   -0.282374
   5 C :   -0.195137
   6 O :    0.267212
   7 C :   -0.450194
   8 O :    0.118550
   9 H :    0.101328
  10 H :    0.103557
  11 H :    0.115092
  12 H :    0.125263
  13 H :    0.146191
  14 H :    0.130231
  15 H :    0.138368
  16 H :    0.135285
  17 H :    0.147224
  18 H :    0.100996

  Mayer bond orders larger than 0.1
B(  0-C ,  1-O ) :   0.9094 B(  0-C ,  9-H ) :   0.9311 B(  0-C , 10-H ) :   0.9380
B(  0-C , 11-H ) :   0.9399 B(  1-O ,  2-C ) :   0.9762 B(  2-C ,  3-C ) :   0.9036
B(  2-C ,  5-C ) :   0.8971 B(  2-C , 12-H ) :   0.9412 B(  3-C ,  4-C ) :   0.9320
B(  3-C , 13-H ) :   0.9151 B(  3-C , 14-H ) :   0.9200 B(  4-C ,  5-C ) :   0.9494
B(  4-C ,  6-O ) :   0.9106 B(  4-C , 15-H ) :   0.9225 B(  5-C , 16-H ) :   0.9163
B(  5-C , 17-H ) :   0.9207 B(  6-O ,  7-C ) :   1.0630 B(  7-C ,  8-O ) :   2.0317
B(  7-C , 18-H ) :   0.9144

MP2 TOTAL ENERGY:     -459.420154046 Eh
FINAL SINGLE POINT ENERGY      -459.420154045622

DIPOLE MOMENT
-------------
                                X             Y             Z
Electronic contribution:      1.68088     -10.27915      -0.42784
Nuclear contribution   :     -1.98672      11.92884       0.73848
                        -----------------------------------------
Total Dipole Moment    :     -0.30584       1.64968       0.31064
                        -----------------------------------------
Magnitude (a.u.)       :      1.70631
Magnitude (Debye)      :      4.33709

                             ****ORCA TERMINATED NORMALLY****
TOTAL RUN TIME: 0 days 0 hours 24 minutes 17 seconds 193 msec
