                         Program Version 3.0.3 - RELEASE   -
|  1> ! RI-MP2 RIJK def2-TZVP def2-TZVP/C def2-TZVP/JK TIGHTSCF
|  2> % maxcore 2000
|  3> % mp2 density relaxed end
|  4> *xyz 0 1
|  5>  O        0.0956899977     1.3545114833     0.1101901746
|  6>  C        0.0660626957     0.0004587248     0.0205905850
|  7>  C        0.0751481668    -0.7055304309    -1.1765012373
|  8>  C        0.0417109569    -2.1003190251    -1.1317316162
|  9>  C        0.0501483847    -2.8867441696    -2.3862922804
| 10>  O        0.0233039545    -4.0925331193    -2.4437053577
| 11>  C        0.0004280696    -2.7312448083     0.1154418771
| 12>  N       -0.0085074071    -2.0600681521     1.2670706604
| 13>  C        0.0235609891    -0.7294946348     1.2161589671
| 14>  H        0.1234716469     1.7389880376    -0.7726033509
| 15>  H        0.1075998263    -0.1884417471    -2.1337653204
| 16>  H        0.0843015121    -2.2673621664    -3.3122354154
| 17>  H       -0.0258627613    -3.8149774804     0.1645339634
| 18>  H        0.0160299881    -0.1892798117     2.1594966407
| 19> *
| 20>
| 21>                          ****END OF INPUT****

CARTESIAN COORDINATES (ANGSTROEM)
---------------------------------
  O      0.095690    1.354511    0.110190
  C      0.066063    0.000459    0.020591
  C      0.075148   -0.705530   -1.176501
  C      0.041711   -2.100319   -1.131732
  C      0.050148   -2.886744   -2.386292
  O      0.023304   -4.092533   -2.443705
  C      0.000428   -2.731245    0.115442
  N     -0.008507   -2.060068    1.267071
  C      0.023561   -0.729495    1.216159
  H      0.123472    1.738988   -0.772603
  H      0.107600   -0.188442   -2.133765
  H      0.084302   -2.267362   -3.312235
  H     -0.025863   -3.814977    0.164534
  H      0.016030   -0.189280    2.159497

 Total Charge           Charge          ....    0
 Multiplicity           Mult            ....    1
 Number of Electrons    NEL             ....   64
 Basis Dimension        Dim             ....  309

ORBITAL ENERGIES
----------------

  NO   OCC          E(Eh)            E(eV)
   0   2.0000     -20.613977      -560.9348
   1   2.0000     -20.565368      -559.6121
   2   2.0000     -15.585776      -424.1105
   3   2.0000     -11.347678      -308.7860
   4   2.0000     -11.327115      -308.2265
   5   2.0000     -11.291397      -307.2545
   6   2.0000     -11.286508      -307.1215
   7   2.0000     -11.282142      -307.0027
   8   2.0000     -11.266223      -306.5695
   9   2.0000      -1.434183       -39.0261
  10   2.0000      -1.404357       -38.2145
  11   2.0000      -1.276743       -34.7419
  12   2.0000      -1.118664       -30.4404
  13   2.0000      -1.052440       -28.6383
  14   2.0000      -0.923338       -25.1253
  15   2.0000      -0.896938       -24.4069
  16   2.0000      -0.819430       -22.2978
  17   2.0000      -0.747081       -20.3291
  18   2.0000      -0.733074       -19.9480
  19   2.0000      -0.710497       -19.3336
  20   2.0000      -0.662397       -18.0247
  21   2.0000      -0.648169       -17.6376
  22   2.0000      -0.624712       -16.9993
  23   2.0000      -0.609479       -16.5848
  24   2.0000      -0.598407       -16.2835
  25   2.0000      -0.566015       -15.4020
  26   2.0000      -0.553380       -15.0582
  27   2.0000      -0.524032       -14.2596
  28   2.0000      -0.459517       -12.5041
  29   2.0000      -0.424453       -11.5499
  30   2.0000      -0.402980       -10.9657
  31   2.0000      -0.342747        -9.3266
  32   0.0000       0.053689         1.4610
  33   0.0000       0.097565         2.6549
  34   0.0000       0.114671         3.1203
  35   0.0000       0.153283         4.1710
  36   0.0000       0.175932         4.7873

MULLIKEN ATOMIC CHARGES
-----------------------
   0 O :   -0.410088
   1 C :    0.249242
   2 C :   -0.240036
   3 C :    0.088333
   4 C :    0.090210
   5 O :   -0.261692
   6 C :   -0.081222
   7 N :   -0.225181
   8 C :   -0.060652
   9 H :    0.334790
  10 H :    0.134011
  11 H :    0.077692
  12 H :    0.158981
  13 H :    0.145611
Sum of atomic charges:   -0.0000000

LOEWDIN ATOMIC CHARGES
----------------------
   0 O :    0.086986
   1 C :   -0.273732
   2 C :   -0.098099
   3 C :   -0.167793
   4 C :   -0.260148
   5 O :    0.143964
   6 C :   -0.164373
   7 N :    0.146465
   8 C :   -0.173897
   9 H :    0.194980
  10 H :    0.151585
  11 H :    0.116613
  12 H :    0.150105
  13 H :    0.147344

  Mayer bond orders larger than 0.1
B(  0-O ,  1-C ) :   1.1252 B(  0-O ,  9-H ) :   0.8287 B(  1-C ,  2-C ) :   1.3280
B(  1-C ,  8-C ) :   1.2542 B(  2-C ,  3-C ) :   1.3107 B(  2-C , 10-H ) :   0.8860
B(  3-C ,  4-C ) :   0.8397 B(  3-C ,  6-C ) :   1.2905 B(  4-C ,  5-O ) :   1.9799
B(  4-C , 11-H ) :   0.9640 B(  6-C ,  7-N ) :   1.3863 B(  6-C , 12-H ) :   0.9235
B(  7-N ,  8-C ) :   1.4021 B(  8-C , 13-H ) :   0.9417

MP2 TOTAL ENERGY:     -436.016821844 Eh
FINAL SINGLE POINT ENERGY      -436.016821844402

DIPOLE MOMENT
-------------
                                X             Y             Z
Electronic contribution:     -0.03625      -1.17597       0.41621
Nuclear contribution   :      0.08951       2.71112      -1.23769
                        -----------------------------------------
Total Dipole Moment    :      0.05326       1.53515      -0.82148
                        -----------------------------------------
Magnitude (a.u.)       :      1.74194
Magnitude (Debye)      :      4.42765

                             ****ORCA TERMINATED NORMALLY****
TOTAL RUN TIME: 0 days 0 hours 13 minutes 36 seconds 894 msec
