                         Program Version 3.0.3 - RELEASE   -
|  1> ! RI-MP2 RIJK def2-TZVP def2-TZVP/C def2-TZVP/JK TIGHTSCF
|  2> % maxcore 2000
|  3> % mp2 density relaxed end
|  4> *xyz 0 1
|  5>  C        0.0859050929     1.2251317908    -0.3527102234
|  6>  O       -0.0869988106    -0.0022855796     0.3271903948
|  7>  C       -1.3558083899    -0.5860880898     0.1745691634
|  8>  C       -2.4622840537     0.1033458189     0.9446838323
|  9>  C       -1.6538663248    -1.2550213307    -1.1464677057
| 10>  C       -1.3485589387    -2.0883704314     0.0853406112
| 11>  C       -0.0640517743    -2.8695886230     0.1562969806
| 12>  O       -0.2341060307    -4.0639256419    -0.6018580355
| 13>  H        1.1337846173     1.5095246581    -0.2293105235
| 14>  H       -0.1360639901     1.1301947874    -1.4250073480
| 15>  H       -0.5432787727     2.0247502058     0.0622763547
| 16>  H       -2.6449028200     1.1172862442     0.5728014223
| 17>  H       -3.3989171469    -0.4534834397     0.8536803363
| 18>  H       -2.2027382884     0.1709334079     2.0063505131
| 19>  H       -2.6677696204    -1.2366007900    -1.5313301009
| 20>  H       -0.8808442623    -1.2190638916    -1.9069756208
| 21>  H       -2.1942466168    -2.5908586038     0.5471131097
| 22>  H        0.7601405733    -2.2568851728    -0.2311509832
| 23>  H        0.1678371311    -3.1027779416     1.2079488831
| 24>  H        0.5736753457    -4.5797366770    -0.5208470603
| 25> *
| 26>
| 27>                          ****END OF INPUT****

CARTESIAN COORDINATES (ANGSTROEM)
---------------------------------
  C      0.085905    1.225132   -0.352710
  O     -0.086999   -0.002286    0.327190
  C     -1.355808   -0.586088    0.174569
  C     -2.462284    0.103346    0.944684
  C     -1.653866   -1.255021   -1.146468
  C     -1.348559   -2.088370    0.085341
  C     -0.064052   -2.869589    0.156297
  O     -0.234106   -4.063926   -0.601858
  H      1.133785    1.509525   -0.229311
  H     -0.136064    1.130195   -1.425007
  H     -0.543279    2.024750    0.062276
  H     -2.644903    1.117286    0.572801
  H     -3.398917   -0.453483    0.853680
  H     -2.202738    0.170933    2.006351
  H     -2.667770   -1.236601   -1.531330
  H     -0.880844   -1.219064   -1.906976
  H     -2.194247   -2.590859    0.547113
  H      0.760141   -2.256885   -0.231151
  H      0.167837   -3.102778    1.207949
  H      0.573675   -4.579737   -0.520847

 Total Charge           Charge          ....    0
 Multiplicity           Mult            ....    1
 Number of Electrons    NEL             ....   64
 Basis Dimension        Dim             ....  320

ORBITAL ENERGIES
----------------

  NO   OCC          E(Eh)            E(eV)
   0   2.0000     -20.556974      -559.3837
   1   2.0000     -20.547278      -559.1199
   2   2.0000     -11.285251      -307.0873
   3   2.0000     -11.269874      -306.6689
   4   2.0000     -11.268501      -306.6315
   5   2.0000     -11.223280      -305.4010
   6   2.0000     -11.218852      -305.2805
   7   2.0000     -11.218683      -305.2759
   8   2.0000      -1.380320       -37.5604
   9   2.0000      -1.350003       -36.7354
  10   2.0000      -1.138261       -30.9737
  11   2.0000      -0.981113       -26.6974
  12   2.0000      -0.931108       -25.3367
  13   2.0000      -0.925670       -25.1888
  14   2.0000      -0.791908       -21.5489
  15   2.0000      -0.755540       -20.5593
  16   2.0000      -0.693512       -18.8714
  17   2.0000      -0.668244       -18.1838
  18   2.0000      -0.650788       -17.7089
  19   2.0000      -0.633043       -17.2260
  20   2.0000      -0.613745       -16.7008
  21   2.0000      -0.587647       -15.9907
  22   2.0000      -0.565637       -15.3918
  23   2.0000      -0.562339       -15.3020
  24   2.0000      -0.546696       -14.8764
  25   2.0000      -0.531553       -14.4643
  26   2.0000      -0.494126       -13.4459
  27   2.0000      -0.484606       -13.1868
  28   2.0000      -0.452225       -12.3057
  29   2.0000      -0.444634       -12.0991
  30   2.0000      -0.397495       -10.8164
  31   2.0000      -0.387390       -10.5414
  32   0.0000       0.136794         3.7223
  33   0.0000       0.149780         4.0757
  34   0.0000       0.160565         4.3692
  35   0.0000       0.183942         5.0053
  36   0.0000       0.192120         5.2278

MULLIKEN ATOMIC CHARGES
-----------------------
   0 C :   -0.216442
   1 O :   -0.322949
   2 C :    0.231050
   3 C :   -0.423246
   4 C :   -0.308342
   5 C :   -0.067302
   6 C :   -0.108343
   7 O :   -0.461769
   8 H :    0.139044
   9 H :    0.116025
  10 H :    0.115516
  11 H :    0.129503
  12 H :    0.130938
  13 H :    0.138482
  14 H :    0.129572
  15 H :    0.136081
  16 H :    0.118509
  17 H :    0.112430
  18 H :    0.099178
  19 H :    0.312067
Sum of atomic charges:   -0.0000000

LOEWDIN ATOMIC CHARGES
----------------------
   0 C :   -0.347419
   1 O :    0.185879
   2 C :   -0.350339
   3 C :   -0.269450
   4 C :   -0.190114
   5 C :   -0.191314
   6 C :   -0.327732
   7 O :   -0.053755
   8 H :    0.112992
   9 H :    0.103745
  10 H :    0.102402
  11 H :    0.124352
  12 H :    0.131780
  13 H :    0.129976
  14 H :    0.133423
  15 H :    0.141624
  16 H :    0.151833
  17 H :    0.122841
  18 H :    0.119562
  19 H :    0.169716

  Mayer bond orders larger than 0.1
B(  0-C ,  1-O ) :   0.9009 B(  0-C ,  8-H ) :   0.9398 B(  0-C ,  9-H ) :   0.9343
B(  0-C , 10-H ) :   0.9359 B(  1-O ,  2-C ) :   0.9283 B(  2-C ,  3-C ) :   0.9043
B(  2-C ,  4-C ) :   0.9119 B(  2-C ,  5-C ) :   0.8570 B(  3-C , 11-H ) :   0.9339
B(  3-C , 12-H ) :   0.9303 B(  3-C , 13-H ) :   0.9399 B(  4-C ,  5-C ) :   0.8703
B(  4-C , 14-H ) :   0.9183 B(  4-C , 15-H ) :   0.9161 B(  5-C ,  6-C ) :   0.9272
B(  5-C , 16-H ) :   0.9253 B(  6-C ,  7-O ) :   1.0256 B(  6-C , 17-H ) :   0.9175
B(  6-C , 18-H ) :   0.9351 B(  7-O , 19-H ) :   0.8499

MP2 TOTAL ENERGY:     -385.477393210 Eh
FINAL SINGLE POINT ENERGY      -385.477393210435

DIPOLE MOMENT
-------------
                                X             Y             Z
Electronic contribution:      1.86794      -4.25439      -0.02199
Nuclear contribution   :     -1.68115       4.67557       0.08489
                        -----------------------------------------
Total Dipole Moment    :      0.18678       0.42118       0.06290
                        -----------------------------------------
Magnitude (a.u.)       :      0.46501
Magnitude (Debye)      :      1.18196

                             ****ORCA TERMINATED NORMALLY****
TOTAL RUN TIME: 0 days 0 hours 12 minutes 26 seconds 752 msec
