                         Program Version 3.0.3 - RELEASE   -
|  1> ! RI-MP2 RIJK def2-TZVP def2-TZVP/C def2-TZVP/JK TIGHTSCF
|  2> % maxcore 2000
|  3> % mp2 density relaxed end
|  4> *xyz 0 1
|  5>  C       -0.0191079141     1.5448704237     0.1200215133
|  6>  C       -0.0098067397     0.0563113593     0.0036019257
|  7>  C        0.0086756107    -0.7508205608    -1.1167563192
|  8>  N        0.0244690374    -0.4392923523    -2.4726638691
|  9>  C        0.0418536495    -1.3574817126    -3.4852684262
| 10>  O        0.0457807579    -2.5608443273    -3.3229884830
| 11>  N        0.0093007043    -2.0149936104    -0.6378538173
| 12>  N       -0.0086968767    -2.0143502011     0.7099608705
| 13>  N       -0.0194271077    -0.7691850149     1.0901943662
| 14>  H        0.8663192642     2.0033340944    -0.3365223961
| 15>  H       -0.9044761591     1.9931804441    -0.3466352699
| 16>  H       -0.0267497857     1.8146090003     1.1779894103
| 17>  H        0.0227382986     0.5397037933    -2.7145324965
| 18>  H        0.0522406819    -0.8771470707    -4.4786627893
| 19>  H        0.0207518586    -2.8596520652    -1.1919165293
| 20> *
| 21>
| 22>                          ****END OF INPUT****

CARTESIAN COORDINATES (ANGSTROEM)
---------------------------------
  C     -0.019108    1.544870    0.120022
  C     -0.009807    0.056311    0.003602
  C      0.008676   -0.750821   -1.116756
  N      0.024469   -0.439292   -2.472664
  C      0.041854   -1.357482   -3.485268
  O      0.045781   -2.560844   -3.322988
  N      0.009301   -2.014994   -0.637854
  N     -0.008697   -2.014350    0.709961
  N     -0.019427   -0.769185    1.090194
  H      0.866319    2.003334   -0.336522
  H     -0.904476    1.993180   -0.346635
  H     -0.026750    1.814609    1.177989
  H      0.022738    0.539704   -2.714532
  H      0.052241   -0.877147   -4.478663
  H      0.020752   -2.859652   -1.191917

 Total Charge           Charge          ....    0
 Multiplicity           Mult            ....    1
 Number of Electrons    NEL             ....   66
 Basis Dimension        Dim             ....  315

ORBITAL ENERGIES
----------------

  NO   OCC          E(Eh)            E(eV)
   0   2.0000     -20.566741      -559.6495
   1   2.0000     -15.649431      -425.8427
   2   2.0000     -15.646405      -425.7603
   3   2.0000     -15.631506      -425.3549
   4   2.0000     -15.594070      -424.3362
   5   2.0000     -11.393184      -310.0243
   6   2.0000     -11.331335      -308.3413
   7   2.0000     -11.259692      -306.3918
   8   2.0000     -11.240722      -305.8756
   9   2.0000      -1.440240       -39.1909
  10   2.0000      -1.422309       -38.7030
  11   2.0000      -1.293724       -35.2040
  12   2.0000      -1.194589       -32.5064
  13   2.0000      -1.095226       -29.8026
  14   2.0000      -0.976331       -26.5673
  15   2.0000      -0.915639       -24.9158
  16   2.0000      -0.860643       -23.4193
  17   2.0000      -0.826241       -22.4832
  18   2.0000      -0.756322       -20.5806
  19   2.0000      -0.738384       -20.0924
  20   2.0000      -0.685062       -18.6415
  21   2.0000      -0.666662       -18.1408
  22   2.0000      -0.649041       -17.6613
  23   2.0000      -0.607494       -16.5308
  24   2.0000      -0.591394       -16.0926
  25   2.0000      -0.577791       -15.7225
  26   2.0000      -0.555429       -15.1140
  27   2.0000      -0.508541       -13.8381
  28   2.0000      -0.493223       -13.4213
  29   2.0000      -0.476869       -12.9763
  30   2.0000      -0.436008       -11.8644
  31   2.0000      -0.409947       -11.1552
  32   2.0000      -0.327577        -8.9138
  33   0.0000       0.100998         2.7483
  34   0.0000       0.112920         3.0727
  35   0.0000       0.148050         4.0287
  36   0.0000       0.170095         4.6285
  37   0.0000       0.176545         4.8040

MULLIKEN ATOMIC CHARGES
-----------------------
   0 C :   -0.483633
   1 C :    0.002384
   2 C :    0.211166
   3 N :   -0.326927
   4 C :    0.223078
   5 O :   -0.379128
   6 N :   -0.074747
   7 N :   -0.161927
   8 N :   -0.137840
   9 H :    0.144399
  10 H :    0.144918
  11 H :    0.173389
  12 H :    0.263353
  13 H :    0.108039
  14 H :    0.293476
Sum of atomic charges:   -0.0000000

LOEWDIN ATOMIC CHARGES
----------------------
   0 C :   -0.280350
   1 C :   -0.292789
   2 C :   -0.283623
   3 N :    0.142920
   4 C :   -0.401585
   5 O :    0.068020
   6 N :    0.144842
   7 N :   -0.048713
   8 N :    0.021499
   9 H :    0.129874
  10 H :    0.130006
  11 H :    0.145651
  12 H :    0.205840
  13 H :    0.120448
  14 H :    0.197960

  Mayer bond orders larger than 0.1
B(  0-C ,  1-C ) :   0.8669 B(  0-C ,  9-H ) :   0.9351 B(  0-C , 10-H ) :   0.9348
B(  0-C , 11-H ) :   0.9464 B(  1-C ,  2-C ) :   1.3694 B(  1-C ,  8-N ) :   1.4365
B(  2-C ,  3-N ) :   0.9614 B(  2-C ,  6-N ) :   1.2104 B(  2-C ,  7-N ) :   0.1094
B(  3-N ,  4-C ) :   1.1150 B(  3-N , 12-H ) :   0.8651 B(  4-C ,  5-O ) :   1.8296
B(  4-C , 13-H ) :   0.9303 B(  6-N ,  7-N ) :   1.0228 B(  6-N , 14-H ) :   0.8287
B(  7-N ,  8-N ) :   1.2781

MP2 TOTAL ENERGY:     -449.420437917 Eh
FINAL SINGLE POINT ENERGY      -449.420437916577

DIPOLE MOMENT
-------------
                                X             Y             Z
Electronic contribution:      0.03472      -6.14975      -0.27045
Nuclear contribution   :     -0.01989       7.67754      -1.47205
                        -----------------------------------------
Total Dipole Moment    :      0.01483       1.52779      -1.74250
                        -----------------------------------------
Magnitude (a.u.)       :      2.31747
Magnitude (Debye)      :      5.89055

                             ****ORCA TERMINATED NORMALLY****
TOTAL RUN TIME: 0 days 0 hours 14 minutes 36 seconds 760 msec
