                         Program Version 3.0.3 - RELEASE   -
|  1> ! RI-MP2 RIJK def2-TZVP def2-TZVP/C def2-TZVP/JK TIGHTSCF
|  2> % maxcore 2000
|  3> % mp2 density relaxed end
|  4> *xyz 0 1
|  5>  O        0.0275571591     1.4536751876     0.0083630574
|  6>  C       -0.0188043622     0.0572669205    -0.0660327452
|  7>  C       -1.4060632600    -0.5463275257    -0.0172934534
|  8>  C       -2.0416404721    -0.5340606723    -1.3924667244
|  9>  O       -1.6230078731     0.4028792150    -2.3689502870
| 10>  C       -0.2660594610     0.2875216985    -2.5231372361
| 11>  O        0.3563439801     0.9197229785    -3.3230975960
| 12>  C        0.2234821774    -0.6751050287    -1.4543208814
| 13>  C       -0.9994246795    -1.5543447139    -1.1127104415
| 14>  H        0.9446125973     1.7433248087    -0.0484409874
| 15>  H        0.6246966998    -0.4190879651     0.6845386976
| 16>  H       -2.0013990019    -0.6977147943     0.8748273559
| 17>  H       -3.0895443660    -0.7839595345    -1.4832890858
| 18>  H        1.2051461709    -1.0972793307    -1.6461810476
| 19>  H       -1.0902368787    -2.6297520636    -1.1662162952
| 20> *
| 21>
| 22>                          ****END OF INPUT****

CARTESIAN COORDINATES (ANGSTROEM)
---------------------------------
  O      0.027557    1.453675    0.008363
  C     -0.018804    0.057267   -0.066033
  C     -1.406063   -0.546328   -0.017293
  C     -2.041640   -0.534061   -1.392467
  O     -1.623008    0.402879   -2.368950
  C     -0.266059    0.287522   -2.523137
  O      0.356344    0.919723   -3.323098
  C      0.223482   -0.675105   -1.454321
  C     -0.999425   -1.554345   -1.112710
  H      0.944613    1.743325   -0.048441
  H      0.624697   -0.419088    0.684539
  H     -2.001399   -0.697715    0.874827
  H     -3.089544   -0.783960   -1.483289
  H      1.205146   -1.097279   -1.646181
  H     -1.090237   -2.629752   -1.166216

 Total Charge           Charge          ....    0
 Multiplicity           Mult            ....    1
 Number of Electrons    NEL             ....   66
 Basis Dimension        Dim             ....  315

ORBITAL ENERGIES
----------------

  NO   OCC          E(Eh)            E(eV)
   0   2.0000     -20.602250      -560.6157
   1   2.0000     -20.576063      -559.9031
   2   2.0000     -20.542729      -558.9961
   3   2.0000     -11.378447      -309.6233
   4   2.0000     -11.320460      -308.0454
   5   2.0000     -11.315120      -307.9001
   6   2.0000     -11.269387      -306.6556
   7   2.0000     -11.267627      -306.6077
   8   2.0000     -11.262879      -306.4785
   9   2.0000      -1.463743       -39.8305
  10   2.0000      -1.388277       -37.7769
  11   2.0000      -1.372332       -37.3430
  12   2.0000      -1.213128       -33.0109
  13   2.0000      -1.026429       -27.9306
  14   2.0000      -0.941470       -25.6187
  15   2.0000      -0.854141       -23.2424
  16   2.0000      -0.816378       -22.2148
  17   2.0000      -0.756320       -20.5805
  18   2.0000      -0.740214       -20.1422
  19   2.0000      -0.711304       -19.3556
  20   2.0000      -0.677671       -18.4404
  21   2.0000      -0.652019       -17.7423
  22   2.0000      -0.643340       -17.5062
  23   2.0000      -0.612831       -16.6760
  24   2.0000      -0.594469       -16.1763
  25   2.0000      -0.566138       -15.4054
  26   2.0000      -0.540070       -14.6960
  27   2.0000      -0.521623       -14.1941
  28   2.0000      -0.493570       -13.4307
  29   2.0000      -0.462558       -12.5868
  30   2.0000      -0.450357       -12.2548
  31   2.0000      -0.421175       -11.4608
  32   2.0000      -0.407414       -11.0863
  33   0.0000       0.120615         3.2821
  34   0.0000       0.144014         3.9188
  35   0.0000       0.156554         4.2601
  36   0.0000       0.160744         4.3741
  37   0.0000       0.184344         5.0163

MULLIKEN ATOMIC CHARGES
-----------------------
   0 O :   -0.441967
   1 C :    0.026114
   2 C :   -0.136897
   3 C :    0.038911
   4 O :   -0.220703
   5 C :    0.243628
   6 O :   -0.278364
   7 C :   -0.045289
   8 C :   -0.223601
   9 H :    0.323872
  10 H :    0.112261
  11 H :    0.142035
  12 H :    0.147560
  13 H :    0.152750
  14 H :    0.159690
Sum of atomic charges:   -0.0000000

LOEWDIN ATOMIC CHARGES
----------------------
   0 O :    0.010920
   1 C :   -0.292743
   2 C :   -0.132048
   3 C :   -0.228446
   4 O :    0.287214
   5 C :   -0.435427
   6 O :    0.147204
   7 C :   -0.144263
   8 C :   -0.124788
   9 H :    0.183855
  10 H :    0.144147
  11 H :    0.141848
  12 H :    0.151069
  13 H :    0.151485
  14 H :    0.139974

  Mayer bond orders larger than 0.1
B(  0-O ,  1-C ) :   1.1281 B(  0-O ,  9-H ) :   0.8368 B(  1-C ,  2-C ) :   0.9295
B(  1-C ,  7-C ) :   0.8778 B(  1-C , 10-H ) :   0.9620 B(  2-C ,  3-C ) :   0.8483
B(  2-C ,  8-C ) :   0.7842 B(  2-C , 11-H ) :   0.9098 B(  3-C ,  4-O ) :   0.9151
B(  3-C ,  8-C ) :   0.9260 B(  3-C , 12-H ) :   0.9427 B(  4-O ,  5-C ) :   1.0851
B(  5-C ,  6-O ) :   2.0330 B(  5-C ,  7-C ) :   0.8992 B(  7-C ,  8-C ) :   0.9058
B(  7-C , 13-H ) :   0.9137 B(  8-C , 14-H ) :   0.9007

MP2 TOTAL ENERGY:     -457.031945902 Eh
FINAL SINGLE POINT ENERGY      -457.031945901552

DIPOLE MOMENT
-------------
                                X             Y             Z
Electronic contribution:     -0.11273       2.45099      -3.77027
Nuclear contribution   :      0.26806      -3.82320       5.06838
                        -----------------------------------------
Total Dipole Moment    :      0.15533      -1.37221       1.29811
                        -----------------------------------------
Magnitude (a.u.)       :      1.89530
Magnitude (Debye)      :      4.81748

                             ****ORCA TERMINATED NORMALLY****
TOTAL RUN TIME: 0 days 0 hours 15 minutes 33 seconds 474 msec
