                         Program Version 3.0.3 - RELEASE   -
|  1> ! RI-MP2 RIJK def2-TZVP def2-TZVP/C def2-TZVP/JK TIGHTSCF
|  2> % maxcore 2000
|  3> % mp2 density relaxed end
|  4> *xyz 0 1
|  5>  C        0.1317833288     1.3410127224    -0.2151955591
|  6>  O        0.1737844399    -0.0608436434    -0.1177546394
|  7>  C        0.5050554751    -0.5097102237     1.1810088460
|  8>  C        0.5300160024    -2.0152903611     1.1580459998
|  9>  N        1.8247486605    -2.6725392892     0.8984058898
| 10>  C        1.1591016313    -2.8752117132     2.2003895820
| 11>  C        1.8863286552    -2.2840030557     3.3933473175
| 12>  C        0.5201519723    -4.2237068444     2.4744288108
| 13>  H        1.1069872674     1.7980443709     0.0175763488
| 14>  H       -0.1369635740     1.5907761103    -1.2446735952
| 15>  H       -0.6192200658     1.7777679248     0.4635582607
| 16>  H        1.4846115008    -0.1141556985     1.4875847329
| 17>  H       -0.2452572010    -0.1508637023     1.9086857365
| 18>  H       -0.3475666479    -2.4325117534     0.6652713078
| 19>  H        1.6938266150    -3.4840601786     0.2991678009
| 20>  H        2.4007664996    -1.3582399652     3.1312870378
| 21>  H        1.1909824889    -2.0785924876     4.2151666313
| 22>  H        2.6395408523    -2.9889975911     3.7633256899
| 23>  H        1.2808751496    -4.9621635315     2.7547387694
| 24>  H       -0.1978565223    -4.1627111716     3.3001177425
| 25>  H       -0.0119697384    -4.6000104279     1.5948059193
| 26> *
| 27>
| 28>                          ****END OF INPUT****

CARTESIAN COORDINATES (ANGSTROEM)
---------------------------------
  C      0.131783    1.341013   -0.215196
  O      0.173784   -0.060844   -0.117755
  C      0.505055   -0.509710    1.181009
  C      0.530016   -2.015290    1.158046
  N      1.824749   -2.672539    0.898406
  C      1.159102   -2.875212    2.200390
  C      1.886329   -2.284003    3.393347
  C      0.520152   -4.223707    2.474429
  H      1.106987    1.798044    0.017576
  H     -0.136964    1.590776   -1.244674
  H     -0.619220    1.777768    0.463558
  H      1.484612   -0.114156    1.487585
  H     -0.245257   -0.150864    1.908686
  H     -0.347567   -2.432512    0.665271
  H      1.693827   -3.484060    0.299168
  H      2.400766   -1.358240    3.131287
  H      1.190982   -2.078592    4.215167
  H      2.639541   -2.988998    3.763326
  H      1.280875   -4.962164    2.754739
  H     -0.197857   -4.162711    3.300118
  H     -0.011970   -4.600010    1.594806

 Total Charge           Charge          ....    0
 Multiplicity           Mult            ....    1
 Number of Electrons    NEL             ....   64
 Basis Dimension        Dim             ....  326

ORBITAL ENERGIES
----------------

  NO   OCC          E(Eh)            E(eV)
   0   2.0000     -20.551723      -559.2408
   1   2.0000     -15.547078      -423.0575
   2   2.0000     -11.272248      -306.7335
   3   2.0000     -11.267609      -306.6072
   4   2.0000     -11.264633      -306.5263
   5   2.0000     -11.251155      -306.1595
   6   2.0000     -11.223763      -305.4141
   7   2.0000     -11.216118      -305.2061
   8   2.0000      -1.373240       -37.3677
   9   2.0000      -1.259142       -34.2630
  10   2.0000      -1.016424       -27.6583
  11   2.0000      -0.992787       -27.0151
  12   2.0000      -0.943046       -25.6616
  13   2.0000      -0.895286       -24.3620
  14   2.0000      -0.821944       -22.3662
  15   2.0000      -0.753838       -20.5130
  16   2.0000      -0.684652       -18.6303
  17   2.0000      -0.651436       -17.7265
  18   2.0000      -0.643778       -17.5181
  19   2.0000      -0.635120       -17.2825
  20   2.0000      -0.595820       -16.2131
  21   2.0000      -0.584034       -15.8924
  22   2.0000      -0.559608       -15.2277
  23   2.0000      -0.546071       -14.8593
  24   2.0000      -0.541752       -14.7418
  25   2.0000      -0.523136       -14.2352
  26   2.0000      -0.492909       -13.4127
  27   2.0000      -0.472871       -12.8675
  28   2.0000      -0.451228       -12.2785
  29   2.0000      -0.446987       -12.1631
  30   2.0000      -0.418798       -11.3961
  31   2.0000      -0.379416       -10.3244
  32   0.0000       0.131703         3.5838
  33   0.0000       0.151506         4.1227
  34   0.0000       0.168262         4.5786
  35   0.0000       0.189349         5.1525
  36   0.0000       0.193045         5.2530

MULLIKEN ATOMIC CHARGES
-----------------------
   0 C :   -0.218481
   1 O :   -0.297444
   2 C :   -0.069264
   3 C :   -0.044115
   4 N :   -0.394718
   5 C :    0.140671
   6 C :   -0.395376
   7 C :   -0.380509
   8 H :    0.112247
   9 H :    0.138507
  10 H :    0.107247
  11 H :    0.102307
  12 H :    0.087183
  13 H :    0.119945
  14 H :    0.213839
  15 H :    0.134847
  16 H :    0.124736
  17 H :    0.127972
  18 H :    0.135066
  19 H :    0.130485
  20 H :    0.124853
Sum of atomic charges:    0.0000000

LOEWDIN ATOMIC CHARGES
----------------------
   0 C :   -0.364007
   1 O :    0.136528
   2 C :   -0.310494
   3 C :   -0.244757
   4 N :    0.024717
   5 C :   -0.334897
   6 C :   -0.267441
   7 C :   -0.276145
   8 H :    0.101516
   9 H :    0.113191
  10 H :    0.099817
  11 H :    0.125730
  12 H :    0.121407
  13 H :    0.143619
  14 H :    0.164971
  15 H :    0.128010
  16 H :    0.126498
  17 H :    0.128673
  18 H :    0.127487
  19 H :    0.129599
  20 H :    0.125980

  Mayer bond orders larger than 0.1
B(  0-C ,  1-O ) :   0.9237 B(  0-C ,  8-H ) :   0.9369 B(  0-C ,  9-H ) :   0.9399
B(  0-C , 10-H ) :   0.9362 B(  1-O ,  2-C ) :   0.9544 B(  2-C ,  3-C ) :   0.9116
B(  2-C , 11-H ) :   0.9290 B(  2-C , 12-H ) :   0.9211 B(  3-C ,  4-N ) :   0.9345
B(  3-C ,  5-C ) :   0.8871 B(  3-C , 13-H ) :   0.9283 B(  4-N ,  5-C ) :   0.9045
B(  4-N , 14-H ) :   0.8708 B(  5-C ,  6-C ) :   0.9027 B(  5-C ,  7-C ) :   0.9229
B(  6-C , 15-H ) :   0.9387 B(  6-C , 16-H ) :   0.9378 B(  6-C , 17-H ) :   0.9340
B(  7-C , 18-H ) :   0.9384 B(  7-C , 19-H ) :   0.9272 B(  7-C , 20-H ) :   0.9280

MP2 TOTAL ENERGY:     -365.611273108 Eh
FINAL SINGLE POINT ENERGY      -365.611273107594

DIPOLE MOMENT
-------------
                                X             Y             Z
Electronic contribution:      0.08400       0.01062      -3.97530
Nuclear contribution   :     -0.51137      -0.07378       4.46783
                        -----------------------------------------
Total Dipole Moment    :     -0.42737      -0.06316       0.49253
                        -----------------------------------------
Magnitude (a.u.)       :      0.65515
Magnitude (Debye)      :      1.66525

                             ****ORCA TERMINATED NORMALLY****
TOTAL RUN TIME: 0 days 0 hours 12 minutes 11 seconds 679 msec
