                         Program Version 3.0.3 - RELEASE   -
|  1> ! RI-MP2 RIJK def2-TZVP def2-TZVP/C def2-TZVP/JK TIGHTSCF
|  2> % maxcore 2000
|  3> % mp2 density relaxed end
|  4> *xyz 0 1
|  5>  N       -0.0524087310     1.4797205391     0.0001612159
|  6>  C        1.2790175671     0.8240605596    -0.0019991890
|  7>  C        2.1431999435     0.8031474652     1.1948682648
|  8>  C        1.8250221447     0.1643328313     2.3299313874
|  9>  C        0.5683371618    -0.5955951399     2.4723799322
| 10>  O       -0.6858145827     0.1316427460     2.4127975238
| 11>  C       -0.3397308017    -0.6941606724     1.3042184515
| 12>  C        0.0072603015     0.0213927419     0.0284498906
| 13>  H       -0.2669855823     1.7928384243     0.9477854451
| 14>  H        1.7963240319     0.9446901168    -0.9501841819
| 15>  H        3.0958857375     1.3200647750     1.1188434094
| 16>  H        2.5109481287     0.1652229283     3.1711014322
| 17>  H        0.5558085865    -1.3881065185     3.2180392547
| 18>  H       -0.9526351198    -1.5873130929     1.1940862390
| 19>  H       -0.3239187557    -0.4706038240    -0.8819411757
| 20> *
| 21>
| 22>                          ****END OF INPUT****

CARTESIAN COORDINATES (ANGSTROEM)
---------------------------------
  N     -0.052409    1.479721    0.000161
  C      1.279018    0.824061   -0.001999
  C      2.143200    0.803147    1.194868
  C      1.825022    0.164333    2.329931
  C      0.568337   -0.595595    2.472380
  O     -0.685815    0.131643    2.412798
  C     -0.339731   -0.694161    1.304218
  C      0.007260    0.021393    0.028450
  H     -0.266986    1.792838    0.947785
  H      1.796324    0.944690   -0.950184
  H      3.095886    1.320065    1.118843
  H      2.510948    0.165223    3.171101
  H      0.555809   -1.388107    3.218039
  H     -0.952635   -1.587313    1.194086
  H     -0.323919   -0.470604   -0.881941

 Total Charge           Charge          ....    0
 Multiplicity           Mult            ....    1
 Number of Electrons    NEL             ....   58
 Basis Dimension        Dim             ....  290

ORBITAL ENERGIES
----------------

  NO   OCC          E(Eh)            E(eV)
   0   2.0000     -20.577722      -559.9483
   1   2.0000     -15.561763      -423.4571
   2   2.0000     -11.298901      -307.4587
   3   2.0000     -11.298109      -307.4372
   4   2.0000     -11.270113      -306.6754
   5   2.0000     -11.269340      -306.6543
   6   2.0000     -11.250607      -306.1446
   7   2.0000     -11.243533      -305.9521
   8   2.0000      -1.420424       -38.6517
   9   2.0000      -1.269259       -34.5383
  10   2.0000      -1.084568       -29.5126
  11   2.0000      -0.971957       -26.4483
  12   2.0000      -0.936473       -25.4827
  13   2.0000      -0.865429       -23.5495
  14   2.0000      -0.827808       -22.5258
  15   2.0000      -0.740859       -20.1598
  16   2.0000      -0.701743       -19.0954
  17   2.0000      -0.688405       -18.7324
  18   2.0000      -0.647905       -17.6304
  19   2.0000      -0.621841       -16.9212
  20   2.0000      -0.568285       -15.4638
  21   2.0000      -0.564304       -15.3555
  22   2.0000      -0.541466       -14.7340
  23   2.0000      -0.497487       -13.5373
  24   2.0000      -0.492239       -13.3945
  25   2.0000      -0.464167       -12.6306
  26   2.0000      -0.450519       -12.2593
  27   2.0000      -0.391699       -10.6587
  28   2.0000      -0.355628        -9.6771
  29   0.0000       0.117181         3.1887
  30   0.0000       0.146694         3.9917
  31   0.0000       0.166940         4.5427
  32   0.0000       0.170756         4.6465
  33   0.0000       0.181777         4.9464

MULLIKEN ATOMIC CHARGES
-----------------------
   0 N :   -0.356247
   1 C :   -0.018427
   2 C :   -0.180729
   3 C :   -0.183807
   4 C :    0.071394
   5 O :   -0.331619
   6 C :   -0.005325
   7 C :   -0.011156
   8 H :    0.239172
   9 H :    0.122489
  10 H :    0.132647
  11 H :    0.134394
  12 H :    0.121149
  13 H :    0.137237
  14 H :    0.128829
Sum of atomic charges:    0.0000000

LOEWDIN ATOMIC CHARGES
----------------------
   0 N :    0.032062
   1 C :   -0.232997
   2 C :   -0.137216
   3 C :   -0.150623
   4 C :   -0.240144
   5 O :    0.165004
   6 C :   -0.248485
   7 C :   -0.235816
   8 H :    0.173011
   9 H :    0.146329
  10 H :    0.149670
  11 H :    0.147866
  12 H :    0.141777
  13 H :    0.142866
  14 H :    0.146697

  Mayer bond orders larger than 0.1
B(  0-N ,  1-C ) :   0.9003 B(  0-N ,  7-C ) :   0.9347 B(  0-N ,  8-H ) :   0.8623
B(  1-C ,  2-C ) :   0.9564 B(  1-C ,  7-C ) :   0.9168 B(  1-C ,  9-H ) :   0.9352
B(  2-C ,  3-C ) :   1.7051 B(  2-C , 10-H ) :   0.9266 B(  3-C ,  4-C ) :   0.9349
B(  3-C , 11-H ) :   0.9262 B(  4-C ,  5-O ) :   0.8599 B(  4-C ,  6-C ) :   0.9449
B(  4-C , 12-H ) :   0.9415 B(  5-O ,  6-C ) :   0.8941 B(  6-C ,  7-C ) :   0.9910
B(  6-C , 13-H ) :   0.9104 B(  7-C , 14-H ) :   0.9140

MP2 TOTAL ENERGY:     -362.001198945 Eh
FINAL SINGLE POINT ENERGY      -362.001198945340

DIPOLE MOMENT
-------------
                                X             Y             Z
Electronic contribution:     -1.65336       0.30635       0.86655
Nuclear contribution   :      2.34916      -1.06602      -0.74900
                        -----------------------------------------
Total Dipole Moment    :      0.69580      -0.75967       0.11755
                        -----------------------------------------
Magnitude (a.u.)       :      1.03685
Magnitude (Debye)      :      2.63546

                             ****ORCA TERMINATED NORMALLY****
TOTAL RUN TIME: 0 days 0 hours 11 minutes 32 seconds 833 msec
