                         Program Version 3.0.3 - RELEASE   -
|  1> ! RI-MP2 RIJK def2-TZVP def2-TZVP/C def2-TZVP/JK TIGHTSCF
|  2> % maxcore 2000
|  3> % mp2 density relaxed end
|  4> *xyz 0 1
|  5>  O        0.6332650517     0.5993223934    -1.0300386456
|  6>  C        0.0995214204    -0.3161273997    -0.1082164784
|  7>  C        0.1761677149    -0.0107931456     1.4084698526
|  8>  C       -1.2695559749    -0.5661501364     1.5776723603
|  9>  C       -2.2882717667     0.3851260653     2.1966424442
| 10>  C       -2.6008303955     1.3943652452     1.0844817777
| 11>  O       -3.0061415158     2.5165544764     1.2393344556
| 12>  C       -2.3037137009     0.7313974703    -0.2705856923
| 13>  C       -1.4468590132    -0.5088089226     0.0106038335
| 14>  H        0.4197948950     1.4909130319    -0.7363983438
| 15>  H        0.5719883601    -1.2741816179    -0.3433637119
| 16>  H        0.9769608358    -0.4867954036     1.9785463216
| 17>  H        0.2199283462     1.0686654768     1.6021615814
| 18>  H       -1.2945149647    -1.5702984707     2.0015380580
| 19>  H       -3.2246841587    -0.1367438308     2.4385822529
| 20>  H       -1.9549745899     0.8952189713     3.1040626464
| 21>  H       -3.2654967161     0.4638809058    -0.7234441014
| 22>  H       -1.8411315654     1.4495743120    -0.9545888158
| 23>  H       -1.8368563824    -1.3996356112    -0.4840499150
| 24> *
| 25>
| 26>                          ****END OF INPUT****

CARTESIAN COORDINATES (ANGSTROEM)
---------------------------------
  O      0.633265    0.599322   -1.030039
  C      0.099521   -0.316127   -0.108216
  C      0.176168   -0.010793    1.408470
  C     -1.269556   -0.566150    1.577672
  C     -2.288272    0.385126    2.196642
  C     -2.600830    1.394365    1.084482
  O     -3.006142    2.516554    1.239334
  C     -2.303714    0.731397   -0.270586
  C     -1.446859   -0.508809    0.010604
  H      0.419795    1.490913   -0.736398
  H      0.571988   -1.274182   -0.343364
  H      0.976961   -0.486795    1.978546
  H      0.219928    1.068665    1.602162
  H     -1.294515   -1.570298    2.001538
  H     -3.224684   -0.136744    2.438582
  H     -1.954975    0.895219    3.104063
  H     -3.265497    0.463881   -0.723444
  H     -1.841132    1.449574   -0.954589
  H     -1.836856   -1.399636   -0.484050

 Total Charge           Charge          ....    0
 Multiplicity           Mult            ....    1
 Number of Electrons    NEL             ....   68
 Basis Dimension        Dim             ....  339

ORBITAL ENERGIES
----------------

  NO   OCC          E(Eh)            E(eV)
   0   2.0000     -20.565640      -559.6195
   1   2.0000     -20.548954      -559.1655
   2   2.0000     -11.332796      -308.3811
   3   2.0000     -11.289677      -307.2077
   4   2.0000     -11.247270      -306.0538
   5   2.0000     -11.241104      -305.8860
   6   2.0000     -11.240678      -305.8744
   7   2.0000     -11.240495      -305.8694
   8   2.0000     -11.235895      -305.7442
   9   2.0000      -1.393463       -37.9180
  10   2.0000      -1.373985       -37.3880
  11   2.0000      -1.165329       -31.7102
  12   2.0000      -1.034314       -28.1451
  13   2.0000      -1.002552       -27.2808
  14   2.0000      -0.888032       -24.1646
  15   2.0000      -0.866984       -23.5918
  16   2.0000      -0.764192       -20.7947
  17   2.0000      -0.745425       -20.2841
  18   2.0000      -0.695550       -18.9269
  19   2.0000      -0.679134       -18.4802
  20   2.0000      -0.652767       -17.7627
  21   2.0000      -0.623748       -16.9730
  22   2.0000      -0.608160       -16.5489
  23   2.0000      -0.592710       -16.1285
  24   2.0000      -0.586102       -15.9486
  25   2.0000      -0.562071       -15.2947
  26   2.0000      -0.550245       -14.9729
  27   2.0000      -0.534948       -14.5567
  28   2.0000      -0.495856       -13.4929
  29   2.0000      -0.493407       -13.4263
  30   2.0000      -0.456209       -12.4141
  31   2.0000      -0.439443       -11.9579
  32   2.0000      -0.422533       -11.4977
  33   2.0000      -0.400726       -10.9043
  34   0.0000       0.113564         3.0902
  35   0.0000       0.133167         3.6237
  36   0.0000       0.149413         4.0657
  37   0.0000       0.156283         4.2527
  38   0.0000       0.161994         4.4081

MULLIKEN ATOMIC CHARGES
-----------------------
   0 O :   -0.448663
   1 C :    0.001486
   2 C :   -0.274015
   3 C :   -0.082606
   4 C :   -0.219697
   5 C :    0.108949
   6 O :   -0.259293
   7 C :   -0.301829
   8 C :   -0.003343
   9 H :    0.318065
  10 H :    0.103356
  11 H :    0.131353
  12 H :    0.123966
  13 H :    0.120615
  14 H :    0.135267
  15 H :    0.137707
  16 H :    0.145890
  17 H :    0.143514
  18 H :    0.119277
Sum of atomic charges:    0.0000000

LOEWDIN ATOMIC CHARGES
----------------------
   0 O :   -0.007893
   1 C :   -0.314394
   2 C :   -0.204153
   3 C :   -0.193725
   4 C :   -0.214359
   5 C :   -0.313373
   6 O :    0.152645
   7 C :   -0.208239
   8 C :   -0.178680
   9 H :    0.173068
  10 H :    0.144734
  11 H :    0.129347
  12 H :    0.139272
  13 H :    0.144165
  14 H :    0.156442
  15 H :    0.148744
  16 H :    0.158401
  17 H :    0.148443
  18 H :    0.139555

  Mayer bond orders larger than 0.1
B(  0-O ,  1-C ) :   0.9934 B(  0-O ,  9-H ) :   0.8363 B(  1-C ,  2-C ) :   0.9411
B(  1-C ,  8-C ) :   0.8589 B(  1-C , 10-H ) :   0.9333 B(  2-C ,  3-C ) :   0.9114
B(  2-C , 11-H ) :   0.9273 B(  2-C , 12-H ) :   0.9149 B(  3-C ,  4-C ) :   0.8898
B(  3-C ,  8-C ) :   0.8848 B(  3-C , 13-H ) :   0.9088 B(  4-C ,  5-C ) :   0.9175
B(  4-C ,  7-C ) :  -0.1281 B(  4-C , 14-H ) :   0.9035 B(  4-C , 15-H ) :   0.9078
B(  5-C ,  6-O ) :   2.0760 B(  5-C ,  7-C ) :   0.8951 B(  7-C ,  8-C ) :   0.8513
B(  7-C , 16-H ) :   0.9079 B(  7-C , 17-H ) :   0.9194 B(  8-C , 18-H ) :   0.9102

MP2 TOTAL ENERGY:     -422.340964128 Eh
FINAL SINGLE POINT ENERGY      -422.340964127814

DIPOLE MOMENT
-------------
                                X             Y             Z
Electronic contribution:     -1.68496       3.32975      -0.90398
Nuclear contribution   :      1.73870      -4.23458       1.27040
                        -----------------------------------------
Total Dipole Moment    :      0.05373      -0.90483       0.36642
                        -----------------------------------------
Magnitude (a.u.)       :      0.97768
Magnitude (Debye)      :      2.48507

                             ****ORCA TERMINATED NORMALLY****
TOTAL RUN TIME: 0 days 0 hours 18 minutes 19 seconds 213 msec
