                         Program Version 3.0.3 - RELEASE   -
|  1> ! RI-MP2 RIJK def2-TZVP def2-TZVP/C def2-TZVP/JK TIGHTSCF
|  2> % maxcore 2000
|  3> % mp2 density relaxed end
|  4> *xyz 0 1
|  5>  C        0.1129093242     1.5063692002     0.0127938726
|  6>  C       -0.1212820120     0.0082989733    -0.0950597763
|  7>  O        0.7236316830    -0.5019054813    -1.1081532707
|  8>  C        0.7225168910    -1.9173338202    -1.2539338902
|  9>  C       -0.5315292232    -2.4172240123    -1.9770525065
| 10>  C        1.9958613041    -2.2831654023    -2.0175082721
| 11>  C        3.2767744300    -1.8444330296    -1.2812485949
| 12>  C        4.4934334290    -2.1915323048    -2.0040943210
| 13>  C        5.4820485302    -2.4895395029    -2.6199746581
| 14>  H        1.1556087292     1.7161030465     0.2679361854
| 15>  H       -0.1117880051     1.9983197267    -0.9378216830
| 16>  H       -0.5288482415     1.9375426075     0.7870066798
| 17>  H        0.0991740743    -0.4874236443     0.8654668961
| 18>  H       -1.1794336561    -0.1916278053    -0.3246260272
| 19>  H        0.7648339638    -2.3775230813    -0.2503381603
| 20>  H       -0.4996304000    -3.5053307497    -2.0919147316
| 21>  H       -1.4422534591    -2.1694272938    -1.4248631926
| 22>  H       -0.5995881526    -1.9652239342    -2.9716823693
| 23>  H        2.0171133491    -3.3657436391    -2.1805551294
| 24>  H        1.9661311533    -1.8099482892    -3.0052879273
| 25>  H        3.2318910082    -0.7627511357    -1.1171384858
| 26>  H        3.3010494337    -2.3060228117    -0.2846234925
| 27>  H        6.3628999166    -2.7450321965    -3.1543849552
| 28> *
| 29>
| 30>                          ****END OF INPUT****

CARTESIAN COORDINATES (ANGSTROEM)
---------------------------------
  C      0.112909    1.506369    0.012794
  C     -0.121282    0.008299   -0.095060
  O      0.723632   -0.501905   -1.108153
  C      0.722517   -1.917334   -1.253934
  C     -0.531529   -2.417224   -1.977053
  C      1.995861   -2.283165   -2.017508
  C      3.276774   -1.844433   -1.281249
  C      4.493433   -2.191532   -2.004094
  C      5.482049   -2.489540   -2.619975
  H      1.155609    1.716103    0.267936
  H     -0.111788    1.998320   -0.937822
  H     -0.528848    1.937543    0.787007
  H      0.099174   -0.487424    0.865467
  H     -1.179434   -0.191628   -0.324626
  H      0.764834   -2.377523   -0.250338
  H     -0.499630   -3.505331   -2.091915
  H     -1.442253   -2.169427   -1.424863
  H     -0.599588   -1.965224   -2.971682
  H      2.017113   -3.365744   -2.180555
  H      1.966131   -1.809948   -3.005288
  H      3.231891   -0.762751   -1.117138
  H      3.301049   -2.306023   -0.284623
  H      6.362900   -2.745032   -3.154385

 Total Charge           Charge          ....    0
 Multiplicity           Mult            ....    1
 Number of Electrons    NEL             ....   70
 Basis Dimension        Dim             ....  363

ORBITAL ENERGIES
----------------

  NO   OCC          E(Eh)            E(eV)
   0   2.0000     -20.551974      -559.2476
   1   2.0000     -11.283050      -307.0274
   2   2.0000     -11.275964      -306.8346
   3   2.0000     -11.243724      -305.9573
   4   2.0000     -11.227061      -305.5039
   5   2.0000     -11.226511      -305.4889
   6   2.0000     -11.217860      -305.2535
   7   2.0000     -11.215573      -305.1913
   8   2.0000     -11.212436      -305.1059
   9   2.0000      -1.374794       -37.4101
  10   2.0000      -1.092437       -29.7267
  11   2.0000      -1.043247       -28.3882
  12   2.0000      -0.998734       -27.1769
  13   2.0000      -0.975347       -26.5406
  14   2.0000      -0.888544       -24.1785
  15   2.0000      -0.837631       -22.7931
  16   2.0000      -0.794754       -21.6264
  17   2.0000      -0.713466       -19.4144
  18   2.0000      -0.685079       -18.6420
  19   2.0000      -0.657337       -17.8871
  20   2.0000      -0.636215       -17.3123
  21   2.0000      -0.617846       -16.8124
  22   2.0000      -0.605613       -16.4796
  23   2.0000      -0.578639       -15.7456
  24   2.0000      -0.552786       -15.0421
  25   2.0000      -0.547831       -14.9072
  26   2.0000      -0.527910       -14.3652
  27   2.0000      -0.519967       -14.1490
  28   2.0000      -0.508455       -13.8358
  29   2.0000      -0.494519       -13.4566
  30   2.0000      -0.480586       -13.0774
  31   2.0000      -0.462274       -12.5791
  32   2.0000      -0.420931       -11.4541
  33   2.0000      -0.378459       -10.2984
  34   2.0000      -0.376144       -10.2354
  35   0.0000       0.132449         3.6041
  36   0.0000       0.151139         4.1127
  37   0.0000       0.155837         4.2405
  38   0.0000       0.165704         4.5090
  39   0.0000       0.173456         4.7200

MULLIKEN ATOMIC CHARGES
-----------------------
   0 C :   -0.367287
   1 C :   -0.049479
   2 O :   -0.301357
   3 C :    0.054489
   4 C :   -0.391445
   5 C :   -0.164849
   6 C :   -0.402594
   7 C :   -0.000988
   8 C :   -0.126878
   9 H :    0.128715
  10 H :    0.130840
  11 H :    0.122399
  12 H :    0.090540
  13 H :    0.091219
  14 H :    0.072778
  15 H :    0.130801
  16 H :    0.133300
  17 H :    0.131519
  18 H :    0.119680
  19 H :    0.119886
  20 H :    0.160470
  21 H :    0.131144
  22 H :    0.187096
Sum of atomic charges:    0.0000000

LOEWDIN ATOMIC CHARGES
----------------------
   0 C :   -0.317205
   1 C :   -0.353435
   2 O :    0.177988
   3 C :   -0.352341
   4 C :   -0.296357
   5 C :   -0.229632
   6 C :   -0.248566
   7 C :   -0.112313
   8 C :   -0.114550
   9 H :    0.122981
  10 H :    0.124340
  11 H :    0.124072
  12 H :    0.115856
  13 H :    0.116018
  14 H :    0.134595
  15 H :    0.126983
  16 H :    0.120968
  17 H :    0.127398
  18 H :    0.145672
  19 H :    0.147417
  20 H :    0.160328
  21 H :    0.155019
  22 H :    0.124765

  Mayer bond orders larger than 0.1
B(  0-C ,  1-C ) :   0.9546 B(  0-C ,  9-H ) :   0.9375 B(  0-C , 10-H ) :   0.9359
B(  0-C , 11-H ) :   0.9332 B(  1-C ,  2-O ) :   0.9223 B(  1-C , 12-H ) :   0.9242
B(  1-C , 13-H ) :   0.9201 B(  2-O ,  3-C ) :   0.9128 B(  3-C ,  4-C ) :   0.9141
B(  3-C ,  5-C ) :   0.9286 B(  3-C , 14-H ) :   0.9406 B(  4-C , 15-H ) :   0.9341
B(  4-C , 16-H ) :   0.9386 B(  4-C , 17-H ) :   0.9346 B(  5-C ,  6-C ) :   0.9343
B(  5-C , 18-H ) :   0.9265 B(  5-C , 19-H ) :   0.9162 B(  6-C ,  7-C ) :   1.1115
B(  6-C ,  8-C ) :  -0.1231 B(  6-C , 20-H ) :   0.9249 B(  6-C , 21-H ) :   0.9210
B(  7-C ,  8-C ) :   2.6101 B(  8-C , 22-H ) :   0.8974

MP2 TOTAL ENERGY:     -387.573468421 Eh
FINAL SINGLE POINT ENERGY      -387.573468421037

DIPOLE MOMENT
-------------
                                X             Y             Z
Electronic contribution:      7.78898      -2.17565      -2.33933
Nuclear contribution   :     -8.39527       2.02342       2.70990
                        -----------------------------------------
Total Dipole Moment    :     -0.60629      -0.15223       0.37057
                        -----------------------------------------
Magnitude (a.u.)       :      0.72669
Magnitude (Debye)      :      1.84710

                             ****ORCA TERMINATED NORMALLY****
TOTAL RUN TIME: 0 days 0 hours 17 minutes 24 seconds 909 msec
