                         Program Version 3.0.3 - RELEASE   -
|  1> ! RI-MP2 RIJK def2-TZVP def2-TZVP/C def2-TZVP/JK TIGHTSCF
|  2> % maxcore 2000
|  3> % mp2 density relaxed end
|  4> *xyz 0 1
|  5>  C        0.1237864237     1.4837509680     0.0080183598
|  6>  N       -0.0202060010    -0.0056197075     0.0017258448
|  7>  H        0.4447330562    -0.4042369183    -0.8181107405
|  8>  H        0.4601941254    -0.4126315725     0.8084245273
|  9>  C       -1.4542483208    -0.5295336567     0.0127139934
| 10>  C       -1.4569365838    -2.0391243527     0.0051258110
| 11>  C       -2.9336174454    -2.5492528760     0.0172600436
| 12>  O       -3.8271187956    -1.7362989492     0.0318807571
| 13>  C       -3.0162388822    -4.1324266990     0.0086584745
| 14>  O       -4.1538901027    -4.5990563346     0.0164814060
| 15>  O       -1.8666407477    -4.6270465683    -0.0037383382
| 16>  H        1.1815278365     1.7503448434    -0.0007140031
| 17>  H       -0.3743039995     1.8798558779    -0.8769198451
| 18>  H       -0.3572713296     1.8706688462     0.9063418900
| 19>  H       -1.9295502188    -0.1133969183     0.9033965694
| 20>  H       -1.9463008794    -0.1043696836    -0.8645181024
| 21>  H       -0.9693783559    -2.4672593556    -0.8767413407
| 22>  H       -0.9522625394    -2.4757904933     0.8730907030
| 23> *
| 24>
| 25>                          ****END OF INPUT****

CARTESIAN COORDINATES (ANGSTROEM)
---------------------------------
  C      0.123786    1.483751    0.008018
  N     -0.020206   -0.005620    0.001726
  H      0.444733   -0.404237   -0.818111
  H      0.460194   -0.412632    0.808425
  C     -1.454248   -0.529534    0.012714
  C     -1.456937   -2.039124    0.005126
  C     -2.933617   -2.549253    0.017260
  O     -3.827119   -1.736299    0.031881
  C     -3.016239   -4.132427    0.008658
  O     -4.153890   -4.599056    0.016481
  O     -1.866641   -4.627047   -0.003738
  H      1.181528    1.750345   -0.000714
  H     -0.374304    1.879856   -0.876920
  H     -0.357271    1.870669    0.906342
  H     -1.929550   -0.113397    0.903397
  H     -1.946301   -0.104370   -0.864518
  H     -0.969378   -2.467259   -0.876741
  H     -0.952263   -2.475790    0.873091

 Total Charge           Charge          ....    0
 Multiplicity           Mult            ....    1
 Number of Electrons    NEL             ....   70
 Basis Dimension        Dim             ....  333

ORBITAL ENERGIES
----------------

  NO   OCC          E(Eh)            E(eV)
   0   2.0000     -20.536378      -558.8232
   1   2.0000     -20.430388      -555.9391
   2   2.0000     -20.425498      -555.8060
   3   2.0000     -15.773235      -429.2115
   4   2.0000     -11.376841      -309.5796
   5   2.0000     -11.345325      -308.7220
   6   2.0000     -11.307789      -307.7006
   7   2.0000     -11.276531      -306.8500
   8   2.0000     -11.257152      -306.3227
   9   2.0000      -1.398956       -38.0675
  10   2.0000      -1.377974       -37.4966
  11   2.0000      -1.308959       -35.6186
  12   2.0000      -1.218638       -33.1608
  13   2.0000      -1.107098       -30.1257
  14   2.0000      -1.039177       -28.2774
  15   2.0000      -0.947252       -25.7760
  16   2.0000      -0.866112       -23.5681
  17   2.0000      -0.812030       -22.0965
  18   2.0000      -0.752625       -20.4800
  19   2.0000      -0.741531       -20.1781
  20   2.0000      -0.682880       -18.5821
  21   2.0000      -0.675014       -18.3681
  22   2.0000      -0.658286       -17.9129
  23   2.0000      -0.652085       -17.7441
  24   2.0000      -0.608750       -16.5649
  25   2.0000      -0.602154       -16.3854
  26   2.0000      -0.571218       -15.5436
  27   2.0000      -0.561640       -15.2830
  28   2.0000      -0.531257       -14.4562
  29   2.0000      -0.511307       -13.9134
  30   2.0000      -0.474172       -12.9029
  31   2.0000      -0.444690       -12.1006
  32   2.0000      -0.355475        -9.6730
  33   2.0000      -0.328290        -8.9332
  34   2.0000      -0.323104        -8.7921
  35   0.0000       0.032875         0.8946
  36   0.0000       0.086710         2.3595
  37   0.0000       0.087181         2.3723
  38   0.0000       0.112373         3.0578
  39   0.0000       0.141256         3.8438

MULLIKEN ATOMIC CHARGES
-----------------------
   0 C :   -0.313086
   1 N :   -0.175759
   2 H :    0.303879
   3 H :    0.303866
   4 C :   -0.176253
   5 C :   -0.306844
   6 C :    0.117260
   7 O :   -0.302939
   8 C :    0.238689
   9 O :   -0.415640
  10 O :   -0.489055
  11 H :    0.185742
  12 H :    0.188400
  13 H :    0.188407
  14 H :    0.174663
  15 H :    0.174537
  16 H :    0.152079
  17 H :    0.152052
Sum of atomic charges:    0.0000000

LOEWDIN ATOMIC CHARGES
----------------------
   0 C :   -0.258615
   1 N :    0.179696
   2 H :    0.221038
   3 H :    0.221040
   4 C :   -0.237306
   5 C :   -0.282440
   6 C :   -0.275450
   7 O :    0.143386
   8 C :   -0.687866
   9 O :    0.009074
  10 O :   -0.053677
  11 H :    0.131987
  12 H :    0.137593
  13 H :    0.137595
  14 H :    0.150233
  15 H :    0.150214
  16 H :    0.156739
  17 H :    0.156758

  Mayer bond orders larger than 0.1
B(  0-C ,  1-N ) :   0.8585 B(  0-C , 11-H ) :   0.9195 B(  0-C , 12-H ) :   0.9247
B(  0-C , 13-H ) :   0.9247 B(  1-N ,  2-H ) :   0.8447 B(  1-N ,  3-H ) :   0.8447
B(  1-N ,  4-C ) :   0.8126 B(  4-C ,  5-C ) :   0.8581 B(  4-C , 14-H ) :   0.9158
B(  4-C , 15-H ) :   0.9157 B(  5-C ,  6-C ) :   0.7874 B(  5-C , 10-O ) :   0.1079
B(  5-C , 16-H ) :   0.9127 B(  5-C , 17-H ) :   0.9128 B(  6-C ,  7-O ) :   1.8716
B(  6-C ,  8-C ) :   0.8870 B(  8-C ,  9-O ) :   1.8420 B(  8-C , 10-O ) :   1.6774

MP2 TOTAL ENERGY:     -475.433807534 Eh
FINAL SINGLE POINT ENERGY      -475.433807534258

DIPOLE MOMENT
-------------
                                X             Y             Z
Electronic contribution:     -7.85992     -10.02851       0.02501
Nuclear contribution   :     12.99674      16.82884      -0.04007
                        -----------------------------------------
Total Dipole Moment    :      5.13683       6.80032      -0.01505
                        -----------------------------------------
Magnitude (a.u.)       :      8.52242
Magnitude (Debye)      :     21.66226

                             ****ORCA TERMINATED NORMALLY****
TOTAL RUN TIME: 0 days 0 hours 13 minutes 54 seconds 434 msec
