                         Program Version 3.0.3 - RELEASE   -
|  1> ! RI-MP2 RIJK def2-TZVP def2-TZVP/C def2-TZVP/JK TIGHTSCF
|  2> % maxcore 2000
|  3> % mp2 density relaxed end
|  4> *xyz 0 1
|  5>  C        0.0920084600     1.3296487206    -0.4759747332
|  6>  C        0.0393064667    -0.1066576713     0.0250598324
|  7>  C        1.3574199755    -0.8329051592     0.2638908889
|  8>  C        0.5319139267    -0.3926130678     1.4377737362
|  9>  C       -1.0691908255    -0.8872379742    -0.4583324349
| 10>  C       -2.0108545567    -1.5132512537    -0.8825128658
| 11>  C       -3.1182106468    -2.2881190065    -1.3654030056
| 12>  C       -3.6040352088    -2.1021816337    -2.7664885909
| 13>  N       -2.9046721410    -3.3362099416    -2.3981033918
| 14>  H        0.9619193121     1.8504386076    -0.0637436114
| 15>  H        0.1624115821     1.3609130859    -1.5678506747
| 16>  H       -0.8067117493     1.8796962397    -0.1799579212
| 17>  H        1.3962183434    -1.8907548397     0.0335582652
| 18>  H        2.2662027723    -0.2857559261     0.0367840647
| 19>  H        0.8717738579     0.4581292420     2.0186779598
| 20>  H        0.0072799751    -1.1497953733     2.0077242005
| 21>  H       -3.8479279892    -2.5826618952    -0.6150597457
| 22>  H       -4.6630053081    -2.2197975955    -2.9787137217
| 23>  H       -3.0901996500    -1.3654722541    -3.3767016915
| 24>  H       -1.9383057163    -3.2841270939    -2.7122098893
| 25> *
| 26>
| 27>                          ****END OF INPUT****

CARTESIAN COORDINATES (ANGSTROEM)
---------------------------------
  C      0.092008    1.329649   -0.475975
  C      0.039306   -0.106658    0.025060
  C      1.357420   -0.832905    0.263891
  C      0.531914   -0.392613    1.437774
  C     -1.069191   -0.887238   -0.458332
  C     -2.010855   -1.513251   -0.882513
  C     -3.118211   -2.288119   -1.365403
  C     -3.604035   -2.102182   -2.766489
  N     -2.904672   -3.336210   -2.398103
  H      0.961919    1.850439   -0.063744
  H      0.162412    1.360913   -1.567851
  H     -0.806712    1.879696   -0.179958
  H      1.396218   -1.890755    0.033558
  H      2.266203   -0.285756    0.036784
  H      0.871774    0.458129    2.018678
  H      0.007280   -1.149795    2.007724
  H     -3.847928   -2.582662   -0.615060
  H     -4.663005   -2.219798   -2.978714
  H     -3.090200   -1.365472   -3.376702
  H     -1.938306   -3.284127   -2.712210

 Total Charge           Charge          ....    0
 Multiplicity           Mult            ....    1
 Number of Electrons    NEL             ....   66
 Basis Dimension        Dim             ....  345

ORBITAL ENERGIES
----------------

  NO   OCC          E(Eh)            E(eV)
   0   2.0000     -15.564493      -423.5314
   1   2.0000     -11.280273      -306.9518
   2   2.0000     -11.263377      -306.4921
   3   2.0000     -11.262620      -306.4715
   4   2.0000     -11.236365      -305.7570
   5   2.0000     -11.235638      -305.7373
   6   2.0000     -11.227956      -305.5282
   7   2.0000     -11.226231      -305.4813
   8   2.0000     -11.222188      -305.3713
   9   2.0000      -1.266342       -34.4589
  10   2.0000      -1.167519       -31.7698
  11   2.0000      -1.032754       -28.1027
  12   2.0000      -0.973332       -26.4857
  13   2.0000      -0.911963       -24.8158
  14   2.0000      -0.869578       -23.6624
  15   2.0000      -0.832955       -22.6659
  16   2.0000      -0.814333       -22.1591
  17   2.0000      -0.724705       -19.7202
  18   2.0000      -0.683644       -18.6029
  19   2.0000      -0.650420       -17.6988
  20   2.0000      -0.639623       -17.4050
  21   2.0000      -0.578254       -15.7351
  22   2.0000      -0.564288       -15.3551
  23   2.0000      -0.553927       -15.0731
  24   2.0000      -0.536153       -14.5895
  25   2.0000      -0.526187       -14.3183
  26   2.0000      -0.504634       -13.7318
  27   2.0000      -0.498935       -13.5767
  28   2.0000      -0.449630       -12.2351
  29   2.0000      -0.448798       -12.2124
  30   2.0000      -0.424427       -11.5492
  31   2.0000      -0.354230        -9.6391
  32   2.0000      -0.344509        -9.3746
  33   0.0000       0.138336         3.7643
  34   0.0000       0.154862         4.2140
  35   0.0000       0.163264         4.4426
  36   0.0000       0.169142         4.6026
  37   0.0000       0.172469         4.6931

MULLIKEN ATOMIC CHARGES
-----------------------
   0 C :   -0.398843
   1 C :   -0.070314
   2 C :   -0.266351
   3 C :   -0.262987
   4 C :    0.017008
   5 C :    0.057146
   6 C :   -0.183929
   7 C :   -0.128831
   8 N :   -0.337442
   9 H :    0.127483
  10 H :    0.135009
  11 H :    0.138447
  12 H :    0.139922
  13 H :    0.133814
  14 H :    0.133995
  15 H :    0.141124
  16 H :    0.141414
  17 H :    0.125344
  18 H :    0.132686
  19 H :    0.225306
Sum of atomic charges:   -0.0000000

LOEWDIN ATOMIC CHARGES
----------------------
   0 C :   -0.249899
   1 C :   -0.261925
   2 C :   -0.190067
   3 C :   -0.188883
   4 C :   -0.024839
   5 C :   -0.067068
   6 C :   -0.265888
   7 C :   -0.251008
   8 N :   -0.007725
   9 H :    0.128045
  10 H :    0.129318
  11 H :    0.130236
  12 H :    0.137821
  13 H :    0.134622
  14 H :    0.134830
  15 H :    0.138449
  16 H :    0.155206
  17 H :    0.125143
  18 H :    0.124831
  19 H :    0.168800

  Mayer bond orders larger than 0.1
B(  0-C ,  1-C ) :   0.9576 B(  0-C ,  9-H ) :   0.9283 B(  0-C , 10-H ) :   0.9378
B(  0-C , 11-H ) :   0.9368 B(  1-C ,  2-C ) :   0.8370 B(  1-C ,  3-C ) :   0.8482
B(  1-C ,  4-C ) :   1.1832 B(  1-C ,  5-C ) :  -0.2095 B(  2-C ,  3-C ) :   0.9119
B(  2-C , 12-H ) :   0.9292 B(  2-C , 13-H ) :   0.9275 B(  3-C , 14-H ) :   0.9284
B(  3-C , 15-H ) :   0.9290 B(  4-C ,  5-C ) :   2.4872 B(  5-C ,  6-C ) :   1.0650
B(  6-C ,  7-C ) :   0.9454 B(  6-C ,  8-N ) :   0.9532 B(  6-C , 16-H ) :   0.9141
B(  7-C ,  8-N ) :   0.9189 B(  7-C , 17-H ) :   0.9235 B(  7-C , 18-H ) :   0.9161
B(  8-N , 19-H ) :   0.8775

MP2 TOTAL ENERGY:     -365.271807439 Eh
FINAL SINGLE POINT ENERGY      -365.271807439246

DIPOLE MOMENT
-------------
                                X             Y             Z
Electronic contribution:     -3.59004      -4.06468      -0.84084
Nuclear contribution   :      4.01623       4.75424       0.86485
                        -----------------------------------------
Total Dipole Moment    :      0.42619       0.68956       0.02401
                        -----------------------------------------
Magnitude (a.u.)       :      0.81099
Magnitude (Debye)      :      2.06138

                             ****ORCA TERMINATED NORMALLY****
TOTAL RUN TIME: 0 days 0 hours 16 minutes 9 seconds 865 msec
