                         Program Version 3.0.3 - RELEASE   -
|  1> ! RI-MP2 RIJK def2-TZVP def2-TZVP/C def2-TZVP/JK TIGHTSCF
|  2> % maxcore 2000
|  3> % mp2 density relaxed end
|  4> *xyz 0 1
|  5>  O       -0.0331682784     0.0017624112    -0.1124689782
|  6>  C        0.0406528741     1.1964170973     0.0760985592
|  7>  N        1.1959872372     1.8778271133     0.2863199849
|  8>  C        1.5542744555     3.2654307113     0.0068856488
|  9>  C        2.7614565119     2.8893946673    -0.7800149919
| 10>  C        2.9332046804     3.4867258656     0.6446391618
| 11>  C        3.3891768451     2.1245372140     1.0926850747
| 12>  O        4.2199874483     1.7259379480     1.8512361822
| 13>  C        2.5759213602     1.4798089242    -0.0665583366
| 14>  H       -0.8394335290     1.8686125718     0.1368961290
| 15>  H        0.8334859460     4.0629716027    -0.1159225707
| 16>  H        3.2036570822     3.2025970776    -1.7138219573
| 17>  H        3.3046705200     4.4636599161     0.9210275971
| 18>  H        2.7332254365     0.4801915494    -0.4562927331
| 19> *
| 20>
| 21>                          ****END OF INPUT****

CARTESIAN COORDINATES (ANGSTROEM)
---------------------------------
  O     -0.033168    0.001762   -0.112469
  C      0.040653    1.196417    0.076099
  N      1.195987    1.877827    0.286320
  C      1.554274    3.265431    0.006886
  C      2.761457    2.889395   -0.780015
  C      2.933205    3.486726    0.644639
  C      3.389177    2.124537    1.092685
  O      4.219987    1.725938    1.851236
  C      2.575921    1.479809   -0.066558
  H     -0.839434    1.868613    0.136896
  H      0.833486    4.062972   -0.115923
  H      3.203657    3.202597   -1.713822
  H      3.304671    4.463660    0.921028
  H      2.733225    0.480192   -0.456293

 Total Charge           Charge          ....    0
 Multiplicity           Mult            ....    1
 Number of Electrons    NEL             ....   64
 Basis Dimension        Dim             ....  309

ORBITAL ENERGIES
----------------

  NO   OCC          E(Eh)            E(eV)
   0   2.0000     -20.562281      -559.5281
   1   2.0000     -20.534264      -558.7657
   2   2.0000     -15.611777      -424.8181
   3   2.0000     -11.363406      -309.2140
   4   2.0000     -11.357436      -309.0515
   5   2.0000     -11.329101      -308.2805
   6   2.0000     -11.316074      -307.9260
   7   2.0000     -11.293280      -307.3058
   8   2.0000     -11.283424      -307.0376
   9   2.0000      -1.414168       -38.4815
  10   2.0000      -1.397369       -38.0244
  11   2.0000      -1.339090       -36.4385
  12   2.0000      -1.162980       -31.6463
  13   2.0000      -1.000473       -27.2243
  14   2.0000      -0.928128       -25.2557
  15   2.0000      -0.874630       -23.7999
  16   2.0000      -0.786259       -21.3952
  17   2.0000      -0.771522       -20.9942
  18   2.0000      -0.725901       -19.7528
  19   2.0000      -0.694054       -18.8862
  20   2.0000      -0.666075       -18.1248
  21   2.0000      -0.653891       -17.7933
  22   2.0000      -0.641818       -17.4647
  23   2.0000      -0.606659       -16.5080
  24   2.0000      -0.573021       -15.5927
  25   2.0000      -0.556659       -15.1475
  26   2.0000      -0.532612       -14.4931
  27   2.0000      -0.483096       -13.1457
  28   2.0000      -0.455938       -12.4067
  29   2.0000      -0.440184       -11.9780
  30   2.0000      -0.430963       -11.7271
  31   2.0000      -0.374585       -10.1930
  32   0.0000       0.129417         3.5216
  33   0.0000       0.138926         3.7804
  34   0.0000       0.150263         4.0889
  35   0.0000       0.156435         4.2568
  36   0.0000       0.164576         4.4783

MULLIKEN ATOMIC CHARGES
-----------------------
   0 O :   -0.348109
   1 C :    0.128217
   2 N :   -0.106130
   3 C :   -0.068584
   4 C :   -0.210975
   5 C :   -0.125386
   6 C :    0.152962
   7 O :   -0.243784
   8 C :    0.042093
   9 H :    0.079879
  10 H :    0.172021
  11 H :    0.180837
  12 H :    0.165038
  13 H :    0.181919
Sum of atomic charges:    0.0000000

LOEWDIN ATOMIC CHARGES
----------------------
   0 O :    0.068145
   1 C :   -0.420152
   2 N :    0.219625
   3 C :   -0.161375
   4 C :   -0.087212
   5 C :   -0.103276
   6 C :   -0.293121
   7 O :    0.172065
   8 C :   -0.101064
   9 H :    0.113800
  10 H :    0.149688
  11 H :    0.143458
  12 H :    0.148809
  13 H :    0.150611

  Mayer bond orders larger than 0.1
B(  0-O ,  1-C ) :   1.9089 B(  1-C ,  2-N ) :   1.1302 B(  1-C ,  9-H ) :   0.9271
B(  2-N ,  3-C ) :   0.9140 B(  2-N ,  8-C ) :   0.7575 B(  3-C ,  4-C ) :   0.9071
B(  3-C ,  5-C ) :   0.8341 B(  3-C , 10-H ) :   0.9015 B(  4-C ,  5-C ) :   0.8040
B(  4-C ,  8-C ) :   0.8401 B(  4-C , 11-H ) :   0.8891 B(  5-C ,  6-C ) :   0.9493
B(  5-C ,  8-C ) :  -0.1065 B(  5-C , 12-H ) :   0.9030 B(  6-C ,  7-O ) :   2.0637
B(  6-C ,  8-C ) :   0.8427 B(  8-C , 13-H ) :   0.8976

MP2 TOTAL ENERGY:     -435.914792207 Eh
FINAL SINGLE POINT ENERGY      -435.914792207315

DIPOLE MOMENT
-------------
                                X             Y             Z
Electronic contribution:      0.95919      -2.05075       1.82510
Nuclear contribution   :     -0.95015       3.96901      -2.74819
                        -----------------------------------------
Total Dipole Moment    :      0.00904       1.91826      -0.92309
                        -----------------------------------------
Magnitude (a.u.)       :      2.12882
Magnitude (Debye)      :      5.41104

                             ****ORCA TERMINATED NORMALLY****
TOTAL RUN TIME: 0 days 0 hours 14 minutes 36 seconds 666 msec
