                         Program Version 3.0.3 - RELEASE   -
|  1> ! RI-MP2 RIJK def2-TZVP def2-TZVP/C def2-TZVP/JK TIGHTSCF
|  2> % maxcore 2000
|  3> % mp2 density relaxed end
|  4> *xyz 0 1
|  5>  C       -0.0048823937     1.5814122379     0.0939124744
|  6>  C       -0.0330528607     0.0510457247    -0.0077358972
|  7>  O        0.6540983565    -0.5429096052     1.0811942260
|  8>  C       -1.4775416519    -0.4752659241    -0.0305529316
|  9>  O       -2.0110784546    -0.1931784090     1.2601851820
| 10>  C        0.7037968663    -0.4682142719    -1.2688306163
| 11>  O        0.0620430351    -0.0999848943    -2.4759148229
| 12>  C        2.1199912531    -0.0531914770    -1.2700878050
| 13>  N        3.2152438603     0.3107314596    -1.3216248269
| 14>  H        1.0228791852     1.9327200570     0.2104660714
| 15>  H       -0.4473495536     2.0523983491    -0.7912204378
| 16>  H       -0.5873588714     1.9005956246     0.9611081831
| 17>  H        0.0391549697    -0.5182675241     1.8261451163
| 18>  H       -2.0563350003     0.0106368731    -0.8249541969
| 19>  H       -1.4636461961    -1.5579623910    -0.2205489175
| 20>  H       -2.8441156491    -0.6615250827     1.3602753461
| 21>  H        0.6785231729    -1.5621040098    -1.2311497401
| 22>  H        0.2506474022     0.8285319929    -2.6520425270
| 23> *
| 24>
| 25>                          ****END OF INPUT****

CARTESIAN COORDINATES (ANGSTROEM)
---------------------------------
  C     -0.004882    1.581412    0.093912
  C     -0.033053    0.051046   -0.007736
  O      0.654098   -0.542910    1.081194
  C     -1.477542   -0.475266   -0.030553
  O     -2.011078   -0.193178    1.260185
  C      0.703797   -0.468214   -1.268831
  O      0.062043   -0.099985   -2.475915
  C      2.119991   -0.053191   -1.270088
  N      3.215244    0.310731   -1.321625
  H      1.022879    1.932720    0.210466
  H     -0.447350    2.052398   -0.791220
  H     -0.587359    1.900596    0.961108
  H      0.039155   -0.518268    1.826145
  H     -2.056335    0.010637   -0.824954
  H     -1.463646   -1.557962   -0.220549
  H     -2.844116   -0.661525    1.360275
  H      0.678523   -1.562104   -1.231150
  H      0.250647    0.828532   -2.652043

 Total Charge           Charge          ....    0
 Multiplicity           Mult            ....    1
 Number of Electrons    NEL             ....   70
 Basis Dimension        Dim             ....  333

ORBITAL ENERGIES
----------------

  NO   OCC          E(Eh)            E(eV)
   0   2.0000     -20.597531      -560.4873
   1   2.0000     -20.587683      -560.2193
   2   2.0000     -20.568260      -559.6908
   3   2.0000     -15.576717      -423.8640
   4   2.0000     -11.342394      -308.6422
   5   2.0000     -11.315392      -307.9075
   6   2.0000     -11.300433      -307.5004
   7   2.0000     -11.274761      -306.8019
   8   2.0000     -11.230464      -305.5965
   9   2.0000      -1.412476       -38.4354
  10   2.0000      -1.399686       -38.0874
  11   2.0000      -1.370373       -37.2897
  12   2.0000      -1.220970       -33.2243
  13   2.0000      -1.081245       -29.4222
  14   2.0000      -0.988005       -26.8850
  15   2.0000      -0.953773       -25.9535
  16   2.0000      -0.814158       -22.1544
  17   2.0000      -0.774370       -21.0717
  18   2.0000      -0.745023       -20.2731
  19   2.0000      -0.700023       -19.0486
  20   2.0000      -0.676033       -18.3958
  21   2.0000      -0.656782       -17.8719
  22   2.0000      -0.648197       -17.6383
  23   2.0000      -0.602917       -16.4062
  24   2.0000      -0.587167       -15.9776
  25   2.0000      -0.574560       -15.6346
  26   2.0000      -0.559618       -15.2280
  27   2.0000      -0.554167       -15.0796
  28   2.0000      -0.542837       -14.7713
  29   2.0000      -0.527974       -14.3669
  30   2.0000      -0.493950       -13.4411
  31   2.0000      -0.476760       -12.9733
  32   2.0000      -0.470438       -12.8013
  33   2.0000      -0.462837       -12.5944
  34   2.0000      -0.446741       -12.1564
  35   0.0000       0.112642         3.0651
  36   0.0000       0.124233         3.3805
  37   0.0000       0.153603         4.1797
  38   0.0000       0.166461         4.5296
  39   0.0000       0.182594         4.9686

MULLIKEN ATOMIC CHARGES
-----------------------
   0 C :   -0.487708
   1 C :    0.220911
   2 O :   -0.477004
   3 C :   -0.077191
   4 O :   -0.491265
   5 C :    0.188852
   6 O :   -0.455467
   7 C :   -0.189458
   8 N :   -0.044699
   9 H :    0.173043
  10 H :    0.113661
  11 H :    0.158061
  12 H :    0.337368
  13 H :    0.117493
  14 H :    0.114077
  15 H :    0.330011
  16 H :    0.136276
  17 H :    0.333037
Sum of atomic charges:   -0.0000000

LOEWDIN ATOMIC CHARGES
----------------------
   0 C :   -0.271577
   1 C :   -0.402243
   2 O :    0.028766
   3 C :   -0.305103
   4 O :   -0.048727
   5 C :   -0.300728
   6 O :    0.019090
   7 C :   -0.166063
   8 N :    0.075408
   9 H :    0.136990
  10 H :    0.124327
  11 H :    0.135646
  12 H :    0.185035
  13 H :    0.126684
  14 H :    0.125721
  15 H :    0.178742
  16 H :    0.173647
  17 H :    0.184385

  Mayer bond orders larger than 0.1
B(  0-C ,  1-C ) :   0.8881 B(  0-C ,  9-H ) :   0.9351 B(  0-C , 10-H ) :   0.9306
B(  0-C , 11-H ) :   0.9229 B(  1-C ,  2-O ) :   0.9629 B(  1-C ,  3-C ) :   0.9118
B(  1-C ,  5-C ) :   0.8702 B(  2-O , 12-H ) :   0.8157 B(  3-C ,  4-O ) :   0.9822
B(  3-C , 13-H ) :   0.9239 B(  3-C , 14-H ) :   0.9292 B(  4-O , 15-H ) :   0.8419
B(  5-C ,  6-O ) :   0.9256 B(  5-C ,  7-C ) :   0.9634 B(  5-C , 16-H ) :   0.8866
B(  6-O , 17-H ) :   0.8321 B(  7-C ,  8-N ) :   2.8554

MP2 TOTAL ENERGY:     -475.490718102 Eh
FINAL SINGLE POINT ENERGY      -475.490718101890

DIPOLE MOMENT
-------------
                                X             Y             Z
Electronic contribution:      5.24559      -2.28763      -1.89185
Nuclear contribution   :     -7.31460       2.19599       2.07229
                        -----------------------------------------
Total Dipole Moment    :     -2.06901      -0.09164       0.18044
                        -----------------------------------------
Magnitude (a.u.)       :      2.07888
Magnitude (Debye)      :      5.28410

                             ****ORCA TERMINATED NORMALLY****
TOTAL RUN TIME: 0 days 0 hours 17 minutes 19 seconds 862 msec
