                         Program Version 3.0.3 - RELEASE   -
|  1> ! RI-MP2 RIJK def2-TZVP def2-TZVP/C def2-TZVP/JK TIGHTSCF
|  2> % maxcore 2000
|  3> % mp2 density relaxed end
|  4> *xyz 0 1
|  5>  N       -0.1356689209     1.2628925389     0.0957702960
|  6>  C        0.0073897084     0.0057425101     0.0128881745
|  7>  N        1.1460251928    -0.7883337543    -0.1166602334
|  8>  C        0.7642480117    -2.1247098545    -0.0581681337
|  9>  N       -0.4876984464    -2.3457675763     0.0397634745
| 10>  C       -1.1291240472    -1.0222976423     0.0530236140
| 11>  C       -2.0319459636    -0.8108200704     1.2823082015
| 12>  C       -3.2303506079    -1.6443297565     1.2596359577
| 13>  N       -4.1889189667    -2.2886368101     1.2410544792
| 14>  H        0.7513903858     1.7654710783     0.0481591484
| 15>  H        2.0935416195    -0.4490414634    -0.1149392015
| 16>  H        1.5228337369    -2.8994950162    -0.1012550459
| 17>  H       -1.7408501533    -0.9188712578    -0.8507979831
| 18>  H       -1.4656213149    -1.0233960350     2.1949736275
| 19>  H       -2.3196125541     0.2452801096     1.3131662943
| 20> *
| 21>
| 22>                          ****END OF INPUT****

CARTESIAN COORDINATES (ANGSTROEM)
---------------------------------
  N     -0.135669    1.262893    0.095770
  C      0.007390    0.005743    0.012888
  N      1.146025   -0.788334   -0.116660
  C      0.764248   -2.124710   -0.058168
  N     -0.487698   -2.345768    0.039763
  C     -1.129124   -1.022298    0.053024
  C     -2.031946   -0.810820    1.282308
  C     -3.230351   -1.644330    1.259636
  N     -4.188919   -2.288637    1.241054
  H      0.751390    1.765471    0.048159
  H      2.093542   -0.449041   -0.114939
  H      1.522834   -2.899495   -0.101255
  H     -1.740850   -0.918871   -0.850798
  H     -1.465621   -1.023396    2.194974
  H     -2.319613    0.245280    1.313166

 Total Charge           Charge          ....    0
 Multiplicity           Mult            ....    1
 Number of Electrons    NEL             ....   64
 Basis Dimension        Dim             ....  315

ORBITAL ENERGIES
----------------

  NO   OCC          E(Eh)            E(eV)
   0   2.0000     -15.630162      -425.3183
   1   2.0000     -15.570633      -423.6985
   2   2.0000     -15.562581      -423.4794
   3   2.0000     -15.557213      -423.3333
   4   2.0000     -11.347969      -308.7939
   5   2.0000     -11.345486      -308.7264
   6   2.0000     -11.299521      -307.4756
   7   2.0000     -11.284846      -307.0763
   8   2.0000     -11.267510      -306.6045
   9   2.0000      -1.362813       -37.0840
  10   2.0000      -1.231844       -33.5202
  11   2.0000      -1.212909       -33.0049
  12   2.0000      -1.183116       -32.1942
  13   2.0000      -1.074206       -29.2306
  14   2.0000      -0.962125       -26.1807
  15   2.0000      -0.847820       -23.0704
  16   2.0000      -0.827236       -22.5102
  17   2.0000      -0.757635       -20.6163
  18   2.0000      -0.713901       -19.4262
  19   2.0000      -0.682905       -18.5828
  20   2.0000      -0.664307       -18.0767
  21   2.0000      -0.624784       -17.0012
  22   2.0000      -0.602238       -16.3877
  23   2.0000      -0.574229       -15.6256
  24   2.0000      -0.550492       -14.9796
  25   2.0000      -0.543281       -14.7834
  26   2.0000      -0.490915       -13.3585
  27   2.0000      -0.477360       -12.9896
  28   2.0000      -0.455051       -12.3826
  29   2.0000      -0.449557       -12.2331
  30   2.0000      -0.432346       -11.7647
  31   2.0000      -0.372793       -10.1442
  32   0.0000       0.103483         2.8159
  33   0.0000       0.111103         3.0233
  34   0.0000       0.148019         4.0278
  35   0.0000       0.153398         4.1742
  36   0.0000       0.170930         4.6512

MULLIKEN ATOMIC CHARGES
-----------------------
   0 N :   -0.366058
   1 C :    0.012642
   2 N :   -0.305177
   3 C :    0.073486
   4 N :   -0.279861
   5 C :    0.131968
   6 C :   -0.142108
   7 C :   -0.167441
   8 N :   -0.055383
   9 H :    0.212637
  10 H :    0.248254
  11 H :    0.157165
  12 H :    0.145851
  13 H :    0.151422
  14 H :    0.182602
Sum of atomic charges:    0.0000000

LOEWDIN ATOMIC CHARGES
----------------------
   0 N :   -0.060503
   1 C :   -0.335516
   2 N :    0.130109
   3 C :   -0.282179
   4 N :    0.098726
   5 C :   -0.219070
   6 C :   -0.210933
   7 C :   -0.186426
   8 N :    0.061329
   9 H :    0.162513
  10 H :    0.187488
  11 H :    0.137439
  12 H :    0.173089
  13 H :    0.168308
  14 H :    0.175625

  Mayer bond orders larger than 0.1
B(  0-N ,  1-C ) :   2.0609 B(  0-N ,  5-C ) :  -0.1009 B(  0-N ,  9-H ) :   0.8491
B(  1-C ,  2-N ) :   1.0696 B(  1-C ,  5-C ) :   0.8594 B(  2-N ,  3-C ) :   1.0342
B(  2-N , 10-H ) :   0.8639 B(  3-C ,  4-N ) :   1.7930 B(  3-C , 11-H ) :   0.9154
B(  4-N ,  5-C ) :   0.9419 B(  5-C ,  6-C ) :   0.9048 B(  5-C , 12-H ) :   0.9006
B(  6-C ,  7-C ) :   0.9501 B(  6-C , 13-H ) :   0.8945 B(  6-C , 14-H ) :   0.9042
B(  7-C ,  8-N ) :   2.8719

MP2 TOTAL ENERGY:     -412.314536361 Eh
FINAL SINGLE POINT ENERGY      -412.314536360634

DIPOLE MOMENT
-------------
                                X             Y             Z
Electronic contribution:     -1.65742      -2.01928      -0.16471
Nuclear contribution   :      4.44652       2.85911      -0.00734
                        -----------------------------------------
Total Dipole Moment    :      2.78910       0.83982      -0.17205
                        -----------------------------------------
Magnitude (a.u.)       :      2.91787
Magnitude (Debye)      :      7.41664

                             ****ORCA TERMINATED NORMALLY****
TOTAL RUN TIME: 0 days 0 hours 13 minutes 44 seconds 712 msec
