                         Program Version 3.0.3 - RELEASE   -
|  1> ! RI-MP2 RIJK def2-TZVP def2-TZVP/C def2-TZVP/JK TIGHTSCF
|  2> % maxcore 2000
|  3> % mp2 density relaxed end
|  4> *xyz 0 1
|  5>  N        0.0165733367     1.5148529927    -0.0165503540
|  6>  C        0.0073360182     0.0504647575    -0.0528164473
|  7>  C       -1.4244280138    -0.4942998194     0.1207391353
|  8>  C       -2.0278754003    -0.1389222044     1.4817407294
|  9>  C       -3.4753252317    -0.6511333983     1.6226979411
| 10>  C       -4.0626395685    -0.3346613995     2.9187609729
| 11>  C       -4.5225067732    -0.0627465057     3.9953586495
| 12>  C        0.6169294960    -0.4992330989    -1.2848652941
| 13>  N        1.0929931762    -0.8871920597    -2.2647907368
| 14>  H        0.9704993977     1.8613586666    -0.0485411405
| 15>  H       -0.4509273515     1.8812663578    -0.8416270346
| 16>  H        0.6147822598    -0.3009015948     0.7904645735
| 17>  H       -2.0486896121    -0.0952884668    -0.6897753600
| 18>  H       -1.4017501130    -1.5816126817    -0.0147237348
| 19>  H       -1.4175877718    -0.5728540228     2.2827055661
| 20>  H       -2.0052447842     0.9444300239     1.6237974617
| 21>  H       -4.0952514143    -0.2193042046     0.8256989905
| 22>  H       -3.4991780438    -1.7380936388     1.4674177976
| 23>  H       -4.9398719565     0.1725437968     4.9428008745
| 24> *
| 25>
| 26>                          ****END OF INPUT****

CARTESIAN COORDINATES (ANGSTROEM)
---------------------------------
  N      0.016573    1.514853   -0.016550
  C      0.007336    0.050465   -0.052816
  C     -1.424428   -0.494300    0.120739
  C     -2.027875   -0.138922    1.481741
  C     -3.475325   -0.651133    1.622698
  C     -4.062640   -0.334661    2.918761
  C     -4.522507   -0.062747    3.995359
  C      0.616929   -0.499233   -1.284865
  N      1.092993   -0.887192   -2.264791
  H      0.970499    1.861359   -0.048541
  H     -0.450927    1.881266   -0.841627
  H      0.614782   -0.300902    0.790465
  H     -2.048690   -0.095288   -0.689775
  H     -1.401750   -1.581613   -0.014724
  H     -1.417588   -0.572854    2.282706
  H     -2.005245    0.944430    1.623797
  H     -4.095251   -0.219304    0.825699
  H     -3.499178   -1.738094    1.467418
  H     -4.939872    0.172544    4.942801

 Total Charge           Charge          ....    0
 Multiplicity           Mult            ....    1
 Number of Electrons    NEL             ....   66
 Basis Dimension        Dim             ....  339

ORBITAL ENERGIES
----------------

  NO   OCC          E(Eh)            E(eV)
   0   2.0000     -15.575628      -423.8344
   1   2.0000     -15.575364      -423.8272
   2   2.0000     -11.320081      -308.0351
   3   2.0000     -11.274052      -306.7825
   4   2.0000     -11.261022      -306.4280
   5   2.0000     -11.254306      -306.2452
   6   2.0000     -11.241948      -305.9090
   7   2.0000     -11.236924      -305.7722
   8   2.0000     -11.223399      -305.4042
   9   2.0000      -1.241089       -33.7718
  10   2.0000      -1.206047       -32.8182
  11   2.0000      -1.105568       -30.0840
  12   2.0000      -1.047643       -28.5078
  13   2.0000      -0.990796       -26.9609
  14   2.0000      -0.916797       -24.9473
  15   2.0000      -0.830568       -22.6009
  16   2.0000      -0.731082       -19.8938
  17   2.0000      -0.722459       -19.6591
  18   2.0000      -0.705378       -19.1943
  19   2.0000      -0.661232       -17.9930
  20   2.0000      -0.641959       -17.4686
  21   2.0000      -0.620145       -16.8750
  22   2.0000      -0.574319       -15.6280
  23   2.0000      -0.565037       -15.3754
  24   2.0000      -0.558060       -15.1856
  25   2.0000      -0.543702       -14.7949
  26   2.0000      -0.510373       -13.8880
  27   2.0000      -0.500436       -13.6176
  28   2.0000      -0.476099       -12.9553
  29   2.0000      -0.460856       -12.5405
  30   2.0000      -0.434225       -11.8159
  31   2.0000      -0.389282       -10.5929
  32   2.0000      -0.388972       -10.5845
  33   0.0000       0.111874         3.0442
  34   0.0000       0.134622         3.6632
  35   0.0000       0.144326         3.9273
  36   0.0000       0.158659         4.3173
  37   0.0000       0.167173         4.5490

MULLIKEN ATOMIC CHARGES
-----------------------
   0 N :   -0.527517
   1 C :    0.135132
   2 C :   -0.278221
   3 C :   -0.172354
   4 C :   -0.385862
   5 C :   -0.013044
   6 C :   -0.115860
   7 C :   -0.205214
   8 N :   -0.058346
   9 H :    0.242218
  10 H :    0.237553
  11 H :    0.137230
  12 H :    0.124548
  13 H :    0.139356
  14 H :    0.115203
  15 H :    0.147457
  16 H :    0.144059
  17 H :    0.142728
  18 H :    0.190934
Sum of atomic charges:   -0.0000000

LOEWDIN ATOMIC CHARGES
----------------------
   0 N :   -0.122490
   1 C :   -0.322545
   2 C :   -0.233567
   3 C :   -0.245963
   4 C :   -0.249293
   5 C :   -0.112711
   6 C :   -0.106224
   7 C :   -0.183669
   8 N :    0.057630
   9 H :    0.161639
  10 H :    0.162340
  11 H :    0.170314
  12 H :    0.145113
  13 H :    0.149060
  14 H :    0.143095
  15 H :    0.147659
  16 H :    0.156853
  17 H :    0.156500
  18 H :    0.126258

  Mayer bond orders larger than 0.1
B(  0-N ,  1-C ) :   0.9336 B(  0-N ,  9-H ) :   0.8921 B(  0-N , 10-H ) :   0.8879
B(  1-C ,  2-C ) :   0.9294 B(  1-C ,  7-C ) :   0.9149 B(  1-C , 11-H ) :   0.9179
B(  2-C ,  3-C ) :   0.9213 B(  2-C , 12-H ) :   0.9159 B(  2-C , 13-H ) :   0.9330
B(  3-C ,  4-C ) :   0.9292 B(  3-C , 14-H ) :   0.9236 B(  3-C , 15-H ) :   0.9257
B(  4-C ,  5-C ) :   1.1310 B(  4-C ,  6-C ) :  -0.1224 B(  4-C , 16-H ) :   0.9227
B(  4-C , 17-H ) :   0.9219 B(  5-C ,  6-C ) :   2.6120 B(  6-C , 18-H ) :   0.8936
B(  7-C ,  8-N ) :   2.8766

MP2 TOTAL ENERGY:     -381.366493046 Eh
FINAL SINGLE POINT ENERGY      -381.366493046439

DIPOLE MOMENT
-------------
                                X             Y             Z
Electronic contribution:      2.86038      -1.14958      -2.57638
Nuclear contribution   :     -3.16762       1.59750       3.21438
                        -----------------------------------------
Total Dipole Moment    :     -0.30724       0.44792       0.63800
                        -----------------------------------------
Magnitude (a.u.)       :      0.83790
Magnitude (Debye)      :      2.12977

                             ****ORCA TERMINATED NORMALLY****
TOTAL RUN TIME: 0 days 0 hours 16 minutes 9 seconds 786 msec
