                         Program Version 3.0.3 - RELEASE   -
|  1> ! RI-MP2 RIJK def2-TZVP def2-TZVP/C def2-TZVP/JK TIGHTSCF
|  2> % maxcore 2000
|  3> % mp2 density relaxed end
|  4> *xyz 0 1
|  5>  O        0.6784920071     0.7644719561    -1.0140107356
|  6>  C        0.0742602660     1.1638335547    -0.0490435054
|  7>  C        0.6058560999     0.9357555015     1.3115708077
|  8>  N        1.0306865327     0.7793059347     2.3755114940
|  9>  C       -1.2584223775     1.8691957791    -0.0893250274
| 10>  C       -1.9497403738     2.0728891226    -1.4550386081
| 11>  C       -3.0651877123     1.1790872587    -0.9148436243
| 12>  C       -2.5437373578    -0.1291566029    -0.4918903497
| 13>  N       -2.3969220832     1.0099319075     0.4498486045
| 14>  H       -1.2060026811     2.7736458151     0.5230756163
| 15>  H       -2.2488522293     3.1086838138    -1.6167408695
| 16>  H       -1.4151176945     1.7053826185    -2.3330912836
| 17>  H       -4.1260251925     1.3922491459    -0.9849010050
| 18>  H       -3.2532661692    -0.8605222384    -0.1197544071
| 19>  H       -1.6682099846    -0.5518748369    -0.9788543668
| 20> *
| 21>
| 22>                          ****END OF INPUT****

CARTESIAN COORDINATES (ANGSTROEM)
---------------------------------
  O      0.678492    0.764472   -1.014011
  C      0.074260    1.163834   -0.049044
  C      0.605856    0.935756    1.311571
  N      1.030687    0.779306    2.375511
  C     -1.258422    1.869196   -0.089325
  C     -1.949740    2.072889   -1.455039
  C     -3.065188    1.179087   -0.914844
  C     -2.543737   -0.129157   -0.491890
  N     -2.396922    1.009932    0.449849
  H     -1.206003    2.773646    0.523076
  H     -2.248852    3.108684   -1.616741
  H     -1.415118    1.705383   -2.333091
  H     -4.126025    1.392249   -0.984901
  H     -3.253266   -0.860522   -0.119754
  H     -1.668210   -0.551875   -0.978854

 Total Charge           Charge          ....    0
 Multiplicity           Mult            ....    1
 Number of Electrons    NEL             ....   64
 Basis Dimension        Dim             ....  315

ORBITAL ENERGIES
----------------

  NO   OCC          E(Eh)            E(eV)
   0   2.0000     -20.608351      -560.7817
   1   2.0000     -15.609427      -424.7541
   2   2.0000     -15.594284      -424.3420
   3   2.0000     -11.400741      -310.2299
   4   2.0000     -11.306619      -307.6687
   5   2.0000     -11.296977      -307.4064
   6   2.0000     -11.290625      -307.2335
   7   2.0000     -11.279467      -306.9299
   8   2.0000     -11.261036      -306.4284
   9   2.0000      -1.450046       -39.4578
  10   2.0000      -1.316679       -35.8287
  11   2.0000      -1.244792       -33.8725
  12   2.0000      -1.065956       -29.0061
  13   2.0000      -1.000962       -27.2376
  14   2.0000      -0.925144       -25.1745
  15   2.0000      -0.857202       -23.3257
  16   2.0000      -0.788797       -21.4643
  17   2.0000      -0.739038       -20.1103
  18   2.0000      -0.710813       -19.3422
  19   2.0000      -0.689539       -18.7633
  20   2.0000      -0.654934       -17.8217
  21   2.0000      -0.598630       -16.2895
  22   2.0000      -0.591148       -16.0859
  23   2.0000      -0.579500       -15.7690
  24   2.0000      -0.576799       -15.6955
  25   2.0000      -0.528507       -14.3814
  26   2.0000      -0.511138       -13.9088
  27   2.0000      -0.493172       -13.4199
  28   2.0000      -0.489671       -13.3246
  29   2.0000      -0.481687       -13.1074
  30   2.0000      -0.443317       -12.0633
  31   2.0000      -0.402996       -10.9661
  32   0.0000       0.053971         1.4686
  33   0.0000       0.130040         3.5386
  34   0.0000       0.144604         3.9349
  35   0.0000       0.154674         4.2089
  36   0.0000       0.168854         4.5948

MULLIKEN ATOMIC CHARGES
-----------------------
   0 O :   -0.230978
   1 C :    0.282708
   2 C :   -0.160579
   3 N :   -0.034420
   4 C :    0.001160
   5 C :   -0.226605
   6 C :   -0.062010
   7 C :   -0.182384
   8 N :   -0.258681
   9 H :    0.146637
  10 H :    0.141846
  11 H :    0.146264
  12 H :    0.142040
  13 H :    0.145962
  14 H :    0.149038
Sum of atomic charges:   -0.0000000

LOEWDIN ATOMIC CHARGES
----------------------
   0 O :    0.213307
   1 C :   -0.309824
   2 C :   -0.129559
   3 N :    0.107158
   4 C :   -0.212082
   5 C :   -0.197942
   6 C :   -0.206575
   7 C :   -0.241474
   8 N :    0.122140
   9 H :    0.163546
  10 H :    0.142133
  11 H :    0.141677
  12 H :    0.135907
  13 H :    0.138633
  14 H :    0.132954

  Mayer bond orders larger than 0.1
B(  0-O ,  1-C ) :   1.9628 B(  1-C ,  2-C ) :   0.9082 B(  1-C ,  4-C ) :   0.9131
B(  2-C ,  3-N ) :   2.7857 B(  4-C ,  5-C ) :   0.9564 B(  4-C ,  8-N ) :   0.8967
B(  4-C ,  9-H ) :   0.8924 B(  5-C ,  6-C ) :   0.9413 B(  5-C , 10-H ) :   0.9346
B(  5-C , 11-H ) :   0.9084 B(  6-C ,  7-C ) :   0.9501 B(  6-C ,  8-N ) :   0.8556
B(  6-C , 12-H ) :   0.9066 B(  7-C ,  8-N ) :   0.8701 B(  7-C , 13-H ) :   0.9300
B(  7-C , 14-H ) :   0.9006

MP2 TOTAL ENERGY:     -416.058309507 Eh
FINAL SINGLE POINT ENERGY      -416.058309506524

DIPOLE MOMENT
-------------
                                X             Y             Z
Electronic contribution:      6.41962      -0.59223       3.87791
Nuclear contribution   :     -7.49614       1.09693      -5.05402
                        -----------------------------------------
Total Dipole Moment    :     -1.07652       0.50470      -1.17611
                        -----------------------------------------
Magnitude (a.u.)       :      1.67238
Magnitude (Debye)      :      4.25084

                             ****ORCA TERMINATED NORMALLY****
TOTAL RUN TIME: 0 days 0 hours 16 minutes 33 seconds 14 msec
