                         Program Version 3.0.3 - RELEASE   -
|  1> ! RI-MP2 RIJK def2-TZVP def2-TZVP/C def2-TZVP/JK TIGHTSCF
|  2> % maxcore 2000
|  3> % mp2 density relaxed end
|  4> *xyz 0 1
|  5>  C        0.0460196757     1.2328485768    -0.4865359316
|  6>  N       -0.2079631154     0.2036097370     0.5221479214
|  7>  C       -1.4541524697    -0.4670695752     0.3367629631
|  8>  C       -1.6302786219    -1.6120262479    -0.6203545894
|  9>  O       -0.5090979865    -1.9780302111    -1.3327751936
| 10>  C       -0.5104081715    -3.3369761138    -1.7518124507
| 11>  C       -1.6565963685    -1.8711402773     0.9057703686
| 12>  C       -0.5462365142    -2.5459257686     1.5072553329
| 13>  N        0.3569487043    -3.0915794660     1.9841164367
| 14>  H        1.0133234738     1.6989059563    -0.2810487560
| 15>  H        0.0493853340     0.8540449787    -1.5196656957
| 16>  H       -0.7204645093     2.0123228883    -0.4105730257
| 17>  H        0.5514681725    -0.4683648718     0.5281174395
| 18>  H       -2.3109703153     0.1924049265     0.4535180528
| 19>  H       -2.5825704734    -1.7478850725    -1.1362211586
| 20>  H        0.4088804186    -3.4913736298    -2.3194271171
| 21>  H       -0.5249515005    -4.0192022667    -0.8936749289
| 22>  H       -1.3738392536    -3.5492648990    -2.3978985570
| 23>  H       -2.6158075393    -2.0883147138     1.3632632793
| 24> *
| 25>
| 26>                          ****END OF INPUT****

CARTESIAN COORDINATES (ANGSTROEM)
---------------------------------
  C      0.046020    1.232849   -0.486536
  N     -0.207963    0.203610    0.522148
  C     -1.454152   -0.467070    0.336763
  C     -1.630279   -1.612026   -0.620355
  O     -0.509098   -1.978030   -1.332775
  C     -0.510408   -3.336976   -1.751812
  C     -1.656596   -1.871140    0.905770
  C     -0.546237   -2.545926    1.507255
  N      0.356949   -3.091579    1.984116
  H      1.013323    1.698906   -0.281049
  H      0.049385    0.854045   -1.519666
  H     -0.720465    2.012323   -0.410573
  H      0.551468   -0.468365    0.528117
  H     -2.310970    0.192405    0.453518
  H     -2.582570   -1.747885   -1.136221
  H      0.408880   -3.491374   -2.319427
  H     -0.524952   -4.019202   -0.893675
  H     -1.373839   -3.549265   -2.397899
  H     -2.615808   -2.088315    1.363263

 Total Charge           Charge          ....    0
 Multiplicity           Mult            ....    1
 Number of Electrons    NEL             ....   68
 Basis Dimension        Dim             ....  339

ORBITAL ENERGIES
----------------

  NO   OCC          E(Eh)            E(eV)
   0   2.0000     -20.585187      -560.1514
   1   2.0000     -15.566552      -423.5874
   2   2.0000     -15.557185      -423.3325
   3   2.0000     -11.314693      -307.8885
   4   2.0000     -11.291633      -307.2610
   5   2.0000     -11.285437      -307.0924
   6   2.0000     -11.281281      -306.9793
   7   2.0000     -11.274506      -306.7949
   8   2.0000     -11.249268      -306.1081
   9   2.0000      -1.411541       -38.4100
  10   2.0000      -1.241629       -33.7864
  11   2.0000      -1.211593       -32.9691
  12   2.0000      -1.130622       -30.7658
  13   2.0000      -0.961689       -26.1689
  14   2.0000      -0.924195       -25.1486
  15   2.0000      -0.895717       -24.3737
  16   2.0000      -0.814981       -22.1768
  17   2.0000      -0.736603       -20.0440
  18   2.0000      -0.722605       -19.6631
  19   2.0000      -0.661965       -18.0130
  20   2.0000      -0.643955       -17.5229
  21   2.0000      -0.632565       -17.2130
  22   2.0000      -0.610011       -16.5992
  23   2.0000      -0.603603       -16.4249
  24   2.0000      -0.582406       -15.8481
  25   2.0000      -0.552916       -15.0456
  26   2.0000      -0.530920       -14.4471
  27   2.0000      -0.522517       -14.2184
  28   2.0000      -0.515381       -14.0242
  29   2.0000      -0.493425       -13.4268
  30   2.0000      -0.475806       -12.9473
  31   2.0000      -0.453524       -12.3410
  32   2.0000      -0.399395       -10.8681
  33   2.0000      -0.367975       -10.0131
  34   0.0000       0.126788         3.4501
  35   0.0000       0.148105         4.0301
  36   0.0000       0.152631         4.1533
  37   0.0000       0.161935         4.4065
  38   0.0000       0.177961         4.8426

MULLIKEN ATOMIC CHARGES
-----------------------
   0 C :   -0.314917
   1 N :   -0.307090
   2 C :   -0.038665
   3 C :    0.047279
   4 O :   -0.298889
   5 C :   -0.222296
   6 C :   -0.043819
   7 C :   -0.198130
   8 N :   -0.058393
   9 H :    0.141205
  10 H :    0.131840
  11 H :    0.125898
  12 H :    0.221442
  13 H :    0.132479
  14 H :    0.116943
  15 H :    0.146250
  16 H :    0.139038
  17 H :    0.118482
  18 H :    0.161343
Sum of atomic charges:   -0.0000000

LOEWDIN ATOMIC CHARGES
----------------------
   0 C :   -0.336645
   1 N :   -0.002352
   2 C :   -0.238136
   3 C :   -0.277800
   4 O :    0.183889
   5 C :   -0.328644
   6 C :   -0.182263
   7 C :   -0.189394
   8 N :    0.060415
   9 H :    0.118073
  10 H :    0.105249
  11 H :    0.115517
  12 H :    0.180628
  13 H :    0.152154
  14 H :    0.136325
  15 H :    0.117111
  16 H :    0.111851
  17 H :    0.105082
  18 H :    0.168940

  Mayer bond orders larger than 0.1
B(  0-C ,  1-N ) :   0.9189 B(  0-C ,  9-H ) :   0.9383 B(  0-C , 10-H ) :   0.9293
B(  0-C , 11-H ) :   0.9370 B(  1-N ,  2-C ) :   1.0636 B(  1-N , 12-H ) :   0.8689
B(  2-C ,  3-C ) :   0.8747 B(  2-C ,  6-C ) :   0.8334 B(  2-C , 13-H ) :   0.9225
B(  3-C ,  4-O ) :   1.0208 B(  3-C ,  6-C ) :   0.8070 B(  3-C , 14-H ) :   0.9282
B(  4-O ,  5-C ) :   0.8777 B(  5-C , 15-H ) :   0.9386 B(  5-C , 16-H ) :   0.9333
B(  5-C , 17-H ) :   0.9346 B(  6-C ,  7-C ) :   0.9924 B(  6-C , 18-H ) :   0.9016
B(  7-C ,  8-N ) :   2.8305

MP2 TOTAL ENERGY:     -418.468600886 Eh
FINAL SINGLE POINT ENERGY      -418.468600885708

DIPOLE MOMENT
-------------
                                X             Y             Z
Electronic contribution:      0.21104      -3.58097       5.45554
Nuclear contribution   :     -1.39866       3.88028      -6.64370
                        -----------------------------------------
Total Dipole Moment    :     -1.18762       0.29931      -1.18816
                        -----------------------------------------
Magnitude (a.u.)       :      1.70638
Magnitude (Debye)      :      4.33728

                             ****ORCA TERMINATED NORMALLY****
TOTAL RUN TIME: 0 days 0 hours 18 minutes 16 seconds 468 msec
