                         Program Version 3.0.3 - RELEASE   -
|  1> ! RI-MP2 RIJK def2-TZVP def2-TZVP/C def2-TZVP/JK TIGHTSCF
|  2> % maxcore 2000
|  3> % mp2 density relaxed end
|  4> *xyz 0 1
|  5>  C       -0.1068263080     1.5185775654     0.0119578531
|  6>  C       -0.0146982605     0.0028888013     0.0023285654
|  7>  O       -1.3292445263    -0.5278225064     0.0118582828
|  8>  C       -1.3623127229    -1.9313344968     0.0041801069
|  9>  C       -2.8411244035    -2.3392020221     0.0160763140
| 10>  C       -3.0127168994    -3.7882794750     0.0094040784
| 11>  N       -3.1294306175    -4.9377212622     0.0039387701
| 12>  H        0.8944511830     1.9589806135     0.0049310865
| 13>  H       -0.6499101699     1.8760569251    -0.8673047462
| 14>  H       -0.6329679507     1.8658176968     0.9055092545
| 15>  H        0.5262343036    -0.3491513571    -0.8915358088
| 16>  H        0.5432108463    -0.3593819306     0.8815499633
| 17>  H       -0.8656625659    -2.3396291742    -0.8905227883
| 18>  H       -0.8485721604    -2.3497638059     0.8844362954
| 19>  H       -3.3250032237    -1.9195210617     0.9041074667
| 20>  H       -3.3419925242    -1.9093779600    -0.8575711937
| 21> *
| 22>
| 23>                          ****END OF INPUT****

CARTESIAN COORDINATES (ANGSTROEM)
---------------------------------
  C     -0.106826    1.518578    0.011958
  C     -0.014698    0.002889    0.002329
  O     -1.329245   -0.527823    0.011858
  C     -1.362313   -1.931334    0.004180
  C     -2.841124   -2.339202    0.016076
  C     -3.012717   -3.788279    0.009404
  N     -3.129431   -4.937721    0.003939
  H      0.894451    1.958981    0.004931
  H     -0.649910    1.876057   -0.867305
  H     -0.632968    1.865818    0.905509
  H      0.526234   -0.349151   -0.891536
  H      0.543211   -0.359382    0.881550
  H     -0.865663   -2.339629   -0.890523
  H     -0.848572   -2.349764    0.884436
  H     -3.325003   -1.919521    0.904107
  H     -3.341993   -1.909378   -0.857571

 Total Charge           Charge          ....    0
 Multiplicity           Mult            ....    1
 Number of Electrons    NEL             ....   54
 Basis Dimension        Dim             ....  271

ORBITAL ENERGIES
----------------

  NO   OCC          E(Eh)            E(eV)
   0   2.0000     -20.574898      -559.8714
   1   2.0000     -15.570762      -423.7020
   2   2.0000     -11.305786      -307.6461
   3   2.0000     -11.290328      -307.2254
   4   2.0000     -11.282680      -307.0173
   5   2.0000     -11.275118      -306.8116
   6   2.0000     -11.226210      -305.4807
   7   2.0000      -1.398943       -38.0672
   8   2.0000      -1.220551       -33.2129
   9   2.0000      -1.085121       -29.5276
  10   2.0000      -1.019892       -27.7527
  11   2.0000      -0.893920       -24.3248
  12   2.0000      -0.848471       -23.0881
  13   2.0000      -0.716714       -19.5028
  14   2.0000      -0.704749       -19.1772
  15   2.0000      -0.660794       -17.9811
  16   2.0000      -0.641572       -17.4581
  17   2.0000      -0.625550       -17.0221
  18   2.0000      -0.574439       -15.6313
  19   2.0000      -0.557994       -15.1838
  20   2.0000      -0.548433       -14.9236
  21   2.0000      -0.534191       -14.5361
  22   2.0000      -0.514423       -13.9982
  23   2.0000      -0.497361       -13.5339
  24   2.0000      -0.459356       -12.4997
  25   2.0000      -0.458030       -12.4636
  26   2.0000      -0.442605       -12.0439
  27   0.0000       0.122539         3.3344
  28   0.0000       0.140403         3.8206
  29   0.0000       0.156821         4.2673
  30   0.0000       0.173263         4.7147
  31   0.0000       0.186892         5.0856

MULLIKEN ATOMIC CHARGES
-----------------------
   0 C :   -0.360990
   1 C :   -0.055312
   2 O :   -0.290408
   3 C :   -0.073902
   4 C :   -0.077517
   5 C :   -0.205054
   6 N :   -0.065305
   7 H :    0.126062
   8 H :    0.131303
   9 H :    0.131302
  10 H :    0.098360
  11 H :    0.098358
  12 H :    0.111832
  13 H :    0.111832
  14 H :    0.159717
  15 H :    0.159721
Sum of atomic charges:   -0.0000000

LOEWDIN ATOMIC CHARGES
----------------------
   0 C :   -0.314990
   1 C :   -0.347052
   2 O :    0.158916
   3 C :   -0.315860
   4 C :   -0.241789
   5 C :   -0.193768
   6 N :    0.057712
   7 H :    0.126295
   8 H :    0.124867
   9 H :    0.124867
  10 H :    0.118245
  11 H :    0.118245
  12 H :    0.125811
  13 H :    0.125811
  14 H :    0.166345
  15 H :    0.166345

  Mayer bond orders larger than 0.1
B(  0-C ,  1-C ) :   0.9543 B(  0-C ,  7-H ) :   0.9315 B(  0-C ,  8-H ) :   0.9357
B(  0-C ,  9-H ) :   0.9357 B(  1-C ,  2-O ) :   0.9061 B(  1-C , 10-H ) :   0.9260
B(  1-C , 11-H ) :   0.9260 B(  2-O ,  3-C ) :   0.9651 B(  3-C ,  4-C ) :   0.9253
B(  3-C , 12-H ) :   0.9241 B(  3-C , 13-H ) :   0.9241 B(  4-C ,  5-C ) :   0.9037
B(  4-C , 14-H ) :   0.9069 B(  4-C , 15-H ) :   0.9069 B(  5-C ,  6-N ) :   2.8614

MP2 TOTAL ENERGY:     -325.236689669 Eh
FINAL SINGLE POINT ENERGY      -325.236689669006

DIPOLE MOMENT
-------------
                                X             Y             Z
Electronic contribution:     -5.78786      -8.89618       0.00441
Nuclear contribution   :      6.48457      10.29049      -0.00306
                        -----------------------------------------
Total Dipole Moment    :      0.69671       1.39430       0.00135
                        -----------------------------------------
Magnitude (a.u.)       :      1.55868
Magnitude (Debye)      :      3.96185

                             ****ORCA TERMINATED NORMALLY****
TOTAL RUN TIME: 0 days 0 hours 6 minutes 37 seconds 7 msec
