                         Program Version 3.0.3 - RELEASE   -
|  1> ! RI-MP2 RIJK def2-TZVP def2-TZVP/C def2-TZVP/JK TIGHTSCF
|  2> % maxcore 2000
|  3> % mp2 density relaxed end
|  4> *xyz 0 1
|  5>  N       -0.1935476821    -0.8407772935    -1.0577638590
|  6>  C       -0.1000923407     0.1187087834    -0.4204781635
|  7>  C        0.0467704442     1.3656799114     0.3353555309
|  8>  C        1.4333148362     1.9384755695     0.2457902065
|  9>  C        2.1718794071     2.6314502515     1.1779549360
| 10>  C        3.3976070869     3.0050635764     0.5598273270
| 11>  C        3.3705195533     2.5244089795    -0.7278443381
| 12>  N        2.1703275536     1.8863614587    -0.9118796887
| 13>  H       -0.7121900333     2.0681555129    -0.0380668836
| 14>  H       -0.1993846768     1.1756147306     1.3847942854
| 15>  H        1.8619476074     2.8497305527     2.1888120744
| 16>  H        4.2051689836     3.5594161914     1.0119781771
| 17>  H        4.0994227621     2.5715531546    -1.5205010899
| 18>  H        1.9006539885     1.3784356808    -1.7379809545
| 19> *
| 20>
| 21>                          ****END OF INPUT****

CARTESIAN COORDINATES (ANGSTROEM)
---------------------------------
  N     -0.193548   -0.840777   -1.057764
  C     -0.100092    0.118709   -0.420478
  C      0.046770    1.365680    0.335356
  C      1.433315    1.938476    0.245790
  C      2.171879    2.631450    1.177955
  C      3.397607    3.005064    0.559827
  C      3.370520    2.524409   -0.727844
  N      2.170328    1.886361   -0.911880
  H     -0.712190    2.068156   -0.038067
  H     -0.199385    1.175615    1.384794
  H      1.861948    2.849731    2.188812
  H      4.205169    3.559416    1.011978
  H      4.099423    2.571553   -1.520501
  H      1.900654    1.378436   -1.737981

 Total Charge           Charge          ....    0
 Multiplicity           Mult            ....    1
 Number of Electrons    NEL             ....   56
 Basis Dimension        Dim             ....  284

ORBITAL ENERGIES
----------------

  NO   OCC          E(Eh)            E(eV)
   0   2.0000     -15.616309      -424.9414
   1   2.0000     -15.579593      -423.9423
   2   2.0000     -11.300540      -307.5033
   3   2.0000     -11.284558      -307.0684
   4   2.0000     -11.280074      -306.9464
   5   2.0000     -11.263387      -306.4923
   6   2.0000     -11.224160      -305.4249
   7   2.0000     -11.220256      -305.3187
   8   2.0000      -1.308411       -35.6037
   9   2.0000      -1.228935       -33.4410
  10   2.0000      -1.083603       -29.4863
  11   2.0000      -1.056279       -28.7428
  12   2.0000      -0.959530       -26.1101
  13   2.0000      -0.805720       -21.9247
  14   2.0000      -0.787104       -21.4182
  15   2.0000      -0.743382       -20.2284
  16   2.0000      -0.692921       -18.8553
  17   2.0000      -0.649545       -17.6750
  18   2.0000      -0.606624       -16.5071
  19   2.0000      -0.592595       -16.1253
  20   2.0000      -0.577173       -15.7057
  21   2.0000      -0.566027       -15.4024
  22   2.0000      -0.558470       -15.1967
  23   2.0000      -0.542438       -14.7605
  24   2.0000      -0.472400       -12.8547
  25   2.0000      -0.469580       -12.7779
  26   2.0000      -0.362016        -9.8510
  27   2.0000      -0.309441        -8.4203
  28   0.0000       0.120811         3.2874
  29   0.0000       0.144788         3.9399
  30   0.0000       0.152613         4.1528
  31   0.0000       0.163195         4.4408
  32   0.0000       0.172921         4.7054

MULLIKEN ATOMIC CHARGES
-----------------------
   0 N :   -0.063425
   1 C :   -0.184858
   2 C :   -0.132296
   3 C :    0.133249
   4 C :   -0.252542
   5 C :   -0.153769
   6 C :   -0.098567
   7 N :   -0.263980
   8 H :    0.167249
   9 H :    0.175413
  10 H :    0.131513
  11 H :    0.134523
  12 H :    0.149709
  13 H :    0.257781
Sum of atomic charges:   -0.0000000

LOEWDIN ATOMIC CHARGES
----------------------
   0 N :    0.057572
   1 C :   -0.190025
   2 C :   -0.211527
   3 C :   -0.231557
   4 C :   -0.172402
   5 C :   -0.194179
   6 C :   -0.229346
   7 N :    0.207666
   8 H :    0.171740
   9 H :    0.177155
  10 H :    0.141219
  11 H :    0.140131
  12 H :    0.134268
  13 H :    0.199285

  Mayer bond orders larger than 0.1
B(  0-N ,  1-C ) :   2.8478 B(  1-C ,  2-C ) :   0.9187 B(  2-C ,  3-C ) :   0.9102
B(  2-C ,  8-H ) :   0.8974 B(  2-C ,  9-H ) :   0.9182 B(  3-C ,  4-C ) :   1.4539
B(  3-C ,  7-N ) :   1.1114 B(  4-C ,  5-C ) :   1.2849 B(  4-C , 10-H ) :   0.9358
B(  5-C ,  6-C ) :   1.4876 B(  5-C , 11-H ) :   0.9357 B(  6-C ,  7-N ) :   1.1391
B(  6-C , 12-H ) :   0.9168 B(  7-N , 13-H ) :   0.8658

MP2 TOTAL ENERGY:     -341.026622752 Eh
FINAL SINGLE POINT ENERGY      -341.026622752036

DIPOLE MOMENT
-------------
                                X             Y             Z
Electronic contribution:     -1.77528      -2.93218      -1.67019
Nuclear contribution   :      1.82034       3.86658       1.84841
                        -----------------------------------------
Total Dipole Moment    :      0.04506       0.93440       0.17822
                        -----------------------------------------
Magnitude (a.u.)       :      0.95231
Magnitude (Debye)      :      2.42057

                             ****ORCA TERMINATED NORMALLY****
TOTAL RUN TIME: 0 days 0 hours 10 minutes 22 seconds 886 msec
