                         Program Version 3.0.3 - RELEASE   -
|  1> ! RI-MP2 RIJK def2-TZVP def2-TZVP/C def2-TZVP/JK TIGHTSCF
|  2> % maxcore 2000
|  3> % mp2 density relaxed end
|  4> *xyz 0 1
|  5>  N       -0.0895120155     1.3303835656    -0.2045280877
|  6>  C       -0.0319778085     0.0772030329     0.0114077750
|  7>  C       -1.2947600775    -0.7473150511     0.1085173631
|  8>  C       -1.1322431001    -1.9006163215     1.0979404820
|  9>  N        0.0652108785    -2.6521717673     0.7484103567
| 10>  C        1.2517131293    -2.0331561250     0.4534767338
| 11>  O        2.3304980880    -2.5897575485     0.4403563227
| 12>  N        1.1343012611    -0.6724134221     0.1459531625
| 13>  H        0.8424734052     1.7451299003    -0.2768509534
| 14>  H       -2.1161596459    -0.0871588318     0.3875905637
| 15>  H       -1.5109088641    -1.1575015015    -0.8854269085
| 16>  H       -1.0808048062    -1.5128377485     2.1266742566
| 17>  H       -1.9931247301    -2.5718000745     1.0422648828
| 18>  H        0.1872181564    -3.5817019220     1.1187095841
| 19>  H        2.0249934496    -0.2280035850    -0.0252634036
| 20> *
| 21>
| 22>                          ****END OF INPUT****

CARTESIAN COORDINATES (ANGSTROEM)
---------------------------------
  N     -0.089512    1.330384   -0.204528
  C     -0.031978    0.077203    0.011408
  C     -1.294760   -0.747315    0.108517
  C     -1.132243   -1.900616    1.097940
  N      0.065211   -2.652172    0.748410
  C      1.251713   -2.033156    0.453477
  O      2.330498   -2.589758    0.440356
  N      1.134301   -0.672413    0.145953
  H      0.842473    1.745130   -0.276851
  H     -2.116160   -0.087159    0.387591
  H     -1.510909   -1.157502   -0.885427
  H     -1.080805   -1.512838    2.126674
  H     -1.993125   -2.571800    1.042265
  H      0.187218   -3.581702    1.118710
  H      2.024993   -0.228004   -0.025263

 Total Charge           Charge          ....    0
 Multiplicity           Mult            ....    1
 Number of Electrons    NEL             ....   60
 Basis Dimension        Dim             ....  290

ORBITAL ENERGIES
----------------

  NO   OCC          E(Eh)            E(eV)
   0   2.0000     -20.524690      -558.5052
   1   2.0000     -15.611447      -424.8091
   2   2.0000     -15.595679      -424.3800
   3   2.0000     -15.543158      -422.9508
   4   2.0000     -11.394016      -310.0469
   5   2.0000     -11.338293      -308.5306
   6   2.0000     -11.293773      -307.3192
   7   2.0000     -11.255449      -306.2763
   8   2.0000      -1.411288       -38.4031
   9   2.0000      -1.298551       -35.3354
  10   2.0000      -1.243292       -33.8317
  11   2.0000      -1.173824       -31.9414
  12   2.0000      -1.056169       -28.7398
  13   2.0000      -0.920785       -25.0558
  14   2.0000      -0.864440       -23.5226
  15   2.0000      -0.794635       -21.6231
  16   2.0000      -0.728654       -19.8277
  17   2.0000      -0.711104       -19.3501
  18   2.0000      -0.672716       -18.3055
  19   2.0000      -0.666314       -18.1313
  20   2.0000      -0.626087       -17.0367
  21   2.0000      -0.606108       -16.4930
  22   2.0000      -0.584410       -15.9026
  23   2.0000      -0.558036       -15.1849
  24   2.0000      -0.538947       -14.6655
  25   2.0000      -0.492432       -13.3998
  26   2.0000      -0.466709       -12.6998
  27   2.0000      -0.434908       -11.8344
  28   2.0000      -0.413099       -11.2410
  29   2.0000      -0.388102       -10.5608
  30   0.0000       0.117224         3.1898
  31   0.0000       0.141258         3.8438
  32   0.0000       0.148855         4.0505
  33   0.0000       0.155898         4.2422
  34   0.0000       0.177591         4.8325

MULLIKEN ATOMIC CHARGES
-----------------------
   0 N :   -0.347222
   1 C :    0.072665
   2 C :   -0.158286
   3 C :   -0.124004
   4 N :   -0.336840
   5 C :    0.310336
   6 O :   -0.362670
   7 N :   -0.298342
   8 H :    0.199433
   9 H :    0.147256
  10 H :    0.135786
  11 H :    0.127051
  12 H :    0.140205
  13 H :    0.249923
  14 H :    0.244708
Sum of atomic charges:    0.0000000

LOEWDIN ATOMIC CHARGES
----------------------
   0 N :   -0.061407
   1 C :   -0.367976
   2 C :   -0.213287
   3 C :   -0.272447
   4 N :    0.093906
   5 C :   -0.533703
   6 O :    0.066459
   7 N :    0.152212
   8 H :    0.157574
   9 H :    0.156863
  10 H :    0.157375
  11 H :    0.132522
  12 H :    0.138079
  13 H :    0.193808
  14 H :    0.200022

  Mayer bond orders larger than 0.1
B(  0-N ,  1-C ) :   2.0688 B(  0-N ,  8-H ) :   0.8598 B(  1-C ,  2-C ) :   0.9169
B(  1-C ,  7-N ) :   1.0447 B(  2-C ,  3-C ) :   0.9216 B(  2-C ,  9-H ) :   0.9238
B(  2-C , 10-H ) :   0.9170 B(  3-C ,  4-N ) :   0.8709 B(  3-C , 11-H ) :   0.9304
B(  3-C , 12-H ) :   0.9288 B(  4-N ,  5-C ) :   1.1587 B(  4-N , 13-H ) :   0.8656
B(  5-C ,  6-O ) :   1.9865 B(  5-C ,  7-N ) :   1.0321 B(  7-N , 14-H ) :   0.8589

MP2 TOTAL ENERGY:     -395.399690484 Eh
FINAL SINGLE POINT ENERGY      -395.399690484282

DIPOLE MOMENT
-------------
                                X             Y             Z
Electronic contribution:      4.60155      -0.96029      -0.54335
Nuclear contribution   :     -5.40195       0.72062       0.93172
                        -----------------------------------------
Total Dipole Moment    :     -0.80041      -0.23967       0.38837
                        -----------------------------------------
Magnitude (a.u.)       :      0.92137
Magnitude (Debye)      :      2.34193

                             ****ORCA TERMINATED NORMALLY****
TOTAL RUN TIME: 0 days 0 hours 10 minutes 29 seconds 918 msec
