                         Program Version 3.0.3 - RELEASE   -
|  1> ! RI-MP2 RIJK def2-TZVP def2-TZVP/C def2-TZVP/JK TIGHTSCF
|  2> % maxcore 2000
|  3> % mp2 density relaxed end
|  4> *xyz 0 1
|  5>  C        0.0916140248     1.5611696382    -0.1987624195
|  6>  C        0.0341208308     0.0398057983     0.0253063478
|  7>  C        0.5687447176    -0.6694291107    -1.2090209360
|  8>  O       -0.1044915357    -1.3357445048    -1.9525168249
|  9>  C        0.7772257717    -0.4702019507     1.2976194909
| 10>  C        2.1995425472     0.0806941840     1.4350541626
| 11>  C       -0.0397983543    -0.1612944882     2.5590700457
| 12>  O        0.9482602952    -1.8898709127     1.1729626713
| 13>  H        1.1051185113     1.8938123956    -0.4441658157
| 14>  H       -0.5641815286     1.8501544336    -1.0252008916
| 15>  H       -0.2341043675     2.1063374171     0.6916300229
| 16>  H       -1.0162497740    -0.2668402311     0.1086595969
| 17>  H        1.6504153444    -0.5035603846    -1.4142303748
| 18>  H        2.1937009682     1.1598527602     1.6052267514
| 19>  H        2.6873807539    -0.3999983456     2.2872604258
| 20>  H        2.7997914479    -0.1304894228     0.5465368285
| 21>  H       -1.0369115528    -0.6116598098     2.4951574149
| 22>  H        0.4652131916    -0.5743199769     3.4368702554
| 23>  H       -0.1681830178     0.9147109285     2.7116082554
| 24>  H        0.0792648861    -2.2896213274     1.0514878831
| 25> *
| 26>
| 27>                          ****END OF INPUT****

CARTESIAN COORDINATES (ANGSTROEM)
---------------------------------
  C      0.091614    1.561170   -0.198762
  C      0.034121    0.039806    0.025306
  C      0.568745   -0.669429   -1.209021
  O     -0.104492   -1.335745   -1.952517
  C      0.777226   -0.470202    1.297619
  C      2.199543    0.080694    1.435054
  C     -0.039798   -0.161294    2.559070
  O      0.948260   -1.889871    1.172963
  H      1.105119    1.893812   -0.444166
  H     -0.564182    1.850154   -1.025201
  H     -0.234104    2.106337    0.691630
  H     -1.016250   -0.266840    0.108660
  H      1.650415   -0.503560   -1.414230
  H      2.193701    1.159853    1.605227
  H      2.687381   -0.399998    2.287260
  H      2.799791   -0.130489    0.546537
  H     -1.036912   -0.611660    2.495157
  H      0.465213   -0.574320    3.436870
  H     -0.168183    0.914711    2.711608
  H      0.079265   -2.289621    1.051488

 Total Charge           Charge          ....    0
 Multiplicity           Mult            ....    1
 Number of Electrons    NEL             ....   64
 Basis Dimension        Dim             ....  320

ORBITAL ENERGIES
----------------

  NO   OCC          E(Eh)            E(eV)
   0   2.0000     -20.562207      -559.5261
   1   2.0000     -20.552830      -559.2709
   2   2.0000     -11.327812      -308.2454
   3   2.0000     -11.304463      -307.6101
   4   2.0000     -11.247906      -306.0711
   5   2.0000     -11.238714      -305.8210
   6   2.0000     -11.228027      -305.5301
   7   2.0000     -11.224528      -305.4349
   8   2.0000      -1.393329       -37.9144
   9   2.0000      -1.370614       -37.2963
  10   2.0000      -1.102296       -29.9950
  11   2.0000      -1.021170       -27.7875
  12   2.0000      -0.953160       -25.9368
  13   2.0000      -0.910745       -24.7826
  14   2.0000      -0.815629       -22.1944
  15   2.0000      -0.771974       -21.0065
  16   2.0000      -0.700160       -19.0523
  17   2.0000      -0.659856       -17.9556
  18   2.0000      -0.632533       -17.2121
  19   2.0000      -0.631209       -17.1761
  20   2.0000      -0.625590       -17.0232
  21   2.0000      -0.579568       -15.7709
  22   2.0000      -0.564147       -15.3512
  23   2.0000      -0.555028       -15.1031
  24   2.0000      -0.543776       -14.7969
  25   2.0000      -0.540196       -14.6995
  26   2.0000      -0.530446       -14.4342
  27   2.0000      -0.519558       -14.1379
  28   2.0000      -0.498014       -13.5516
  29   2.0000      -0.471585       -12.8325
  30   2.0000      -0.450258       -12.2522
  31   2.0000      -0.407411       -11.0862
  32   0.0000       0.120896         3.2898
  33   0.0000       0.139021         3.7830
  34   0.0000       0.151542         4.1237
  35   0.0000       0.172691         4.6992
  36   0.0000       0.175193         4.7672

MULLIKEN ATOMIC CHARGES
-----------------------
   0 C :   -0.456367
   1 C :    0.012325
   2 C :    0.074620
   3 O :   -0.261877
   4 C :    0.180280
   5 C :   -0.420798
   6 C :   -0.401919
   7 O :   -0.458874
   8 H :    0.142027
   9 H :    0.154179
  10 H :    0.142413
  11 H :    0.088218
  12 H :    0.070401
  13 H :    0.135583
  14 H :    0.144799
  15 H :    0.137188
  16 H :    0.127362
  17 H :    0.146259
  18 H :    0.124550
  19 H :    0.319631
Sum of atomic charges:   -0.0000000

LOEWDIN ATOMIC CHARGES
----------------------
   0 C :   -0.281695
   1 C :   -0.253253
   2 C :   -0.272441
   3 O :    0.131619
   4 C :   -0.400995
   5 C :   -0.266207
   6 C :   -0.275731
   7 O :    0.013376
   8 H :    0.127721
   9 H :    0.130863
  10 H :    0.127030
  11 H :    0.159476
  12 H :    0.112864
  13 H :    0.128296
  14 H :    0.133051
  15 H :    0.126565
  16 H :    0.124270
  17 H :    0.130694
  18 H :    0.126063
  19 H :    0.178434

  Mayer bond orders larger than 0.1
B(  0-C ,  1-C ) :   0.8914 B(  0-C ,  8-H ) :   0.9279 B(  0-C ,  9-H ) :   0.9337
B(  0-C , 10-H ) :   0.9344 B(  1-C ,  2-C ) :   0.8548 B(  1-C ,  4-C ) :   0.9051
B(  1-C , 11-H ) :   0.8996 B(  2-C ,  3-O ) :   1.9989 B(  2-C , 12-H ) :   0.9350
B(  4-C ,  5-C ) :   0.8894 B(  4-C ,  6-C ) :   0.9443 B(  4-C ,  7-O ) :   0.8950
B(  5-C , 13-H ) :   0.9337 B(  5-C , 14-H ) :   0.9331 B(  5-C , 15-H ) :   0.9372
B(  6-C , 16-H ) :   0.9235 B(  6-C , 17-H ) :   0.9403 B(  6-C , 18-H ) :   0.9316
B(  7-O , 19-H ) :   0.8374

MP2 TOTAL ENERGY:     -385.527276353 Eh
FINAL SINGLE POINT ENERGY      -385.527276352651

DIPOLE MOMENT
-------------
                                X             Y             Z
Electronic contribution:     -1.22950      -6.23674      -5.95652
Nuclear contribution   :      1.15148       7.16806       6.76314
                        -----------------------------------------
Total Dipole Moment    :     -0.07802       0.93132       0.80662
                        -----------------------------------------
Magnitude (a.u.)       :      1.23454
Magnitude (Debye)      :      3.13795

                             ****ORCA TERMINATED NORMALLY****
TOTAL RUN TIME: 0 days 0 hours 15 minutes 32 seconds 353 msec
