                         Program Version 3.0.3 - RELEASE   -
|  1> ! RI-MP2 RIJK def2-TZVP def2-TZVP/C def2-TZVP/JK TIGHTSCF
|  2> % maxcore 2000
|  3> % mp2 density relaxed end
|  4> *xyz 0 1
|  5>  O       -0.0469711481     1.3732936908    -0.0222824916
|  6>  C        0.0511569425    -0.0420341647     0.0506355695
|  7>  C        0.7726699497    -0.4292883318     1.3471426225
|  8>  O        0.8982327141    -1.8299103968     1.5357006686
|  9>  C       -0.2961659974    -2.4988657650     1.7664012639
| 10>  O       -0.9524144648    -2.9352562867     0.5770576450
| 11>  C       -1.5118530514    -2.0542837660    -0.2978144422
| 12>  O       -2.0693274928    -2.4851703220    -1.2681543488
| 13>  C       -1.3903603981    -0.5665547223    -0.0042810655
| 14>  H        0.8372898506     1.7339065023    -0.1452312103
| 15>  H        0.6088783697    -0.4451789242    -0.8080196117
| 16>  H        1.7948123963    -0.0373735981     1.3391102138
| 17>  H        0.2380961948     0.0315477553     2.1921528961
| 18>  H       -0.0552420224    -3.4265496338     2.2869183725
| 19>  H       -0.9825997358    -1.8909157238     2.3740895696
| 20>  H       -1.9014470222    -0.3172290320     0.9343770036
| 21>  H       -1.9144943547    -0.0542246612    -0.8109144351
| 22> *
| 23>
| 24>                          ****END OF INPUT****

CARTESIAN COORDINATES (ANGSTROEM)
---------------------------------
  O     -0.046971    1.373294   -0.022282
  C      0.051157   -0.042034    0.050636
  C      0.772670   -0.429288    1.347143
  O      0.898233   -1.829910    1.535701
  C     -0.296166   -2.498866    1.766401
  O     -0.952414   -2.935256    0.577058
  C     -1.511853   -2.054284   -0.297814
  O     -2.069327   -2.485170   -1.268154
  C     -1.390360   -0.566555   -0.004281
  H      0.837290    1.733907   -0.145231
  H      0.608878   -0.445179   -0.808020
  H      1.794812   -0.037374    1.339110
  H      0.238096    0.031548    2.192153
  H     -0.055242   -3.426550    2.286918
  H     -0.982600   -1.890916    2.374090
  H     -1.901447   -0.317229    0.934377
  H     -1.914494   -0.054225   -0.810914

 Total Charge           Charge          ....    0
 Multiplicity           Mult            ....    1
 Number of Electrons    NEL             ....   70
 Basis Dimension        Dim             ....  327

ORBITAL ENERGIES
----------------

  NO   OCC          E(Eh)            E(eV)
   0   2.0000     -20.604932      -560.6887
   1   2.0000     -20.593545      -560.3789
   2   2.0000     -20.585323      -560.1551
   3   2.0000     -20.543079      -559.0056
   4   2.0000     -11.385679      -309.8201
   5   2.0000     -11.360945      -309.1470
   6   2.0000     -11.314353      -307.8792
   7   2.0000     -11.304193      -307.6027
   8   2.0000     -11.258235      -306.3522
   9   2.0000      -1.471793       -40.0495
  10   2.0000      -1.416271       -38.5387
  11   2.0000      -1.392044       -37.8794
  12   2.0000      -1.357632       -36.9430
  13   2.0000      -1.085627       -29.5414
  14   2.0000      -1.001085       -27.2409
  15   2.0000      -0.948076       -25.7985
  16   2.0000      -0.849351       -23.1120
  17   2.0000      -0.791744       -21.5444
  18   2.0000      -0.758044       -20.6274
  19   2.0000      -0.720652       -19.6099
  20   2.0000      -0.709955       -19.3189
  21   2.0000      -0.681743       -18.5512
  22   2.0000      -0.659326       -17.9412
  23   2.0000      -0.647181       -17.6107
  24   2.0000      -0.624695       -16.9988
  25   2.0000      -0.602178       -16.3861
  26   2.0000      -0.575946       -15.6723
  27   2.0000      -0.567387       -15.4394
  28   2.0000      -0.549914       -14.9639
  29   2.0000      -0.531745       -14.4695
  30   2.0000      -0.498436       -13.5631
  31   2.0000      -0.495590       -13.4857
  32   2.0000      -0.466712       -12.6999
  33   2.0000      -0.461422       -12.5559
  34   2.0000      -0.436563       -11.8795
  35   0.0000       0.118281         3.2186
  36   0.0000       0.136668         3.7189
  37   0.0000       0.159459         4.3391
  38   0.0000       0.168291         4.5794
  39   0.0000       0.172734         4.7003

MULLIKEN ATOMIC CHARGES
-----------------------
   0 O :   -0.450348
   1 C :    0.045125
   2 C :   -0.117311
   3 O :   -0.288399
   4 C :    0.029560
   5 O :   -0.206658
   6 C :    0.225620
   7 O :   -0.274103
   8 C :   -0.212999
   9 H :    0.321896
  10 H :    0.109853
  11 H :    0.123856
  12 H :    0.124889
  13 H :    0.147121
  14 H :    0.119539
  15 H :    0.141860
  16 H :    0.160498
Sum of atomic charges:   -0.0000000

LOEWDIN ATOMIC CHARGES
----------------------
   0 O :   -0.006330
   1 C :   -0.351238
   2 C :   -0.308455
   3 O :    0.179562
   4 C :   -0.372142
   5 O :    0.248490
   6 C :   -0.470597
   7 O :    0.146666
   8 C :   -0.210824
   9 H :    0.179481
  10 H :    0.142277
  11 H :    0.132319
  12 H :    0.128112
  13 H :    0.130431
  14 H :    0.114192
  15 H :    0.153634
  16 H :    0.164422

  Mayer bond orders larger than 0.1
B(  0-O ,  1-C ) :   1.0074 B(  0-O ,  9-H ) :   0.8421 B(  1-C ,  2-C ) :   0.8949
B(  1-C ,  8-C ) :   0.8632 B(  1-C , 10-H ) :   0.9403 B(  2-C ,  3-O ) :   0.9038
B(  2-C , 11-H ) :   0.9279 B(  2-C , 12-H ) :   0.9379 B(  3-O ,  4-C ) :   0.9968
B(  4-C ,  5-O ) :   0.8985 B(  4-C , 13-H ) :   0.9340 B(  4-C , 14-H ) :   0.9374
B(  5-O ,  6-C ) :   1.0959 B(  6-C ,  7-O ) :   2.0329 B(  6-C ,  8-C ) :   0.9248
B(  8-C , 15-H ) :   0.9132 B(  8-C , 16-H ) :   0.9084

MP2 TOTAL ENERGY:     -495.367287671 Eh
FINAL SINGLE POINT ENERGY      -495.367287671259

DIPOLE MOMENT
-------------
                                X             Y             Z
Electronic contribution:     -1.52640      -4.22166      -2.67920
Nuclear contribution   :      2.37885       5.26255       3.77293
                        -----------------------------------------
Total Dipole Moment    :      0.85244       1.04089       1.09374
                        -----------------------------------------
Magnitude (a.u.)       :      1.73389
Magnitude (Debye)      :      4.40719

                             ****ORCA TERMINATED NORMALLY****
TOTAL RUN TIME: 0 days 0 hours 15 minutes 6 seconds 151 msec
