                         Program Version 3.0.3 - RELEASE   -
|  1> ! RI-MP2 RIJK def2-TZVP def2-TZVP/C def2-TZVP/JK TIGHTSCF
|  2> % maxcore 2000
|  3> % mp2 density relaxed end
|  4> *xyz 0 1
|  5>  C        0.0228432349     1.4999310695    -0.0435717804
|  6>  C       -0.0525652010     0.0266830911     0.1013991376
|  7>  C       -1.0902775140    -0.8481218635     0.2289903933
|  8>  O       -2.4052582217    -0.5428071370     0.2972506054
|  9>  C       -3.3141626145    -1.4788141430    -0.1245190341
| 10>  N       -4.5355607694    -1.2100463294    -0.0094389851
| 11>  N       -0.5757172943    -2.1092682756     0.3365340126
| 12>  N        0.6873047767    -2.0645545832     0.2761503703
| 13>  O        1.0670454951    -0.7066533439     0.1347419133
| 14>  H        0.5583503192     1.7767720723    -0.9570285365
| 15>  H       -0.9872369402     1.9116647131    -0.0865226444
| 16>  H        0.5498297516     1.9518533369     0.8029419324
| 17>  H       -2.8461684373    -2.3815539203    -0.5232637371
| 18>  H       -5.0974372953    -1.9804911469    -0.3659883675
| 19> *
| 20>
| 21>                          ****END OF INPUT****

CARTESIAN COORDINATES (ANGSTROEM)
---------------------------------
  C      0.022843    1.499931   -0.043572
  C     -0.052565    0.026683    0.101399
  C     -1.090278   -0.848122    0.228990
  O     -2.405258   -0.542807    0.297251
  C     -3.314163   -1.478814   -0.124519
  N     -4.535561   -1.210046   -0.009439
  N     -0.575717   -2.109268    0.336534
  N      0.687305   -2.064555    0.276150
  O      1.067045   -0.706653    0.134742
  H      0.558350    1.776772   -0.957029
  H     -0.987237    1.911665   -0.086523
  H      0.549830    1.951853    0.802942
  H     -2.846168   -2.381554   -0.523264
  H     -5.097437   -1.980491   -0.365988

 Total Charge           Charge          ....    0
 Multiplicity           Mult            ....    1
 Number of Electrons    NEL             ....   66
 Basis Dimension        Dim             ....  309

ORBITAL ENERGIES
----------------

  NO   OCC          E(Eh)            E(eV)
   0   2.0000     -20.673329      -562.5499
   1   2.0000     -20.633581      -561.4683
   2   2.0000     -15.703153      -427.3045
   3   2.0000     -15.651583      -425.9012
   4   2.0000     -15.561815      -423.4585
   5   2.0000     -11.359033      -309.0950
   6   2.0000     -11.342690      -308.6503
   7   2.0000     -11.337613      -308.5121
   8   2.0000     -11.263772      -306.5028
   9   2.0000      -1.545641       -42.0590
  10   2.0000      -1.473613       -40.0991
  11   2.0000      -1.325362       -36.0649
  12   2.0000      -1.225767       -33.3548
  13   2.0000      -1.118769       -30.4433
  14   2.0000      -1.012048       -27.5392
  15   2.0000      -0.922251       -25.0957
  16   2.0000      -0.864882       -23.5346
  17   2.0000      -0.832103       -22.6427
  18   2.0000      -0.774349       -21.0711
  19   2.0000      -0.711890       -19.3715
  20   2.0000      -0.698299       -19.0017
  21   2.0000      -0.667086       -18.1523
  22   2.0000      -0.648745       -17.6532
  23   2.0000      -0.622210       -16.9312
  24   2.0000      -0.599550       -16.3146
  25   2.0000      -0.589185       -16.0325
  26   2.0000      -0.580141       -15.7864
  27   2.0000      -0.560128       -15.2419
  28   2.0000      -0.504122       -13.7179
  29   2.0000      -0.489269       -13.3137
  30   2.0000      -0.458361       -12.4726
  31   2.0000      -0.446616       -12.1530
  32   2.0000      -0.357612        -9.7311
  33   0.0000       0.086290         2.3481
  34   0.0000       0.132111         3.5949
  35   0.0000       0.144311         3.9269
  36   0.0000       0.149110         4.0575
  37   0.0000       0.195877         5.3301

MULLIKEN ATOMIC CHARGES
-----------------------
   0 C :   -0.401820
   1 C :    0.110651
   2 C :    0.179345
   3 O :   -0.226788
   4 C :    0.059764
   5 N :   -0.322261
   6 N :   -0.129308
   7 N :   -0.044597
   8 O :   -0.091025
   9 H :    0.161731
  10 H :    0.173045
  11 H :    0.163170
  12 H :    0.130857
  13 H :    0.237237
Sum of atomic charges:    0.0000000

LOEWDIN ATOMIC CHARGES
----------------------
   0 C :   -0.260686
   1 C :   -0.293835
   2 C :   -0.367365
   3 O :    0.313270
   4 C :   -0.355588
   5 N :   -0.056365
   6 N :    0.027802
   7 N :   -0.022694
   8 O :    0.285102
   9 H :    0.142566
  10 H :    0.147851
  11 H :    0.143168
  12 H :    0.121356
  13 H :    0.175420

  Mayer bond orders larger than 0.1
B(  0-C ,  1-C ) :   0.8803 B(  0-C ,  9-H ) :   0.9237 B(  0-C , 10-H ) :   0.9367
B(  0-C , 11-H ) :   0.9247 B(  1-C ,  2-C ) :   1.4517 B(  1-C ,  7-N ) :   0.1144
B(  1-C ,  8-O ) :   1.1386 B(  2-C ,  3-O ) :   1.0347 B(  2-C ,  6-N ) :   1.2543
B(  3-O ,  4-C ) :   0.9569 B(  4-C ,  5-N ) :   1.9827 B(  4-C , 12-H ) :   0.9244
B(  5-N , 13-H ) :   0.8475 B(  6-N ,  7-N ) :   1.3747 B(  7-N ,  8-O ) :   0.8800

MP2 TOTAL ENERGY:     -469.217087092 Eh
FINAL SINGLE POINT ENERGY      -469.217087092102

DIPOLE MOMENT
-------------
                                X             Y             Z
Electronic contribution:      1.99620      -4.48753       1.08806
Nuclear contribution   :     -1.99707       5.01685      -1.65299
                        -----------------------------------------
Total Dipole Moment    :     -0.00087       0.52932      -0.56493
                        -----------------------------------------
Magnitude (a.u.)       :      0.77416
Magnitude (Debye)      :      1.96776

                             ****ORCA TERMINATED NORMALLY****
TOTAL RUN TIME: 0 days 0 hours 13 minutes 12 seconds 505 msec
