                         Program Version 3.0.3 - RELEASE   -
|  1> ! RI-MP2 RIJK def2-TZVP def2-TZVP/C def2-TZVP/JK TIGHTSCF
|  2> % maxcore 2000
|  3> % mp2 density relaxed end
|  4> *xyz 0 1
|  5>  C        0.1830561427     1.3854004829    -0.1567236386
|  6>  O        0.2356767613    -0.0197350538    -0.1259791018
|  7>  C        0.4661407382    -0.5314849438     1.1693704833
|  8>  C        0.5040210455    -2.0435077741     1.0960127915
|  9>  C       -0.6420405092    -2.6760486653     0.3357731864
| 10>  O        1.7960257560    -2.6197532606     0.8314425604
| 11>  C        1.2152441032    -2.8296254393     2.1227279749
| 12>  C        1.9480421746    -2.2841334922     3.3243099404
| 13>  H        1.1295418661     1.8379490987     0.1792054308
| 14>  H       -0.0022488217     1.6831804895    -1.1915090528
| 15>  H       -0.6277610777     1.7785721662     0.4778587336
| 16>  H        1.4143530974    -0.1459858599     1.5682734026
| 17>  H       -0.3417609412    -0.2141658517     1.8538383285
| 18>  H       -0.6579067163    -2.3099393945    -0.6930916017
| 19>  H       -0.5363173365    -3.7633730348     0.3244884821
| 20>  H       -1.6022763707    -2.4212346665     0.7980314338
| 21>  H        0.8441982374    -3.8479222227     2.2673669459
| 22>  H        2.3175729812    -1.2703550420     3.1618226196
| 23>  H        1.2925565839    -2.2821709332     4.2022212807
| 24>  H        2.8084087056    -2.9215186229     3.5544727305
| 25> *
| 26>
| 27>                          ****END OF INPUT****

CARTESIAN COORDINATES (ANGSTROEM)
---------------------------------
  C      0.183056    1.385400   -0.156724
  O      0.235677   -0.019735   -0.125979
  C      0.466141   -0.531485    1.169370
  C      0.504021   -2.043508    1.096013
  C     -0.642041   -2.676049    0.335773
  O      1.796026   -2.619753    0.831443
  C      1.215244   -2.829625    2.122728
  C      1.948042   -2.284133    3.324310
  H      1.129542    1.837949    0.179205
  H     -0.002249    1.683180   -1.191509
  H     -0.627761    1.778572    0.477859
  H      1.414353   -0.145986    1.568273
  H     -0.341761   -0.214166    1.853838
  H     -0.657907   -2.309939   -0.693092
  H     -0.536317   -3.763373    0.324488
  H     -1.602276   -2.421235    0.798031
  H      0.844198   -3.847922    2.267367
  H      2.317573   -1.270355    3.161823
  H      1.292557   -2.282171    4.202221
  H      2.808409   -2.921519    3.554473

 Total Charge           Charge          ....    0
 Multiplicity           Mult            ....    1
 Number of Electrons    NEL             ....   64
 Basis Dimension        Dim             ....  320

ORBITAL ENERGIES
----------------

  NO   OCC          E(Eh)            E(eV)
   0   2.0000     -20.558463      -559.4242
   1   2.0000     -20.555079      -559.3321
   2   2.0000     -11.286157      -307.1119
   3   2.0000     -11.282866      -307.0224
   4   2.0000     -11.280740      -306.9646
   5   2.0000     -11.273327      -306.7628
   6   2.0000     -11.226264      -305.4822
   7   2.0000     -11.214127      -305.1519
   8   2.0000      -1.404321       -38.2135
   9   2.0000      -1.378105       -37.5001
  10   2.0000      -1.035489       -28.1771
  11   2.0000      -1.008583       -27.4449
  12   2.0000      -0.958479       -26.0816
  13   2.0000      -0.894249       -24.3337
  14   2.0000      -0.842680       -22.9305
  15   2.0000      -0.762710       -20.7544
  16   2.0000      -0.680410       -18.5149
  17   2.0000      -0.667613       -18.1667
  18   2.0000      -0.662410       -18.0251
  19   2.0000      -0.637000       -17.3336
  20   2.0000      -0.589619       -16.0443
  21   2.0000      -0.586909       -15.9706
  22   2.0000      -0.572166       -15.5694
  23   2.0000      -0.552874       -15.0445
  24   2.0000      -0.551109       -14.9964
  25   2.0000      -0.537010       -14.6128
  26   2.0000      -0.503177       -13.6921
  27   2.0000      -0.496133       -13.5005
  28   2.0000      -0.478069       -13.0089
  29   2.0000      -0.435080       -11.8391
  30   2.0000      -0.427997       -11.6464
  31   2.0000      -0.412516       -11.2251
  32   0.0000       0.134487         3.6596
  33   0.0000       0.154507         4.2043
  34   0.0000       0.165568         4.5053
  35   0.0000       0.181945         4.9510
  36   0.0000       0.194496         5.2925

MULLIKEN ATOMIC CHARGES
-----------------------
   0 C :   -0.218636
   1 O :   -0.300662
   2 C :   -0.067977
   3 C :    0.210156
   4 C :   -0.393996
   5 O :   -0.343640
   6 C :    0.021401
   7 C :   -0.378729
   8 H :    0.113437
   9 H :    0.141110
  10 H :    0.108508
  11 H :    0.099150
  12 H :    0.095416
  13 H :    0.154666
  14 H :    0.133668
  15 H :    0.121746
  16 H :    0.103706
  17 H :    0.130185
  18 H :    0.128949
  19 H :    0.141544
Sum of atomic charges:    0.0000000

LOEWDIN ATOMIC CHARGES
----------------------
   0 C :   -0.360371
   1 O :    0.143832
   2 C :   -0.286992
   3 C :   -0.326848
   4 C :   -0.266298
   5 O :    0.178261
   6 C :   -0.276364
   7 C :   -0.295381
   8 H :    0.102453
   9 H :    0.114342
  10 H :    0.100623
  11 H :    0.128009
  12 H :    0.126584
  13 H :    0.134867
  14 H :    0.129829
  15 H :    0.129985
  16 H :    0.137829
  17 H :    0.124984
  18 H :    0.129834
  19 H :    0.130823

  Mayer bond orders larger than 0.1
B(  0-C ,  1-O ) :   0.9222 B(  0-C ,  8-H ) :   0.9371 B(  0-C ,  9-H ) :   0.9393
B(  0-C , 10-H ) :   0.9353 B(  1-O ,  2-C ) :   0.9621 B(  2-C ,  3-C ) :   0.9300
B(  2-C , 11-H ) :   0.9244 B(  2-C , 12-H ) :   0.9165 B(  3-C ,  4-C ) :   0.8919
B(  3-C ,  5-O ) :   0.8720 B(  3-C ,  6-C ) :   0.9696 B(  4-C , 13-H ) :   0.9346
B(  4-C , 14-H ) :   0.9364 B(  4-C , 15-H ) :   0.9262 B(  5-O ,  6-C ) :   0.8907
B(  6-C ,  7-C ) :   0.8809 B(  6-C , 16-H ) :   0.9121 B(  7-C , 17-H ) :   0.9426
B(  7-C , 18-H ) :   0.9254 B(  7-C , 19-H ) :   0.9349

MP2 TOTAL ENERGY:     -385.478593653 Eh
FINAL SINGLE POINT ENERGY      -385.478593652963

DIPOLE MOMENT
-------------
                                X             Y             Z
Electronic contribution:      1.85381      -2.42770      -2.75314
Nuclear contribution   :     -2.34368       2.88509       3.56933
                        -----------------------------------------
Total Dipole Moment    :     -0.48987       0.45739       0.81618
                        -----------------------------------------
Magnitude (a.u.)       :      1.05609
Magnitude (Debye)      :      2.68438

                             ****ORCA TERMINATED NORMALLY****
TOTAL RUN TIME: 0 days 0 hours 12 minutes 5 seconds 587 msec
