                         Program Version 3.0.3 - RELEASE   -
|  1> ! RI-MP2 RIJK def2-TZVP def2-TZVP/C def2-TZVP/JK TIGHTSCF
|  2> % maxcore 2000
|  3> % mp2 density relaxed end
|  4> *xyz 0 1
|  5>  C       -0.1905254280     1.6034079025     0.0364447134
|  6>  C       -0.0405326399     0.0979360894    -0.0496675393
|  7>  C        0.8750434156    -0.5594491306    -1.0819859837
|  8>  C        2.1205768118    -0.2230898444    -0.1989885308
|  9>  N        1.0161917293    -0.5297858100     0.8667284024
| 10>  C        1.0860042732    -1.7530297448    -0.0991699457
| 11>  C        2.5957212390    -1.6608723761    -0.1646227671
| 12>  C        3.6277715128    -2.4086139294    -0.9400712648
| 13>  C        3.6842011222    -2.3479760919     0.5827993104
| 14>  H        0.7611444556     2.1211462737    -0.1174183310
| 15>  H       -0.8952230120     1.9639622623    -0.7208416702
| 16>  H       -0.5768543956     1.8916431874     1.0196451575
| 17>  H       -1.0125821606    -0.3937480360     0.0882074920
| 18>  H        0.8193040776    -0.5946016189    -2.1759891857
| 19>  H        2.7006018372     0.6994096650    -0.1602505945
| 20>  H        0.4330913540    -2.6143730164     0.0550621399
| 21>  H        3.3496286003    -3.3514054833    -1.4006288152
| 22>  H        4.3681943389    -1.8441730949    -1.4981735313
| 23>  H        4.4616602312    -1.7429190746     1.0379549502
| 24>  H        3.4420694475    -3.2498364789     1.1356751635
| 25> *
| 26>
| 27>                          ****END OF INPUT****

CARTESIAN COORDINATES (ANGSTROEM)
---------------------------------
  C     -0.190525    1.603408    0.036445
  C     -0.040533    0.097936   -0.049668
  C      0.875043   -0.559449   -1.081986
  C      2.120577   -0.223090   -0.198989
  N      1.016192   -0.529786    0.866728
  C      1.086004   -1.753030   -0.099170
  C      2.595721   -1.660872   -0.164623
  C      3.627772   -2.408614   -0.940071
  C      3.684201   -2.347976    0.582799
  H      0.761144    2.121146   -0.117418
  H     -0.895223    1.963962   -0.720842
  H     -0.576854    1.891643    1.019645
  H     -1.012582   -0.393748    0.088207
  H      0.819304   -0.594602   -2.175989
  H      2.700602    0.699410   -0.160251
  H      0.433091   -2.614373    0.055062
  H      3.349629   -3.351405   -1.400629
  H      4.368194   -1.844173   -1.498174
  H      4.461660   -1.742919    1.037955
  H      3.442069   -3.249836    1.135675

 Total Charge           Charge          ....    0
 Multiplicity           Mult            ....    1
 Number of Electrons    NEL             ....   66
 Basis Dimension        Dim             ....  345

ORBITAL ENERGIES
----------------

  NO   OCC          E(Eh)            E(eV)
   0   2.0000     -15.559320      -423.3906
   1   2.0000     -11.270087      -306.6747
   2   2.0000     -11.269962      -306.6713
   3   2.0000     -11.254872      -306.2606
   4   2.0000     -11.243976      -305.9641
   5   2.0000     -11.240815      -305.8781
   6   2.0000     -11.225987      -305.4746
   7   2.0000     -11.223065      -305.3951
   8   2.0000     -11.213817      -305.1435
   9   2.0000      -1.311642       -35.6916
  10   2.0000      -1.136391       -30.9228
  11   2.0000      -1.022355       -27.8197
  12   2.0000      -0.942537       -25.6477
  13   2.0000      -0.903223       -24.5780
  14   2.0000      -0.875374       -23.8201
  15   2.0000      -0.822893       -22.3921
  16   2.0000      -0.754226       -20.5235
  17   2.0000      -0.697862       -18.9898
  18   2.0000      -0.674357       -18.3502
  19   2.0000      -0.650182       -17.6924
  20   2.0000      -0.637442       -17.3457
  21   2.0000      -0.588598       -16.0166
  22   2.0000      -0.586393       -15.9566
  23   2.0000      -0.537883       -14.6365
  24   2.0000      -0.516578       -14.0568
  25   2.0000      -0.515635       -14.0311
  26   2.0000      -0.482802       -13.1377
  27   2.0000      -0.455946       -12.4069
  28   2.0000      -0.447947       -12.1893
  29   2.0000      -0.434558       -11.8249
  30   2.0000      -0.407158       -11.0793
  31   2.0000      -0.397330       -10.8119
  32   2.0000      -0.360615        -9.8128
  33   0.0000       0.146466         3.9856
  34   0.0000       0.151107         4.1118
  35   0.0000       0.163786         4.4569
  36   0.0000       0.166002         4.5171
  37   0.0000       0.186627         5.0784

MULLIKEN ATOMIC CHARGES
-----------------------
   0 C :   -0.413505
   1 C :    0.011501
   2 C :   -0.073169
   3 C :   -0.100474
   4 N :   -0.191849
   5 C :   -0.077739
   6 C :    0.033069
   7 C :   -0.285025
   8 C :   -0.278543
   9 H :    0.127146
  10 H :    0.130207
  11 H :    0.139547
  12 H :    0.096152
  13 H :    0.106567
  14 H :    0.133177
  15 H :    0.129639
  16 H :    0.127776
  17 H :    0.127538
  18 H :    0.128847
  19 H :    0.129137
Sum of atomic charges:    0.0000000

LOEWDIN ATOMIC CHARGES
----------------------
   0 C :   -0.296875
   1 C :   -0.269525
   2 C :   -0.143000
   3 C :   -0.132149
   4 N :    0.150958
   5 C :   -0.133263
   6 C :   -0.210960
   7 C :   -0.204160
   8 C :   -0.198132
   9 H :    0.124718
  10 H :    0.127151
  11 H :    0.129576
  12 H :    0.138119
  13 H :    0.122495
  14 H :    0.127004
  15 H :    0.128620
  16 H :    0.134097
  17 H :    0.134042
  18 H :    0.135583
  19 H :    0.135701

  Mayer bond orders larger than 0.1
B(  0-C ,  1-C ) :   0.9186 B(  0-C ,  9-H ) :   0.9347 B(  0-C , 10-H ) :   0.9357
B(  0-C , 11-H ) :   0.9348 B(  1-C ,  2-C ) :   0.9345 B(  1-C ,  4-N ) :   0.9135
B(  1-C , 12-H ) :   0.9210 B(  2-C ,  3-C ) :   0.9143 B(  2-C ,  5-C ) :   0.9100
B(  2-C , 13-H ) :   0.9186 B(  3-C ,  4-N ) :   0.9488 B(  3-C ,  6-C ) :   0.8782
B(  3-C , 14-H ) :   0.8763 B(  4-N ,  5-C ) :   0.9486 B(  5-C ,  6-C ) :   0.8753
B(  5-C , 15-H ) :   0.8768 B(  6-C ,  7-C ) :   0.8750 B(  6-C ,  8-C ) :   0.8758
B(  7-C ,  8-C ) :   0.9369 B(  7-C , 16-H ) :   0.9169 B(  7-C , 17-H ) :   0.9168
B(  8-C , 18-H ) :   0.9189 B(  8-C , 19-H ) :   0.9188

MP2 TOTAL ENERGY:     -365.229130811 Eh
FINAL SINGLE POINT ENERGY      -365.229130810999

DIPOLE MOMENT
-------------
                                X             Y             Z
Electronic contribution:      0.06238      -1.99674       0.72290
Nuclear contribution   :     -0.07319       1.98681      -1.40207
                        -----------------------------------------
Total Dipole Moment    :     -0.01081      -0.00993      -0.67917
                        -----------------------------------------
Magnitude (a.u.)       :      0.67933
Magnitude (Debye)      :      1.72672

                             ****ORCA TERMINATED NORMALLY****
TOTAL RUN TIME: 0 days 0 hours 19 minutes 13 seconds 48 msec
