                         Program Version 3.0.3 - RELEASE   -
|  1> ! RI-MP2 RIJK def2-TZVP def2-TZVP/C def2-TZVP/JK TIGHTSCF
|  2> % maxcore 2000
|  3> % mp2 density relaxed end
|  4> *xyz 0 1
|  5>  C       -0.0140127739     1.5168175288     0.0249339381
|  6>  C       -0.0063065670     0.0242689172    -0.0341798626
|  7>  C       -0.0549599298    -0.7893090431    -1.1204685554
|  8>  N        0.0855469298    -2.1350943114    -0.8320316308
|  9>  C        0.0727418013    -2.2549792403     0.6060578953
| 10>  C       -0.6634104973    -3.3487614399     1.3424631739
| 11>  C        0.8366460971    -3.3248000768     1.3495252932
| 12>  C        0.0676908875    -0.8415007099     1.1426468232
| 13>  O        0.1311502679    -0.5418970326     2.3228154164
| 14>  H        0.9222092995     1.9033984933     0.4443044335
| 15>  H       -0.1503515598     1.9598667976    -0.9658734518
| 16>  H       -0.8172998673     1.8767481609     0.6768851981
| 17>  H       -0.1541879801    -0.4912928408    -2.1580229229
| 18>  H       -0.4538989236    -2.7933563253    -1.3763078287
| 19>  H       -1.1854726505    -3.0386767252     2.2415739139
| 20>  H       -1.1639695240    -4.1074888184     0.7492828602
| 21>  H        1.3661522375    -4.0586673414     0.7528436308
| 22>  H        1.3349553427    -2.9937998228     2.2544724656
| 23> *
| 24>
| 25>                          ****END OF INPUT****

CARTESIAN COORDINATES (ANGSTROEM)
---------------------------------
  C     -0.014013    1.516818    0.024934
  C     -0.006307    0.024269   -0.034180
  C     -0.054960   -0.789309   -1.120469
  N      0.085547   -2.135094   -0.832032
  C      0.072742   -2.254979    0.606058
  C     -0.663410   -3.348761    1.342463
  C      0.836646   -3.324800    1.349525
  C      0.067691   -0.841501    1.142647
  O      0.131150   -0.541897    2.322815
  H      0.922209    1.903398    0.444304
  H     -0.150352    1.959867   -0.965873
  H     -0.817300    1.876748    0.676885
  H     -0.154188   -0.491293   -2.158023
  H     -0.453899   -2.793356   -1.376308
  H     -1.185473   -3.038677    2.241574
  H     -1.163970   -4.107489    0.749283
  H      1.366152   -4.058667    0.752844
  H      1.334955   -2.993800    2.254472

 Total Charge           Charge          ....    0
 Multiplicity           Mult            ....    1
 Number of Electrons    NEL             ....   66
 Basis Dimension        Dim             ....  333

ORBITAL ENERGIES
----------------

  NO   OCC          E(Eh)            E(eV)
   0   2.0000     -20.519119      -558.3536
   1   2.0000     -15.588717      -424.1906
   2   2.0000     -11.315372      -307.9069
   3   2.0000     -11.297201      -307.4125
   4   2.0000     -11.277222      -306.8688
   5   2.0000     -11.244434      -305.9766
   6   2.0000     -11.238392      -305.8122
   7   2.0000     -11.224685      -305.4392
   8   2.0000     -11.222222      -305.3722
   9   2.0000      -1.363418       -37.1005
  10   2.0000      -1.282546       -34.8998
  11   2.0000      -1.140690       -31.0397
  12   2.0000      -1.065059       -28.9817
  13   2.0000      -0.943767       -25.6812
  14   2.0000      -0.910768       -24.7833
  15   2.0000      -0.838951       -22.8290
  16   2.0000      -0.776245       -21.1227
  17   2.0000      -0.736010       -20.0278
  18   2.0000      -0.711651       -19.3650
  19   2.0000      -0.657881       -17.9019
  20   2.0000      -0.640294       -17.4233
  21   2.0000      -0.603374       -16.4186
  22   2.0000      -0.595865       -16.2143
  23   2.0000      -0.578771       -15.7492
  24   2.0000      -0.551760       -15.0141
  25   2.0000      -0.545166       -14.8347
  26   2.0000      -0.536699       -14.6043
  27   2.0000      -0.532333       -14.4855
  28   2.0000      -0.494124       -13.4458
  29   2.0000      -0.457259       -12.4426
  30   2.0000      -0.407791       -11.0965
  31   2.0000      -0.393706       -10.7133
  32   2.0000      -0.318787        -8.6746
  33   0.0000       0.105059         2.8588
  34   0.0000       0.128073         3.4851
  35   0.0000       0.150927         4.1069
  36   0.0000       0.165138         4.4936
  37   0.0000       0.180392         4.9087

MULLIKEN ATOMIC CHARGES
-----------------------
   0 C :   -0.397472
   1 C :   -0.037925
   2 C :   -0.028806
   3 N :   -0.307816
   4 C :    0.173885
   5 C :   -0.294615
   6 C :   -0.254214
   7 C :    0.104972
   8 O :   -0.345104
   9 H :    0.145925
  10 H :    0.130418
  11 H :    0.148271
  12 H :    0.141782
  13 H :    0.238600
  14 H :    0.152061
  15 H :    0.138755
  16 H :    0.138276
  17 H :    0.153008
Sum of atomic charges:    0.0000000

LOEWDIN ATOMIC CHARGES
----------------------
   0 C :   -0.270165
   1 C :   -0.189954
   2 C :   -0.157680
   3 N :    0.119050
   4 C :   -0.234590
   5 C :   -0.188743
   6 C :   -0.182762
   7 C :   -0.289879
   8 O :    0.106986
   9 H :    0.134834
  10 H :    0.128524
  11 H :    0.136189
  12 H :    0.139965
  13 H :    0.184585
  14 H :    0.145788
  15 H :    0.134839
  16 H :    0.137381
  17 H :    0.145630

  Mayer bond orders larger than 0.1
B(  0-C ,  1-C ) :   0.8904 B(  0-C ,  9-H ) :   0.9286 B(  0-C , 10-H ) :   0.9501
B(  0-C , 11-H ) :   0.9312 B(  1-C ,  2-C ) :   1.5377 B(  1-C ,  7-C ) :   1.0444
B(  2-C ,  3-N ) :   1.1569 B(  2-C , 12-H ) :   0.9110 B(  3-N ,  4-C ) :   0.8814
B(  3-N , 13-H ) :   0.8635 B(  4-C ,  5-C ) :   0.8316 B(  4-C ,  6-C ) :   0.7967
B(  4-C ,  7-C ) :   0.9646 B(  5-C ,  6-C ) :   0.9325 B(  5-C , 14-H ) :   0.9163
B(  5-C , 15-H ) :   0.9222 B(  6-C , 16-H ) :   0.9254 B(  6-C , 17-H ) :   0.9194
B(  7-C ,  8-O ) :   1.9852

MP2 TOTAL ENERGY:     -401.274078412 Eh
FINAL SINGLE POINT ENERGY      -401.274078412431

DIPOLE MOMENT
-------------
                                X             Y             Z
Electronic contribution:      0.30760      -0.61930       0.77235
Nuclear contribution   :     -0.68322      -0.12812      -2.18060
                        -----------------------------------------
Total Dipole Moment    :     -0.37561      -0.74743      -1.40826
                        -----------------------------------------
Magnitude (a.u.)       :      1.63796
Magnitude (Debye)      :      4.16337

                             ****ORCA TERMINATED NORMALLY****
TOTAL RUN TIME: 0 days 0 hours 18 minutes 12 seconds 64 msec
