                         Program Version 3.0.3 - RELEASE   -
|  1> ! RI-MP2 RIJK def2-TZVP def2-TZVP/C def2-TZVP/JK TIGHTSCF
|  2> % maxcore 2000
|  3> % mp2 density relaxed end
|  4> *xyz 0 1
|  5>  C       -0.2280367696     1.4369837904     0.1105437089
|  6>  N       -0.0006645005    -0.0022601784     0.0469884788
|  7>  C        0.7619605610    -0.4222332446    -1.1578082811
|  8>  C        2.1486111041    -0.2481669024    -0.4839890680
|  9>  N        2.6311044748    -1.6023964021    -0.8842545922
| 10>  C        1.1506815881    -1.9411180814    -0.9317571679
| 11>  C        0.9600723044    -1.9609280578     0.5947761962
| 12>  O        0.6891725873    -2.8373247822     1.3576510902
| 13>  C        1.2349515729    -0.4618828325     0.7961892401
| 14>  H        0.6649521228     2.0498309413    -0.1036048297
| 15>  H       -1.0063359426     1.7053370875    -0.6114734505
| 16>  H       -0.5900793843     1.7008579285     1.1085660133
| 17>  H        0.4510188635    -0.0708298536    -2.1426320695
| 18>  H        2.8319224942     0.5967358300    -0.5464235566
| 19>  H        2.9729037210    -1.5375235616    -1.8426831481
| 20>  H        0.8161536915    -2.7841200975    -1.5299274083
| 21>  H        1.4243561213    -0.0687609935     1.7913717843
| 22> *
| 23>
| 24>                          ****END OF INPUT****

CARTESIAN COORDINATES (ANGSTROEM)
---------------------------------
  C     -0.228037    1.436984    0.110544
  N     -0.000665   -0.002260    0.046988
  C      0.761961   -0.422233   -1.157808
  C      2.148611   -0.248167   -0.483989
  N      2.631104   -1.602396   -0.884255
  C      1.150682   -1.941118   -0.931757
  C      0.960072   -1.960928    0.594776
  O      0.689173   -2.837325    1.357651
  C      1.234952   -0.461883    0.796189
  H      0.664952    2.049831   -0.103605
  H     -1.006336    1.705337   -0.611473
  H     -0.590079    1.700858    1.108566
  H      0.451019   -0.070830   -2.142632
  H      2.831922    0.596736   -0.546424
  H      2.972904   -1.537524   -1.842683
  H      0.816154   -2.784120   -1.529927
  H      1.424356   -0.068761    1.791372

 Total Charge           Charge          ....    0
 Multiplicity           Mult            ....    1
 Number of Electrons    NEL             ....   66
 Basis Dimension        Dim             ....  327

ORBITAL ENERGIES
----------------

  NO   OCC          E(Eh)            E(eV)
   0   2.0000     -20.549425      -559.1783
   1   2.0000     -15.572078      -423.7378
   2   2.0000     -15.572011      -423.7360
   3   2.0000     -11.334658      -308.4317
   4   2.0000     -11.287285      -307.1426
   5   2.0000     -11.286043      -307.1088
   6   2.0000     -11.283618      -307.0428
   7   2.0000     -11.282015      -306.9992
   8   2.0000     -11.259872      -306.3967
   9   2.0000      -1.398272       -38.0489
  10   2.0000      -1.322226       -35.9796
  11   2.0000      -1.212578       -32.9959
  12   2.0000      -1.028655       -27.9911
  13   2.0000      -0.956965       -26.0404
  14   2.0000      -0.942237       -25.6396
  15   2.0000      -0.881847       -23.9963
  16   2.0000      -0.758357       -20.6359
  17   2.0000      -0.747608       -20.3434
  18   2.0000      -0.713933       -19.4271
  19   2.0000      -0.664804       -18.0902
  20   2.0000      -0.651294       -17.7226
  21   2.0000      -0.640887       -17.4394
  22   2.0000      -0.604473       -16.4486
  23   2.0000      -0.581375       -15.8200
  24   2.0000      -0.562662       -15.3108
  25   2.0000      -0.555460       -15.1148
  26   2.0000      -0.525565       -14.3013
  27   2.0000      -0.518997       -14.1226
  28   2.0000      -0.494197       -13.4478
  29   2.0000      -0.460312       -12.5257
  30   2.0000      -0.431426       -11.7397
  31   2.0000      -0.383663       -10.4400
  32   2.0000      -0.365174        -9.9369
  33   0.0000       0.120361         3.2752
  34   0.0000       0.132293         3.5999
  35   0.0000       0.154742         4.2108
  36   0.0000       0.172663         4.6984
  37   0.0000       0.175759         4.7826

MULLIKEN ATOMIC CHARGES
-----------------------
   0 C :   -0.342441
   1 N :   -0.208522
   2 C :   -0.112001
   3 C :   -0.120719
   4 N :   -0.365491
   5 C :    0.070431
   6 C :    0.071074
   7 O :   -0.236569
   8 C :    0.045915
   9 H :    0.108761
  10 H :    0.142266
  11 H :    0.148757
  12 H :    0.132074
  13 H :    0.142043
  14 H :    0.211439
  15 H :    0.157248
  16 H :    0.155737
Sum of atomic charges:   -0.0000000

LOEWDIN ATOMIC CHARGES
----------------------
   0 C :   -0.330221
   1 N :    0.097799
   2 C :   -0.190376
   3 C :   -0.205683
   4 N :    0.005401
   5 C :   -0.176095
   6 C :   -0.281755
   7 O :    0.181746
   8 C :   -0.156248
   9 H :    0.105679
  10 H :    0.120566
  11 H :    0.121632
  12 H :    0.133076
  13 H :    0.129860
  14 H :    0.169193
  15 H :    0.136289
  16 H :    0.139138

  Mayer bond orders larger than 0.1
B(  0-C ,  1-N ) :   0.8824 B(  0-C ,  9-H ) :   0.9218 B(  0-C , 10-H ) :   0.9389
B(  0-C , 11-H ) :   0.9400 B(  1-N ,  2-C ) :   0.9082 B(  1-N ,  8-C ) :   0.7927
B(  2-C ,  3-C ) :   0.9551 B(  2-C ,  5-C ) :   0.8391 B(  2-C , 12-H ) :   0.8982
B(  3-C ,  4-N ) :   0.9513 B(  3-C ,  8-C ) :   0.8275 B(  3-C , 13-H ) :   0.9083
B(  4-N ,  5-C ) :   0.8521 B(  4-N , 14-H ) :   0.8640 B(  5-C ,  6-C ) :   0.8568
B(  5-C ,  8-C ) :  -0.1111 B(  5-C , 15-H ) :   0.8900 B(  6-C ,  7-O ) :   2.0865
B(  6-C ,  8-C ) :   0.8588 B(  8-C , 16-H ) :   0.8825

MP2 TOTAL ENERGY:     -417.228044928 Eh
FINAL SINGLE POINT ENERGY      -417.228044928426

DIPOLE MOMENT
-------------
                                X             Y             Z
Electronic contribution:      0.88892      -6.67520       2.04363
Nuclear contribution   :     -0.63733       8.08366      -3.20970
                        -----------------------------------------
Total Dipole Moment    :      0.25159       1.40846      -1.16607
                        -----------------------------------------
Magnitude (a.u.)       :      1.84575
Magnitude (Debye)      :      4.69151

                             ****ORCA TERMINATED NORMALLY****
TOTAL RUN TIME: 0 days 0 hours 25 minutes 28 seconds 216 msec
