                         Program Version 3.0.3 - RELEASE   -
|  1> ! RI-MP2 RIJK def2-TZVP def2-TZVP/C def2-TZVP/JK TIGHTSCF
|  2> % maxcore 2000
|  3> % mp2 density relaxed end
|  4> *xyz 0 1
|  5>  C       -0.0903260838     1.6187184628     0.0559370524
|  6>  C        0.0142925771     0.0974799703     0.0150933144
|  7>  O        0.7050978926    -0.3102040358     1.1853129038
|  8>  C       -1.3714595819    -0.5410931278    -0.0672475741
|  9>  C       -1.9691291188    -1.2283867395    -1.2627959656
| 10>  C       -0.9199440012    -2.0442788145    -2.0314616506
| 11>  C       -0.6553295058    -2.8709295039    -0.7254908710
| 12>  O        0.6409157739    -2.8686879886    -0.1410893736
| 13>  C       -1.6646511334    -2.0191864733     0.0246907972
| 14>  H        0.9060495521     2.0668604908     0.0918728890
| 15>  H       -0.6158358266     1.9971372409    -0.8263674498
| 16>  H       -0.6374984901     1.9351907703     0.9502567524
| 17>  H        0.5964055578    -0.1844555046    -0.8738727652
| 18>  H        0.8676756548    -1.2566893517     1.0716929227
| 19>  H       -2.1181835143     0.0185925825     0.4948055782
| 20>  H       -2.9394466348    -0.9568514250    -1.6601270065
| 21>  H       -1.3524774481    -2.6612200432    -2.8224939894
| 22>  H       -0.0678745032    -1.4949685786    -2.4419590990
| 23>  H       -1.0089381133    -3.9027700606    -0.8420060662
| 24>  H        1.2438357572    -3.3616721460    -0.7066635882
| 25>  H       -2.3495317000    -2.4039203245     0.7704405193
| 26> *
| 27>
| 28>                          ****END OF INPUT****

CARTESIAN COORDINATES (ANGSTROEM)
---------------------------------
  C     -0.090326    1.618718    0.055937
  C      0.014293    0.097480    0.015093
  O      0.705098   -0.310204    1.185313
  C     -1.371460   -0.541093   -0.067248
  C     -1.969129   -1.228387   -1.262796
  C     -0.919944   -2.044279   -2.031462
  C     -0.655330   -2.870930   -0.725491
  O      0.640916   -2.868688   -0.141089
  C     -1.664651   -2.019186    0.024691
  H      0.906050    2.066860    0.091873
  H     -0.615836    1.997137   -0.826367
  H     -0.637498    1.935191    0.950257
  H      0.596406   -0.184456   -0.873873
  H      0.867676   -1.256689    1.071693
  H     -2.118184    0.018593    0.494806
  H     -2.939447   -0.956851   -1.660127
  H     -1.352477   -2.661220   -2.822494
  H     -0.067875   -1.494969   -2.441959
  H     -1.008938   -3.902770   -0.842006
  H      1.243836   -3.361672   -0.706664
  H     -2.349532   -2.403920    0.770441

 Total Charge           Charge          ....    0
 Multiplicity           Mult            ....    1
 Number of Electrons    NEL             ....   70
 Basis Dimension        Dim             ....  351

ORBITAL ENERGIES
----------------

  NO   OCC          E(Eh)            E(eV)
   0   2.0000     -20.571423      -559.7769
   1   2.0000     -20.524736      -558.5065
   2   2.0000     -11.294264      -307.3326
   3   2.0000     -11.266997      -306.5906
   4   2.0000     -11.241103      -305.8860
   5   2.0000     -11.234587      -305.7087
   6   2.0000     -11.233387      -305.6760
   7   2.0000     -11.231451      -305.6233
   8   2.0000     -11.203183      -304.8541
   9   2.0000      -1.377528       -37.4844
  10   2.0000      -1.335518       -36.3413
  11   2.0000      -1.189997       -32.3815
  12   2.0000      -1.020286       -27.7634
  13   2.0000      -0.973159       -26.4810
  14   2.0000      -0.901358       -24.5272
  15   2.0000      -0.847199       -23.0535
  16   2.0000      -0.752966       -20.4893
  17   2.0000      -0.744909       -20.2700
  18   2.0000      -0.725999       -19.7554
  19   2.0000      -0.688906       -18.7461
  20   2.0000      -0.671621       -18.2757
  21   2.0000      -0.641586       -17.4584
  22   2.0000      -0.592947       -16.1349
  23   2.0000      -0.582347       -15.8465
  24   2.0000      -0.568904       -15.4807
  25   2.0000      -0.543974       -14.8023
  26   2.0000      -0.523066       -14.2333
  27   2.0000      -0.519041       -14.1238
  28   2.0000      -0.506207       -13.7746
  29   2.0000      -0.484111       -13.1733
  30   2.0000      -0.476238       -12.9591
  31   2.0000      -0.447637       -12.1808
  32   2.0000      -0.422321       -11.4919
  33   2.0000      -0.409113       -11.1325
  34   2.0000      -0.378829       -10.3085
  35   0.0000       0.126713         3.4480
  36   0.0000       0.149443         4.0665
  37   0.0000       0.155366         4.2277
  38   0.0000       0.167408         4.5554
  39   0.0000       0.188735         5.1357

MULLIKEN ATOMIC CHARGES
-----------------------
   0 C :   -0.389883
   1 C :    0.170548
   2 O :   -0.488779
   3 C :   -0.173404
   4 C :   -0.112196
   5 C :   -0.259496
   6 C :    0.073622
   7 O :   -0.506794
   8 C :   -0.143971
   9 H :    0.136066
  10 H :    0.122996
  11 H :    0.126584
  12 H :    0.062401
  13 H :    0.333677
  14 H :    0.110740
  15 H :    0.134970
  16 H :    0.124583
  17 H :    0.120059
  18 H :    0.101405
  19 H :    0.322556
  20 H :    0.134315
Sum of atomic charges:   -0.0000000

LOEWDIN ATOMIC CHARGES
----------------------
   0 C :   -0.291994
   1 C :   -0.363477
   2 O :   -0.021429
   3 C :   -0.174497
   4 C :   -0.156999
   5 C :   -0.206870
   6 C :   -0.300427
   7 O :   -0.025665
   8 C :   -0.148265
   9 H :    0.125345
  10 H :    0.124546
  11 H :    0.125707
  12 H :    0.133370
  13 H :    0.169958
  14 H :    0.164084
  15 H :    0.134965
  16 H :    0.134885
  17 H :    0.126839
  18 H :    0.135929
  19 H :    0.176464
  20 H :    0.137529

  Mayer bond orders larger than 0.1
B(  0-C ,  1-C ) :   0.9000 B(  0-C ,  9-H ) :   0.9405 B(  0-C , 10-H ) :   0.9391
B(  0-C , 11-H ) :   0.9371 B(  1-C ,  2-O ) :   0.9549 B(  1-C ,  3-C ) :   0.9196
B(  1-C , 12-H ) :   0.9297 B(  2-O , 13-H ) :   0.8227 B(  3-C ,  4-C ) :   0.8865
B(  3-C ,  8-C ) :   0.8618 B(  3-C , 14-H ) :   0.9229 B(  4-C ,  5-C ) :   0.9328
B(  4-C ,  8-C ) :   0.8017 B(  4-C , 15-H ) :   0.9181 B(  5-C ,  6-C ) :   0.9410
B(  5-C , 16-H ) :   0.9221 B(  5-C , 17-H ) :   0.9146 B(  6-C ,  7-O ) :   0.9767
B(  6-C ,  8-C ) :   0.9311 B(  6-C , 18-H ) :   0.9535 B(  7-O , 19-H ) :   0.8396
B(  8-C , 20-H ) :   0.9267

MP2 TOTAL ENERGY:     -423.496982476 Eh
FINAL SINGLE POINT ENERGY      -423.496982476009

DIPOLE MOMENT
-------------
                                X             Y             Z
Electronic contribution:      0.80786      -3.96315       1.90626
Nuclear contribution   :     -1.18546       3.15546      -3.00519
                        -----------------------------------------
Total Dipole Moment    :     -0.37760      -0.80769      -1.09892
                        -----------------------------------------
Magnitude (a.u.)       :      1.41512
Magnitude (Debye)      :      3.59695

                             ****ORCA TERMINATED NORMALLY****
TOTAL RUN TIME: 0 days 0 hours 19 minutes 54 seconds 945 msec
