                         Program Version 3.0.3 - RELEASE   -
|  1> ! RI-MP2 RIJK def2-TZVP def2-TZVP/C def2-TZVP/JK TIGHTSCF
|  2> % maxcore 2000
|  3> % mp2 density relaxed end
|  4> *xyz 0 1
|  5>  C       -0.1061844176    -1.2099814712     0.1608409365
|  6>  C       -0.0310412932    -0.0121636952     0.0901786672
|  7>  C        0.0472440993     1.4336361908    -0.0198944206
|  8>  O       -0.3242707467     2.1427194835     1.1912157543
|  9>  C        0.8414195080     2.9994764293     1.0949522571
| 10>  C        1.8296559996     2.8719656620     2.2653943788
| 11>  O        3.0057236050     2.2908054224     1.7178154307
| 12>  C        2.6109358779     1.4262243221     0.6584967404
| 13>  C        1.4358459679     2.1361470512    -0.0365040908
| 14>  H       -0.1733869161    -2.2680167313     0.2285762355
| 15>  H       -0.5811117589     1.7676780299    -0.8567750241
| 16>  H        0.5565665156     4.0301160522     0.8620662082
| 17>  H        2.1115656747     3.8306586558     2.7091064744
| 18>  H        1.3782884791     2.2333330956     3.0393730503
| 19>  H        3.4781297626     1.2840293431     0.0096258530
| 20>  H        2.2978572062     0.4454342194     1.0447025384
| 21>  H        1.7099887567     2.6197820803    -0.9729450492
| 22> *
| 23>
| 24>                          ****END OF INPUT****

CARTESIAN COORDINATES (ANGSTROEM)
---------------------------------
  C     -0.106184   -1.209981    0.160841
  C     -0.031041   -0.012164    0.090179
  C      0.047244    1.433636   -0.019894
  O     -0.324271    2.142719    1.191216
  C      0.841420    2.999476    1.094952
  C      1.829656    2.871966    2.265394
  O      3.005724    2.290805    1.717815
  C      2.610936    1.426224    0.658497
  C      1.435846    2.136147   -0.036504
  H     -0.173387   -2.268017    0.228576
  H     -0.581112    1.767678   -0.856775
  H      0.556567    4.030116    0.862066
  H      2.111566    3.830659    2.709106
  H      1.378288    2.233333    3.039373
  H      3.478130    1.284029    0.009626
  H      2.297857    0.445434    1.044703
  H      1.709989    2.619782   -0.972945

 Total Charge           Charge          ....    0
 Multiplicity           Mult            ....    1
 Number of Electrons    NEL             ....   66
 Basis Dimension        Dim             ....  327

ORBITAL ENERGIES
----------------

  NO   OCC          E(Eh)            E(eV)
   0   2.0000     -20.564814      -559.5970
   1   2.0000     -20.558805      -559.4335
   2   2.0000     -11.320650      -308.0505
   3   2.0000     -11.293549      -307.3131
   4   2.0000     -11.280648      -306.9620
   5   2.0000     -11.277546      -306.8776
   6   2.0000     -11.250945      -306.1538
   7   2.0000     -11.242556      -305.9255
   8   2.0000     -11.237403      -305.7853
   9   2.0000      -1.403135       -38.1812
  10   2.0000      -1.374327       -37.3973
  11   2.0000      -1.071976       -29.1699
  12   2.0000      -1.041206       -28.3327
  13   2.0000      -1.001243       -27.2452
  14   2.0000      -0.939800       -25.5733
  15   2.0000      -0.841628       -22.9019
  16   2.0000      -0.780229       -21.2311
  17   2.0000      -0.731233       -19.8979
  18   2.0000      -0.720076       -19.5943
  19   2.0000      -0.688887       -18.7456
  20   2.0000      -0.654816       -17.8185
  21   2.0000      -0.647786       -17.6272
  22   2.0000      -0.627731       -17.0814
  23   2.0000      -0.598788       -16.2939
  24   2.0000      -0.554536       -15.0897
  25   2.0000      -0.536118       -14.5885
  26   2.0000      -0.497281       -13.5317
  27   2.0000      -0.491244       -13.3674
  28   2.0000      -0.462355       -12.5813
  29   2.0000      -0.444121       -12.0851
  30   2.0000      -0.426993       -11.6191
  31   2.0000      -0.404444       -11.0055
  32   2.0000      -0.392347       -10.6763
  33   0.0000       0.135642         3.6910
  34   0.0000       0.144842         3.9414
  35   0.0000       0.159701         4.3457
  36   0.0000       0.165820         4.5122
  37   0.0000       0.172963         4.7066

MULLIKEN ATOMIC CHARGES
-----------------------
   0 C :   -0.080274
   1 C :   -0.049206
   2 C :   -0.098235
   3 O :   -0.308911
   4 C :    0.027606
   5 C :   -0.046615
   6 O :   -0.313047
   7 C :   -0.084249
   8 C :   -0.046437
   9 H :    0.197004
  10 H :    0.112039
  11 H :    0.104548
  12 H :    0.115240
  13 H :    0.103044
  14 H :    0.120485
  15 H :    0.114980
  16 H :    0.132028
Sum of atomic charges:    0.0000000

LOEWDIN ATOMIC CHARGES
----------------------
   0 C :   -0.075076
   1 C :   -0.089296
   2 C :   -0.252108
   3 O :    0.164244
   4 C :   -0.245512
   5 C :   -0.286470
   6 O :    0.148778
   7 C :   -0.276192
   8 C :   -0.173157
   9 H :    0.129519
  10 H :    0.156558
  11 H :    0.134933
  12 H :    0.127408
  13 H :    0.129325
  14 H :    0.128933
  15 H :    0.132617
  16 H :    0.145494

  Mayer bond orders larger than 0.1
B(  0-C ,  1-C ) :   2.5550 B(  0-C ,  2-C ) :  -0.1186 B(  0-C ,  9-H ) :   0.8903
B(  1-C ,  2-C ) :   1.1518 B(  2-C ,  3-O ) :   0.9646 B(  2-C ,  8-C ) :   0.9328
B(  2-C , 10-H ) :   0.9018 B(  3-O ,  4-C ) :   0.9787 B(  4-C ,  5-C ) :   0.9117
B(  4-C ,  8-C ) :   0.9232 B(  4-C , 11-H ) :   0.9301 B(  5-C ,  6-O ) :   0.9492
B(  5-C , 12-H ) :   0.9202 B(  5-C , 13-H ) :   0.9142 B(  6-O ,  7-C ) :   0.9336
B(  7-C ,  8-C ) :   0.9272 B(  7-C , 14-H ) :   0.9278 B(  7-C , 15-H ) :   0.9186
B(  8-C , 16-H ) :   0.9098

MP2 TOTAL ENERGY:     -421.052894357 Eh
FINAL SINGLE POINT ENERGY      -421.052894357374

DIPOLE MOMENT
-------------
                                X             Y             Z
Electronic contribution:     -2.00907      -0.93557      -0.10115
Nuclear contribution   :      2.05581       0.95621      -0.53591
                        -----------------------------------------
Total Dipole Moment    :      0.04673       0.02065      -0.63706
                        -----------------------------------------
Magnitude (a.u.)       :      0.63910
Magnitude (Debye)      :      1.62447

                             ****ORCA TERMINATED NORMALLY****
TOTAL RUN TIME: 0 days 0 hours 17 minutes 41 seconds 312 msec
