                         Program Version 3.0.3 - RELEASE   -
|  1> ! RI-MP2 RIJK def2-TZVP def2-TZVP/C def2-TZVP/JK TIGHTSCF
|  2> % maxcore 2000
|  3> % mp2 density relaxed end
|  4> *xyz 0 1
|  5>  C        0.0760028777     1.5922551160     0.1590754589
|  6>  C       -0.0020697073     0.0649108965     0.0394758943
|  7>  C       -1.4596329115    -0.3810627370     0.0876254104
|  8>  O       -1.8436875792    -1.4169269908     0.5658940198
|  9>  C        0.6947512943    -0.5228290981    -1.2471888552
| 10>  C        0.8102975495    -2.0609080118    -1.1381003706
| 11>  C       -0.0511026735    -0.1417784092    -2.5480392055
| 12>  C        2.0578536046     0.0305096644    -1.3124730005
| 13>  N        3.1294264955     0.4616201209    -1.3649322847
| 14>  H        1.1122762832     1.9364358643     0.1374524066
| 15>  H       -0.4656830659     2.0919038749    -0.6506888059
| 16>  H       -0.3692692124     1.9208962157     1.1032117305
| 17>  H        0.4923754961    -0.3992951542     0.8991657756
| 18>  H       -2.1807863979     0.3417970057    -0.3590164819
| 19>  H       -0.1814678116    -2.5067525368    -1.0402366255
| 20>  H        1.2951946889    -2.4681259254    -2.0291345852
| 21>  H        1.4010313302    -2.3480518830    -0.2646134115
| 22>  H       -0.1633003711     0.9395532089    -2.6534924732
| 23>  H        0.4991185922    -0.5089612802    -3.4177696414
| 24>  H       -1.0438887315    -0.6011816908    -2.5601892748
| 25> *
| 26>
| 27>                          ****END OF INPUT****

CARTESIAN COORDINATES (ANGSTROEM)
---------------------------------
  C      0.076003    1.592255    0.159075
  C     -0.002070    0.064911    0.039476
  C     -1.459633   -0.381063    0.087625
  O     -1.843688   -1.416927    0.565894
  C      0.694751   -0.522829   -1.247189
  C      0.810298   -2.060908   -1.138100
  C     -0.051103   -0.141778   -2.548039
  C      2.057854    0.030510   -1.312473
  N      3.129426    0.461620   -1.364932
  H      1.112276    1.936436    0.137452
  H     -0.465683    2.091904   -0.650689
  H     -0.369269    1.920896    1.103212
  H      0.492375   -0.399295    0.899166
  H     -2.180786    0.341797   -0.359016
  H     -0.181468   -2.506753   -1.040237
  H      1.295195   -2.468126   -2.029135
  H      1.401031   -2.348052   -0.264613
  H     -0.163300    0.939553   -2.653492
  H      0.499119   -0.508961   -3.417770
  H     -1.043889   -0.601182   -2.560189

 Total Charge           Charge          ....    0
 Multiplicity           Mult            ....    1
 Number of Electrons    NEL             ....   68
 Basis Dimension        Dim             ....  345

ORBITAL ENERGIES
----------------

  NO   OCC          E(Eh)            E(eV)
   0   2.0000     -20.575344      -559.8836
   1   2.0000     -15.573622      -423.7798
   2   2.0000     -11.348278      -308.8024
   3   2.0000     -11.308077      -307.7084
   4   2.0000     -11.274999      -306.8083
   5   2.0000     -11.272488      -306.7400
   6   2.0000     -11.252828      -306.2050
   7   2.0000     -11.243713      -305.9570
   8   2.0000     -11.242253      -305.9173
   9   2.0000      -1.414509       -38.4907
  10   2.0000      -1.227184       -33.3934
  11   2.0000      -1.147927       -31.2367
  12   2.0000      -1.050441       -28.5840
  13   2.0000      -0.967953       -26.3393
  14   2.0000      -0.913274       -24.8515
  15   2.0000      -0.886719       -24.1288
  16   2.0000      -0.800541       -21.7838
  17   2.0000      -0.700145       -19.0519
  18   2.0000      -0.677026       -18.4228
  19   2.0000      -0.663012       -18.0415
  20   2.0000      -0.643402       -17.5079
  21   2.0000      -0.613952       -16.7065
  22   2.0000      -0.585811       -15.9407
  23   2.0000      -0.578509       -15.7420
  24   2.0000      -0.573096       -15.5947
  25   2.0000      -0.559715       -15.2306
  26   2.0000      -0.545977       -14.8568
  27   2.0000      -0.540326       -14.7030
  28   2.0000      -0.535957       -14.5841
  29   2.0000      -0.510681       -13.8963
  30   2.0000      -0.503850       -13.7104
  31   2.0000      -0.458833       -12.4855
  32   2.0000      -0.456970       -12.4348
  33   2.0000      -0.431282       -11.7358
  34   0.0000       0.105586         2.8731
  35   0.0000       0.122783         3.3411
  36   0.0000       0.142916         3.8889
  37   0.0000       0.155712         4.2371
  38   0.0000       0.174432         4.7465

MULLIKEN ATOMIC CHARGES
-----------------------
   0 C :   -0.451739
   1 C :    0.014573
   2 C :    0.039806
   3 O :   -0.245458
   4 C :    0.185647
   5 C :   -0.401812
   6 C :   -0.456117
   7 C :   -0.230571
   8 N :   -0.044923
   9 H :    0.174117
  10 H :    0.134600
  11 H :    0.152249
  12 H :    0.116044
  13 H :    0.093494
  14 H :    0.162047
  15 H :    0.146948
  16 H :    0.147088
  17 H :    0.152028
  18 H :    0.156519
  19 H :    0.155459
Sum of atomic charges:    0.0000000

LOEWDIN ATOMIC CHARGES
----------------------
   0 C :   -0.279966
   1 C :   -0.224590
   2 C :   -0.272607
   3 O :    0.145212
   4 C :   -0.283841
   5 C :   -0.239412
   6 C :   -0.241143
   7 C :   -0.156369
   8 N :    0.065476
   9 H :    0.138360
  10 H :    0.126246
  11 H :    0.131757
  12 H :    0.170228
  13 H :    0.117036
  14 H :    0.135039
  15 H :    0.132926
  16 H :    0.134558
  17 H :    0.131353
  18 H :    0.136378
  19 H :    0.133359

  Mayer bond orders larger than 0.1
B(  0-C ,  1-C ) :   0.9158 B(  0-C ,  9-H ) :   0.9300 B(  0-C , 10-H ) :   0.9235
B(  0-C , 11-H ) :   0.9370 B(  1-C ,  2-C ) :   0.8090 B(  1-C ,  4-C ) :   0.8725
B(  1-C , 12-H ) :   0.9012 B(  2-C ,  3-O ) :   1.9966 B(  2-C , 13-H ) :   0.9452
B(  4-C ,  5-C ) :   0.9237 B(  4-C ,  6-C ) :   0.8922 B(  4-C ,  7-C ) :   0.8731
B(  5-C , 14-H ) :   0.9208 B(  5-C , 15-H ) :   0.9298 B(  5-C , 16-H ) :   0.9264
B(  6-C , 17-H ) :   0.9315 B(  6-C , 18-H ) :   0.9300 B(  6-C , 19-H ) :   0.9271
B(  7-C ,  8-N ) :   2.8873

MP2 TOTAL ENERGY:     -402.489851006 Eh
FINAL SINGLE POINT ENERGY      -402.489851006362

DIPOLE MOMENT
-------------
                                X             Y             Z
Electronic contribution:      2.05406      -1.14085       2.22812
Nuclear contribution   :     -2.96572       1.35862      -2.51765
                        -----------------------------------------
Total Dipole Moment    :     -0.91167       0.21777      -0.28953
                        -----------------------------------------
Magnitude (a.u.)       :      0.98101
Magnitude (Debye)      :      2.49354

                             ****ORCA TERMINATED NORMALLY****
TOTAL RUN TIME: 0 days 0 hours 22 minutes 34 seconds 144 msec
