                         Program Version 3.0.3 - RELEASE   -
|  1> ! RI-MP2 RIJK def2-TZVP def2-TZVP/C def2-TZVP/JK TIGHTSCF
|  2> % maxcore 2000
|  3> % mp2 density relaxed end
|  4> *xyz 0 1
|  5>  C        0.0985514167     0.9790354298     0.4988164847
|  6>  O       -0.1263589201    -0.0623432885    -0.4393717352
|  7>  C       -1.3862075501    -0.6461579891    -0.2967550919
|  8>  C       -1.5708531683    -1.9771526128    -0.9631618547
|  9>  C       -1.4835674153    -1.8940875561     0.5491159782
| 10>  N       -0.2918061853    -2.3365083004     1.2048952491
| 11>  C       -0.3029102997    -3.1524762535     2.2911570617
| 12>  O       -1.2967034910    -3.6224003922     2.8046855670
| 13>  H        1.1017583450     1.3674515597     0.3100704351
| 14>  H       -0.6290476196     1.7930812556     0.3697078476
| 15>  H        0.0362777775     0.6159943372     1.5335299143
| 16>  H       -2.2141589748     0.0630581940    -0.2860723483
| 17>  H       -2.5265254461    -2.2027877991    -1.4224906049
| 18>  H       -0.7053255211    -2.3763338548    -1.4812209274
| 19>  H       -2.3669321188    -2.0874855721     1.1437516656
| 20>  H        0.5830835388    -1.9635471942     0.8690037067
| 21>  H        0.7224435122    -3.3433484334     2.6656138624
| 22> *
| 23>
| 24>                          ****END OF INPUT****

CARTESIAN COORDINATES (ANGSTROEM)
---------------------------------
  C      0.098551    0.979035    0.498816
  O     -0.126359   -0.062343   -0.439372
  C     -1.386208   -0.646158   -0.296755
  C     -1.570853   -1.977153   -0.963162
  C     -1.483567   -1.894088    0.549116
  N     -0.291806   -2.336508    1.204895
  C     -0.302910   -3.152476    2.291157
  O     -1.296703   -3.622400    2.804686
  H      1.101758    1.367452    0.310070
  H     -0.629048    1.793081    0.369708
  H      0.036278    0.615994    1.533530
  H     -2.214159    0.063058   -0.286072
  H     -2.526525   -2.202788   -1.422491
  H     -0.705326   -2.376334   -1.481221
  H     -2.366932   -2.087486    1.143752
  H      0.583084   -1.963547    0.869004
  H      0.722444   -3.343348    2.665614

 Total Charge           Charge          ....    0
 Multiplicity           Mult            ....    1
 Number of Electrons    NEL             ....   62
 Basis Dimension        Dim             ....  302

ORBITAL ENERGIES
----------------

  NO   OCC          E(Eh)            E(eV)
   0   2.0000     -20.578984      -559.9826
   1   2.0000     -20.520182      -558.3825
   2   2.0000     -15.591907      -424.2773
   3   2.0000     -11.348398      -308.8056
   4   2.0000     -11.294878      -307.3492
   5   2.0000     -11.285750      -307.1009
   6   2.0000     -11.275903      -306.8329
   7   2.0000     -11.234118      -305.6959
   8   2.0000      -1.401067       -38.1250
   9   2.0000      -1.380806       -37.5736
  10   2.0000      -1.246196       -33.9107
  11   2.0000      -1.125507       -30.6266
  12   2.0000      -0.947358       -25.7789
  13   2.0000      -0.881271       -23.9806
  14   2.0000      -0.828469       -22.5438
  15   2.0000      -0.799707       -21.7611
  16   2.0000      -0.739033       -20.1101
  17   2.0000      -0.696812       -18.9612
  18   2.0000      -0.669432       -18.2162
  19   2.0000      -0.647608       -17.6223
  20   2.0000      -0.629472       -17.1288
  21   2.0000      -0.613308       -16.6890
  22   2.0000      -0.588104       -16.0031
  23   2.0000      -0.579432       -15.7671
  24   2.0000      -0.548656       -14.9297
  25   2.0000      -0.520968       -14.1763
  26   2.0000      -0.495362       -13.4795
  27   2.0000      -0.462090       -12.5741
  28   2.0000      -0.430929       -11.7262
  29   2.0000      -0.421248       -11.4628
  30   2.0000      -0.361419        -9.8347
  31   0.0000       0.134952         3.6722
  32   0.0000       0.148866         4.0509
  33   0.0000       0.165000         4.4899
  34   0.0000       0.172696         4.6993
  35   0.0000       0.187230         5.0948

MULLIKEN ATOMIC CHARGES
-----------------------
   0 C :   -0.231118
   1 O :   -0.318560
   2 C :    0.036321
   3 C :   -0.244574
   4 C :   -0.020689
   5 N :   -0.319734
   6 C :    0.187876
   7 O :   -0.369663
   8 H :    0.145266
   9 H :    0.123129
  10 H :    0.130178
  11 H :    0.113969
  12 H :    0.141230
  13 H :    0.138233
  14 H :    0.156515
  15 H :    0.252035
  16 H :    0.079585
Sum of atomic charges:    0.0000000

LOEWDIN ATOMIC CHARGES
----------------------
   0 C :   -0.345952
   1 O :    0.158678
   2 C :   -0.303029
   3 C :   -0.201236
   4 C :   -0.236178
   5 N :    0.114711
   6 C :   -0.436782
   7 O :    0.052385
   8 H :    0.114866
   9 H :    0.106246
  10 H :    0.105666
  11 H :    0.135107
  12 H :    0.137044
  13 H :    0.142565
  14 H :    0.155076
  15 H :    0.191257
  16 H :    0.109576

  Mayer bond orders larger than 0.1
B(  0-C ,  1-O ) :   0.8775 B(  0-C ,  8-H ) :   0.9380 B(  0-C ,  9-H ) :   0.9355
B(  0-C , 10-H ) :   0.9347 B(  1-O ,  2-C ) :   0.9782 B(  2-C ,  3-C ) :   0.8786
B(  2-C ,  4-C ) :   0.8730 B(  2-C , 11-H ) :   0.9357 B(  3-C ,  4-C ) :   0.8715
B(  3-C , 12-H ) :   0.9226 B(  3-C , 13-H ) :   0.9232 B(  4-C ,  5-N ) :   0.8388
B(  4-C , 14-H ) :   0.9328 B(  5-N ,  6-C ) :   1.1535 B(  5-N , 15-H ) :   0.8600
B(  6-C ,  7-O ) :   1.8831 B(  6-C , 16-H ) :   0.9284

MP2 TOTAL ENERGY:     -400.335837960 Eh
FINAL SINGLE POINT ENERGY      -400.335837959949

DIPOLE MOMENT
-------------
                                X             Y             Z
Electronic contribution:     -0.33349      -4.47012       1.98394
Nuclear contribution   :      0.88133       5.57519      -2.62896
                        -----------------------------------------
Total Dipole Moment    :      0.54784       1.10506      -0.64502
                        -----------------------------------------
Magnitude (a.u.)       :      1.39189
Magnitude (Debye)      :      3.53790

                             ****ORCA TERMINATED NORMALLY****
TOTAL RUN TIME: 0 days 0 hours 10 minutes 42 seconds 367 msec
