                         Program Version 3.0.3 - RELEASE   -
|  1> ! RI-MP2 RIJK def2-TZVP def2-TZVP/C def2-TZVP/JK TIGHTSCF
|  2> % maxcore 2000
|  3> % mp2 density relaxed end
|  4> *xyz 0 1
|  5>  O        0.0180764126    -0.0919726686     0.3530794169
|  6>  C        0.0184972169     1.0702091629     0.0180852438
|  7>  C        1.2372543861     1.9054740944    -0.0337976399
|  8>  C        1.4989351580     2.9231694474    -1.1528080682
|  9>  C        0.4945686909     3.1835568683    -2.2800877341
| 10>  C       -0.2852584813     4.4980056916    -2.0745736585
| 11>  C       -0.7766747431     4.6516035077    -0.6550827058
| 12>  C       -0.1197258436     4.1400778986     0.3875076480
| 13>  C        1.1712286271     3.4231743706     0.2158419019
| 14>  H       -0.9266873995     1.5835319694    -0.2556757559
| 15>  H        2.1125082567     1.3920294295     0.3501104723
| 16>  H        2.5424992497     2.9678061659    -1.4463590320
| 17>  H        1.0282677998     3.2140116262    -3.2347470109
| 18>  H       -0.2208677870     2.3606471011    -2.3631538619
| 19>  H        0.3531348730     5.3564338276    -2.3301634154
| 20>  H       -1.1282189558     4.5386055458    -2.7727840658
| 21>  H       -1.6944726682     5.2112241285    -0.4958141367
| 22>  H       -0.4979566338     4.2665983879     1.3985265747
| 23>  H        1.9874555617     3.7923488652     0.8316708274
| 24> *
| 25>
| 26>                          ****END OF INPUT****

CARTESIAN COORDINATES (ANGSTROEM)
---------------------------------
  O      0.018076   -0.091973    0.353079
  C      0.018497    1.070209    0.018085
  C      1.237254    1.905474   -0.033798
  C      1.498935    2.923169   -1.152808
  C      0.494569    3.183557   -2.280088
  C     -0.285258    4.498006   -2.074574
  C     -0.776675    4.651604   -0.655083
  C     -0.119726    4.140078    0.387508
  C      1.171229    3.423174    0.215842
  H     -0.926687    1.583532   -0.255676
  H      2.112508    1.392029    0.350110
  H      2.542499    2.967806   -1.446359
  H      1.028268    3.214012   -3.234747
  H     -0.220868    2.360647   -2.363154
  H      0.353135    5.356434   -2.330163
  H     -1.128219    4.538606   -2.772784
  H     -1.694473    5.211224   -0.495814
  H     -0.497957    4.266598    1.398527
  H      1.987456    3.792349    0.831671

 Total Charge           Charge          ....    0
 Multiplicity           Mult            ....    1
 Number of Electrons    NEL             ....   66
 Basis Dimension        Dim             ....  339

ORBITAL ENERGIES
----------------

  NO   OCC          E(Eh)            E(eV)
   0   2.0000     -20.543634      -559.0207
   1   2.0000     -11.323112      -308.1176
   2   2.0000     -11.254567      -306.2523
   3   2.0000     -11.253717      -306.2292
   4   2.0000     -11.246205      -306.0248
   5   2.0000     -11.240490      -305.8693
   6   2.0000     -11.240133      -305.8596
   7   2.0000     -11.238464      -305.8142
   8   2.0000     -11.237651      -305.7920
   9   2.0000      -1.381742       -37.5991
  10   2.0000      -1.185687       -32.2642
  11   2.0000      -1.079562       -29.3764
  12   2.0000      -1.021939       -27.8084
  13   2.0000      -0.925569       -25.1860
  14   2.0000      -0.872225       -23.7344
  15   2.0000      -0.837564       -22.7913
  16   2.0000      -0.763474       -20.7752
  17   2.0000      -0.705993       -19.2111
  18   2.0000      -0.695550       -18.9269
  19   2.0000      -0.670402       -18.2426
  20   2.0000      -0.630560       -17.1584
  21   2.0000      -0.620902       -16.8956
  22   2.0000      -0.605124       -16.4663
  23   2.0000      -0.570110       -15.5135
  24   2.0000      -0.555556       -15.1175
  25   2.0000      -0.552177       -15.0255
  26   2.0000      -0.519104       -14.1256
  27   2.0000      -0.504122       -13.7179
  28   2.0000      -0.478313       -13.0155
  29   2.0000      -0.442958       -12.0535
  30   2.0000      -0.430511       -11.7148
  31   2.0000      -0.404472       -11.0063
  32   2.0000      -0.349218        -9.5027
  33   0.0000       0.123079         3.3492
  34   0.0000       0.132475         3.6048
  35   0.0000       0.135653         3.6913
  36   0.0000       0.153939         4.1889
  37   0.0000       0.169116         4.6019

MULLIKEN ATOMIC CHARGES
-----------------------
   0 O :   -0.275143
   1 C :    0.059292
   2 C :   -0.132535
   3 C :   -0.054765
   4 C :   -0.292671
   5 C :   -0.176488
   6 C :   -0.140633
   7 C :   -0.253304
   8 C :   -0.028180
   9 H :    0.102883
  10 H :    0.133339
  11 H :    0.135632
  12 H :    0.131893
  13 H :    0.138087
  14 H :    0.126522
  15 H :    0.127828
  16 H :    0.129407
  17 H :    0.129793
  18 H :    0.139041
Sum of atomic charges:    0.0000000

LOEWDIN ATOMIC CHARGES
----------------------
   0 O :    0.121271
   1 C :   -0.289887
   2 C :   -0.169087
   3 C :   -0.159665
   4 C :   -0.228845
   5 C :   -0.245159
   6 C :   -0.159935
   7 C :   -0.155684
   8 C :   -0.163493
   9 H :    0.117905
  10 H :    0.156990
  11 H :    0.152507
  12 H :    0.142173
  13 H :    0.143329
  14 H :    0.147818
  15 H :    0.142434
  16 H :    0.142577
  17 H :    0.146542
  18 H :    0.158208

  Mayer bond orders larger than 0.1
B(  0-O ,  1-C ) :   1.9756 B(  1-C ,  2-C ) :   0.9169 B(  1-C ,  9-H ) :   0.9509
B(  2-C ,  3-C ) :   0.8236 B(  2-C ,  8-C ) :   0.7977 B(  2-C , 10-H ) :   0.9211
B(  3-C ,  4-C ) :   0.8948 B(  3-C ,  8-C ) :   0.8720 B(  3-C , 11-H ) :   0.9248
B(  4-C ,  5-C ) :   0.9298 B(  4-C , 12-H ) :   0.9371 B(  4-C , 13-H ) :   0.9372
B(  5-C ,  6-C ) :   0.9254 B(  5-C , 14-H ) :   0.9130 B(  5-C , 15-H ) :   0.9365
B(  6-C ,  7-C ) :   1.7907 B(  6-C , 16-H ) :   0.9279 B(  7-C ,  8-C ) :   0.9359
B(  7-C , 17-H ) :   0.9341 B(  8-C , 18-H ) :   0.9204

MP2 TOTAL ENERGY:     -385.212728524 Eh
FINAL SINGLE POINT ENERGY      -385.212728523904

DIPOLE MOMENT
-------------
                                X             Y             Z
Electronic contribution:      0.21049      -4.83551       3.65737
Nuclear contribution   :      0.04605       6.13125      -4.15945
                        -----------------------------------------
Total Dipole Moment    :      0.25654       1.29573      -0.50208
                        -----------------------------------------
Magnitude (a.u.)       :      1.41309
Magnitude (Debye)      :      3.59179

                             ****ORCA TERMINATED NORMALLY****
TOTAL RUN TIME: 0 days 0 hours 18 minutes 10 seconds 101 msec
