                         Program Version 3.0.3 - RELEASE   -
|  1> ! RI-MP2 RIJK def2-TZVP def2-TZVP/C def2-TZVP/JK TIGHTSCF
|  2> % maxcore 2000
|  3> % mp2 density relaxed end
|  4> *xyz 0 1
|  5>  C       -0.4820121694     0.9711895899    -0.2449408130
|  6>  O        0.3661542577    -0.1270279364     0.0695379218
|  7>  C        0.9686779039    -0.6781667976    -1.0624995420
|  8>  C        1.6479574205    -1.9952050170    -0.8913158937
|  9>  C        0.3007362796    -1.9426491365    -1.5932143073
| 10>  O       -0.8327121833    -2.3908643261    -0.9068222416
| 11>  C        0.2680519015    -2.1337318873    -3.0789455222
| 12>  N       -0.8946147483    -2.6504716414    -3.5504524384
| 13>  O        1.2168356356    -1.8191374824    -3.7797363861
| 14>  H        0.0883550739     1.7887196527    -0.7056419126
| 15>  H       -1.2891690804     0.6770794423    -0.9291383183
| 16>  H       -0.9116786138     1.3204339683     0.6961546496
| 17>  H        1.3685567085     0.0316106151    -1.7833529807
| 18>  H        2.5198877624    -2.1882116008    -1.5043178558
| 19>  H        1.6381456118    -2.4322044781     0.1011266289
| 20>  H       -0.9453171843    -1.7930547126    -0.1536506243
| 21>  H       -1.6244049208    -2.9126423959    -2.9105148450
| 22>  H       -0.9845159152    -2.8255980363    -4.5365289894
| 23> *
| 24>
| 25>                          ****END OF INPUT****

CARTESIAN COORDINATES (ANGSTROEM)
---------------------------------
  C     -0.482012    0.971190   -0.244941
  O      0.366154   -0.127028    0.069538
  C      0.968678   -0.678167   -1.062500
  C      1.647957   -1.995205   -0.891316
  C      0.300736   -1.942649   -1.593214
  O     -0.832712   -2.390864   -0.906822
  C      0.268052   -2.133732   -3.078946
  N     -0.894615   -2.650472   -3.550452
  O      1.216836   -1.819137   -3.779736
  H      0.088355    1.788720   -0.705642
  H     -1.289169    0.677079   -0.929138
  H     -0.911679    1.320434    0.696155
  H      1.368557    0.031611   -1.783353
  H      2.519888   -2.188212   -1.504318
  H      1.638146   -2.432204    0.101127
  H     -0.945317   -1.793055   -0.153651
  H     -1.624405   -2.912642   -2.910515
  H     -0.984516   -2.825598   -4.536529

 Total Charge           Charge          ....    0
 Multiplicity           Mult            ....    1
 Number of Electrons    NEL             ....   70
 Basis Dimension        Dim             ....  333

ORBITAL ENERGIES
----------------

  NO   OCC          E(Eh)            E(eV)
   0   2.0000     -20.587086      -560.2031
   1   2.0000     -20.578433      -559.9676
   2   2.0000     -20.512897      -558.1843
   3   2.0000     -15.578896      -423.9233
   4   2.0000     -11.351269      -308.8837
   5   2.0000     -11.300801      -307.5104
   6   2.0000     -11.299660      -307.4794
   7   2.0000     -11.290441      -307.2285
   8   2.0000     -11.236928      -305.7724
   9   2.0000      -1.418298       -38.5938
  10   2.0000      -1.387185       -37.7472
  11   2.0000      -1.370787       -37.3010
  12   2.0000      -1.208917       -32.8963
  13   2.0000      -1.136062       -30.9138
  14   2.0000      -0.955521       -26.0011
  15   2.0000      -0.900495       -24.5037
  16   2.0000      -0.830816       -22.6077
  17   2.0000      -0.773713       -21.0538
  18   2.0000      -0.747518       -20.3410
  19   2.0000      -0.721948       -19.6452
  20   2.0000      -0.699152       -19.0249
  21   2.0000      -0.660301       -17.9677
  22   2.0000      -0.650567       -17.7028
  23   2.0000      -0.622466       -16.9382
  24   2.0000      -0.607777       -16.5385
  25   2.0000      -0.599390       -16.3102
  26   2.0000      -0.572833       -15.5876
  27   2.0000      -0.563263       -15.3272
  28   2.0000      -0.541725       -14.7411
  29   2.0000      -0.523370       -14.2416
  30   2.0000      -0.488381       -13.2895
  31   2.0000      -0.454210       -12.3597
  32   2.0000      -0.414889       -11.2897
  33   2.0000      -0.409789       -11.1509
  34   2.0000      -0.386001       -10.5036
  35   0.0000       0.131960         3.5908
  36   0.0000       0.153866         4.1869
  37   0.0000       0.167407         4.5554
  38   0.0000       0.179499         4.8844
  39   0.0000       0.185498         5.0476

MULLIKEN ATOMIC CHARGES
-----------------------
   0 C :   -0.229887
   1 O :   -0.327255
   2 C :   -0.004155
   3 C :   -0.237907
   4 C :    0.193918
   5 O :   -0.488576
   6 C :    0.218320
   7 N :   -0.462447
   8 O :   -0.382390
   9 H :    0.131325
  10 H :    0.131375
  11 H :    0.147622
  12 H :    0.132947
  13 H :    0.159145
  14 H :    0.140975
  15 H :    0.338278
  16 H :    0.281282
  17 H :    0.257429
Sum of atomic charges:    0.0000000

LOEWDIN ATOMIC CHARGES
----------------------
   0 C :   -0.341823
   1 O :    0.159769
   2 C :   -0.278914
   3 C :   -0.170057
   4 C :   -0.313551
   5 O :    0.019814
   6 C :   -0.457496
   7 N :    0.001150
   8 O :    0.070939
   9 H :    0.109147
  10 H :    0.107112
  11 H :    0.115729
  12 H :    0.145922
  13 H :    0.149203
  14 H :    0.145882
  15 H :    0.186106
  16 H :    0.177698
  17 H :    0.173371

  Mayer bond orders larger than 0.1
B(  0-C ,  1-O ) :   0.8682 B(  0-C ,  9-H ) :   0.9365 B(  0-C , 10-H ) :   0.9332
B(  0-C , 11-H ) :   0.9378 B(  1-O ,  2-C ) :   0.9458 B(  2-C ,  3-C ) :   0.9297
B(  2-C ,  4-C ) :   0.8531 B(  2-C , 12-H ) :   0.9076 B(  3-C ,  4-C ) :   0.8594
B(  3-C , 13-H ) :   0.9003 B(  3-C , 14-H ) :   0.9085 B(  4-C ,  5-O ) :   0.9970
B(  4-C ,  6-C ) :   0.9148 B(  5-O , 15-H ) :   0.8102 B(  6-C ,  7-N ) :   1.1854
B(  6-C ,  8-O ) :   1.9456 B(  7-N , 16-H ) :   0.8518 B(  7-N , 17-H ) :   0.8592

MP2 TOTAL ENERGY:     -475.481521323 Eh
FINAL SINGLE POINT ENERGY      -475.481521323201

DIPOLE MOMENT
-------------
                                X             Y             Z
Electronic contribution:      1.14819      -3.64800      -2.55547
Nuclear contribution   :     -2.18516       4.04119       3.02772
                        -----------------------------------------
Total Dipole Moment    :     -1.03698       0.39320       0.47225
                        -----------------------------------------
Magnitude (a.u.)       :      1.20538
Magnitude (Debye)      :      3.06384

                             ****ORCA TERMINATED NORMALLY****
TOTAL RUN TIME: 0 days 0 hours 17 minutes 20 seconds 257 msec
