                         Program Version 3.0.3 - RELEASE   -
|  1> ! RI-MP2 RIJK def2-TZVP def2-TZVP/C def2-TZVP/JK TIGHTSCF
|  2> % maxcore 2000
|  3> % mp2 density relaxed end
|  4> *xyz 0 1
|  5>  O        0.0794014610    -0.1500567763     0.0929867193
|  6>  C        0.0535197598     1.0623945168     0.0735086321
|  7>  N        1.1504477211     1.8739672853     0.0670059008
|  8>  C        2.4750143103     1.2634921411     0.0266084235
|  9>  C        3.0554527819     1.1731653879    -1.3624011097
| 10>  C        2.9627541770     2.1211520803    -2.3035296011
| 11>  C        2.3429327681     3.4416265020    -2.2033860153
| 12>  C        1.5635241901     3.9636626295    -1.2451201933
| 13>  C        1.0248757591     3.3135379100     0.0015115780
| 14>  H       -0.8896198431     1.6434301891     0.0717422031
| 15>  H        3.1432974137     1.8387703604     0.6820340170
| 16>  H        2.3696466605     0.2628865648     0.4502064808
| 17>  H        3.5895889832     0.2561681155    -1.5949503826
| 18>  H        3.4362742591     1.9195115280    -3.2613213996
| 19>  H        2.5783890341     4.1022846327    -3.0351232150
| 20>  H        1.2555044777     5.0017372759    -1.3553968711
| 21>  H       -0.0427808076     3.5515052699     0.0881771881
| 22>  H        1.4989175640     3.7762874571     0.8827847851
| 23> *
| 24>
| 25>                          ****END OF INPUT****

CARTESIAN COORDINATES (ANGSTROEM)
---------------------------------
  O      0.079401   -0.150057    0.092987
  C      0.053520    1.062395    0.073509
  N      1.150448    1.873967    0.067006
  C      2.475014    1.263492    0.026608
  C      3.055453    1.173165   -1.362401
  C      2.962754    2.121152   -2.303530
  C      2.342933    3.441627   -2.203386
  C      1.563524    3.963663   -1.245120
  C      1.024876    3.313538    0.001512
  H     -0.889620    1.643430    0.071742
  H      3.143297    1.838770    0.682034
  H      2.369647    0.262887    0.450206
  H      3.589589    0.256168   -1.594950
  H      3.436274    1.919512   -3.261321
  H      2.578389    4.102285   -3.035123
  H      1.255504    5.001737   -1.355397
  H     -0.042781    3.551505    0.088177
  H      1.498918    3.776287    0.882785

 Total Charge           Charge          ....    0
 Multiplicity           Mult            ....    1
 Number of Electrons    NEL             ....   66
 Basis Dimension        Dim             ....  333

ORBITAL ENERGIES
----------------

  NO   OCC          E(Eh)            E(eV)
   0   2.0000     -20.520351      -558.3871
   1   2.0000     -15.591844      -424.2756
   2   2.0000     -11.346022      -308.7409
   3   2.0000     -11.287532      -307.1494
   4   2.0000     -11.271446      -306.7116
   5   2.0000     -11.247677      -306.0649
   6   2.0000     -11.243823      -305.9600
   7   2.0000     -11.240473      -305.8688
   8   2.0000     -11.237131      -305.7779
   9   2.0000      -1.382769       -37.6271
  10   2.0000      -1.261256       -34.3205
  11   2.0000      -1.101477       -29.9727
  12   2.0000      -1.064864       -28.9764
  13   2.0000      -0.962463       -26.1899
  14   2.0000      -0.940901       -25.6032
  15   2.0000      -0.842707       -22.9312
  16   2.0000      -0.768009       -20.8986
  17   2.0000      -0.732374       -19.9289
  18   2.0000      -0.705483       -19.1972
  19   2.0000      -0.673592       -18.3294
  20   2.0000      -0.646666       -17.5967
  21   2.0000      -0.630699       -17.1622
  22   2.0000      -0.616327       -16.7711
  23   2.0000      -0.591023       -16.0826
  24   2.0000      -0.578018       -15.7287
  25   2.0000      -0.547598       -14.9009
  26   2.0000      -0.531375       -14.4595
  27   2.0000      -0.512921       -13.9573
  28   2.0000      -0.505575       -13.7574
  29   2.0000      -0.437029       -11.8922
  30   2.0000      -0.428701       -11.6656
  31   2.0000      -0.380915       -10.3652
  32   2.0000      -0.322558        -8.7772
  33   0.0000       0.091362         2.4861
  34   0.0000       0.129678         3.5287
  35   0.0000       0.158137         4.3031
  36   0.0000       0.164436         4.4745
  37   0.0000       0.169354         4.6083

MULLIKEN ATOMIC CHARGES
-----------------------
   0 O :   -0.365047
   1 C :    0.150966
   2 N :   -0.083766
   3 C :   -0.102345
   4 C :   -0.182882
   5 C :   -0.122475
   6 C :   -0.145702
   7 C :   -0.170238
   8 C :   -0.124324
   9 H :    0.074396
  10 H :    0.129890
  11 H :    0.166531
  12 H :    0.130226
  13 H :    0.126976
  14 H :    0.124311
  15 H :    0.126228
  16 H :    0.133090
  17 H :    0.134168
Sum of atomic charges:    0.0000000

LOEWDIN ATOMIC CHARGES
----------------------
   0 O :    0.058437
   1 C :   -0.412827
   2 N :    0.179567
   3 C :   -0.231952
   4 C :   -0.150884
   5 C :   -0.167377
   6 C :   -0.166171
   7 C :   -0.160907
   8 C :   -0.257816
   9 H :    0.113436
  10 H :    0.146813
  11 H :    0.154567
  12 H :    0.147695
  13 H :    0.152046
  14 H :    0.153500
  15 H :    0.149067
  16 H :    0.149442
  17 H :    0.143364

  Mayer bond orders larger than 0.1
B(  0-O ,  1-C ) :   1.8874 B(  1-C ,  2-N ) :   1.1453 B(  1-C ,  9-H ) :   0.9263
B(  2-N ,  3-C ) :   0.8541 B(  2-N ,  8-C ) :   0.9565 B(  3-C ,  4-C ) :   0.9412
B(  3-C , 10-H ) :   0.9099 B(  3-C , 11-H ) :   0.9092 B(  4-C ,  5-C ) :   1.7517
B(  4-C , 12-H ) :   0.9230 B(  5-C ,  6-C ) :   1.0117 B(  5-C , 13-H ) :   0.9245
B(  6-C ,  7-C ) :   1.7568 B(  6-C , 14-H ) :   0.9270 B(  7-C ,  8-C ) :   0.9133
B(  7-C , 15-H ) :   0.9187 B(  8-C , 16-H ) :   0.9165 B(  8-C , 17-H ) :   0.9221

MP2 TOTAL ENERGY:     -401.272284848 Eh
FINAL SINGLE POINT ENERGY      -401.272284847782

DIPOLE MOMENT
-------------
                                X             Y             Z
Electronic contribution:     -1.88200      -2.92045       0.50834
Nuclear contribution   :      2.40562       4.30409      -0.52093
                        -----------------------------------------
Total Dipole Moment    :      0.52361       1.38363      -0.01260
                        -----------------------------------------
Magnitude (a.u.)       :      1.47945
Magnitude (Debye)      :      3.76046

                             ****ORCA TERMINATED NORMALLY****
TOTAL RUN TIME: 0 days 0 hours 18 minutes 36 seconds 771 msec
