                         Program Version 3.0.3 - RELEASE   -
|  1> ! RI-MP2 RIJK def2-TZVP def2-TZVP/C def2-TZVP/JK TIGHTSCF
|  2> % maxcore 2000
|  3> % mp2 density relaxed end
|  4> *xyz 0 1
|  5>  N        0.0906989777    -1.1429955165    -0.0514264287
|  6>  C        0.0474451376     0.0147636122    -0.0294259045
|  7>  C       -0.0170707696     1.4319727380     0.0252027193
|  8>  C        0.2352787102     2.3356869774    -1.1692505771
|  9>  C        1.1501272601     2.4434601144     0.0073563112
| 10>  C        0.4978270621     3.1734625999     1.2160765436
| 11>  N       -0.8662098630     3.6108258926     0.8252123048
| 12>  C       -0.6196432875     2.2148258490     1.2408086988
| 13>  H        0.6533538682     1.8212426812    -2.0274501352
| 14>  H       -0.4786757958     3.1198780711    -1.3830899604
| 15>  H        2.2016187245     2.1955039435    -0.0375729294
| 16>  H        1.0367216574     3.6422551058     2.0275198691
| 17>  H       -1.2730473819     4.0976497085     1.6226291326
| 18>  H       -1.1420939401     1.7497024831     2.0652597259
| 19> *
| 20>
| 21>                          ****END OF INPUT****

CARTESIAN COORDINATES (ANGSTROEM)
---------------------------------
  N      0.090699   -1.142996   -0.051426
  C      0.047445    0.014764   -0.029426
  C     -0.017071    1.431973    0.025203
  C      0.235279    2.335687   -1.169251
  C      1.150127    2.443460    0.007356
  C      0.497827    3.173463    1.216077
  N     -0.866210    3.610826    0.825212
  C     -0.619643    2.214826    1.240809
  H      0.653354    1.821243   -2.027450
  H     -0.478676    3.119878   -1.383090
  H      2.201619    2.195504   -0.037573
  H      1.036722    3.642255    2.027520
  H     -1.273047    4.097650    1.622629
  H     -1.142094    1.749702    2.065260

 Total Charge           Charge          ....    0
 Multiplicity           Mult            ....    1
 Number of Electrons    NEL             ....   56
 Basis Dimension        Dim             ....  284

ORBITAL ENERGIES
----------------

  NO   OCC          E(Eh)            E(eV)
   0   2.0000     -15.586071      -424.1186
   1   2.0000     -15.564793      -423.5395
   2   2.0000     -11.294406      -307.3364
   3   2.0000     -11.289411      -307.2005
   4   2.0000     -11.287485      -307.1481
   5   2.0000     -11.273861      -306.7773
   6   2.0000     -11.272281      -306.7344
   7   2.0000     -11.260822      -306.4225
   8   2.0000      -1.317545       -35.8522
   9   2.0000      -1.214710       -33.0540
  10   2.0000      -1.162125       -31.6230
  11   2.0000      -0.950089       -25.8532
  12   2.0000      -0.937357       -25.5068
  13   2.0000      -0.841911       -22.9096
  14   2.0000      -0.788472       -21.4554
  15   2.0000      -0.758925       -20.6514
  16   2.0000      -0.674364       -18.3504
  17   2.0000      -0.662446       -18.0261
  18   2.0000      -0.589406       -16.0385
  19   2.0000      -0.568950       -15.4819
  20   2.0000      -0.545700       -14.8492
  21   2.0000      -0.538156       -14.6440
  22   2.0000      -0.516479       -14.0541
  23   2.0000      -0.502857       -13.6834
  24   2.0000      -0.477804       -13.0017
  25   2.0000      -0.434472       -11.8226
  26   2.0000      -0.419912       -11.4264
  27   2.0000      -0.353157        -9.6099
  28   0.0000       0.124702         3.3933
  29   0.0000       0.139951         3.8083
  30   0.0000       0.149887         4.0786
  31   0.0000       0.156359         4.2548
  32   0.0000       0.176883         4.8132

MULLIKEN ATOMIC CHARGES
-----------------------
   0 N :   -0.054874
   1 C :   -0.270866
   2 C :    0.262360
   3 C :   -0.271515
   4 C :   -0.093890
   5 C :   -0.075493
   6 N :   -0.380619
   7 C :   -0.151876
   8 H :    0.154478
   9 H :    0.180375
  10 H :    0.160600
  11 H :    0.154228
  12 H :    0.225596
  13 H :    0.161495
Sum of atomic charges:   -0.0000000

LOEWDIN ATOMIC CHARGES
----------------------
   0 N :    0.062020
   1 C :   -0.167805
   2 C :   -0.169066
   3 C :   -0.148222
   4 C :   -0.114016
   5 C :   -0.201857
   6 N :    0.011800
   7 C :   -0.174021
   8 H :    0.151698
   9 H :    0.148128
  10 H :    0.147308
  11 H :    0.135418
  12 H :    0.177946
  13 H :    0.140668

  Mayer bond orders larger than 0.1
B(  0-N ,  1-C ) :   2.8778 B(  1-C ,  2-C ) :   0.9255 B(  2-C ,  3-C ) :   0.8486
B(  2-C ,  4-C ) :   0.8183 B(  2-C ,  7-C ) :   0.8260 B(  3-C ,  4-C ) :   0.9284
B(  3-C ,  8-H ) :   0.9229 B(  3-C ,  9-H ) :   0.8900 B(  4-C ,  5-C ) :   0.8896
B(  4-C , 10-H ) :   0.9142 B(  5-C ,  6-N ) :   0.9283 B(  5-C ,  7-C ) :   1.0126
B(  5-C , 11-H ) :   0.9194 B(  6-N ,  7-C ) :   0.9796 B(  6-N , 12-H ) :   0.8654
B(  7-C , 13-H ) :   0.9203

MP2 TOTAL ENERGY:     -340.901186716 Eh
FINAL SINGLE POINT ENERGY      -340.901186715989

DIPOLE MOMENT
-------------
                                X             Y             Z
Electronic contribution:     -0.41076      -3.88566       0.06797
Nuclear contribution   :      0.62979       5.47077       0.61002
                        -----------------------------------------
Total Dipole Moment    :      0.21902       1.58511       0.67799
                        -----------------------------------------
Magnitude (a.u.)       :      1.73787
Magnitude (Debye)      :      4.41732

                             ****ORCA TERMINATED NORMALLY****
TOTAL RUN TIME: 0 days 0 hours 11 minutes 20 seconds 910 msec
