                         Program Version 3.0.3 - RELEASE   -
|  1> ! RI-MP2 RIJK def2-TZVP def2-TZVP/C def2-TZVP/JK TIGHTSCF
|  2> % maxcore 2000
|  3> % mp2 density relaxed end
|  4> *xyz 0 1
|  5>  N        0.0016659727    -1.1413821471    -0.0448106051
|  6>  C        0.0102824576     0.0140921969    -0.0288029832
|  7>  C        0.0653106071     1.4608012535     0.0169669852
|  8>  C       -0.2889067446     2.2903893012     1.2989443979
|  9>  C        0.4938327843     3.3896713630     0.4934481593
| 10>  C        1.4207244716     2.2318586641     0.0431073209
| 11>  C       -0.4843525427     3.5505232651    -0.6789380540
| 12>  C       -0.1826914243     2.9510294098    -2.0037700152
| 13>  N       -0.8485006975     2.1318916646    -0.9729199171
| 14>  H       -1.3541049835     2.4445049029     1.4785581538
| 15>  H        0.2254652834     1.9455722112     2.1969624660
| 16>  H        0.8818029503     4.2899806947     0.9655697511
| 17>  H        2.0520730316     1.8766006440     0.8573513917
| 18>  H        2.0145711668     2.3151341585    -0.8655568315
| 19>  H       -1.3060055176     4.2526686715    -0.5684846954
| 20>  H       -0.8455835207     3.1897726953    -2.8304011127
| 21>  H        0.8345940355     2.7387795510    -2.3090064218
| 22> *
| 23>
| 24>                          ****END OF INPUT****

CARTESIAN COORDINATES (ANGSTROEM)
---------------------------------
  N      0.001666   -1.141382   -0.044811
  C      0.010282    0.014092   -0.028803
  C      0.065311    1.460801    0.016967
  C     -0.288907    2.290389    1.298944
  C      0.493833    3.389671    0.493448
  C      1.420724    2.231859    0.043107
  C     -0.484353    3.550523   -0.678938
  C     -0.182691    2.951029   -2.003770
  N     -0.848501    2.131892   -0.972920
  H     -1.354105    2.444505    1.478558
  H      0.225465    1.945572    2.196962
  H      0.881803    4.289981    0.965570
  H      2.052073    1.876601    0.857351
  H      2.014571    2.315134   -0.865557
  H     -1.306006    4.252669   -0.568485
  H     -0.845584    3.189773   -2.830401
  H      0.834594    2.738780   -2.309006

 Total Charge           Charge          ....    0
 Multiplicity           Mult            ....    1
 Number of Electrons    NEL             ....   64
 Basis Dimension        Dim             ....  327

ORBITAL ENERGIES
----------------

  NO   OCC          E(Eh)            E(eV)
   0   2.0000     -15.583719      -424.0545
   1   2.0000     -15.569120      -423.6573
   2   2.0000     -11.321489      -308.0734
   3   2.0000     -11.279586      -306.9331
   4   2.0000     -11.275151      -306.8125
   5   2.0000     -11.269580      -306.6609
   6   2.0000     -11.269271      -306.6524
   7   2.0000     -11.259010      -306.3732
   8   2.0000     -11.258682      -306.3643
   9   2.0000      -1.322802       -35.9953
  10   2.0000      -1.214763       -33.0554
  11   2.0000      -1.145391       -31.1677
  12   2.0000      -1.009648       -27.4739
  13   2.0000      -0.943076       -25.6624
  14   2.0000      -0.879806       -23.9407
  15   2.0000      -0.838474       -22.8160
  16   2.0000      -0.782305       -21.2876
  17   2.0000      -0.738785       -20.1034
  18   2.0000      -0.697970       -18.9927
  19   2.0000      -0.662888       -18.0381
  20   2.0000      -0.591482       -16.0951
  21   2.0000      -0.572803       -15.5868
  22   2.0000      -0.564680       -15.3657
  23   2.0000      -0.556248       -15.1363
  24   2.0000      -0.521113       -14.1802
  25   2.0000      -0.520261       -14.1570
  26   2.0000      -0.503533       -13.7018
  27   2.0000      -0.489727       -13.3261
  28   2.0000      -0.471703       -12.8357
  29   2.0000      -0.442115       -12.0306
  30   2.0000      -0.431015       -11.7285
  31   2.0000      -0.392435       -10.6787
  32   0.0000       0.133817         3.6413
  33   0.0000       0.137644         3.7455
  34   0.0000       0.147634         4.0173
  35   0.0000       0.162735         4.4282
  36   0.0000       0.176577         4.8049

MULLIKEN ATOMIC CHARGES
-----------------------
   0 N :   -0.033864
   1 C :   -0.270113
   2 C :    0.295870
   3 C :   -0.270808
   4 C :   -0.029159
   5 C :   -0.267493
   6 C :   -0.138321
   7 C :   -0.155388
   8 N :   -0.241501
   9 H :    0.141828
  10 H :    0.140267
  11 H :    0.147816
  12 H :    0.144785
  13 H :    0.133159
  14 H :    0.136953
  15 H :    0.137269
  16 H :    0.128699
Sum of atomic charges:    0.0000000

LOEWDIN ATOMIC CHARGES
----------------------
   0 N :    0.075324
   1 C :   -0.143838
   2 C :   -0.262491
   3 C :   -0.142240
   4 C :   -0.187331
   5 C :   -0.164440
   6 C :   -0.209721
   7 C :   -0.230055
   8 N :    0.159531
   9 H :    0.139039
  10 H :    0.141338
  11 H :    0.139700
  12 H :    0.150922
  13 H :    0.129585
  14 H :    0.142297
  15 H :    0.135176
  16 H :    0.127203

  Mayer bond orders larger than 0.1
B(  0-N ,  1-C ) :   2.8981 B(  1-C ,  2-C ) :   0.8734 B(  2-C ,  3-C ) :   0.8644
B(  2-C ,  5-C ) :   0.8973 B(  2-C ,  8-N ) :   0.8386 B(  3-C ,  4-C ) :   0.9148
B(  3-C ,  9-H ) :   0.9177 B(  3-C , 10-H ) :   0.9247 B(  4-C ,  5-C ) :   0.9125
B(  4-C ,  6-C ) :   0.9072 B(  4-C , 11-H ) :   0.9103 B(  5-C , 12-H ) :   0.9184
B(  5-C , 13-H ) :   0.9209 B(  6-C ,  7-C ) :   0.9678 B(  6-C ,  8-N ) :   0.8959
B(  6-C , 14-H ) :   0.9103 B(  7-C ,  8-N ) :   0.8863 B(  7-C , 15-H ) :   0.9294
B(  7-C , 16-H ) :   0.8996

MP2 TOTAL ENERGY:     -380.154835803 Eh
FINAL SINGLE POINT ENERGY      -380.154835803249

DIPOLE MOMENT
-------------
                                X             Y             Z
Electronic contribution:     -1.55460      -5.48075      -0.39363
Nuclear contribution   :      2.15056       7.37380       0.59085
                        -----------------------------------------
Total Dipole Moment    :      0.59596       1.89305       0.19721
                        -----------------------------------------
Magnitude (a.u.)       :      1.99442
Magnitude (Debye)      :      5.06940

                             ****ORCA TERMINATED NORMALLY****
TOTAL RUN TIME: 0 days 0 hours 19 minutes 30 seconds 78 msec
