                         Program Version 3.0.3 - RELEASE   -
|  1> ! RI-MP2 RIJK def2-TZVP def2-TZVP/C def2-TZVP/JK TIGHTSCF
|  2> % maxcore 2000
|  3> % mp2 density relaxed end
|  4> *xyz 0 1
|  5>  C        0.1323729821     0.4675369797    -0.8019765238
|  6>  C        0.0379367352    -0.0978992013     0.6114981711
|  7>  O        0.2785542251     0.8891852367     1.6073799531
|  8>  C       -1.3079571690    -0.7749426009     0.8849239615
|  9>  O       -1.4721692810    -1.8516587145    -0.0144857198
| 10>  C       -2.6779488967    -2.5570813859     0.1671458648
| 11>  C       -2.7413416757    -3.6690075304    -0.8801797349
| 12>  C       -3.8794620665    -4.6294497873    -0.6212883355
| 13>  O       -4.7406065272    -4.9080241171    -1.4142914853
| 14>  H        1.1144998708     0.9177943716    -0.9686807411
| 15>  H       -0.0318347514    -0.3195965308    -1.5418786854
| 16>  H       -0.6322992141     1.2399278539    -0.9596448187
| 17>  H        0.8244651397    -0.8474434468     0.7559513037
| 18>  H       -0.2863099738     1.6454709893     1.4136233028
| 19>  H       -1.3292513987    -1.1246891682     1.9286776876
| 20>  H       -2.1258335178    -0.0408779625     0.7641990859
| 21>  H       -2.7244499166    -2.9848857894     1.1838291057
| 22>  H       -3.5427256024    -1.8814685597     0.0612263864
| 23>  H       -2.8339428227    -3.2596186113    -1.8885737741
| 24>  H       -1.8019603573    -4.2359683160    -0.8181204942
| 25>  H       -3.8690037521    -5.0896914989     0.3952589801
| 26> *
| 27>
| 28>                          ****END OF INPUT****

CARTESIAN COORDINATES (ANGSTROEM)
---------------------------------
  C      0.132373    0.467537   -0.801977
  C      0.037937   -0.097899    0.611498
  O      0.278554    0.889185    1.607380
  C     -1.307957   -0.774943    0.884924
  O     -1.472169   -1.851659   -0.014486
  C     -2.677949   -2.557081    0.167146
  C     -2.741342   -3.669008   -0.880180
  C     -3.879462   -4.629450   -0.621288
  O     -4.740607   -4.908024   -1.414291
  H      1.114500    0.917794   -0.968681
  H     -0.031835   -0.319597   -1.541879
  H     -0.632299    1.239928   -0.959645
  H      0.824465   -0.847443    0.755951
  H     -0.286310    1.645471    1.413623
  H     -1.329251   -1.124689    1.928678
  H     -2.125834   -0.040878    0.764199
  H     -2.724450   -2.984886    1.183829
  H     -3.542726   -1.881469    0.061226
  H     -2.833943   -3.259619   -1.888574
  H     -1.801960   -4.235968   -0.818120
  H     -3.869004   -5.089691    0.395259

 Total Charge           Charge          ....    0
 Multiplicity           Mult            ....    1
 Number of Electrons    NEL             ....   72
 Basis Dimension        Dim             ....  351

ORBITAL ENERGIES
----------------

  NO   OCC          E(Eh)            E(eV)
   0   2.0000     -20.573612      -559.8365
   1   2.0000     -20.562953      -559.5464
   2   2.0000     -20.561930      -559.5186
   3   2.0000     -11.338023      -308.5233
   4   2.0000     -11.300543      -307.5034
   5   2.0000     -11.286231      -307.1140
   6   2.0000     -11.284559      -307.0685
   7   2.0000     -11.246121      -306.0225
   8   2.0000     -11.221022      -305.3395
   9   2.0000      -1.401970       -38.1495
  10   2.0000      -1.397548       -38.0292
  11   2.0000      -1.367310       -37.2064
  12   2.0000      -1.077564       -29.3220
  13   2.0000      -1.030778       -28.0489
  14   2.0000      -0.944001       -25.6876
  15   2.0000      -0.879637       -23.9361
  16   2.0000      -0.823961       -22.4211
  17   2.0000      -0.799619       -21.7587
  18   2.0000      -0.699887       -19.0449
  19   2.0000      -0.692887       -18.8544
  20   2.0000      -0.686185       -18.6721
  21   2.0000      -0.658272       -17.9125
  22   2.0000      -0.642085       -17.4720
  23   2.0000      -0.622957       -16.9515
  24   2.0000      -0.606079       -16.4923
  25   2.0000      -0.597799       -16.2669
  26   2.0000      -0.575496       -15.6600
  27   2.0000      -0.549726       -14.9588
  28   2.0000      -0.534354       -14.5405
  29   2.0000      -0.521284       -14.1849
  30   2.0000      -0.516641       -14.0585
  31   2.0000      -0.492397       -13.3988
  32   2.0000      -0.480762       -13.0822
  33   2.0000      -0.446420       -12.1477
  34   2.0000      -0.440434       -11.9848
  35   2.0000      -0.426233       -11.5984
  36   0.0000       0.123051         3.3484
  37   0.0000       0.127718         3.4754
  38   0.0000       0.143290         3.8991
  39   0.0000       0.157220         4.2782
  40   0.0000       0.166508         4.5309

MULLIKEN ATOMIC CHARGES
-----------------------
   0 C :   -0.416108
   1 C :    0.130497
   2 O :   -0.473417
   3 C :   -0.089375
   4 O :   -0.296133
   5 C :   -0.101292
   6 C :   -0.130006
   7 C :    0.086539
   8 O :   -0.259162
   9 H :    0.147005
  10 H :    0.145855
  11 H :    0.108378
  12 H :    0.097683
  13 H :    0.312356
  14 H :    0.116291
  15 H :    0.082437
  16 H :    0.098629
  17 H :    0.107425
  18 H :    0.128025
  19 H :    0.131389
  20 H :    0.072985
Sum of atomic charges:    0.0000000

LOEWDIN ATOMIC CHARGES
----------------------
   0 C :   -0.305198
   1 C :   -0.376365
   2 O :   -0.020180
   3 C :   -0.317446
   4 O :    0.165124
   5 C :   -0.325185
   6 C :   -0.259170
   7 C :   -0.296431
   8 O :    0.135208
   9 H :    0.126486
  10 H :    0.131897
  11 H :    0.120508
  12 H :    0.146342
  13 H :    0.174311
  14 H :    0.124863
  15 H :    0.117820
  16 H :    0.121295
  17 H :    0.122895
  18 H :    0.146950
  19 H :    0.156660
  20 H :    0.109616

  Mayer bond orders larger than 0.1
B(  0-C ,  1-C ) :   0.9457 B(  0-C ,  9-H ) :   0.9391 B(  0-C , 10-H ) :   0.9269
B(  0-C , 11-H ) :   0.9197 B(  1-C ,  2-O ) :   0.8945 B(  1-C ,  3-C ) :   0.9585
B(  1-C , 12-H ) :   0.9152 B(  2-O , 13-H ) :   0.8427 B(  3-C ,  4-O ) :   0.9132
B(  3-C , 14-H ) :   0.9246 B(  3-C , 15-H ) :   0.9107 B(  4-O ,  5-C ) :   0.9469
B(  5-C ,  6-C ) :   0.9239 B(  5-C , 16-H ) :   0.9237 B(  5-C , 17-H ) :   0.9213
B(  6-C ,  7-C ) :   0.8789 B(  6-C , 18-H ) :   0.9064 B(  6-C , 19-H ) :   0.9079
B(  7-C ,  8-O ) :   1.9922 B(  7-C , 20-H ) :   0.9258

MP2 TOTAL ENERGY:     -460.622737593 Eh
FINAL SINGLE POINT ENERGY      -460.622737592554

DIPOLE MOMENT
-------------
                                X             Y             Z
Electronic contribution:     -3.91644      -5.37127      -0.35426
Nuclear contribution   :      4.06531       5.89737       0.69318
                        -----------------------------------------
Total Dipole Moment    :      0.14887       0.52610       0.33892
                        -----------------------------------------
Magnitude (a.u.)       :      0.64328
Magnitude (Debye)      :      1.63509

                             ****ORCA TERMINATED NORMALLY****
TOTAL RUN TIME: 0 days 0 hours 17 minutes 20 seconds 80 msec
