                         Program Version 3.0.3 - RELEASE   -
|  1> ! RI-MP2 RIJK def2-TZVP def2-TZVP/C def2-TZVP/JK TIGHTSCF
|  2> % maxcore 2000
|  3> % mp2 density relaxed end
|  4> *xyz 0 1
|  5>  O       -0.1395460705     1.3879986739    -0.0612496388
|  6>  C       -0.0456208888    -0.0007672686     0.0423812027
|  7>  C       -0.5308445139    -0.6863155614     1.2914202431
|  8>  C       -1.3592170702    -0.7191808270     0.0326088824
|  9>  C       -2.7370712941    -0.1543777185    -0.2789618347
| 10>  O       -3.0064068870    -1.3439582744    -1.0979123197
| 11>  C       -1.7635505665    -1.8795185931    -0.8068460956
| 12>  N       -1.2240299090    -2.9573024057    -1.1533497840
| 13>  H        0.5727797184     1.7767911652     0.4574040409
| 14>  H        0.7683435149    -0.4660214555    -0.5122756875
| 15>  H       -0.0557014111    -1.6128785056     1.5952723019
| 16>  H       -0.8926275364    -0.0524411291     2.0946141879
| 17>  H       -3.4422624553    -0.0894378771     0.5534284617
| 18>  H       -2.7584141747     0.7556483096    -0.8817060332
| 19>  H       -1.8353816258    -3.5070945025    -1.7580701170
| 20> *
| 21>
| 22>                          ****END OF INPUT****

CARTESIAN COORDINATES (ANGSTROEM)
---------------------------------
  O     -0.139546    1.387999   -0.061250
  C     -0.045621   -0.000767    0.042381
  C     -0.530845   -0.686316    1.291420
  C     -1.359217   -0.719181    0.032609
  C     -2.737071   -0.154378   -0.278962
  O     -3.006407   -1.343958   -1.097912
  C     -1.763551   -1.879519   -0.806846
  N     -1.224030   -2.957302   -1.153350
  H      0.572780    1.776791    0.457404
  H      0.768344   -0.466021   -0.512276
  H     -0.055701   -1.612879    1.595272
  H     -0.892628   -0.052441    2.094614
  H     -3.442262   -0.089438    0.553428
  H     -2.758414    0.755648   -0.881706
  H     -1.835382   -3.507095   -1.758070

 Total Charge           Charge          ....    0
 Multiplicity           Mult            ....    1
 Number of Electrons    NEL             ....   60
 Basis Dimension        Dim             ....  290

ORBITAL ENERGIES
----------------

  NO   OCC          E(Eh)            E(eV)
   0   2.0000     -20.589181      -560.2601
   1   2.0000     -20.583365      -560.1018
   2   2.0000     -15.534542      -422.7164
   3   2.0000     -11.338960      -308.5488
   4   2.0000     -11.306583      -307.6678
   5   2.0000     -11.300443      -307.5007
   6   2.0000     -11.259710      -306.3923
   7   2.0000     -11.250475      -306.1410
   8   2.0000      -1.430226       -38.9184
   9   2.0000      -1.392979       -37.9049
  10   2.0000      -1.195961       -32.5438
  11   2.0000      -1.154182       -31.4069
  12   2.0000      -0.967557       -26.3286
  13   2.0000      -0.887635       -24.1538
  14   2.0000      -0.848345       -23.0846
  15   2.0000      -0.735590       -20.0164
  16   2.0000      -0.718655       -19.5556
  17   2.0000      -0.699501       -19.0344
  18   2.0000      -0.672559       -18.3013
  19   2.0000      -0.666527       -18.1371
  20   2.0000      -0.636316       -17.3151
  21   2.0000      -0.582908       -15.8617
  22   2.0000      -0.558630       -15.2011
  23   2.0000      -0.527939       -14.3660
  24   2.0000      -0.521564       -14.1925
  25   2.0000      -0.509584       -13.8665
  26   2.0000      -0.452990       -12.3265
  27   2.0000      -0.445759       -12.1297
  28   2.0000      -0.417676       -11.3655
  29   2.0000      -0.389223       -10.5913
  30   0.0000       0.129422         3.5217
  31   0.0000       0.159492         4.3400
  32   0.0000       0.164225         4.4688
  33   0.0000       0.170600         4.6422
  34   0.0000       0.176974         4.8157

MULLIKEN ATOMIC CHARGES
-----------------------
   0 O :   -0.462043
   1 C :    0.003863
   2 C :   -0.315971
   3 C :    0.063831
   4 C :   -0.007058
   5 O :   -0.267421
   6 C :    0.131883
   7 N :   -0.382337
   8 H :    0.329347
   9 H :    0.129451
  10 H :    0.149528
  11 H :    0.148359
  12 H :    0.114842
  13 H :    0.132860
  14 H :    0.230866
Sum of atomic charges:    0.0000000

LOEWDIN ATOMIC CHARGES
----------------------
   0 O :    0.004594
   1 C :   -0.287910
   2 C :   -0.177936
   3 C :   -0.186848
   4 C :   -0.180232
   5 O :    0.209853
   6 C :   -0.370010
   7 N :   -0.056902
   8 H :    0.184898
   9 H :    0.141945
  10 H :    0.146018
  11 H :    0.142598
  12 H :    0.125545
  13 H :    0.130534
  14 H :    0.173854

  Mayer bond orders larger than 0.1
B(  0-O ,  1-C ) :   1.0612 B(  0-O ,  3-C ) :  -0.1132 B(  0-O ,  8-H ) :   0.8382
B(  1-C ,  2-C ) :   0.9398 B(  1-C ,  3-C ) :   0.8002 B(  1-C ,  9-H ) :   0.9440
B(  2-C ,  3-C ) :   0.8374 B(  2-C , 10-H ) :   0.9072 B(  2-C , 11-H ) :   0.9244
B(  3-C ,  4-C ) :   0.9582 B(  3-C ,  6-C ) :   0.9258 B(  4-C ,  5-O ) :   0.8923
B(  4-C , 12-H ) :   0.9173 B(  4-C , 13-H ) :   0.9138 B(  5-O ,  6-C ) :   1.0728
B(  6-C ,  7-N ) :   2.0592 B(  7-N , 14-H ) :   0.8495

MP2 TOTAL ENERGY:     -399.119082004 Eh
FINAL SINGLE POINT ENERGY      -399.119082003582

DIPOLE MOMENT
-------------
                                X             Y             Z
Electronic contribution:     -1.39069      -1.19102      -2.36920
Nuclear contribution   :      1.67637       1.96286       3.16698
                        -----------------------------------------
Total Dipole Moment    :      0.28568       0.77184       0.79777
                        -----------------------------------------
Magnitude (a.u.)       :      1.14621
Magnitude (Debye)      :      2.91343

                             ****ORCA TERMINATED NORMALLY****
TOTAL RUN TIME: 0 days 0 hours 11 minutes 6 seconds 187 msec
