                         Program Version 3.0.3 - RELEASE   -
|  1> ! RI-MP2 RIJK def2-TZVP def2-TZVP/C def2-TZVP/JK TIGHTSCF
|  2> % maxcore 2000
|  3> % mp2 density relaxed end
|  4> *xyz 0 1
|  5>  C        0.1708389264     1.5585492877    -0.4965224028
|  6>  C       -0.0121029521     0.1224169038    -0.0722145924
|  7>  N        1.1837959216    -0.7086684965     0.0037840794
|  8>  C        0.4551725780    -0.4224250663     1.2524447601
|  9>  C        1.1482643891     0.4362625792     2.2691897872
| 10>  O        2.0231922560     1.2345148707     2.0207711484
| 11>  N        0.7121438443     0.1824829041     3.5767551977
| 12>  C       -0.6214130299     0.5120185700     4.0604235786
| 13>  C        0.5950128641     1.2394807769     4.5514324665
| 14>  H        1.0837393266     1.9689718548    -0.0640655751
| 15>  H        0.2404279562     1.6181724822    -1.5878890733
| 16>  H       -0.6826858091     2.1685136358    -0.1806311401
| 17>  H       -0.9220182284    -0.3515087762    -0.4421770230
| 18>  H        0.9894269945    -1.6629109389    -0.2874791027
| 19>  H       -0.1483508837    -1.2166341912     1.6842012677
| 20>  H       -1.2869860702     1.0473317493     3.3873526054
| 21>  H       -1.1023569464    -0.2367790388     4.6838531183
| 22>  H        0.9889059226     1.0192471242     5.5391753003
| 23>  H        0.7652683704     2.2525877891     4.1975348397
| 24> *
| 25>
| 26>                          ****END OF INPUT****

CARTESIAN COORDINATES (ANGSTROEM)
---------------------------------
  C      0.170839    1.558549   -0.496522
  C     -0.012103    0.122417   -0.072215
  N      1.183796   -0.708668    0.003784
  C      0.455173   -0.422425    1.252445
  C      1.148264    0.436263    2.269190
  O      2.023192    1.234515    2.020771
  N      0.712144    0.182483    3.576755
  C     -0.621413    0.512019    4.060424
  C      0.595013    1.239481    4.551432
  H      1.083739    1.968972   -0.064066
  H      0.240428    1.618172   -1.587889
  H     -0.682686    2.168514   -0.180631
  H     -0.922018   -0.351509   -0.442177
  H      0.989427   -1.662911   -0.287479
  H     -0.148351   -1.216634    1.684201
  H     -1.286986    1.047332    3.387353
  H     -1.102357   -0.236779    4.683853
  H      0.988906    1.019247    5.539175
  H      0.765268    2.252588    4.197535

 Total Charge           Charge          ....    0
 Multiplicity           Mult            ....    1
 Number of Electrons    NEL             ....   68
 Basis Dimension        Dim             ....  339

ORBITAL ENERGIES
----------------

  NO   OCC          E(Eh)            E(eV)
   0   2.0000     -20.530468      -558.6624
   1   2.0000     -15.584264      -424.0694
   2   2.0000     -15.568904      -423.6514
   3   2.0000     -11.351737      -308.8965
   4   2.0000     -11.283412      -307.0372
   5   2.0000     -11.277235      -306.8692
   6   2.0000     -11.273246      -306.7606
   7   2.0000     -11.272247      -306.7334
   8   2.0000     -11.214102      -305.1512
   9   2.0000      -1.394308       -37.9411
  10   2.0000      -1.290531       -35.1171
  11   2.0000      -1.273538       -34.6547
  12   2.0000      -1.006478       -27.3877
  13   2.0000      -0.992271       -27.0011
  14   2.0000      -0.903196       -24.5772
  15   2.0000      -0.860535       -23.4164
  16   2.0000      -0.814746       -22.1704
  17   2.0000      -0.748576       -20.3698
  18   2.0000      -0.725818       -19.7505
  19   2.0000      -0.692399       -18.8411
  20   2.0000      -0.670749       -18.2520
  21   2.0000      -0.639283       -17.3958
  22   2.0000      -0.581227       -15.8160
  23   2.0000      -0.570427       -15.5221
  24   2.0000      -0.549621       -14.9560
  25   2.0000      -0.548547       -14.9267
  26   2.0000      -0.530485       -14.4352
  27   2.0000      -0.510831       -13.9004
  28   2.0000      -0.504739       -13.7346
  29   2.0000      -0.474643       -12.9157
  30   2.0000      -0.459212       -12.4958
  31   2.0000      -0.430464       -11.7135
  32   2.0000      -0.399408       -10.8685
  33   2.0000      -0.396264       -10.7829
  34   0.0000       0.123266         3.3542
  35   0.0000       0.136345         3.7101
  36   0.0000       0.159128         4.3301
  37   0.0000       0.164782         4.4839
  38   0.0000       0.169165         4.6032

MULLIKEN ATOMIC CHARGES
-----------------------
   0 C :   -0.410378
   1 C :    0.007021
   2 N :   -0.368736
   3 C :   -0.082413
   4 C :    0.218484
   5 O :   -0.307843
   6 N :   -0.185772
   7 C :   -0.184061
   8 C :   -0.157650
   9 H :    0.181160
  10 H :    0.131015
  11 H :    0.114232
  12 H :    0.120127
  13 H :    0.223055
  14 H :    0.140756
  15 H :    0.140318
  16 H :    0.137659
  17 H :    0.139675
  18 H :    0.143351
Sum of atomic charges:   -0.0000000

LOEWDIN ATOMIC CHARGES
----------------------
   0 C :   -0.295023
   1 C :   -0.275410
   2 N :    0.028893
   3 C :   -0.230150
   4 C :   -0.412454
   5 O :    0.141311
   6 N :    0.160934
   7 C :   -0.239630
   8 C :   -0.236956
   9 H :    0.138971
  10 H :    0.128071
  11 H :    0.124027
  12 H :    0.136502
  13 H :    0.169739
  14 H :    0.145930
  15 H :    0.128253
  16 H :    0.126155
  17 H :    0.129275
  18 H :    0.131562

  Mayer bond orders larger than 0.1
B(  0-C ,  1-C ) :   0.8905 B(  0-C ,  9-H ) :   0.9334 B(  0-C , 10-H ) :   0.9303
B(  0-C , 11-H ) :   0.9344 B(  1-C ,  2-N ) :   0.9354 B(  1-C ,  3-C ) :   0.8598
B(  1-C , 12-H ) :   0.9271 B(  2-N ,  3-C ) :   0.8709 B(  2-N , 13-H ) :   0.8623
B(  3-C ,  4-C ) :   0.9279 B(  3-C , 14-H ) :   0.9213 B(  4-C ,  5-O ) :   2.0016
B(  4-C ,  6-N ) :   1.0297 B(  6-N ,  7-C ) :   0.8529 B(  6-N ,  8-C ) :   0.8751
B(  7-C ,  8-C ) :   0.9368 B(  7-C , 15-H ) :   0.9206 B(  7-C , 16-H ) :   0.9269
B(  8-C , 17-H ) :   0.9254 B(  8-C , 18-H ) :   0.9234

MP2 TOTAL ENERGY:     -418.465021548 Eh
FINAL SINGLE POINT ENERGY      -418.465021548279

DIPOLE MOMENT
-------------
                                X             Y             Z
Electronic contribution:      4.32993      -2.12685       2.14957
Nuclear contribution   :     -5.97271       1.70736      -1.84838
                        -----------------------------------------
Total Dipole Moment    :     -1.64278      -0.41949       0.30119
                        -----------------------------------------
Magnitude (a.u.)       :      1.72204
Magnitude (Debye)      :      4.37707

                             ****ORCA TERMINATED NORMALLY****
TOTAL RUN TIME: 0 days 0 hours 18 minutes 16 seconds 227 msec
