                         Program Version 3.0.3 - RELEASE   -
|  1> ! RI-MP2 RIJK def2-TZVP def2-TZVP/C def2-TZVP/JK TIGHTSCF
|  2> % maxcore 2000
|  3> % mp2 density relaxed end
|  4> *xyz 0 1
|  5>  C        0.5035108468     1.2788798520    -0.0550291259
|  6>  C        0.1241490672    -0.1843686660     0.1901047131
|  7>  C       -1.3537461488    -0.5415792245    -0.1101063965
|  8>  C       -2.3114996808     0.2501039911     0.7839688718
|  9>  O       -1.6762902423    -0.1337057757    -1.4497924537
| 10>  C       -1.5218900470    -2.0708381646     0.0666066047
| 11>  C       -2.9238696287    -2.6971579828    -0.0785031729
| 12>  C       -3.4765038009    -2.6286848652    -1.5101913107
| 13>  C       -2.8883914838    -4.1539100355     0.4096497606
| 14>  H        1.5864840904     1.4141397668     0.0249178427
| 15>  H        0.1894196304     1.5949572827    -1.0533218900
| 16>  H        0.0365671148     1.9504433007     0.6715119657
| 17>  H        0.7545611058    -0.8280269818    -0.4401617611
| 18>  H        0.3536068782    -0.4636622258     1.2258615847
| 19>  H       -2.1603039542     1.3235343224     0.6510487858
| 20>  H       -3.3505421949     0.0308805920     0.5290626335
| 21>  H       -2.1521935302     0.0040065906     1.8382370658
| 22>  H       -1.1305758348    -0.6512669059    -2.0521845410
| 23>  H       -0.8431518869    -2.5674952557    -0.6450576315
| 24>  H       -1.1350751765    -2.3249666581     1.0624137416
| 25>  H       -3.6138322639    -2.1516834749     0.5783161379
| 26>  H       -2.8248359643    -3.1801534787    -2.2007794996
| 27>  H       -4.4697408880    -3.0876381827    -1.5641377391
| 28>  H       -3.5445167459    -1.5998270815    -1.8657683513
| 29>  H       -3.8782908678    -4.6167994126     0.3388198155
| 30>  H       -2.1992330992    -4.7543927288    -0.1968405125
| 31>  H       -2.5586551448    -4.2224771874     1.4519511226
| 32> *
| 33>
| 34>                          ****END OF INPUT****

CARTESIAN COORDINATES (ANGSTROEM)
---------------------------------
  C      0.503511    1.278880   -0.055029
  C      0.124149   -0.184369    0.190105
  C     -1.353746   -0.541579   -0.110106
  C     -2.311500    0.250104    0.783969
  O     -1.676290   -0.133706   -1.449792
  C     -1.521890   -2.070838    0.066607
  C     -2.923870   -2.697158   -0.078503
  C     -3.476504   -2.628685   -1.510191
  C     -2.888391   -4.153910    0.409650
  H      1.586484    1.414140    0.024918
  H      0.189420    1.594957   -1.053322
  H      0.036567    1.950443    0.671512
  H      0.754561   -0.828027   -0.440162
  H      0.353607   -0.463662    1.225862
  H     -2.160304    1.323534    0.651049
  H     -3.350542    0.030881    0.529063
  H     -2.152194    0.004007    1.838237
  H     -1.130576   -0.651267   -2.052185
  H     -0.843152   -2.567495   -0.645058
  H     -1.135075   -2.324967    1.062414
  H     -3.613832   -2.151683    0.578316
  H     -2.824836   -3.180153   -2.200779
  H     -4.469741   -3.087638   -1.564138
  H     -3.544517   -1.599827   -1.865768
  H     -3.878291   -4.616799    0.338820
  H     -2.199233   -4.754393   -0.196841
  H     -2.558655   -4.222477    1.451951

 Total Charge           Charge          ....    0
 Multiplicity           Mult            ....    1
 Number of Electrons    NEL             ....   74
 Basis Dimension        Dim             ....  387

ORBITAL ENERGIES
----------------

  NO   OCC          E(Eh)            E(eV)
   0   2.0000     -20.546546      -559.0999
   1   2.0000     -11.282781      -307.0201
   2   2.0000     -11.223944      -305.4190
   3   2.0000     -11.219386      -305.2950
   4   2.0000     -11.218346      -305.2667
   5   2.0000     -11.209721      -305.0320
   6   2.0000     -11.208106      -304.9881
   7   2.0000     -11.207915      -304.9829
   8   2.0000     -11.201959      -304.8208
   9   2.0000      -1.355009       -36.8717
  10   2.0000      -1.091855       -29.7109
  11   2.0000      -1.052782       -28.6477
  12   2.0000      -0.983979       -26.7754
  13   2.0000      -0.931749       -25.3542
  14   2.0000      -0.921753       -25.0822
  15   2.0000      -0.858081       -23.3496
  16   2.0000      -0.775509       -21.1027
  17   2.0000      -0.757317       -20.6076
  18   2.0000      -0.661172       -17.9914
  19   2.0000      -0.642807       -17.4917
  20   2.0000      -0.634927       -17.2772
  21   2.0000      -0.611048       -16.6275
  22   2.0000      -0.587196       -15.9784
  23   2.0000      -0.575582       -15.6624
  24   2.0000      -0.554317       -15.0837
  25   2.0000      -0.535819       -14.5804
  26   2.0000      -0.528851       -14.3908
  27   2.0000      -0.525079       -14.2881
  28   2.0000      -0.519551       -14.1377
  29   2.0000      -0.507143       -13.8001
  30   2.0000      -0.502890       -13.6843
  31   2.0000      -0.484974       -13.1968
  32   2.0000      -0.479976       -13.0608
  33   2.0000      -0.462694       -12.5906
  34   2.0000      -0.458416       -12.4741
  35   2.0000      -0.442176       -12.0322
  36   2.0000      -0.409815       -11.1516
  37   0.0000       0.123714         3.3664
  38   0.0000       0.152046         4.1374
  39   0.0000       0.155926         4.2430
  40   0.0000       0.171575         4.6688
  41   0.0000       0.180942         4.9237

MULLIKEN ATOMIC CHARGES
-----------------------
   0 C :   -0.410910
   1 C :   -0.208466
   2 C :    0.263691
   3 C :   -0.455004
   4 O :   -0.479261
   5 C :   -0.316108
   6 C :    0.012128
   7 C :   -0.442008
   8 C :   -0.394864
   9 H :    0.133238
  10 H :    0.138676
  11 H :    0.127213
  12 H :    0.103691
  13 H :    0.108730
  14 H :    0.145117
  15 H :    0.143887
  16 H :    0.125307
  17 H :    0.309718
  18 H :    0.110852
  19 H :    0.117305
  20 H :    0.091156
  21 H :    0.110179
  22 H :    0.124827
  23 H :    0.163014
  24 H :    0.131803
  25 H :    0.119930
  26 H :    0.126158
Sum of atomic charges:    0.0000000

LOEWDIN ATOMIC CHARGES
----------------------
   0 C :   -0.320714
   1 C :   -0.265236
   2 C :   -0.396030
   3 C :   -0.267383
   4 O :    0.005868
   5 C :   -0.219885
   6 C :   -0.305073
   7 C :   -0.302943
   8 C :   -0.297540
   9 H :    0.120546
  10 H :    0.124458
  11 H :    0.119210
  12 H :    0.136838
  13 H :    0.139726
  14 H :    0.128785
  15 H :    0.127243
  16 H :    0.128828
  17 H :    0.172635
  18 H :    0.141271
  19 H :    0.149000
  20 H :    0.149845
  21 H :    0.119764
  22 H :    0.120741
  23 H :    0.125550
  24 H :    0.122219
  25 H :    0.122094
  26 H :    0.120181

  Mayer bond orders larger than 0.1
B(  0-C ,  1-C ) :   0.9250 B(  0-C ,  9-H ) :   0.9408 B(  0-C , 10-H ) :   0.9351
B(  0-C , 11-H ) :   0.9412 B(  1-C ,  2-C ) :   0.9373 B(  1-C , 12-H ) :   0.9202
B(  1-C , 13-H ) :   0.9277 B(  2-C ,  3-C ) :   0.8622 B(  2-C ,  4-O ) :   0.8719
B(  2-C ,  5-C ) :   0.9196 B(  3-C , 14-H ) :   0.9404 B(  3-C , 15-H ) :   0.9426
B(  3-C , 16-H ) :   0.9342 B(  4-O , 17-H ) :   0.8419 B(  5-C ,  6-C ) :   0.9137
B(  5-C , 18-H ) :   0.9202 B(  5-C , 19-H ) :   0.9253 B(  6-C ,  7-C ) :   0.9047
B(  6-C ,  8-C ) :   0.9119 B(  6-C , 20-H ) :   0.9311 B(  7-C , 21-H ) :   0.9344
B(  7-C , 22-H ) :   0.9363 B(  7-C , 23-H ) :   0.9330 B(  8-C , 24-H ) :   0.9435
B(  8-C , 25-H ) :   0.9339 B(  8-C , 26-H ) :   0.9405

MP2 TOTAL ENERGY:     -390.037844540 Eh
FINAL SINGLE POINT ENERGY      -390.037844539705

DIPOLE MOMENT
-------------
                                X             Y             Z
Electronic contribution:      0.29376       2.11806      -1.93529
Nuclear contribution   :      0.06334      -2.45240       2.13305
                        -----------------------------------------
Total Dipole Moment    :      0.35710      -0.33434       0.19776
                        -----------------------------------------
Magnitude (a.u.)       :      0.52765
Magnitude (Debye)      :      1.34117

                             ****ORCA TERMINATED NORMALLY****
TOTAL RUN TIME: 0 days 0 hours 23 minutes 5 seconds 882 msec
