                         Program Version 3.0.3 - RELEASE   -
|  1> ! RI-MP2 RIJK def2-TZVP def2-TZVP/C def2-TZVP/JK TIGHTSCF
|  2> % maxcore 2000
|  3> % mp2 density relaxed end
|  4> *xyz 0 1
|  5>  C       -0.2882994980     1.7850623036     0.1596730677
|  6>  C       -0.4189459380     0.3263957278     0.5579996256
|  7>  O       -1.2422672576    -0.3230319479    -0.4132059609
|  8>  C       -1.3460776528    -1.7159678780    -0.3053102645
|  9>  C       -2.4644723987    -2.2045210198     0.6430734684
| 10>  C       -2.1176920493    -2.1218580726     2.0569832445
| 11>  N       -1.8288929976    -2.0581424147     3.1745132677
| 12>  C       -1.5999988096    -2.2386827910    -1.7223534225
| 13>  O       -2.1942197557    -3.2522944792    -1.9741667406
| 14>  H        0.3411304650     2.3152659880     0.8800715520
| 15>  H        0.1627193789     1.8764736156    -0.8323821347
| 16>  H       -1.2694961190     2.2673081287     0.1379126054
| 17>  H        0.5668449040    -0.1634686228     0.5849750130
| 18>  H       -0.8607448093     0.2334404888     1.5578184480
| 19>  H       -0.3850456444    -2.1572359959     0.0155285861
| 20>  H       -3.3657846785    -1.6126014951     0.4530173063
| 21>  H       -2.6949947778    -3.2429280361     0.3823861053
| 22>  H       -1.1652141717    -1.5834076093    -2.5056139867
| 23> *
| 24>
| 25>                          ****END OF INPUT****

CARTESIAN COORDINATES (ANGSTROEM)
---------------------------------
  C     -0.288299    1.785062    0.159673
  C     -0.418946    0.326396    0.558000
  O     -1.242267   -0.323032   -0.413206
  C     -1.346078   -1.715968   -0.305310
  C     -2.464472   -2.204521    0.643073
  C     -2.117692   -2.121858    2.056983
  N     -1.828893   -2.058142    3.174513
  C     -1.599999   -2.238683   -1.722353
  O     -2.194220   -3.252294   -1.974167
  H      0.341130    2.315266    0.880072
  H      0.162719    1.876474   -0.832382
  H     -1.269496    2.267308    0.137913
  H      0.566845   -0.163469    0.584975
  H     -0.860745    0.233440    1.557818
  H     -0.385046   -2.157236    0.015529
  H     -3.365785   -1.612601    0.453017
  H     -2.694995   -3.242928    0.382386
  H     -1.165214   -1.583408   -2.505614

 Total Charge           Charge          ....    0
 Multiplicity           Mult            ....    1
 Number of Electrons    NEL             ....   68
 Basis Dimension        Dim             ....  333

ORBITAL ENERGIES
----------------

  NO   OCC          E(Eh)            E(eV)
   0   2.0000     -20.589190      -560.2604
   1   2.0000     -20.584196      -560.1245
   2   2.0000     -15.578073      -423.9009
   3   2.0000     -11.354438      -308.9700
   4   2.0000     -11.331859      -308.3556
   5   2.0000     -11.296795      -307.4014
   6   2.0000     -11.291737      -307.2638
   7   2.0000     -11.283308      -307.0344
   8   2.0000     -11.230714      -305.6033
   9   2.0000      -1.428338       -38.8670
  10   2.0000      -1.409456       -38.3533
  11   2.0000      -1.228074       -33.4176
  12   2.0000      -1.101053       -29.9612
  13   2.0000      -1.033821       -28.1317
  14   2.0000      -0.957799       -26.0630
  15   2.0000      -0.855930       -23.2910
  16   2.0000      -0.814917       -22.1750
  17   2.0000      -0.742636       -20.2082
  18   2.0000      -0.719420       -19.5764
  19   2.0000      -0.692083       -18.8325
  20   2.0000      -0.660845       -17.9825
  21   2.0000      -0.657966       -17.9042
  22   2.0000      -0.620607       -16.8876
  23   2.0000      -0.608232       -16.5508
  24   2.0000      -0.573922       -15.6172
  25   2.0000      -0.560865       -15.2619
  26   2.0000      -0.555677       -15.1207
  27   2.0000      -0.546127       -14.8609
  28   2.0000      -0.523324       -14.2404
  29   2.0000      -0.509880       -13.8745
  30   2.0000      -0.485519       -13.2116
  31   2.0000      -0.467420       -12.7191
  32   2.0000      -0.456860       -12.4318
  33   2.0000      -0.430452       -11.7132
  34   0.0000       0.103397         2.8136
  35   0.0000       0.127837         3.4786
  36   0.0000       0.145244         3.9523
  37   0.0000       0.149800         4.0763
  38   0.0000       0.170679         4.6444

MULLIKEN ATOMIC CHARGES
-----------------------
   0 C :   -0.362601
   1 C :   -0.074204
   2 O :   -0.307081
   3 C :    0.107763
   4 C :   -0.147579
   5 C :   -0.191002
   6 N :   -0.058841
   7 C :    0.091563
   8 O :   -0.257034
   9 H :    0.131609
  10 H :    0.129971
  11 H :    0.134533
  12 H :    0.101401
  13 H :    0.130755
  14 H :    0.113276
  15 H :    0.161368
  16 H :    0.185332
  17 H :    0.110771
Sum of atomic charges:    0.0000000

LOEWDIN ATOMIC CHARGES
----------------------
   0 C :   -0.313284
   1 C :   -0.331734
   2 O :    0.186612
   3 C :   -0.325563
   4 C :   -0.220458
   5 C :   -0.200510
   6 N :    0.057277
   7 C :   -0.258904
   8 O :    0.149842
   9 H :    0.128751
  10 H :    0.124364
  11 H :    0.126215
  12 H :    0.120841
  13 H :    0.128501
  14 H :    0.157423
  15 H :    0.171683
  16 H :    0.177220
  17 H :    0.121725

  Mayer bond orders larger than 0.1
B(  0-C ,  1-C ) :   0.9543 B(  0-C ,  9-H ) :   0.9301 B(  0-C , 10-H ) :   0.9354
B(  0-C , 11-H ) :   0.9345 B(  1-C ,  2-O ) :   0.8884 B(  1-C , 12-H ) :   0.9242
B(  1-C , 13-H ) :   0.9227 B(  2-O ,  3-C ) :   0.9350 B(  3-C ,  4-C ) :   0.8886
B(  3-C ,  7-C ) :   0.8468 B(  3-C , 14-H ) :   0.9044 B(  4-C ,  5-C ) :   0.9261
B(  4-C , 15-H ) :   0.8977 B(  4-C , 16-H ) :   0.8934 B(  5-C ,  6-N ) :   2.8589
B(  7-C ,  8-O ) :   1.9886 B(  7-C , 17-H ) :   0.9407

MP2 TOTAL ENERGY:     -438.373237331 Eh
FINAL SINGLE POINT ENERGY      -438.373237331295

DIPOLE MOMENT
-------------
                                X             Y             Z
Electronic contribution:     -3.91147      -8.15755       0.18694
Nuclear contribution   :      4.35850       8.81402      -0.96256
                        -----------------------------------------
Total Dipole Moment    :      0.44703       0.65648      -0.77561
                        -----------------------------------------
Magnitude (a.u.)       :      1.11012
Magnitude (Debye)      :      2.82170

                             ****ORCA TERMINATED NORMALLY****
TOTAL RUN TIME: 0 days 0 hours 15 minutes 6 seconds 640 msec
