                         Program Version 3.0.3 - RELEASE   -
|  1> ! RI-MP2 RIJK def2-TZVP def2-TZVP/C def2-TZVP/JK TIGHTSCF
|  2> % maxcore 2000
|  3> % mp2 density relaxed end
|  4> *xyz 0 1
|  5>  O       -0.0241397201     1.3301310494     0.2910721402
|  6>  C        0.0541243172    -0.0517784275     0.1204075839
|  7>  C        1.0267485138    -0.4921799548    -0.9258297545
|  8>  C        1.3567298560    -0.7445986194     0.5436146534
|  9>  C        2.3499644158     0.0425018213     1.2111497558
| 10>  N        3.1174256806     0.6968690150     1.7791365823
| 11>  C       -1.2358336081    -0.7949840318     0.3128891603
| 12>  C       -2.2473174134    -0.3145444075     1.2860478038
| 13>  N       -2.4873282805    -0.1949393404    -0.1630314930
| 14>  H        0.1352572559     1.5465823149     1.2175181454
| 15>  H        0.7949935275    -1.3640990473    -1.5263543076
| 16>  H        1.5839592373     0.2910403190    -1.4243657801
| 17>  H        1.2749947832    -1.7656845590     0.9011703999
| 18>  H       -1.1580138190    -1.8648045087     0.1270218749
| 19>  H       -2.8810636970    -1.0286999922     1.8032526910
| 20>  H       -2.0299936323     0.5908182798     1.8457059593
| 21>  H       -2.2957166070     0.7653353793    -0.4442994449
| 22> *
| 23>
| 24>                          ****END OF INPUT****

CARTESIAN COORDINATES (ANGSTROEM)
---------------------------------
  O     -0.024140    1.330131    0.291072
  C      0.054124   -0.051778    0.120408
  C      1.026749   -0.492180   -0.925830
  C      1.356730   -0.744599    0.543615
  C      2.349964    0.042502    1.211150
  N      3.117426    0.696869    1.779137
  C     -1.235834   -0.794984    0.312889
  C     -2.247317   -0.314544    1.286048
  N     -2.487328   -0.194939   -0.163031
  H      0.135257    1.546582    1.217518
  H      0.794994   -1.364099   -1.526354
  H      1.583959    0.291040   -1.424366
  H      1.274995   -1.765685    0.901170
  H     -1.158014   -1.864805    0.127022
  H     -2.881064   -1.028700    1.803253
  H     -2.029994    0.590818    1.845706
  H     -2.295717    0.765335   -0.444299

 Total Charge           Charge          ....    0
 Multiplicity           Mult            ....    1
 Number of Electrons    NEL             ....   66
 Basis Dimension        Dim             ....  327

ORBITAL ENERGIES
----------------

  NO   OCC          E(Eh)            E(eV)
   0   2.0000     -20.597083      -560.4751
   1   2.0000     -15.576959      -423.8706
   2   2.0000     -15.570150      -423.6853
   3   2.0000     -11.335941      -308.4666
   4   2.0000     -11.296052      -307.3812
   5   2.0000     -11.283488      -307.0393
   6   2.0000     -11.283197      -307.0314
   7   2.0000     -11.270022      -306.6729
   8   2.0000     -11.268884      -306.6419
   9   2.0000      -1.414621       -38.4938
  10   2.0000      -1.275809       -34.7165
  11   2.0000      -1.228927       -33.4408
  12   2.0000      -1.173473       -31.9318
  13   2.0000      -0.951974       -25.9045
  14   2.0000      -0.919754       -25.0278
  15   2.0000      -0.882548       -24.0154
  16   2.0000      -0.812814       -22.1178
  17   2.0000      -0.759393       -20.6641
  18   2.0000      -0.733215       -19.9518
  19   2.0000      -0.693754       -18.8780
  20   2.0000      -0.660630       -17.9767
  21   2.0000      -0.626657       -17.0522
  22   2.0000      -0.598546       -16.2873
  23   2.0000      -0.567771       -15.4498
  24   2.0000      -0.560430       -15.2501
  25   2.0000      -0.552958       -15.0467
  26   2.0000      -0.524427       -14.2704
  27   2.0000      -0.511909       -13.9298
  28   2.0000      -0.497584       -13.5400
  29   2.0000      -0.482926       -13.1411
  30   2.0000      -0.444556       -12.0970
  31   2.0000      -0.426168       -11.5966
  32   2.0000      -0.390520       -10.6266
  33   0.0000       0.122153         3.3240
  34   0.0000       0.130983         3.5642
  35   0.0000       0.148390         4.0379
  36   0.0000       0.161506         4.3948
  37   0.0000       0.171665         4.6712

MULLIKEN ATOMIC CHARGES
-----------------------
   0 O :   -0.465190
   1 C :    0.162623
   2 C :   -0.238162
   3 C :   -0.065443
   4 C :   -0.220571
   5 N :   -0.051695
   6 C :   -0.011820
   7 C :   -0.197735
   8 N :   -0.357480
   9 H :    0.344180
  10 H :    0.157066
  11 H :    0.162274
  12 H :    0.162112
  13 H :    0.135294
  14 H :    0.129363
  15 H :    0.118204
  16 H :    0.236982
Sum of atomic charges:   -0.0000000

LOEWDIN ATOMIC CHARGES
----------------------
   0 O :    0.055636
   1 C :   -0.329649
   2 C :   -0.142080
   3 C :   -0.177022
   4 C :   -0.186742
   5 N :    0.063277
   6 C :   -0.252162
   7 C :   -0.259531
   8 N :   -0.004471
   9 H :    0.192564
  10 H :    0.144757
  11 H :    0.152385
  12 H :    0.172685
  13 H :    0.151126
  14 H :    0.126318
  15 H :    0.120324
  16 H :    0.172587

  Mayer bond orders larger than 0.1
B(  0-O ,  1-C ) :   1.0397 B(  0-O ,  9-H ) :   0.8246 B(  1-C ,  2-C ) :   0.8763
B(  1-C ,  3-C ) :   0.8255 B(  1-C ,  6-C ) :   0.9344 B(  2-C ,  3-C ) :   0.8601
B(  2-C , 10-H ) :   0.9248 B(  2-C , 11-H ) :   0.9178 B(  3-C ,  4-C ) :   0.9782
B(  3-C , 12-H ) :   0.8953 B(  4-C ,  5-N ) :   2.8396 B(  6-C ,  7-C ) :   0.9240
B(  6-C ,  8-N ) :   0.9438 B(  6-C , 13-H ) :   0.8908 B(  7-C ,  8-N ) :   0.9228
B(  7-C , 14-H ) :   0.9168 B(  7-C , 15-H ) :   0.9239 B(  8-N , 16-H ) :   0.8686

MP2 TOTAL ENERGY:     -417.269961109 Eh
FINAL SINGLE POINT ENERGY      -417.269961109199

DIPOLE MOMENT
-------------
                                X             Y             Z
Electronic contribution:      4.88695       1.76745       1.22339
Nuclear contribution   :     -5.47225      -2.46023      -1.30714
                        -----------------------------------------
Total Dipole Moment    :     -0.58530      -0.69278      -0.08376
                        -----------------------------------------
Magnitude (a.u.)       :      0.91079
Magnitude (Debye)      :      2.31504

                             ****ORCA TERMINATED NORMALLY****
TOTAL RUN TIME: 0 days 0 hours 16 minutes 9 seconds 722 msec
