                         Program Version 3.0.3 - RELEASE   -
|  1> ! RI-MP2 RIJK def2-TZVP def2-TZVP/C def2-TZVP/JK TIGHTSCF
|  2> % maxcore 2000
|  3> % mp2 density relaxed end
|  4> *xyz 0 1
|  5>  C        0.0203914120     1.4436141568     0.0750697329
|  6>  C        1.5054272120     1.9016365789    -0.1148457944
|  7>  C        2.1842370934     0.5757382090     0.0305735175
|  8>  C        1.2920799526    -0.4594900790    -0.0811773323
|  9>  N       -0.0253144957     0.0013431783    -0.3069393707
| 10>  C        2.0670493877    -1.6335169581    -0.0393041277
| 11>  N        3.3665433969    -1.3294363090     0.0923266358
| 12>  N        3.4172683883     0.0206239326     0.1092681486
| 13>  H       -0.2569687057     1.5779867799     1.1303376258
| 14>  H       -0.6748269848     2.0247908111    -0.5361835317
| 15>  H        1.6636148116     2.3332337163    -1.1123897803
| 16>  H        1.7871619827     2.6622124546     0.6195201009
| 17>  H       -0.7387682358    -0.5018577756     0.2063916072
| 18>  H        1.7677188320    -2.6696271749    -0.0844891192
| 19>  H        4.3115286828     0.4667020691     0.2160490276
| 20> *
| 21>
| 22>                          ****END OF INPUT****

CARTESIAN COORDINATES (ANGSTROEM)
---------------------------------
  C      0.020391    1.443614    0.075070
  C      1.505427    1.901637   -0.114846
  C      2.184237    0.575738    0.030574
  C      1.292080   -0.459490   -0.081177
  N     -0.025314    0.001343   -0.306939
  C      2.067049   -1.633517   -0.039304
  N      3.366543   -1.329436    0.092327
  N      3.417268    0.020624    0.109268
  H     -0.256969    1.577987    1.130338
  H     -0.674827    2.024791   -0.536184
  H      1.663615    2.333234   -1.112390
  H      1.787162    2.662212    0.619520
  H     -0.738768   -0.501858    0.206392
  H      1.767719   -2.669627   -0.084489
  H      4.311529    0.466702    0.216049

 Total Charge           Charge          ....    0
 Multiplicity           Mult            ....    1
 Number of Electrons    NEL             ....   58
 Basis Dimension        Dim             ....  290

ORBITAL ENERGIES
----------------

  NO   OCC          E(Eh)            E(eV)
   0   2.0000     -15.630239      -425.3204
   1   2.0000     -15.579673      -423.9445
   2   2.0000     -15.559835      -423.4046
   3   2.0000     -11.268370      -306.6279
   4   2.0000     -11.255537      -306.2787
   5   2.0000     -11.251994      -306.1823
   6   2.0000     -11.246288      -306.0271
   7   2.0000     -11.237938      -305.7999
   8   2.0000      -1.363519       -37.1032
   9   2.0000      -1.234072       -33.5808
  10   2.0000      -1.092979       -29.7415
  11   2.0000      -1.035799       -28.1855
  12   2.0000      -0.999599       -27.2005
  13   2.0000      -0.844116       -22.9696
  14   2.0000      -0.815299       -22.1854
  15   2.0000      -0.778582       -21.1863
  16   2.0000      -0.722273       -19.6541
  17   2.0000      -0.664939       -18.0939
  18   2.0000      -0.613509       -16.6944
  19   2.0000      -0.597419       -16.2566
  20   2.0000      -0.595366       -16.2007
  21   2.0000      -0.566618       -15.4185
  22   2.0000      -0.543123       -14.7791
  23   2.0000      -0.521895       -14.2015
  24   2.0000      -0.515079       -14.0160
  25   2.0000      -0.449159       -12.2222
  26   2.0000      -0.444246       -12.0886
  27   2.0000      -0.351363        -9.5611
  28   2.0000      -0.291244        -7.9252
  29   0.0000       0.130796         3.5591
  30   0.0000       0.140372         3.8197
  31   0.0000       0.149362         4.0643
  32   0.0000       0.165421         4.5013
  33   0.0000       0.188058         5.1173

MULLIKEN ATOMIC CHARGES
-----------------------
   0 C :   -0.117946
   1 C :   -0.211358
   2 C :    0.016777
   3 C :    0.079858
   4 N :   -0.322896
   5 C :   -0.189806
   6 N :   -0.205253
   7 N :   -0.143568
   8 H :    0.106866
   9 H :    0.126721
  10 H :    0.120492
  11 H :    0.133414
  12 H :    0.224565
  13 H :    0.127742
  14 H :    0.254391
Sum of atomic charges:    0.0000000

LOEWDIN ATOMIC CHARGES
----------------------
   0 C :   -0.242220
   1 C :   -0.216197
   2 C :   -0.238986
   3 C :   -0.244507
   4 N :    0.032445
   5 C :   -0.263576
   6 N :    0.012902
   7 N :    0.138776
   8 H :    0.123435
   9 H :    0.125373
  10 H :    0.141837
  11 H :    0.138863
  12 H :    0.173247
  13 H :    0.131961
  14 H :    0.186648

  Mayer bond orders larger than 0.1
B(  0-C ,  1-C ) :   0.9655 B(  0-C ,  4-N ) :   0.9286 B(  0-C ,  8-H ) :   0.9244
B(  0-C ,  9-H ) :   0.9315 B(  1-C ,  2-C ) :   0.9441 B(  1-C , 10-H ) :   0.8982
B(  1-C , 11-H ) :   0.9260 B(  2-C ,  3-C ) :   1.3670 B(  2-C ,  6-N ) :   0.1101
B(  2-C ,  7-N ) :   1.1649 B(  3-C ,  4-N ) :   1.0525 B(  3-C ,  5-C ) :   1.2868
B(  4-N , 12-H ) :   0.8767 B(  5-C ,  6-N ) :   1.5123 B(  5-C , 13-H ) :   0.9477
B(  6-N ,  7-N ) :   1.0731 B(  7-N , 14-H ) :   0.8699

MP2 TOTAL ENERGY:     -358.228744324 Eh
FINAL SINGLE POINT ENERGY      -358.228744324174

DIPOLE MOMENT
-------------
                                X             Y             Z
Electronic contribution:      3.51965      -3.81814      -0.18339
Nuclear contribution   :     -3.90059       4.94378       0.56778
                        -----------------------------------------
Total Dipole Moment    :     -0.38093       1.12563       0.38439
                        -----------------------------------------
Magnitude (a.u.)       :      1.24896
Magnitude (Debye)      :      3.17461

                             ****ORCA TERMINATED NORMALLY****
TOTAL RUN TIME: 0 days 0 hours 11 minutes 48 seconds 377 msec
