                         Program Version 3.0.3 - RELEASE   -
|  1> ! RI-MP2 RIJK def2-TZVP def2-TZVP/C def2-TZVP/JK TIGHTSCF
|  2> % maxcore 2000
|  3> % mp2 density relaxed end
|  4> *xyz 0 1
|  5>  C       -0.0202436939     1.5405305366    -0.1184050162
|  6>  C        1.4544596004     1.9654364526     0.1225907572
|  7>  C        2.1703915912     0.6245355321     0.3948945057
|  8>  O        1.3608153047    -0.3747536967    -0.2036854858
|  9>  C        0.0198515941     0.0074533171     0.0564609516
| 10>  H       -0.7150845135     2.0109391500     0.5816352389
| 11>  H       -0.3399021984     1.8068679670    -1.1288242101
| 12>  H        1.8672566964     2.4535776572    -0.7635656018
| 13>  H        1.5618579841     2.6588741615     0.9603096156
| 14>  H        3.1687379635     0.5566981179    -0.0446422617
| 15>  H        2.2582398537     0.4477688290     1.4800898419
| 16>  H       -0.2662268182    -0.2712262841     1.0847078145
| 17>  H       -0.6259699639    -0.5361479304    -0.6377205999
| 18> *
| 19>
| 20>                          ****END OF INPUT****

CARTESIAN COORDINATES (ANGSTROEM)
---------------------------------
  C     -0.020244    1.540531   -0.118405
  C      1.454460    1.965436    0.122591
  C      2.170392    0.624536    0.394895
  O      1.360815   -0.374754   -0.203685
  C      0.019852    0.007453    0.056461
  H     -0.715085    2.010939    0.581635
  H     -0.339902    1.806868   -1.128824
  H      1.867257    2.453578   -0.763566
  H      1.561858    2.658874    0.960310
  H      3.168738    0.556698   -0.044642
  H      2.258240    0.447769    1.480090
  H     -0.266227   -0.271226    1.084708
  H     -0.625970   -0.536148   -0.637721

 Total Charge           Charge          ....    0
 Multiplicity           Mult            ....    1
 Number of Electrons    NEL             ....   40
 Basis Dimension        Dim             ....  203

ORBITAL ENERGIES
----------------

  NO   OCC          E(Eh)            E(eV)
   0   2.0000     -20.547757      -559.1329
   1   2.0000     -11.269095      -306.6477
   2   2.0000     -11.269071      -306.6470
   3   2.0000     -11.223953      -305.4193
   4   2.0000     -11.223397      -305.4042
   5   2.0000      -1.374831       -37.4110
   6   2.0000      -1.047756       -28.5109
   7   2.0000      -0.986827       -26.8529
   8   2.0000      -0.817552       -22.2467
   9   2.0000      -0.802275       -21.8310
  10   2.0000      -0.678850       -18.4725
  11   2.0000      -0.668908       -18.2019
  12   2.0000      -0.613035       -16.6815
  13   2.0000      -0.582479       -15.8501
  14   2.0000      -0.547439       -14.8966
  15   2.0000      -0.499213       -13.5843
  16   2.0000      -0.488577       -13.2949
  17   2.0000      -0.467581       -12.7235
  18   2.0000      -0.465993       -12.6803
  19   2.0000      -0.416760       -11.3406
  20   0.0000       0.139541         3.7971
  21   0.0000       0.169032         4.5996
  22   0.0000       0.171677         4.6716
  23   0.0000       0.187121         5.0918
  24   0.0000       0.208762         5.6807

MULLIKEN ATOMIC CHARGES
-----------------------
   0 C :   -0.231044
   1 C :   -0.230312
   2 C :   -0.041695
   3 O :   -0.321563
   4 C :   -0.040864
   5 H :    0.114159
   6 H :    0.114170
   7 H :    0.114173
   8 H :    0.114292
   9 H :    0.118307
  10 H :    0.085901
  11 H :    0.086111
  12 H :    0.118366
Sum of atomic charges:   -0.0000000

LOEWDIN ATOMIC CHARGES
----------------------
   0 C :   -0.263066
   1 C :   -0.262880
   2 C :   -0.315224
   3 O :    0.143752
   4 C :   -0.315572
   5 H :    0.132271
   6 H :    0.133566
   7 H :    0.133455
   8 H :    0.132256
   9 H :    0.124504
  10 H :    0.116145
  11 H :    0.116211
  12 H :    0.124583

  Mayer bond orders larger than 0.1
B(  0-C ,  1-C ) :   0.9330 B(  0-C ,  4-C ) :   0.9469 B(  0-C ,  5-H ) :   0.9278
B(  0-C ,  6-H ) :   0.9316 B(  1-C ,  2-C ) :   0.9470 B(  1-C ,  7-H ) :   0.9319
B(  1-C ,  8-H ) :   0.9279 B(  2-C ,  3-O ) :   0.9323 B(  2-C ,  9-H ) :   0.9273
B(  2-C , 10-H ) :   0.9327 B(  3-O ,  4-C ) :   0.9309 B(  4-C , 11-H ) :   0.9327
B(  4-C , 12-H ) :   0.9276

MP2 TOTAL ENERGY:     -231.959336579 Eh
FINAL SINGLE POINT ENERGY      -231.959336579188

DIPOLE MOMENT
-------------
                                X             Y             Z
Electronic contribution:      0.83740      -2.48017      -0.80906
Nuclear contribution   :     -1.03522       3.03987       1.04244
                        -----------------------------------------
Total Dipole Moment    :     -0.19782       0.55971       0.23338
                        -----------------------------------------
Magnitude (a.u.)       :      0.63786
Magnitude (Debye)      :      1.62132

                             ****ORCA TERMINATED NORMALLY****
TOTAL RUN TIME: 0 days 0 hours 3 minutes 11 seconds 549 msec
