                         Program Version 3.0.3 - RELEASE   -
|  1> ! RI-MP2 RIJK def2-TZVP def2-TZVP/C def2-TZVP/JK TIGHTSCF
|  2> % maxcore 2000
|  3> % mp2 density relaxed end
|  4> *xyz 0 1
|  5>  C        0.2349281948     1.6068081297    -0.2939124525
|  6>  C       -0.0083478584     0.1509876476     0.0968930350
|  7>  O        0.5338788381    -0.7510256197    -0.8746411977
|  8>  C        1.8617643729    -0.9982477472    -0.4905213683
|  9>  O        1.9414152684    -0.8431318714     0.9171329275
| 10>  C        0.6704730675    -0.3390622911     1.3958361080
| 11>  C        0.9434142485     0.7086219502     2.4669756891
| 12>  C       -0.0939657281    -1.5446021293     1.9808039147
| 13>  O        0.6970177551    -2.2442814155     2.9178006808
| 14>  H        1.3018322708     1.8473635964    -0.3205468736
| 15>  H       -0.1819628788     1.7879763248    -1.2881161857
| 16>  H       -0.2489184085     2.2889723705     0.4110620571
| 17>  H       -1.0853286749    -0.0471459465     0.1266829396
| 18>  H        2.1198066440    -2.0225011588    -0.7859232616
| 19>  H        2.5629251130    -0.2911953003    -0.9640520915
| 20>  H        1.6276393535     1.4787514561     2.1058692053
| 21>  H        0.0099133790     1.1851962119     2.7834181656
| 22>  H        1.3869034716     0.2233027002     3.3392526284
| 23>  H       -0.9913879969    -1.2037869282     2.5092532423
| 24>  H       -0.4129458760    -2.1967197470     1.1530629831
| 25>  H        1.5508087945    -2.3722310226     2.4840430644
| 26> *
| 27>
| 28>                          ****END OF INPUT****

CARTESIAN COORDINATES (ANGSTROEM)
---------------------------------
  C      0.234928    1.606808   -0.293912
  C     -0.008348    0.150988    0.096893
  O      0.533879   -0.751026   -0.874641
  C      1.861764   -0.998248   -0.490521
  O      1.941415   -0.843132    0.917133
  C      0.670473   -0.339062    1.395836
  C      0.943414    0.708622    2.466976
  C     -0.093966   -1.544602    1.980804
  O      0.697018   -2.244281    2.917801
  H      1.301832    1.847364   -0.320547
  H     -0.181963    1.787976   -1.288116
  H     -0.248918    2.288972    0.411062
  H     -1.085329   -0.047146    0.126683
  H      2.119807   -2.022501   -0.785923
  H      2.562925   -0.291195   -0.964052
  H      1.627639    1.478751    2.105869
  H      0.009913    1.185196    2.783418
  H      1.386903    0.223303    3.339253
  H     -0.991388   -1.203787    2.509253
  H     -0.412946   -2.196720    1.153063
  H      1.550809   -2.372231    2.484043

 Total Charge           Charge          ....    0
 Multiplicity           Mult            ....    1
 Number of Electrons    NEL             ....   72
 Basis Dimension        Dim             ....  351

ORBITAL ENERGIES
----------------

  NO   OCC          E(Eh)            E(eV)
   0   2.0000     -20.570250      -559.7450
   1   2.0000     -20.568215      -559.6896
   2   2.0000     -20.549688      -559.1854
   3   2.0000     -11.333818      -308.4089
   4   2.0000     -11.296116      -307.3830
   5   2.0000     -11.295141      -307.3564
   6   2.0000     -11.273636      -306.7712
   7   2.0000     -11.227940      -305.5278
   8   2.0000     -11.220795      -305.3334
   9   2.0000      -1.444056       -39.2948
  10   2.0000      -1.361457       -37.0471
  11   2.0000      -1.333751       -36.2932
  12   2.0000      -1.089589       -29.6492
  13   2.0000      -0.999735       -27.2042
  14   2.0000      -0.941250       -25.6127
  15   2.0000      -0.912270       -24.8241
  16   2.0000      -0.838305       -22.8114
  17   2.0000      -0.789297       -21.4779
  18   2.0000      -0.726040       -19.7566
  19   2.0000      -0.697201       -18.9718
  20   2.0000      -0.668279       -18.1848
  21   2.0000      -0.643727       -17.5167
  22   2.0000      -0.626056       -17.0358
  23   2.0000      -0.603274       -16.4159
  24   2.0000      -0.592210       -16.1149
  25   2.0000      -0.581955       -15.8358
  26   2.0000      -0.561303       -15.2738
  27   2.0000      -0.548572       -14.9274
  28   2.0000      -0.536324       -14.5941
  29   2.0000      -0.532250       -14.4832
  30   2.0000      -0.519693       -14.1416
  31   2.0000      -0.505342       -13.7511
  32   2.0000      -0.480205       -13.0670
  33   2.0000      -0.459610       -12.5066
  34   2.0000      -0.429141       -11.6775
  35   2.0000      -0.415848       -11.3158
  36   0.0000       0.128703         3.5022
  37   0.0000       0.159773         4.3476
  38   0.0000       0.162735         4.4282
  39   0.0000       0.174222         4.7408
  40   0.0000       0.190033         5.1711

MULLIKEN ATOMIC CHARGES
-----------------------
   0 C :   -0.439372
   1 C :    0.088540
   2 O :   -0.331856
   3 C :    0.111965
   4 O :   -0.367480
   5 C :    0.140988
   6 C :   -0.408353
   7 C :   -0.047473
   8 O :   -0.473734
   9 H :    0.142749
  10 H :    0.150109
  11 H :    0.135718
  12 H :    0.115654
  13 H :    0.112967
  14 H :    0.092478
  15 H :    0.135921
  16 H :    0.129546
  17 H :    0.158439
  18 H :    0.106459
  19 H :    0.120670
  20 H :    0.326064
Sum of atomic charges:   -0.0000000

LOEWDIN ATOMIC CHARGES
----------------------
   0 C :   -0.289273
   1 C :   -0.294981
   2 O :    0.173179
   3 C :   -0.371790
   4 O :    0.166490
   5 C :   -0.354533
   6 C :   -0.266173
   7 C :   -0.314270
   8 O :   -0.040663
   9 H :    0.128395
  10 H :    0.130217
  11 H :    0.128969
  12 H :    0.152083
  13 H :    0.115353
  14 H :    0.107090
  15 H :    0.128034
  16 H :    0.130486
  17 H :    0.136223
  18 H :    0.131347
  19 H :    0.125939
  20 H :    0.177880

  Mayer bond orders larger than 0.1
B(  0-C ,  1-C ) :   0.9073 B(  0-C ,  9-H ) :   0.9346 B(  0-C , 10-H ) :   0.9377
B(  0-C , 11-H ) :   0.9316 B(  1-C ,  2-O ) :   0.8645 B(  1-C ,  5-C ) :   0.8966
B(  1-C , 12-H ) :   0.9183 B(  2-O ,  3-C ) :   0.9624 B(  3-C ,  4-O ) :   0.9480
B(  3-C , 13-H ) :   0.9286 B(  3-C , 14-H ) :   0.9226 B(  4-O ,  5-C ) :   0.8563
B(  5-C ,  6-C ) :   0.8913 B(  5-C ,  7-C ) :   0.9316 B(  6-C , 15-H ) :   0.9308
B(  6-C , 16-H ) :   0.9378 B(  6-C , 17-H ) :   0.9289 B(  7-C ,  8-O ) :   0.9314
B(  7-C , 18-H ) :   0.9240 B(  7-C , 19-H ) :   0.9130 B(  8-O , 20-H ) :   0.8245

MP2 TOTAL ENERGY:     -460.641694263 Eh
FINAL SINGLE POINT ENERGY      -460.641694263260

DIPOLE MOMENT
-------------
                                X             Y             Z
Electronic contribution:      1.43938      -5.51055      -0.97846
Nuclear contribution   :     -1.49162       6.19965       0.54065
                        -----------------------------------------
Total Dipole Moment    :     -0.05224       0.68909      -0.43781
                        -----------------------------------------
Magnitude (a.u.)       :      0.81808
Magnitude (Debye)      :      2.07940

                             ****ORCA TERMINATED NORMALLY****
TOTAL RUN TIME: 0 days 0 hours 18 minutes 26 seconds 9 msec
