                         Program Version 3.0.3 - RELEASE   -
|  1> ! RI-MP2 RIJK def2-TZVP def2-TZVP/C def2-TZVP/JK TIGHTSCF
|  2> % maxcore 2000
|  3> % mp2 density relaxed end
|  4> *xyz 0 1
|  5>  O       -0.0944313152     1.4326295311    -0.0357021779
|  6>  C       -0.0253576013     0.0172939940    -0.0334048684
|  7>  C       -1.4217783770    -0.5747874394    -0.2549324532
|  8>  C       -1.7455493056    -0.0301615940    -1.6718761519
|  9>  C       -0.6252963757    -1.0041707920    -2.0958657726
| 10>  C       -1.0985326300    -1.9725369532    -0.9702139792
| 11>  C        0.1340952402    -2.7269480252    -0.5506237937
| 12>  C        1.1938496161    -1.9612244584    -0.8355977404
| 13>  C        0.6721131998    -0.6191798460    -1.3111144255
| 14>  H        0.7996891559     1.7684882986     0.0791081274
| 15>  H        0.4486768275    -0.3411935249     0.8880623700
| 16>  H       -2.1251348938    -0.5104860346     0.5740965867
| 17>  H       -2.7212981962    -0.3682097493    -2.0304443212
| 18>  H       -1.6226505022     1.0386261182    -1.8423648958
| 19>  H       -0.4892371127    -1.3511268411    -3.1217015669
| 20>  H       -2.0031831177    -2.5463894026    -1.1731631028
| 21>  H        0.1397784840    -3.7059706521    -0.0876222992
| 22>  H        2.2339904233    -2.1772230639    -0.6225758620
| 23>  H        1.3818914808     0.0494895047    -1.8008030933
| 24> *
| 25>
| 26>                          ****END OF INPUT****

CARTESIAN COORDINATES (ANGSTROEM)
---------------------------------
  O     -0.094431    1.432630   -0.035702
  C     -0.025358    0.017294   -0.033405
  C     -1.421778   -0.574787   -0.254932
  C     -1.745549   -0.030162   -1.671876
  C     -0.625296   -1.004171   -2.095866
  C     -1.098533   -1.972537   -0.970214
  C      0.134095   -2.726948   -0.550624
  C      1.193850   -1.961224   -0.835598
  C      0.672113   -0.619180   -1.311114
  H      0.799689    1.768488    0.079108
  H      0.448677   -0.341194    0.888062
  H     -2.125135   -0.510486    0.574097
  H     -2.721298   -0.368210   -2.030444
  H     -1.622651    1.038626   -1.842365
  H     -0.489237   -1.351127   -3.121702
  H     -2.003183   -2.546389   -1.173163
  H      0.139778   -3.705971   -0.087622
  H      2.233990   -2.177223   -0.622576
  H      1.381891    0.049490   -1.800803

 Total Charge           Charge          ....    0
 Multiplicity           Mult            ....    1
 Number of Electrons    NEL             ....   66
 Basis Dimension        Dim             ....  339

ORBITAL ENERGIES
----------------

  NO   OCC          E(Eh)            E(eV)
   0   2.0000     -20.553325      -559.2844
   1   2.0000     -11.276652      -306.8533
   2   2.0000     -11.231703      -305.6302
   3   2.0000     -11.231292      -305.6190
   4   2.0000     -11.229825      -305.5791
   5   2.0000     -11.228941      -305.5550
   6   2.0000     -11.224290      -305.4285
   7   2.0000     -11.221588      -305.3549
   8   2.0000     -11.212960      -305.1201
   9   2.0000      -1.361615       -37.0514
  10   2.0000      -1.200180       -32.6585
  11   2.0000      -1.054962       -28.7070
  12   2.0000      -0.968190       -26.3458
  13   2.0000      -0.928544       -25.2670
  14   2.0000      -0.874077       -23.7848
  15   2.0000      -0.780003       -21.2250
  16   2.0000      -0.739963       -20.1354
  17   2.0000      -0.720732       -19.6121
  18   2.0000      -0.696083       -18.9414
  19   2.0000      -0.681278       -18.5385
  20   2.0000      -0.660760       -17.9802
  21   2.0000      -0.591064       -16.0837
  22   2.0000      -0.568719       -15.4756
  23   2.0000      -0.543300       -14.7839
  24   2.0000      -0.523130       -14.2351
  25   2.0000      -0.509916       -13.8755
  26   2.0000      -0.483103       -13.1459
  27   2.0000      -0.475970       -12.9518
  28   2.0000      -0.462767       -12.5925
  29   2.0000      -0.443969       -12.0810
  30   2.0000      -0.426319       -11.6007
  31   2.0000      -0.413406       -11.2494
  32   2.0000      -0.332553        -9.0492
  33   0.0000       0.138111         3.7582
  34   0.0000       0.141578         3.8525
  35   0.0000       0.157957         4.2982
  36   0.0000       0.174000         4.7348
  37   0.0000       0.174983         4.7615

MULLIKEN ATOMIC CHARGES
-----------------------
   0 O :   -0.461024
   1 C :   -0.018451
   2 C :   -0.019779
   3 C :   -0.278744
   4 C :   -0.070113
   5 C :   -0.112130
   6 C :   -0.203796
   7 C :   -0.244542
   8 C :   -0.007805
   9 H :    0.316638
  10 H :    0.099508
  11 H :    0.128946
  12 H :    0.115837
  13 H :    0.135678
  14 H :    0.115999
  15 H :    0.120313
  16 H :    0.127882
  17 H :    0.127128
  18 H :    0.128456
Sum of atomic charges:    0.0000000

LOEWDIN ATOMIC CHARGES
----------------------
   0 O :   -0.011357
   1 C :   -0.284147
   2 C :   -0.159042
   3 C :   -0.200228
   4 C :   -0.149817
   5 C :   -0.151795
   6 C :   -0.138954
   7 C :   -0.135775
   8 C :   -0.171818
   9 H :    0.174209
  10 H :    0.134224
  11 H :    0.134551
  12 H :    0.138087
  13 H :    0.130995
  14 H :    0.135061
  15 H :    0.146903
  16 H :    0.134872
  17 H :    0.134490
  18 H :    0.139542

  Mayer bond orders larger than 0.1
B(  0-O ,  1-C ) :   1.0686 B(  0-O ,  2-C ) :  -0.1035 B(  0-O ,  9-H ) :   0.8457
B(  1-C ,  2-C ) :   0.9055 B(  1-C ,  8-C ) :   0.8612 B(  1-C , 10-H ) :   0.9548
B(  2-C ,  3-C ) :   0.9186 B(  2-C ,  5-C ) :   0.8521 B(  2-C , 11-H ) :   0.9073
B(  3-C ,  4-C ) :   0.9507 B(  3-C , 12-H ) :   0.9317 B(  3-C , 13-H ) :   0.9083
B(  4-C ,  5-C ) :   0.9299 B(  4-C ,  8-C ) :   0.8851 B(  4-C , 14-H ) :   0.9103
B(  5-C ,  6-C ) :   0.9497 B(  5-C , 15-H ) :   0.9197 B(  6-C ,  7-C ) :   1.7466
B(  6-C , 16-H ) :   0.9310 B(  7-C ,  8-C ) :   0.9181 B(  7-C , 17-H ) :   0.9278
B(  8-C , 18-H ) :   0.9077

MP2 TOTAL ENERGY:     -385.206467591 Eh
FINAL SINGLE POINT ENERGY      -385.206467590773

DIPOLE MOMENT
-------------
                                X             Y             Z
Electronic contribution:      1.02879       0.36495       0.75064
Nuclear contribution   :     -0.59686      -0.55487      -0.68531
                        -----------------------------------------
Total Dipole Moment    :      0.43193      -0.18992       0.06532
                        -----------------------------------------
Magnitude (a.u.)       :      0.47634
Magnitude (Debye)      :      1.21076

                             ****ORCA TERMINATED NORMALLY****
TOTAL RUN TIME: 0 days 0 hours 21 minutes 2 seconds 403 msec
