                         Program Version 3.0.3 - RELEASE   -
|  1> ! RI-MP2 RIJK def2-TZVP def2-TZVP/C def2-TZVP/JK TIGHTSCF
|  2> % maxcore 2000
|  3> % mp2 density relaxed end
|  4> *xyz 0 1
|  5>  C       -0.3865316332     1.5474083866     0.1731700709
|  6>  C        0.0907070418     0.1050895740    -0.0236604521
|  7>  C       -1.1162918266    -0.8314863858    -0.2086746943
|  8>  C        1.0753052065    -0.0336546888    -1.2091101524
|  9>  N        1.9152403865    -1.2139696391    -0.9480706390
| 10>  C        1.9091120903    -1.4676948284     0.5124699645
| 11>  C        0.9910363234    -0.3729664572     1.1384256278
| 12>  C        1.4563272682    -2.8291094234     0.8219373909
| 13>  N        1.1046638839    -3.9079272269     1.0456314131
| 14>  H        0.4583896767     2.2331012362     0.2990181555
| 15>  H       -0.9702229133     1.8891220936    -0.6886915733
| 16>  H       -1.0257879472     1.6360040276     1.0580227645
| 17>  H       -1.7225711004    -0.5156544298    -1.0646664444
| 18>  H       -0.8108337383    -1.8680939486    -0.3793467762
| 19>  H       -1.7593378091    -0.8215499627     0.6775713783
| 20>  H        0.5715926923    -0.1352354610    -2.1748211276
| 21>  H        1.7120203544     0.8600458161    -1.2662394803
| 22>  H        1.5718503549    -2.0238268492    -1.4467414326
| 23>  H        2.9249362257    -1.3752548025     0.9167239460
| 24>  H        1.6219691895     0.4505978865     1.4868434585
| 25>  H        0.4282176639    -0.7462419073     1.9966095221
| 26> *
| 27>
| 28>                          ****END OF INPUT****

CARTESIAN COORDINATES (ANGSTROEM)
---------------------------------
  C     -0.386532    1.547408    0.173170
  C      0.090707    0.105090   -0.023660
  C     -1.116292   -0.831486   -0.208675
  C      1.075305   -0.033655   -1.209110
  N      1.915240   -1.213970   -0.948071
  C      1.909112   -1.467695    0.512470
  C      0.991036   -0.372966    1.138426
  C      1.456327   -2.829109    0.821937
  N      1.104664   -3.907927    1.045631
  H      0.458390    2.233101    0.299018
  H     -0.970223    1.889122   -0.688692
  H     -1.025788    1.636004    1.058023
  H     -1.722571   -0.515654   -1.064666
  H     -0.810834   -1.868094   -0.379347
  H     -1.759338   -0.821550    0.677571
  H      0.571593   -0.135235   -2.174821
  H      1.712020    0.860046   -1.266239
  H      1.571850   -2.023827   -1.446741
  H      2.924936   -1.375255    0.916724
  H      1.621969    0.450598    1.486843
  H      0.428218   -0.746242    1.996610

 Total Charge           Charge          ....    0
 Multiplicity           Mult            ....    1
 Number of Electrons    NEL             ....   68
 Basis Dimension        Dim             ....  351

ORBITAL ENERGIES
----------------

  NO   OCC          E(Eh)            E(eV)
   0   2.0000     -15.571603      -423.7249
   1   2.0000     -15.564347      -423.5274
   2   2.0000     -11.309001      -307.7336
   3   2.0000     -11.272613      -306.7434
   4   2.0000     -11.260720      -306.4198
   5   2.0000     -11.250325      -306.1369
   6   2.0000     -11.246770      -306.0402
   7   2.0000     -11.227081      -305.5044
   8   2.0000     -11.223761      -305.4141
   9   2.0000      -1.252768       -34.0896
  10   2.0000      -1.212087       -32.9826
  11   2.0000      -1.097325       -29.8597
  12   2.0000      -1.032466       -28.0948
  13   2.0000      -0.945511       -25.7287
  14   2.0000      -0.934584       -25.4313
  15   2.0000      -0.861992       -23.4560
  16   2.0000      -0.760435       -20.6925
  17   2.0000      -0.736391       -20.0382
  18   2.0000      -0.673015       -18.3137
  19   2.0000      -0.637411       -17.3448
  20   2.0000      -0.628564       -17.1041
  21   2.0000      -0.592889       -16.1333
  22   2.0000      -0.581303       -15.8181
  23   2.0000      -0.564463       -15.3598
  24   2.0000      -0.558704       -15.2031
  25   2.0000      -0.545749       -14.8506
  26   2.0000      -0.532216       -14.4823
  27   2.0000      -0.525440       -14.2980
  28   2.0000      -0.500727       -13.6255
  29   2.0000      -0.480401       -13.0724
  30   2.0000      -0.471124       -12.8199
  31   2.0000      -0.463321       -12.6076
  32   2.0000      -0.448328       -12.1996
  33   2.0000      -0.389076       -10.5873
  34   0.0000       0.115496         3.1428
  35   0.0000       0.144092         3.9209
  36   0.0000       0.149586         4.0704
  37   0.0000       0.170708         4.6452
  38   0.0000       0.176243         4.7958

MULLIKEN ATOMIC CHARGES
-----------------------
   0 C :   -0.402245
   1 C :    0.089251
   2 C :   -0.447258
   3 C :   -0.181127
   4 N :   -0.329425
   5 C :    0.135776
   6 C :   -0.255645
   7 C :   -0.259658
   8 N :   -0.048494
   9 H :    0.130442
  10 H :    0.136077
  11 H :    0.137559
  12 H :    0.134024
  13 H :    0.145061
  14 H :    0.136200
  15 H :    0.132335
  16 H :    0.109913
  17 H :    0.223149
  18 H :    0.133024
  19 H :    0.133921
  20 H :    0.147119
Sum of atomic charges:    0.0000000

LOEWDIN ATOMIC CHARGES
----------------------
   0 C :   -0.271080
   1 C :   -0.326241
   2 C :   -0.264974
   3 C :   -0.251708
   4 N :    0.012899
   5 C :   -0.266283
   6 C :   -0.176285
   7 C :   -0.184070
   8 N :    0.059927
   9 H :    0.125303
  10 H :    0.128179
  11 H :    0.128433
  12 H :    0.126699
  13 H :    0.129708
  14 H :    0.128864
  15 H :    0.134722
  16 H :    0.133312
  17 H :    0.172406
  18 H :    0.165807
  19 H :    0.145754
  20 H :    0.148629

  Mayer bond orders larger than 0.1
B(  0-C ,  1-C ) :   0.9036 B(  0-C ,  9-H ) :   0.9294 B(  0-C , 10-H ) :   0.9395
B(  0-C , 11-H ) :   0.9366 B(  1-C ,  2-C ) :   0.9121 B(  1-C ,  3-C ) :   0.9049
B(  1-C ,  6-C ) :   0.9047 B(  2-C , 12-H ) :   0.9355 B(  2-C , 13-H ) :   0.9272
B(  2-C , 14-H ) :   0.9335 B(  3-C ,  4-N ) :   0.9704 B(  3-C , 15-H ) :   0.9259
B(  3-C , 16-H ) :   0.9247 B(  4-N ,  5-C ) :   0.9907 B(  4-N , 17-H ) :   0.8823
B(  5-C ,  6-C ) :   0.8755 B(  5-C ,  7-C ) :   0.9394 B(  5-C , 18-H ) :   0.8963
B(  6-C , 19-H ) :   0.9238 B(  6-C , 20-H ) :   0.9214 B(  7-C ,  8-N ) :   2.8642

MP2 TOTAL ENERGY:     -382.623844145 Eh
FINAL SINGLE POINT ENERGY      -382.623844144919

DIPOLE MOMENT
-------------
                                X             Y             Z
Electronic contribution:      5.42617      -8.94824       1.71717
Nuclear contribution   :     -5.66258      10.36038      -1.93227
                        -----------------------------------------
Total Dipole Moment    :     -0.23641       1.41213      -0.21510
                        -----------------------------------------
Magnitude (a.u.)       :      1.44785
Magnitude (Debye)      :      3.68015

                             ****ORCA TERMINATED NORMALLY****
TOTAL RUN TIME: 0 days 0 hours 23 minutes 1 seconds 815 msec
