                         Program Version 3.0.3 - RELEASE   -
|  1> ! RI-MP2 RIJK def2-TZVP def2-TZVP/C def2-TZVP/JK TIGHTSCF
|  2> % maxcore 2000
|  3> % mp2 density relaxed end
|  4> *xyz 0 1
|  5>  C        0.1405663743     1.5053367904     0.0546589950
|  6>  C       -0.0368016627     0.0348550536     0.0489638675
|  7>  C       -1.1242138065    -0.7713002237    -0.0514777921
|  8>  N       -0.6446229930    -2.0825938375     0.0066215445
|  9>  C        0.7143688458    -2.0955281928     0.1396243725
| 10>  O        1.5010131101    -2.9907842885     0.2236363968
| 11>  O        1.0817453121    -0.7320109461     0.1649757176
| 12>  C       -2.5335166120    -0.4797501779    -0.1916603987
| 13>  O       -3.3805969190    -1.3481456489    -0.2673785599
| 14>  H        0.7899682625     1.8170614441    -0.7705945912
| 15>  H       -0.8201451487     2.0129901454    -0.0443760509
| 16>  H        0.6163740795     1.8314027327     0.9859105255
| 17>  H       -1.2236702144    -2.9035854517    -0.0455891383
| 18>  H       -2.7925214579     0.5972357011    -0.2259127182
| 19> *
| 20>
| 21>                          ****END OF INPUT****

CARTESIAN COORDINATES (ANGSTROEM)
---------------------------------
  C      0.140566    1.505337    0.054659
  C     -0.036802    0.034855    0.048964
  C     -1.124214   -0.771300   -0.051478
  N     -0.644623   -2.082594    0.006622
  C      0.714369   -2.095528    0.139624
  O      1.501013   -2.990784    0.223636
  O      1.081745   -0.732011    0.164976
  C     -2.533517   -0.479750   -0.191660
  O     -3.380597   -1.348146   -0.267379
  H      0.789968    1.817061   -0.770595
  H     -0.820145    2.012990   -0.044376
  H      0.616374    1.831403    0.985911
  H     -1.223670   -2.903585   -0.045589
  H     -2.792521    0.597236   -0.225913

 Total Charge           Charge          ....    0
 Multiplicity           Mult            ....    1
 Number of Electrons    NEL             ....   66
 Basis Dimension        Dim             ....  309

ORBITAL ENERGIES
----------------

  NO   OCC          E(Eh)            E(eV)
   0   2.0000     -20.649303      -561.8961
   1   2.0000     -20.573741      -559.8400
   2   2.0000     -20.546973      -559.1115
   3   2.0000     -15.627764      -425.2531
   4   2.0000     -11.427155      -310.9487
   5   2.0000     -11.361404      -309.1595
   6   2.0000     -11.354481      -308.9711
   7   2.0000     -11.299950      -307.4873
   8   2.0000     -11.273651      -306.7716
   9   2.0000      -1.511261       -41.1235
  10   2.0000      -1.411600       -38.4116
  11   2.0000      -1.397141       -38.0181
  12   2.0000      -1.282290       -34.8929
  13   2.0000      -1.106286       -30.1036
  14   2.0000      -1.010246       -27.4902
  15   2.0000      -0.906483       -24.6667
  16   2.0000      -0.886752       -24.1298
  17   2.0000      -0.820209       -22.3190
  18   2.0000      -0.735831       -20.0230
  19   2.0000      -0.707791       -19.2600
  20   2.0000      -0.707293       -19.2464
  21   2.0000      -0.660997       -17.9866
  22   2.0000      -0.651160       -17.7190
  23   2.0000      -0.634684       -17.2706
  24   2.0000      -0.613343       -16.6899
  25   2.0000      -0.610763       -16.6197
  26   2.0000      -0.586457       -15.9583
  27   2.0000      -0.572792       -15.5865
  28   2.0000      -0.540959       -14.7202
  29   2.0000      -0.495152       -13.4738
  30   2.0000      -0.479452       -13.0466
  31   2.0000      -0.458232       -12.4691
  32   2.0000      -0.344568        -9.3762
  33   0.0000       0.067644         1.8407
  34   0.0000       0.119154         3.2423
  35   0.0000       0.147718         4.0196
  36   0.0000       0.164133         4.4663
  37   0.0000       0.180955         4.9240

MULLIKEN ATOMIC CHARGES
-----------------------
   0 C :   -0.385756
   1 C :    0.214700
   2 C :    0.007749
   3 N :   -0.283964
   4 C :    0.316094
   5 O :   -0.300640
   6 O :   -0.206176
   7 C :    0.098227
   8 O :   -0.301436
   9 H :    0.164668
  10 H :    0.143914
  11 H :    0.164669
  12 H :    0.277356
  13 H :    0.090594
Sum of atomic charges:   -0.0000000

LOEWDIN ATOMIC CHARGES
----------------------
   0 C :   -0.256208
   1 C :   -0.233690
   2 C :   -0.228061
   3 N :    0.195329
   4 C :   -0.512229
   5 O :    0.115336
   6 O :    0.328053
   7 C :   -0.283991
   8 O :    0.116805
   9 H :    0.144338
  10 H :    0.138780
  11 H :    0.144324
  12 H :    0.208069
  13 H :    0.123144

  Mayer bond orders larger than 0.1
B(  0-C ,  1-C ) :   0.8823 B(  0-C ,  9-H ) :   0.9206 B(  0-C , 10-H ) :   0.9485
B(  0-C , 11-H ) :   0.9206 B(  1-C ,  2-C ) :   1.4995 B(  1-C ,  6-O ) :   1.0800
B(  2-C ,  3-N ) :   1.0575 B(  2-C ,  7-C ) :   0.8993 B(  2-C , 13-H ) :  -0.1040
B(  3-N ,  4-C ) :   1.1503 B(  3-N , 12-H ) :   0.8497 B(  4-C ,  5-O ) :   2.0423
B(  4-C ,  6-O ) :   0.9723 B(  7-C ,  8-O ) :   1.9280 B(  7-C , 13-H ) :   0.9872

MP2 TOTAL ENERGY:     -473.140898225 Eh
FINAL SINGLE POINT ENERGY      -473.140898224952

DIPOLE MOMENT
-------------
                                X             Y             Z
Electronic contribution:      0.59193      -6.34294       0.10929
Nuclear contribution   :     -1.01926       7.85854      -0.16459
                        -----------------------------------------
Total Dipole Moment    :     -0.42733       1.51560      -0.05530
                        -----------------------------------------
Magnitude (a.u.)       :      1.57566
Magnitude (Debye)      :      4.00501

                             ****ORCA TERMINATED NORMALLY****
TOTAL RUN TIME: 0 days 0 hours 13 minutes 7 seconds 961 msec
