                         Program Version 3.0.3 - RELEASE   -
|  1> ! RI-MP2 RIJK def2-TZVP def2-TZVP/C def2-TZVP/JK TIGHTSCF
|  2> % maxcore 2000
|  3> % mp2 density relaxed end
|  4> *xyz 0 1
|  5>  C        0.3940380210     1.3264959386    -0.3034876444
|  6>  O        0.2141637318    -0.0826201358    -0.1096079449
|  7>  C        0.8301899186    -0.5907242820     0.9727574885
|  8>  O        1.4869688940     0.0691755186     1.7435846181
|  9>  C        0.6217505980    -2.0718538981     1.1063143980
| 10>  C        1.8237363362    -2.8467388732     1.5997610974
| 11>  C        0.6651468972    -2.6219850195     2.5243617982
| 12>  O       -0.1560613047    -2.7198282918     0.1578243025
| 13>  C       -1.5557971268    -2.5348946528     0.3052578145
| 14>  H        1.4528779350     1.5641390655    -0.4315364314
| 15>  H       -0.1653078452     1.5741035200    -1.2055109056
| 16>  H        0.0107267694     1.8862190389     0.5533329280
| 17>  H        1.9410075778    -3.8306054915     1.1615425668
| 18>  H        2.7335182897    -2.2852306446     1.7721138235
| 19>  H        0.7820851518    -1.9047254431     3.3272614981
| 20>  H        0.0084099298    -3.4608187477     2.7235162979
| 21>  H       -1.9043265377    -2.8697067658     1.2919796689
| 22>  H       -1.8415381944    -1.4867525655     0.1611645392
| 23>  H       -2.0319540917    -3.1445825303    -0.4657553534
| 24> *
| 25>
| 26>                          ****END OF INPUT****

CARTESIAN COORDINATES (ANGSTROEM)
---------------------------------
  C      0.394038    1.326496   -0.303488
  O      0.214164   -0.082620   -0.109608
  C      0.830190   -0.590724    0.972757
  O      1.486969    0.069176    1.743585
  C      0.621751   -2.071854    1.106314
  C      1.823736   -2.846739    1.599761
  C      0.665147   -2.621985    2.524362
  O     -0.156061   -2.719828    0.157824
  C     -1.555797   -2.534895    0.305258
  H      1.452878    1.564139   -0.431536
  H     -0.165308    1.574104   -1.205511
  H      0.010727    1.886219    0.553333
  H      1.941008   -3.830605    1.161543
  H      2.733518   -2.285231    1.772114
  H      0.782085   -1.904725    3.327261
  H      0.008410   -3.460819    2.723516
  H     -1.904327   -2.869707    1.291980
  H     -1.841538   -1.486753    0.161165
  H     -2.031954   -3.144583   -0.465755

 Total Charge           Charge          ....    0
 Multiplicity           Mult            ....    1
 Number of Electrons    NEL             ....   70
 Basis Dimension        Dim             ....  339

ORBITAL ENERGIES
----------------

  NO   OCC          E(Eh)            E(eV)
   0   2.0000     -20.604290      -560.6712
   1   2.0000     -20.569541      -559.7257
   2   2.0000     -20.539534      -558.9091
   3   2.0000     -11.380134      -309.6692
   4   2.0000     -11.302858      -307.5664
   5   2.0000     -11.286237      -307.1141
   6   2.0000     -11.273218      -306.7599
   7   2.0000     -11.239866      -305.8523
   8   2.0000     -11.238127      -305.8050
   9   2.0000      -1.463506       -39.8240
  10   2.0000      -1.391797       -37.8727
  11   2.0000      -1.359554       -36.9953
  12   2.0000      -1.145816       -31.1792
  13   2.0000      -0.990708       -26.9585
  14   2.0000      -0.941647       -25.6235
  15   2.0000      -0.864586       -23.5266
  16   2.0000      -0.837937       -22.8014
  17   2.0000      -0.762831       -20.7577
  18   2.0000      -0.729316       -19.8457
  19   2.0000      -0.689629       -18.7658
  20   2.0000      -0.673620       -18.3301
  21   2.0000      -0.656791       -17.8722
  22   2.0000      -0.631469       -17.1832
  23   2.0000      -0.628815       -17.1109
  24   2.0000      -0.612868       -16.6770
  25   2.0000      -0.582545       -15.8518
  26   2.0000      -0.558243       -15.1906
  27   2.0000      -0.536603       -14.6017
  28   2.0000      -0.523185       -14.2366
  29   2.0000      -0.510537       -13.8924
  30   2.0000      -0.482784       -13.1372
  31   2.0000      -0.469327       -12.7710
  32   2.0000      -0.463529       -12.6133
  33   2.0000      -0.417177       -11.3520
  34   2.0000      -0.405020       -11.0212
  35   0.0000       0.144342         3.9278
  36   0.0000       0.157789         4.2937
  37   0.0000       0.165255         4.4968
  38   0.0000       0.175803         4.7838
  39   0.0000       0.185184         5.0391

MULLIKEN ATOMIC CHARGES
-----------------------
   0 C :   -0.228093
   1 O :   -0.243772
   2 C :    0.262801
   3 O :   -0.352459
   4 C :    0.231900
   5 C :   -0.263375
   6 C :   -0.296524
   7 O :   -0.299042
   8 C :   -0.211336
   9 H :    0.142068
  10 H :    0.145159
  11 H :    0.140087
  12 H :    0.143830
  13 H :    0.153068
  14 H :    0.151216
  15 H :    0.145250
  16 H :    0.111749
  17 H :    0.127516
  18 H :    0.139955
Sum of atomic charges:    0.0000000

LOEWDIN ATOMIC CHARGES
----------------------
   0 C :   -0.307776
   1 O :    0.242606
   2 C :   -0.452542
   3 O :    0.119512
   4 C :   -0.321135
   5 C :   -0.181242
   6 C :   -0.194148
   7 O :    0.201436
   8 C :   -0.337859
   9 H :    0.115490
  10 H :    0.114996
  11 H :    0.114012
  12 H :    0.141867
  13 H :    0.142629
  14 H :    0.142104
  15 H :    0.138917
  16 H :    0.102426
  17 H :    0.104695
  18 H :    0.114013

  Mayer bond orders larger than 0.1
B(  0-C ,  1-O ) :   0.8376 B(  0-C ,  9-H ) :   0.9380 B(  0-C , 10-H ) :   0.9339
B(  0-C , 11-H ) :   0.9389 B(  1-O ,  2-C ) :   1.1320 B(  2-C ,  3-O ) :   1.8700
B(  2-C ,  4-C ) :   0.9255 B(  4-C ,  5-C ) :   0.8397 B(  4-C ,  6-C ) :   0.8480
B(  4-C ,  7-O ) :   1.0107 B(  5-C ,  6-C ) :   0.9451 B(  5-C , 12-H ) :   0.9238
B(  5-C , 13-H ) :   0.9209 B(  6-C , 14-H ) :   0.9079 B(  6-C , 15-H ) :   0.9218
B(  7-O ,  8-C ) :   0.8857 B(  8-C , 16-H ) :   0.9334 B(  8-C , 17-H ) :   0.9316
B(  8-C , 18-H ) :   0.9402

MP2 TOTAL ENERGY:     -459.427479502 Eh
FINAL SINGLE POINT ENERGY      -459.427479501670

DIPOLE MOMENT
-------------
                                X             Y             Z
Electronic contribution:      2.73688       0.88428      -0.39939
Nuclear contribution   :     -3.33258      -0.82408       0.24190
                        -----------------------------------------
Total Dipole Moment    :     -0.59570       0.06020      -0.15748
                        -----------------------------------------
Magnitude (a.u.)       :      0.61910
Magnitude (Debye)      :      1.57363

                             ****ORCA TERMINATED NORMALLY****
TOTAL RUN TIME: 0 days 0 hours 16 minutes 42 seconds 2 msec
