                         Program Version 3.0.3 - RELEASE   -
|  1> ! RI-MP2 RIJK def2-TZVP def2-TZVP/C def2-TZVP/JK TIGHTSCF
|  2> % maxcore 2000
|  3> % mp2 density relaxed end
|  4> *xyz 0 1
|  5>  C        0.4628097788     1.3516600927    -0.7862707726
|  6>  C        0.0638869462    -0.0049868517    -0.2441247734
|  7>  C        0.6667769702    -1.2764391546    -0.8804256396
|  8>  C        1.1162887568    -1.6101398210     0.5584415522
|  9>  C        2.5869506707    -1.8584988177     0.8555188319
| 10>  N        2.9562761792    -3.2291770230     0.5283845054
| 11>  C        3.5276746967    -3.4646517327    -0.7949013672
| 12>  C        4.3812996681    -3.5129029608     0.4235324269
| 13>  O        0.6981396688    -0.3067476305     1.0253593503
| 14>  H        1.5481902590     1.4163621108    -0.9110719904
| 15>  H       -0.0129909344     1.5308145459    -1.7569335052
| 16>  H        0.1483997337     2.1451437326    -0.1007771669
| 17>  H       -1.0296832093    -0.0622586166    -0.1411292579
| 18>  H       -0.0269851727    -1.9710476020    -1.3553888150
| 19>  H        1.4947883898    -1.0667068011    -1.5629413035
| 20>  H        0.5214437181    -2.4086149366     1.0222433504
| 21>  H        3.2036259095    -1.1083993110     0.3271231764
| 22>  H        2.7426884318    -1.7066228725     1.9306695722
| 23>  H        3.2159490723    -4.3794434075    -1.2907563693
| 24>  H        3.6603427616    -2.6097856531    -1.4562177010
| 25>  H        5.0783912169    -2.6894997979     0.5727221242
| 26>  H        4.7055747783    -4.4642159916     0.8358670221
| 27> *
| 28>
| 29>                          ****END OF INPUT****

CARTESIAN COORDINATES (ANGSTROEM)
---------------------------------
  C      0.462810    1.351660   -0.786271
  C      0.063887   -0.004987   -0.244125
  C      0.666777   -1.276439   -0.880426
  C      1.116289   -1.610140    0.558442
  C      2.586951   -1.858499    0.855519
  N      2.956276   -3.229177    0.528385
  C      3.527675   -3.464652   -0.794901
  C      4.381300   -3.512903    0.423532
  O      0.698140   -0.306748    1.025359
  H      1.548190    1.416362   -0.911072
  H     -0.012991    1.530815   -1.756934
  H      0.148400    2.145144   -0.100777
  H     -1.029683   -0.062259   -0.141129
  H     -0.026985   -1.971048   -1.355389
  H      1.494788   -1.066707   -1.562941
  H      0.521444   -2.408615    1.022243
  H      3.203626   -1.108399    0.327123
  H      2.742688   -1.706623    1.930670
  H      3.215949   -4.379443   -1.290756
  H      3.660343   -2.609786   -1.456218
  H      5.078391   -2.689500    0.572722
  H      4.705575   -4.464216    0.835867

 Total Charge           Charge          ....    0
 Multiplicity           Mult            ....    1
 Number of Electrons    NEL             ....   70
 Basis Dimension        Dim             ....  357

ORBITAL ENERGIES
----------------

  NO   OCC          E(Eh)            E(eV)
   0   2.0000     -20.539842      -558.9175
   1   2.0000     -15.561193      -423.4416
   2   2.0000     -11.280209      -306.9501
   3   2.0000     -11.275558      -306.8235
   4   2.0000     -11.256145      -306.2953
   5   2.0000     -11.255205      -306.2697
   6   2.0000     -11.249394      -306.1116
   7   2.0000     -11.224824      -305.4430
   8   2.0000     -11.216062      -305.2046
   9   2.0000      -1.372614       -37.3507
  10   2.0000      -1.275116       -34.6977
  11   2.0000      -1.037254       -28.2251
  12   2.0000      -1.028006       -27.9735
  13   2.0000      -0.961892       -26.1744
  14   2.0000      -0.865984       -23.5646
  15   2.0000      -0.844245       -22.9731
  16   2.0000      -0.798584       -21.7306
  17   2.0000      -0.757100       -20.6017
  18   2.0000      -0.682774       -18.5792
  19   2.0000      -0.678293       -18.4573
  20   2.0000      -0.651220       -17.7206
  21   2.0000      -0.629010       -17.1162
  22   2.0000      -0.607177       -16.5221
  23   2.0000      -0.591006       -16.0821
  24   2.0000      -0.553534       -15.0624
  25   2.0000      -0.536218       -14.5912
  26   2.0000      -0.529158       -14.3991
  27   2.0000      -0.523281       -14.2392
  28   2.0000      -0.516844       -14.0640
  29   2.0000      -0.479524       -13.0485
  30   2.0000      -0.466791       -12.7020
  31   2.0000      -0.451572       -12.2879
  32   2.0000      -0.431585       -11.7440
  33   2.0000      -0.403992       -10.9932
  34   2.0000      -0.378410       -10.2971
  35   0.0000       0.139075         3.7844
  36   0.0000       0.152716         4.1556
  37   0.0000       0.164176         4.4674
  38   0.0000       0.168804         4.5934
  39   0.0000       0.182568         4.9679

MULLIKEN ATOMIC CHARGES
-----------------------
   0 C :   -0.399754
   1 C :    0.123637
   2 C :   -0.281210
   3 C :    0.126756
   4 C :   -0.172932
   5 N :   -0.234338
   6 C :   -0.185043
   7 C :   -0.164319
   8 O :   -0.334834
   9 H :    0.121832
  10 H :    0.126169
  11 H :    0.138642
  12 H :    0.080589
  13 H :    0.132404
  14 H :    0.107583
  15 H :    0.087257
  16 H :    0.099100
  17 H :    0.129335
  18 H :    0.128899
  19 H :    0.118311
  20 H :    0.120811
  21 H :    0.131107
Sum of atomic charges:   -0.0000000

LOEWDIN ATOMIC CHARGES
----------------------
   0 C :   -0.299558
   1 C :   -0.306462
   2 C :   -0.208666
   3 C :   -0.281010
   4 C :   -0.282050
   5 N :    0.093899
   6 C :   -0.270439
   7 C :   -0.269303
   8 O :    0.152928
   9 H :    0.123037
  10 H :    0.127327
  11 H :    0.128673
  12 H :    0.133340
  13 H :    0.129792
  14 H :    0.133191
  15 H :    0.137993
  16 H :    0.124318
  17 H :    0.141850
  18 H :    0.123919
  19 H :    0.119944
  20 H :    0.122743
  21 H :    0.124533

  Mayer bond orders larger than 0.1
B(  0-C ,  1-C ) :   0.9111 B(  0-C ,  9-H ) :   0.9379 B(  0-C , 10-H ) :   0.9298
B(  0-C , 11-H ) :   0.9361 B(  1-C ,  2-C ) :   0.9389 B(  1-C ,  8-O ) :   0.9358
B(  1-C , 12-H ) :   0.9233 B(  2-C ,  3-C ) :   0.9238 B(  2-C , 13-H ) :   0.9239
B(  2-C , 14-H ) :   0.9290 B(  3-C ,  4-C ) :   0.9488 B(  3-C ,  8-O ) :   0.9416
B(  3-C , 15-H ) :   0.9122 B(  4-C ,  5-N ) :   0.8642 B(  4-C , 16-H ) :   0.9199
B(  4-C , 17-H ) :   0.9172 B(  5-N ,  6-C ) :   0.8950 B(  5-N ,  7-C ) :   0.8836
B(  6-C ,  7-C ) :   0.9447 B(  6-C , 18-H ) :   0.9273 B(  6-C , 19-H ) :   0.9241
B(  7-C , 20-H ) :   0.9244 B(  7-C , 21-H ) :   0.9260

MP2 TOTAL ENERGY:     -403.605614377 Eh
FINAL SINGLE POINT ENERGY      -403.605614376690

DIPOLE MOMENT
-------------
                                X             Y             Z
Electronic contribution:     -1.20027      -2.15265       3.73856
Nuclear contribution   :      1.44667       2.14624      -4.53687
                        -----------------------------------------
Total Dipole Moment    :      0.24640      -0.00641      -0.79831
                        -----------------------------------------
Magnitude (a.u.)       :      0.83549
Magnitude (Debye)      :      2.12365

                             ****ORCA TERMINATED NORMALLY****
TOTAL RUN TIME: 0 days 0 hours 16 minutes 35 seconds 565 msec
