                         Program Version 3.0.3 - RELEASE   -
|  1> ! RI-MP2 RIJK def2-TZVP def2-TZVP/C def2-TZVP/JK TIGHTSCF
|  2> % maxcore 2000
|  3> % mp2 density relaxed end
|  4> *xyz 0 1
|  5>  C       -0.0590494381     1.5082855079     0.0497846689
|  6>  C        0.0616543094     0.0158885153    -0.0508184488
|  7>  C       -0.1068548679    -0.7936163952    -1.3311414060
|  8>  C       -0.6513708186    -1.9229822758    -0.4201542852
|  9>  C        0.4269357243    -2.9273926051    -0.0429350859
| 10>  C        1.4228096463    -2.0549179667     0.7297945180
| 11>  O        2.5471213222    -2.3391623892     1.0562942343
| 12>  C        0.6872317333    -0.7914723028     1.0547618547
| 13>  N       -0.7666672499    -0.9352426488     0.7594190681
| 14>  H        0.8301472117     1.9974881656    -0.3630982899
| 15>  H       -0.9316636151     1.8620653562    -0.5097521229
| 16>  H       -0.1710359829     1.8233898599     1.0908133804
| 17>  H       -0.8899359369    -0.3601013420    -1.9580952069
| 18>  H        0.7723081097    -1.0005116612    -1.9493678682
| 19>  H       -1.6159121272    -2.3509205268    -0.6861745055
| 20>  H        0.0369640861    -3.6898707968     0.6429559797
| 21>  H        0.8983629294    -3.4354979814    -0.8878675647
| 22>  H        0.9457376342    -0.2629060531     1.9653599098
| 23> *
| 24>
| 25>                          ****END OF INPUT****

CARTESIAN COORDINATES (ANGSTROEM)
---------------------------------
  C     -0.059049    1.508286    0.049785
  C      0.061654    0.015889   -0.050818
  C     -0.106855   -0.793616   -1.331141
  C     -0.651371   -1.922982   -0.420154
  C      0.426936   -2.927393   -0.042935
  C      1.422810   -2.054918    0.729795
  O      2.547121   -2.339162    1.056294
  C      0.687232   -0.791472    1.054762
  N     -0.766667   -0.935243    0.759419
  H      0.830147    1.997488   -0.363098
  H     -0.931664    1.862065   -0.509752
  H     -0.171036    1.823390    1.090813
  H     -0.889936   -0.360101   -1.958095
  H      0.772308   -1.000512   -1.949368
  H     -1.615912   -2.350921   -0.686175
  H      0.036964   -3.689871    0.642956
  H      0.898363   -3.435498   -0.887868
  H      0.945738   -0.262906    1.965360

 Total Charge           Charge          ....    0
 Multiplicity           Mult            ....    1
 Number of Electrons    NEL             ....   66
 Basis Dimension        Dim             ....  333

ORBITAL ENERGIES
----------------

  NO   OCC          E(Eh)            E(eV)
   0   2.0000     -20.549764      -559.1875
   1   2.0000     -15.576801      -423.8663
   2   2.0000     -11.336213      -308.4740
   3   2.0000     -11.290852      -307.2397
   4   2.0000     -11.280012      -306.9447
   5   2.0000     -11.271335      -306.7086
   6   2.0000     -11.246077      -306.0213
   7   2.0000     -11.244562      -305.9801
   8   2.0000     -11.234415      -305.7040
   9   2.0000      -1.394319       -37.9413
  10   2.0000      -1.319334       -35.9009
  11   2.0000      -1.066947       -29.0331
  12   2.0000      -1.025153       -27.8958
  13   2.0000      -0.994457       -27.0606
  14   2.0000      -0.925156       -25.1748
  15   2.0000      -0.823390       -22.4056
  16   2.0000      -0.767988       -20.8980
  17   2.0000      -0.730555       -19.8794
  18   2.0000      -0.690635       -18.7931
  19   2.0000      -0.656164       -17.8551
  20   2.0000      -0.617953       -16.8153
  21   2.0000      -0.610775       -16.6200
  22   2.0000      -0.593859       -16.1597
  23   2.0000      -0.586278       -15.9534
  24   2.0000      -0.574019       -15.6198
  25   2.0000      -0.565833       -15.3971
  26   2.0000      -0.539669       -14.6851
  27   2.0000      -0.523242       -14.2382
  28   2.0000      -0.486203       -13.2303
  29   2.0000      -0.454478       -12.3670
  30   2.0000      -0.442993       -12.0545
  31   2.0000      -0.402699       -10.9580
  32   2.0000      -0.383311       -10.4304
  33   0.0000       0.126686         3.4473
  34   0.0000       0.134405         3.6574
  35   0.0000       0.148276         4.0348
  36   0.0000       0.167718         4.5638
  37   0.0000       0.174135         4.7385

MULLIKEN ATOMIC CHARGES
-----------------------
   0 C :   -0.422340
   1 C :    0.140528
   2 C :   -0.244588
   3 C :    0.044033
   4 C :   -0.239928
   5 C :    0.141027
   6 O :   -0.268480
   7 C :   -0.148627
   8 N :   -0.226451
   9 H :    0.142467
  10 H :    0.133960
  11 H :    0.145089
  12 H :    0.123281
  13 H :    0.126258
  14 H :    0.132319
  15 H :    0.143589
  16 H :    0.136389
  17 H :    0.141474
Sum of atomic charges:   -0.0000000

LOEWDIN ATOMIC CHARGES
----------------------
   0 C :   -0.264870
   1 C :   -0.257443
   2 C :   -0.182743
   3 C :   -0.207933
   4 C :   -0.205567
   5 C :   -0.308820
   6 O :    0.153728
   7 C :   -0.173564
   8 N :    0.163765
   9 H :    0.134251
  10 H :    0.131311
  11 H :    0.135412
  12 H :    0.143762
  13 H :    0.133869
  14 H :    0.139521
  15 H :    0.158979
  16 H :    0.150026
  17 H :    0.156313

  Mayer bond orders larger than 0.1
B(  0-C ,  1-C ) :   0.8770 B(  0-C ,  9-H ) :   0.9353 B(  0-C , 10-H ) :   0.9346
B(  0-C , 11-H ) :   0.9356 B(  1-C ,  2-C ) :   0.9437 B(  1-C ,  7-C ) :   0.8540
B(  1-C ,  8-N ) :   0.8379 B(  2-C ,  3-C ) :   0.9554 B(  2-C , 12-H ) :   0.9182
B(  2-C , 13-H ) :   0.9036 B(  3-C ,  4-C ) :   0.9456 B(  3-C ,  8-N ) :   0.8962
B(  3-C , 14-H ) :   0.9063 B(  4-C ,  5-C ) :   0.9278 B(  4-C ,  7-C ) :  -0.1007
B(  4-C , 15-H ) :   0.8897 B(  4-C , 16-H ) :   0.9077 B(  5-C ,  6-O ) :   2.0415
B(  5-C ,  7-C ) :   0.9104 B(  7-C ,  8-N ) :   0.9370 B(  7-C , 17-H ) :   0.9127

MP2 TOTAL ENERGY:     -401.253236968 Eh
FINAL SINGLE POINT ENERGY      -401.253236967957

DIPOLE MOMENT
-------------
                                X             Y             Z
Electronic contribution:      2.96833      -4.11076       3.33446
Nuclear contribution   :     -3.60826       4.47617      -4.17097
                        -----------------------------------------
Total Dipole Moment    :     -0.63993       0.36541      -0.83650
                        -----------------------------------------
Magnitude (a.u.)       :      1.11480
Magnitude (Debye)      :      2.83359

                             ****ORCA TERMINATED NORMALLY****
TOTAL RUN TIME: 0 days 0 hours 21 minutes 4 seconds 78 msec
