                         Program Version 3.0.3 - RELEASE   -
|  1> ! RI-MP2 RIJK def2-TZVP def2-TZVP/C def2-TZVP/JK TIGHTSCF
|  2> % maxcore 2000
|  3> % mp2 density relaxed end
|  4> *xyz 0 1
|  5>  N       -0.1665606198     1.3039554285     0.0089176242
|  6>  C        0.0105519139     0.0448958086     0.0010629589
|  7>  N       -1.1375788213    -0.7785728925     0.0028001415
|  8>  C       -1.0558201303    -2.1281230000    -0.0051573514
|  9>  N        0.0862894501    -2.7655338758    -0.0148807777
| 10>  C        1.1848231750    -1.9366188796    -0.0162499357
| 11>  N        1.2229295278    -0.6413981673    -0.0092984845
| 12>  C       -2.2899321328    -2.8488170489    -0.0023688116
| 13>  C       -3.3428069373    -3.4279043909     0.0001941170
| 14>  H        0.7426504945     1.7632294612     0.0064896010
| 15>  H       -2.0334734282    -0.3103238885     0.0102786743
| 16>  H        2.1394869413    -2.4596768806    -0.0243033094
| 17>  H       -4.2650780031    -3.9568428542     0.0022749334
| 18> *
| 19>
| 20>                          ****END OF INPUT****

CARTESIAN COORDINATES (ANGSTROEM)
---------------------------------
  N     -0.166561    1.303955    0.008918
  C      0.010552    0.044896    0.001063
  N     -1.137579   -0.778573    0.002800
  C     -1.055820   -2.128123   -0.005157
  N      0.086289   -2.765534   -0.014881
  C      1.184823   -1.936619   -0.016250
  N      1.222930   -0.641398   -0.009298
  C     -2.289932   -2.848817   -0.002369
  C     -3.342807   -3.427904    0.000194
  H      0.742650    1.763229    0.006490
  H     -2.033473   -0.310324    0.010279
  H      2.139487   -2.459677   -0.024303
  H     -4.265078   -3.956843    0.002275

 Total Charge           Charge          ....    0
 Multiplicity           Mult            ....    1
 Number of Electrons    NEL             ....   62
 Basis Dimension        Dim             ....  303

ORBITAL ENERGIES
----------------

  NO   OCC          E(Eh)            E(eV)
   0   2.0000     -15.643039      -425.6687
   1   2.0000     -15.578368      -423.9089
   2   2.0000     -15.572217      -423.7416
   3   2.0000     -15.526704      -422.5031
   4   2.0000     -11.398183      -310.1603
   5   2.0000     -11.358164      -309.0714
   6   2.0000     -11.340382      -308.5875
   7   2.0000     -11.288825      -307.1846
   8   2.0000     -11.280056      -306.9459
   9   2.0000      -1.381368       -37.5889
  10   2.0000      -1.253869       -34.1195
  11   2.0000      -1.244620       -33.8678
  12   2.0000      -1.152137       -31.3512
  13   2.0000      -1.085221       -29.5304
  14   2.0000      -0.960349       -26.1324
  15   2.0000      -0.910311       -24.7708
  16   2.0000      -0.811909       -22.0932
  17   2.0000      -0.767144       -20.8750
  18   2.0000      -0.752435       -20.4748
  19   2.0000      -0.731921       -19.9166
  20   2.0000      -0.649166       -17.6647
  21   2.0000      -0.646692       -17.5974
  22   2.0000      -0.639241       -17.3946
  23   2.0000      -0.516251       -14.0479
  24   2.0000      -0.500879       -13.6296
  25   2.0000      -0.491918       -13.3858
  26   2.0000      -0.453504       -12.3405
  27   2.0000      -0.444348       -12.0913
  28   2.0000      -0.438764       -11.9394
  29   2.0000      -0.432172       -11.7600
  30   2.0000      -0.347905        -9.4670
  31   0.0000       0.044786         1.2187
  32   0.0000       0.129135         3.5139
  33   0.0000       0.134592         3.6624
  34   0.0000       0.139850         3.8055
  35   0.0000       0.143994         3.9183

MULLIKEN ATOMIC CHARGES
-----------------------
   0 N :   -0.401937
   1 C :    0.197876
   2 N :   -0.246676
   3 C :    0.075186
   4 N :   -0.291634
   5 C :    0.059536
   6 N :   -0.246986
   7 C :    0.030934
   8 C :   -0.033154
   9 H :    0.233160
  10 H :    0.268218
  11 H :    0.142662
  12 H :    0.212816
Sum of atomic charges:   -0.0000000

LOEWDIN ATOMIC CHARGES
----------------------
   0 N :   -0.083390
   1 C :   -0.433150
   2 N :    0.230413
   3 C :   -0.284114
   4 N :    0.121503
   5 C :   -0.266074
   6 N :    0.123569
   7 C :   -0.049422
   8 C :   -0.023338
   9 H :    0.171825
  10 H :    0.216157
  11 H :    0.139850
  12 H :    0.136171

  Mayer bond orders larger than 0.1
B(  0-N ,  1-C ) :   1.9697 B(  0-N ,  9-H ) :   0.8571 B(  1-C ,  2-N ) :   0.9683
B(  1-C ,  6-N ) :   1.1164 B(  2-N ,  3-C ) :   1.2461 B(  2-N , 10-H ) :   0.8465
B(  3-C ,  4-N ) :   1.5978 B(  3-C ,  7-C ) :   1.1612 B(  3-C ,  8-C ) :  -0.1702
B(  4-N ,  5-C ) :   1.1634 B(  5-C ,  6-N ) :   1.6422 B(  5-C , 11-H ) :   0.9338
B(  7-C ,  8-C ) :   2.6191 B(  8-C , 12-H ) :   0.8648

MP2 TOTAL ENERGY:     -411.069296497 Eh
FINAL SINGLE POINT ENERGY      -411.069296497220

DIPOLE MOMENT
-------------
                                X             Y             Z
Electronic contribution:      0.04681      -1.27851      -0.00732
Nuclear contribution   :     -1.02574       0.63955       0.00915
                        -----------------------------------------
Total Dipole Moment    :     -0.97893      -0.63896       0.00183
                        -----------------------------------------
Magnitude (a.u.)       :      1.16901
Magnitude (Debye)      :      2.97138

                             ****ORCA TERMINATED NORMALLY****
TOTAL RUN TIME: 0 days 0 hours 13 minutes 18 seconds 358 msec
