                         Program Version 3.0.3 - RELEASE   -
|  1> ! RI-MP2 RIJK def2-TZVP def2-TZVP/C def2-TZVP/JK TIGHTSCF
|  2> % maxcore 2000
|  3> % mp2 density relaxed end
|  4> *xyz 0 1
|  5>  C        0.6500407420    -0.4819586964    -0.2860702425
|  6>  C       -0.2046238840     0.7377134618    -0.0233256773
|  7>  O        0.2213419212     1.8694070491    -0.0559061178
|  8>  C       -1.6827611201     0.5228675661     0.2205022998
|  9>  O       -2.1718320156    -0.8111251896     0.3813381919
| 10>  C       -2.2341999908     0.0556207029     1.5083697008
| 11>  C       -1.3819163554    -0.2677210758     2.7249327334
| 12>  C       -2.0014452904    -1.2768894693     3.5769388464
| 13>  C       -2.5329119523    -2.1028007344     4.2684213073
| 14>  H        1.7044628292    -0.2043509727    -0.2693915147
| 15>  H        0.4411072986    -1.2906247481     0.4174103863
| 16>  H        0.3946836071    -0.8744943165    -1.2786554020
| 17>  H       -2.3099170806     1.1872274548    -0.3748444902
| 18>  H       -3.2443964391     0.3838806720     1.7558449737
| 19>  H       -0.3861202547    -0.5985862898     2.4143337771
| 20>  H       -1.2375271794     0.6602292289     3.2942557345
| 21>  H       -2.9933683058    -2.8374238630     4.8815679332
| 22> *
| 23>
| 24>                          ****END OF INPUT****

CARTESIAN COORDINATES (ANGSTROEM)
---------------------------------
  C      0.650041   -0.481959   -0.286070
  C     -0.204624    0.737713   -0.023326
  O      0.221342    1.869407   -0.055906
  C     -1.682761    0.522868    0.220502
  O     -2.171832   -0.811125    0.381338
  C     -2.234200    0.055621    1.508370
  C     -1.381916   -0.267721    2.724933
  C     -2.001445   -1.276889    3.576939
  C     -2.532912   -2.102801    4.268421
  H      1.704463   -0.204351   -0.269392
  H      0.441107   -1.290625    0.417410
  H      0.394684   -0.874494   -1.278655
  H     -2.309917    1.187227   -0.374844
  H     -3.244396    0.383881    1.755845
  H     -0.386120   -0.598586    2.414334
  H     -1.237527    0.660229    3.294256
  H     -2.993368   -2.837424    4.881568

 Total Charge           Charge          ....    0
 Multiplicity           Mult            ....    1
 Number of Electrons    NEL             ....   66
 Basis Dimension        Dim             ....  327

ORBITAL ENERGIES
----------------

  NO   OCC          E(Eh)            E(eV)
   0   2.0000     -20.592936      -560.3623
   1   2.0000     -20.559582      -559.4547
   2   2.0000     -11.347562      -308.7829
   3   2.0000     -11.319413      -308.0169
   4   2.0000     -11.309216      -307.7394
   5   2.0000     -11.277650      -306.8804
   6   2.0000     -11.245503      -306.0057
   7   2.0000     -11.241769      -305.9041
   8   2.0000     -11.233377      -305.6757
   9   2.0000      -1.441751       -39.2321
  10   2.0000      -1.401691       -38.1419
  11   2.0000      -1.093698       -29.7610
  12   2.0000      -1.032167       -28.0867
  13   2.0000      -1.002146       -27.2698
  14   2.0000      -0.952265       -25.9125
  15   2.0000      -0.865997       -23.5650
  16   2.0000      -0.761683       -20.7265
  17   2.0000      -0.737621       -20.0717
  18   2.0000      -0.717129       -19.5141
  19   2.0000      -0.685447       -18.6519
  20   2.0000      -0.648560       -17.6482
  21   2.0000      -0.643705       -17.5161
  22   2.0000      -0.612516       -16.6674
  23   2.0000      -0.607107       -16.5202
  24   2.0000      -0.594725       -16.1833
  25   2.0000      -0.566689       -15.4204
  26   2.0000      -0.542096       -14.7512
  27   2.0000      -0.517876       -14.0921
  28   2.0000      -0.493136       -13.4189
  29   2.0000      -0.452691       -12.3184
  30   2.0000      -0.425538       -11.5795
  31   2.0000      -0.399188       -10.8625
  32   2.0000      -0.398749       -10.8505
  33   0.0000       0.116653         3.1743
  34   0.0000       0.134552         3.6613
  35   0.0000       0.153478         4.1763
  36   0.0000       0.161947         4.4068
  37   0.0000       0.165506         4.5036

MULLIKEN ATOMIC CHARGES
-----------------------
   0 C :   -0.395518
   1 C :    0.176520
   2 O :   -0.280131
   3 C :    0.058575
   4 O :   -0.319472
   5 C :    0.019988
   6 C :   -0.375166
   7 C :   -0.026308
   8 C :   -0.108150
   9 H :    0.154606
  10 H :    0.153253
  11 H :    0.154852
  12 H :    0.147958
  13 H :    0.128850
  14 H :    0.153790
  15 H :    0.161365
  16 H :    0.194987
Sum of atomic charges:   -0.0000000

LOEWDIN ATOMIC CHARGES
----------------------
   0 C :   -0.275726
   1 C :   -0.343644
   2 O :    0.159280
   3 C :   -0.231299
   4 O :    0.184108
   5 C :   -0.243585
   6 C :   -0.227266
   7 C :   -0.107071
   8 C :   -0.092414
   9 H :    0.134921
  10 H :    0.134950
  11 H :    0.147359
  12 H :    0.151647
  13 H :    0.147259
  14 H :    0.163219
  15 H :    0.170029
  16 H :    0.128233

  Mayer bond orders larger than 0.1
B(  0-C ,  1-C ) :   0.9334 B(  0-C ,  9-H ) :   0.9327 B(  0-C , 10-H ) :   0.9095
B(  0-C , 11-H ) :   0.9019 B(  1-C ,  2-O ) :   1.9847 B(  1-C ,  3-C ) :   0.8733
B(  3-C ,  4-O ) :   0.8787 B(  3-C ,  5-C ) :   0.9545 B(  3-C , 12-H ) :   0.9071
B(  4-O ,  5-C ) :   0.9195 B(  5-C ,  6-C ) :   0.9045 B(  5-C , 13-H ) :   0.9211
B(  6-C ,  7-C ) :   1.0824 B(  6-C , 14-H ) :   0.9422 B(  6-C , 15-H ) :   0.9189
B(  7-C ,  8-C ) :   2.6162 B(  8-C , 16-H ) :   0.8995

MP2 TOTAL ENERGY:     -421.064743948 Eh
FINAL SINGLE POINT ENERGY      -421.064743947948

DIPOLE MOMENT
-------------
                                X             Y             Z
Electronic contribution:     -2.17701       1.76159      -0.18368
Nuclear contribution   :      2.01702      -2.09563       0.45478
                        -----------------------------------------
Total Dipole Moment    :     -0.15999      -0.33404       0.27110
                        -----------------------------------------
Magnitude (a.u.)       :      0.45899
Magnitude (Debye)      :      1.16667

                             ****ORCA TERMINATED NORMALLY****
TOTAL RUN TIME: 0 days 0 hours 16 minutes 49 seconds 125 msec
