                         Program Version 3.0.3 - RELEASE   -
|  1> ! RI-MP2 RIJK def2-TZVP def2-TZVP/C def2-TZVP/JK TIGHTSCF
|  2> % maxcore 2000
|  3> % mp2 density relaxed end
|  4> *xyz 0 1
|  5>  C       -0.0877115123     1.5913034908    -0.0387073439
|  6>  C       -0.0347262516     0.0805551554     0.0519539809
|  7>  C       -1.2665457482    -0.6334203756    -0.4012372615
|  8>  O       -2.2536939168    -0.0847515677    -0.8177805192
|  9>  C        1.2521838014    -0.6636819052    -0.1801278065
| 10>  O        2.3530832462     0.1188927159    -0.5104936687
| 11>  C        0.6863495238    -0.6464311563     1.2264676736
| 12>  C        1.3330129761     0.1445355668     2.3020637715
| 13>  O        1.3039053218    -0.1797665767     3.4649334696
| 14>  H        0.9042327493     2.0341744784     0.0464486322
| 15>  H       -0.5109064553     1.8732923877    -1.0059164256
| 16>  H       -0.7372681484     2.0078315927     0.7358100803
| 17>  H       -1.2102321389    -1.7445682563    -0.3275259836
| 18>  H        1.1910344027    -1.6187054324    -0.7028101319
| 19>  H        3.1520582456    -0.3569547719    -0.2584915759
| 20>  H        0.2219840370    -1.5605114118     1.5848400987
| 21>  H        1.8680220577     1.0569181962     1.9724869099
| 22> *
| 23>
| 24>                          ****END OF INPUT****

CARTESIAN COORDINATES (ANGSTROEM)
---------------------------------
  C     -0.087712    1.591303   -0.038707
  C     -0.034726    0.080555    0.051954
  C     -1.266546   -0.633420   -0.401237
  O     -2.253694   -0.084752   -0.817781
  C      1.252184   -0.663682   -0.180128
  O      2.353083    0.118893   -0.510494
  C      0.686350   -0.646431    1.226468
  C      1.333013    0.144536    2.302064
  O      1.303905   -0.179767    3.464933
  H      0.904233    2.034174    0.046449
  H     -0.510906    1.873292   -1.005916
  H     -0.737268    2.007832    0.735810
  H     -1.210232   -1.744568   -0.327526
  H      1.191034   -1.618705   -0.702810
  H      3.152058   -0.356955   -0.258492
  H      0.221984   -1.560511    1.584840
  H      1.868022    1.056918    1.972487

 Total Charge           Charge          ....    0
 Multiplicity           Mult            ....    1
 Number of Electrons    NEL             ....   68
 Basis Dimension        Dim             ....  327

ORBITAL ENERGIES
----------------

  NO   OCC          E(Eh)            E(eV)
   0   2.0000     -20.603708      -560.6554
   1   2.0000     -20.569225      -559.7171
   2   2.0000     -20.565068      -559.6039
   3   2.0000     -11.347954      -308.7935
   4   2.0000     -11.345355      -308.7228
   5   2.0000     -11.334081      -308.4160
   6   2.0000     -11.282969      -307.0252
   7   2.0000     -11.272513      -306.7407
   8   2.0000     -11.235422      -305.7314
   9   2.0000      -1.417752       -38.5790
  10   2.0000      -1.409377       -38.3511
  11   2.0000      -1.402993       -38.1774
  12   2.0000      -1.189636       -32.3716
  13   2.0000      -1.002975       -27.2923
  14   2.0000      -0.943980       -25.6870
  15   2.0000      -0.891699       -24.2644
  16   2.0000      -0.805107       -21.9081
  17   2.0000      -0.778556       -21.1856
  18   2.0000      -0.737683       -20.0734
  19   2.0000      -0.725303       -19.7365
  20   2.0000      -0.674548       -18.3554
  21   2.0000      -0.646786       -17.5999
  22   2.0000      -0.639490       -17.4014
  23   2.0000      -0.623933       -16.9781
  24   2.0000      -0.615037       -16.7360
  25   2.0000      -0.577137       -15.7047
  26   2.0000      -0.557425       -15.1683
  27   2.0000      -0.550080       -14.9684
  28   2.0000      -0.540446       -14.7063
  29   2.0000      -0.530408       -14.4331
  30   2.0000      -0.468429       -12.7466
  31   2.0000      -0.441751       -12.0207
  32   2.0000      -0.424557       -11.5528
  33   2.0000      -0.420166       -11.4333
  34   0.0000       0.094108         2.5608
  35   0.0000       0.120036         3.2664
  36   0.0000       0.130885         3.5616
  37   0.0000       0.139384         3.7928
  38   0.0000       0.162545         4.4231

MULLIKEN ATOMIC CHARGES
-----------------------
   0 C :   -0.418255
   1 C :    0.136171
   2 C :    0.066599
   3 O :   -0.258178
   4 C :   -0.019889
   5 O :   -0.453652
   6 C :   -0.097422
   7 C :    0.032504
   8 O :   -0.262016
   9 H :    0.162054
  10 H :    0.157387
  11 H :    0.149422
  12 H :    0.082785
  13 H :    0.134506
  14 H :    0.334576
  15 H :    0.146635
  16 H :    0.106773
Sum of atomic charges:   -0.0000000

LOEWDIN ATOMIC CHARGES
----------------------
   0 C :   -0.252046
   1 C :   -0.216085
   2 C :   -0.261154
   3 O :    0.147694
   4 C :   -0.271546
   5 O :    0.021892
   6 C :   -0.162617
   7 C :   -0.282979
   8 O :    0.133615
   9 H :    0.133158
  10 H :    0.140808
  11 H :    0.135688
  12 H :    0.120236
  13 H :    0.141573
  14 H :    0.189626
  15 H :    0.161131
  16 H :    0.121006

  Mayer bond orders larger than 0.1
B(  0-C ,  1-C ) :   0.9241 B(  0-C ,  9-H ) :   0.9308 B(  0-C , 10-H ) :   0.9212
B(  0-C , 11-H ) :   0.9298 B(  1-C ,  2-C ) :   0.8513 B(  1-C ,  4-C ) :   0.8098
B(  1-C ,  6-C ) :   0.7503 B(  2-C ,  3-O ) :   2.0105 B(  2-C , 12-H ) :   0.9504
B(  4-C ,  5-O ) :   1.0701 B(  4-C ,  6-C ) :   0.8123 B(  4-C , 13-H ) :   0.9498
B(  5-O , 14-H ) :   0.8339 B(  6-C ,  7-C ) :   0.8839 B(  6-C , 15-H ) :   0.9063
B(  7-C ,  8-O ) :   1.9752 B(  7-C , 16-H ) :   0.9519

MP2 TOTAL ENERGY:     -458.223327265 Eh
FINAL SINGLE POINT ENERGY      -458.223327264974

DIPOLE MOMENT
-------------
                                X             Y             Z
Electronic contribution:     -0.62992      -2.24609       1.69351
Nuclear contribution   :      1.65297       1.71155      -2.28092
                        -----------------------------------------
Total Dipole Moment    :      1.02305      -0.53454      -0.58741
                        -----------------------------------------
Magnitude (a.u.)       :      1.29515
Magnitude (Debye)      :      3.29201

                             ****ORCA TERMINATED NORMALLY****
TOTAL RUN TIME: 0 days 0 hours 15 minutes 43 seconds 129 msec
