                         Program Version 3.0.3 - RELEASE   -
|  1> ! RI-MP2 RIJK def2-TZVP def2-TZVP/C def2-TZVP/JK TIGHTSCF
|  2> % maxcore 2000
|  3> % mp2 density relaxed end
|  4> *xyz 0 1
|  5>  C       -0.7942019993     1.0606213384    -0.1236043449
|  6>  O       -0.9438443543    -0.2738687511    -0.5570743145
|  7>  C        0.0362433085    -0.6735625414    -1.4534789279
|  8>  C        1.3877030414    -1.2514338529    -0.9158276372
|  9>  O        0.6323800239    -2.4032472115    -0.3778717464
| 10>  C        0.0916854839    -2.1882017129    -1.7396782289
| 11>  C        1.5597179618    -2.0464314956    -2.2431304026
| 12>  C        1.9625909953    -1.4295159281    -3.5741134964
| 13>  H        0.1344784543     1.2051192026     0.4477803937
| 14>  H       -0.7930942693     1.7660178881    -0.9697674311
| 15>  H       -1.6443204603     1.2868952496     0.5235526646
| 16>  H        0.0966995704     0.0119866903    -2.3089399975
| 17>  H        2.1452090776    -0.8012424474    -0.2728510851
| 18>  H       -0.7047887952    -2.8525157055    -2.0767332771
| 19>  H        2.1029127931    -2.9735900238    -2.0467806576
| 20>  H        1.4415385074    -0.4975734293    -3.8047552829
| 21>  H        3.0373600029    -1.2183117585    -3.5811990837
| 22>  H        1.7639130379    -2.1310499111    -4.3914255146
| 23> *
| 24>
| 25>                          ****END OF INPUT****

CARTESIAN COORDINATES (ANGSTROEM)
---------------------------------
  C     -0.794202    1.060621   -0.123604
  O     -0.943844   -0.273869   -0.557074
  C      0.036243   -0.673563   -1.453479
  C      1.387703   -1.251434   -0.915828
  O      0.632380   -2.403247   -0.377872
  C      0.091685   -2.188202   -1.739678
  C      1.559718   -2.046431   -2.243130
  C      1.962591   -1.429516   -3.574113
  H      0.134478    1.205119    0.447780
  H     -0.793094    1.766018   -0.969767
  H     -1.644320    1.286895    0.523553
  H      0.096700    0.011987   -2.308940
  H      2.145209   -0.801242   -0.272851
  H     -0.704789   -2.852516   -2.076733
  H      2.102913   -2.973590   -2.046781
  H      1.441539   -0.497573   -3.804755
  H      3.037360   -1.218312   -3.581199
  H      1.763913   -2.131050   -4.391426

 Total Charge           Charge          ....    0
 Multiplicity           Mult            ....    1
 Number of Electrons    NEL             ....   62
 Basis Dimension        Dim             ....  308

ORBITAL ENERGIES
----------------

  NO   OCC          E(Eh)            E(eV)
   0   2.0000     -20.559564      -559.4542
   1   2.0000     -20.543606      -559.0199
   2   2.0000     -11.295660      -307.3705
   3   2.0000     -11.295344      -307.3619
   4   2.0000     -11.291839      -307.2666
   5   2.0000     -11.274726      -306.8009
   6   2.0000     -11.245457      -306.0045
   7   2.0000     -11.228149      -305.5335
   8   2.0000      -1.409360       -38.3506
   9   2.0000      -1.366557       -37.1859
  10   2.0000      -1.084675       -29.5155
  11   2.0000      -0.989607       -26.9286
  12   2.0000      -0.933463       -25.4008
  13   2.0000      -0.884663       -24.0729
  14   2.0000      -0.855492       -23.2791
  15   2.0000      -0.741859       -20.1870
  16   2.0000      -0.703708       -19.1489
  17   2.0000      -0.677792       -18.4437
  18   2.0000      -0.634521       -17.2662
  19   2.0000      -0.628513       -17.1027
  20   2.0000      -0.590962       -16.0809
  21   2.0000      -0.585817       -15.9409
  22   2.0000      -0.577615       -15.7177
  23   2.0000      -0.536659       -14.6032
  24   2.0000      -0.518340       -14.1048
  25   2.0000      -0.498619       -13.5681
  26   2.0000      -0.487274       -13.2594
  27   2.0000      -0.454825       -12.3764
  28   2.0000      -0.445035       -12.1100
  29   2.0000      -0.420946       -11.4545
  30   2.0000      -0.400816       -10.9068
  31   0.0000       0.134827         3.6688
  32   0.0000       0.149884         4.0785
  33   0.0000       0.169351         4.6083
  34   0.0000       0.184275         5.0144
  35   0.0000       0.193987         5.2787

MULLIKEN ATOMIC CHARGES
-----------------------
   0 C :   -0.218263
   1 O :   -0.295246
   2 C :    0.089719
   3 C :   -0.065975
   4 O :   -0.305976
   5 C :   -0.016058
   6 C :   -0.031165
   7 C :   -0.400156
   8 H :    0.115283
   9 H :    0.108896
  10 H :    0.145051
  11 H :    0.075560
  12 H :    0.140913
  13 H :    0.140524
  14 H :    0.117468
  15 H :    0.126406
  16 H :    0.135976
  17 H :    0.137044
Sum of atomic charges:    0.0000000

LOEWDIN ATOMIC CHARGES
----------------------
   0 C :   -0.349114
   1 O :    0.179012
   2 C :   -0.289258
   3 C :   -0.202776
   4 O :    0.137064
   5 C :   -0.191727
   6 C :   -0.215120
   7 C :   -0.297976
   8 H :    0.103044
   9 H :    0.101125
  10 H :    0.115517
  11 H :    0.128706
  12 H :    0.123035
  13 H :    0.126532
  14 H :    0.154201
  15 H :    0.120406
  16 H :    0.128528
  17 H :    0.128802

  Mayer bond orders larger than 0.1
B(  0-C ,  1-O ) :   0.9067 B(  0-C ,  8-H ) :   0.9342 B(  0-C ,  9-H ) :   0.9349
B(  0-C , 10-H ) :   0.9412 B(  1-O ,  2-C ) :   0.9927 B(  2-C ,  3-C ) :   0.9083
B(  2-C ,  5-C ) :   0.8933 B(  2-C , 11-H ) :   0.9285 B(  3-C ,  4-O ) :   0.9145
B(  3-C ,  6-C ) :   0.9185 B(  3-C , 12-H ) :   0.8780 B(  4-O ,  5-C ) :   0.9171
B(  5-C ,  6-C ) :   0.9098 B(  5-C , 13-H ) :   0.8883 B(  6-C ,  7-C ) :   0.9084
B(  6-C , 14-H ) :   0.9200 B(  7-C , 15-H ) :   0.9306 B(  7-C , 16-H ) :   0.9316
B(  7-C , 17-H ) :   0.9316

MP2 TOTAL ENERGY:     -384.214633406 Eh
FINAL SINGLE POINT ENERGY      -384.214633406140

DIPOLE MOMENT
-------------
                                X             Y             Z
Electronic contribution:     -2.25046      -3.87101       3.84809
Nuclear contribution   :      2.68490       4.65221      -4.63047
                        -----------------------------------------
Total Dipole Moment    :      0.43443       0.78120      -0.78238
                        -----------------------------------------
Magnitude (a.u.)       :      1.18791
Magnitude (Debye)      :      3.01942

                             ****ORCA TERMINATED NORMALLY****
TOTAL RUN TIME: 0 days 0 hours 11 minutes 38 seconds 316 msec
