                         Program Version 3.0.3 - RELEASE   -
|  1> ! RI-MP2 RIJK def2-TZVP def2-TZVP/C def2-TZVP/JK TIGHTSCF
|  2> % maxcore 2000
|  3> % mp2 density relaxed end
|  4> *xyz 0 1
|  5>  C        0.0512300530     1.5636866283     0.0424036559
|  6>  C       -0.0385205633     0.0373211771    -0.0068691871
|  7>  C       -1.4828150583    -0.5194651604    -0.0129528932
|  8>  N       -2.2078700433    -0.0076124547    -1.1820704947
|  9>  C       -1.4383305066    -2.0646399174     0.0333805612
| 10>  O       -2.7562708475    -2.5384797849    -0.0811791209
| 11>  C       -2.8567250519    -3.9436942626    -0.0198542039
| 12>  C       -2.1918876265    -0.0522809910     1.1997962091
| 13>  N       -2.7132781464     0.3029237192     2.1674553955
| 14>  H        1.0964245164     1.8826120986    -0.0031753334
| 15>  H       -0.4879983174     2.0140087030    -0.7937911881
| 16>  H       -0.3815512450     1.9517032913     0.9688360534
| 17>  H        0.4509821700    -0.3404284021    -0.9141329904
| 18>  H        0.4973388423    -0.4008963632     0.8423531822
| 19>  H       -1.6807022460    -0.2497498525    -2.0177484854
| 20>  H       -3.0956041908    -0.4985849486    -1.2480503788
| 21>  H       -0.8161064027    -2.4231036314    -0.8052353727
| 22>  H       -0.9735995747    -2.4099294240     0.9708161677
| 23>  H       -3.9144151582    -4.1972708812    -0.1174063156
| 24>  H       -2.2956006786    -4.4266261097    -0.8348999542
| 25>  H       -2.4824452443    -4.3346603637     0.9379265832
| 26> *
| 27>
| 28>                          ****END OF INPUT****

CARTESIAN COORDINATES (ANGSTROEM)
---------------------------------
  C      0.051230    1.563687    0.042404
  C     -0.038521    0.037321   -0.006869
  C     -1.482815   -0.519465   -0.012953
  N     -2.207870   -0.007612   -1.182070
  C     -1.438331   -2.064640    0.033381
  O     -2.756271   -2.538480   -0.081179
  C     -2.856725   -3.943694   -0.019854
  C     -2.191888   -0.052281    1.199796
  N     -2.713278    0.302924    2.167455
  H      1.096425    1.882612   -0.003175
  H     -0.487998    2.014009   -0.793791
  H     -0.381551    1.951703    0.968836
  H      0.450982   -0.340428   -0.914133
  H      0.497339   -0.400896    0.842353
  H     -1.680702   -0.249750   -2.017748
  H     -3.095604   -0.498585   -1.248050
  H     -0.816106   -2.423104   -0.805235
  H     -0.973600   -2.409929    0.970816
  H     -3.914415   -4.197271   -0.117406
  H     -2.295601   -4.426626   -0.834900
  H     -2.482445   -4.334660    0.937927

 Total Charge           Charge          ....    0
 Multiplicity           Mult            ....    1
 Number of Electrons    NEL             ....   70
 Basis Dimension        Dim             ....  351

ORBITAL ENERGIES
----------------

  NO   OCC          E(Eh)            E(eV)
   0   2.0000     -20.576692      -559.9203
   1   2.0000     -15.560510      -423.4230
   2   2.0000     -15.560430      -423.4208
   3   2.0000     -11.315482      -307.9099
   4   2.0000     -11.301467      -307.5286
   5   2.0000     -11.286497      -307.1212
   6   2.0000     -11.261252      -306.4342
   7   2.0000     -11.249004      -306.1010
   8   2.0000     -11.219171      -305.2892
   9   2.0000      -1.400920       -38.1210
  10   2.0000      -1.232596       -33.5406
  11   2.0000      -1.194859       -32.5138
  12   2.0000      -1.066133       -29.0109
  13   2.0000      -1.009378       -27.4666
  14   2.0000      -0.936298       -25.4780
  15   2.0000      -0.872742       -23.7485
  16   2.0000      -0.846820       -23.0432
  17   2.0000      -0.712169       -19.3791
  18   2.0000      -0.690388       -18.7864
  19   2.0000      -0.677206       -18.4277
  20   2.0000      -0.668291       -18.1851
  21   2.0000      -0.637549       -17.3486
  22   2.0000      -0.606406       -16.5012
  23   2.0000      -0.588726       -16.0200
  24   2.0000      -0.577564       -15.7163
  25   2.0000      -0.569457       -15.4957
  26   2.0000      -0.540522       -14.7083
  27   2.0000      -0.517139       -14.0721
  28   2.0000      -0.506852       -13.7921
  29   2.0000      -0.505204       -13.7473
  30   2.0000      -0.501964       -13.6591
  31   2.0000      -0.456056       -12.4099
  32   2.0000      -0.452207       -12.3052
  33   2.0000      -0.444556       -12.0970
  34   2.0000      -0.416630       -11.3371
  35   0.0000       0.118100         3.2137
  36   0.0000       0.143896         3.9156
  37   0.0000       0.156574         4.2606
  38   0.0000       0.162918         4.4332
  39   0.0000       0.172892         4.7046

MULLIKEN ATOMIC CHARGES
-----------------------
   0 C :   -0.397194
   1 C :   -0.245979
   2 C :    0.408847
   3 N :   -0.581128
   4 C :   -0.086003
   5 O :   -0.307424
   6 C :   -0.230112
   7 C :   -0.267166
   8 N :   -0.042939
   9 H :    0.134726
  10 H :    0.144099
  11 H :    0.151135
  12 H :    0.118420
  13 H :    0.125690
  14 H :    0.225057
  15 H :    0.252093
  16 H :    0.105068
  17 H :    0.110634
  18 H :    0.146499
  19 H :    0.113882
  20 H :    0.121795
Sum of atomic charges:    0.0000000

LOEWDIN ATOMIC CHARGES
----------------------
   0 C :   -0.306226
   1 C :   -0.237544
   2 C :   -0.356510
   3 N :   -0.097217
   4 C :   -0.291016
   5 O :    0.143330
   6 C :   -0.351529
   7 C :   -0.148462
   8 N :    0.066962
   9 H :    0.122921
  10 H :    0.128037
  11 H :    0.130956
  12 H :    0.141384
  13 H :    0.147483
  14 H :    0.160818
  15 H :    0.165993
  16 H :    0.124618
  17 H :    0.130915
  18 H :    0.116610
  19 H :    0.102786
  20 H :    0.105689

  Mayer bond orders larger than 0.1
B(  0-C ,  1-C ) :   0.9475 B(  0-C ,  9-H ) :   0.9370 B(  0-C , 10-H ) :   0.9323
B(  0-C , 11-H ) :   0.9318 B(  1-C ,  2-C ) :   0.8618 B(  1-C , 12-H ) :   0.9198
B(  1-C , 13-H ) :   0.9248 B(  2-C ,  3-N ) :   0.8578 B(  2-C ,  4-C ) :   0.9180
B(  2-C ,  7-C ) :   0.8916 B(  3-N , 14-H ) :   0.8818 B(  3-N , 15-H ) :   0.8773
B(  4-C ,  5-O ) :   0.9509 B(  4-C , 16-H ) :   0.9130 B(  4-C , 17-H ) :   0.9161
B(  5-O ,  6-C ) :   0.9118 B(  6-C , 18-H ) :   0.9382 B(  6-C , 19-H ) :   0.9363
B(  6-C , 20-H ) :   0.9372 B(  7-C ,  8-N ) :   2.8940

MP2 TOTAL ENERGY:     -419.705795951 Eh
FINAL SINGLE POINT ENERGY      -419.705795950513

DIPOLE MOMENT
-------------
                                X             Y             Z
Electronic contribution:     -5.27139       1.64184       3.72844
Nuclear contribution   :      6.33346      -2.97027      -4.96399
                        -----------------------------------------
Total Dipole Moment    :      1.06207      -1.32843      -1.23555
                        -----------------------------------------
Magnitude (a.u.)       :      2.10222
Magnitude (Debye)      :      5.34341

                             ****ORCA TERMINATED NORMALLY****
TOTAL RUN TIME: 0 days 0 hours 19 minutes 56 seconds 837 msec
