                         Program Version 3.0.3 - RELEASE   -
|  1> ! RI-MP2 RIJK def2-TZVP def2-TZVP/C def2-TZVP/JK TIGHTSCF
|  2> % maxcore 2000
|  3> % mp2 density relaxed end
|  4> *xyz 0 1
|  5>  C       -0.0200639680     1.4251266472    -0.1210936870
|  6>  N       -0.0168223902    -0.0314045567    -0.1349820138
|  7>  C        1.2555358540    -0.6364231590     0.2275259759
|  8>  C       -1.2312213473    -0.6588505588     0.0082216078
|  9>  N       -2.3093289682     0.0238612749     0.1276069508
| 10>  C       -1.1849385932    -2.2003497544     0.0054825752
| 11>  O       -0.7393672915    -2.7228622072     1.2477413304
| 12>  C       -2.5017118575    -2.7606263678    -0.3573084522
| 13>  N       -3.5324788703    -3.2146567697    -0.6144257210
| 14>  H        0.9114375403     1.7806028067    -0.5702387210
| 15>  H       -0.8734048859     1.7925979090    -0.6896750913
| 16>  H       -0.0968401697     1.8277700531     0.8987929216
| 17>  H        1.5525255847    -0.3710588404     1.2531805236
| 18>  H        1.2224798530    -1.7218344648     0.1721512971
| 19>  H        2.0339038176    -0.2764241912    -0.4532807204
| 20>  H       -3.1337240841    -0.5729227809     0.1050296164
| 21>  H       -0.4668331057    -2.5573933286    -0.7391738437
| 22>  H       -1.3112623281    -2.3656157415     1.9384443916
| 23> *
| 24>
| 25>                          ****END OF INPUT****

CARTESIAN COORDINATES (ANGSTROEM)
---------------------------------
  C     -0.020064    1.425127   -0.121094
  N     -0.016822   -0.031405   -0.134982
  C      1.255536   -0.636423    0.227526
  C     -1.231221   -0.658851    0.008222
  N     -2.309329    0.023861    0.127607
  C     -1.184939   -2.200350    0.005483
  O     -0.739367   -2.722862    1.247741
  C     -2.501712   -2.760626   -0.357308
  N     -3.532479   -3.214657   -0.614426
  H      0.911438    1.780603   -0.570239
  H     -0.873405    1.792598   -0.689675
  H     -0.096840    1.827770    0.898793
  H      1.552526   -0.371059    1.253181
  H      1.222480   -1.721834    0.172151
  H      2.033904   -0.276424   -0.453281
  H     -3.133724   -0.572923    0.105030
  H     -0.466833   -2.557393   -0.739174
  H     -1.311262   -2.365616    1.938444

 Total Charge           Charge          ....    0
 Multiplicity           Mult            ....    1
 Number of Electrons    NEL             ....   68
 Basis Dimension        Dim             ....  333

ORBITAL ENERGIES
----------------

  NO   OCC          E(Eh)            E(eV)
   0   2.0000     -20.610721      -560.8462
   1   2.0000     -15.593589      -424.3231
   2   2.0000     -15.593096      -424.3097
   3   2.0000     -15.542053      -422.9208
   4   2.0000     -11.365684      -309.2760
   5   2.0000     -11.339853      -308.5731
   6   2.0000     -11.290406      -307.2276
   7   2.0000     -11.274312      -306.7896
   8   2.0000     -11.257533      -306.3330
   9   2.0000      -1.420816       -38.6624
  10   2.0000      -1.297509       -35.3070
  11   2.0000      -1.237950       -33.6863
  12   2.0000      -1.183335       -32.2002
  13   2.0000      -1.036916       -28.2159
  14   2.0000      -0.975882       -26.5551
  15   2.0000      -0.937149       -25.5011
  16   2.0000      -0.787433       -21.4271
  17   2.0000      -0.778225       -21.1766
  18   2.0000      -0.728880       -19.8338
  19   2.0000      -0.690330       -18.7848
  20   2.0000      -0.660146       -17.9635
  21   2.0000      -0.645670       -17.5696
  22   2.0000      -0.614130       -16.7113
  23   2.0000      -0.600459       -16.3393
  24   2.0000      -0.583196       -15.8696
  25   2.0000      -0.571170       -15.5423
  26   2.0000      -0.561602       -15.2820
  27   2.0000      -0.541440       -14.7333
  28   2.0000      -0.527340       -14.3496
  29   2.0000      -0.491820       -13.3831
  30   2.0000      -0.483911       -13.1679
  31   2.0000      -0.480710       -13.0808
  32   2.0000      -0.432389       -11.7659
  33   2.0000      -0.359423        -9.7804
  34   0.0000       0.104054         2.8314
  35   0.0000       0.134990         3.6733
  36   0.0000       0.147169         4.0047
  37   0.0000       0.152004         4.1362
  38   0.0000       0.164900         4.4871

MULLIKEN ATOMIC CHARGES
-----------------------
   0 C :   -0.296323
   1 N :   -0.108958
   2 C :   -0.311420
   3 C :    0.041996
   4 N :   -0.409041
   5 C :    0.183253
   6 O :   -0.440628
   7 C :   -0.200192
   8 N :   -0.035094
   9 H :    0.131522
  10 H :    0.171847
  11 H :    0.130854
  12 H :    0.133356
  13 H :    0.160206
  14 H :    0.142564
  15 H :    0.224476
  16 H :    0.145268
  17 H :    0.336317
Sum of atomic charges:   -0.0000000

LOEWDIN ATOMIC CHARGES
----------------------
   0 C :   -0.289398
   1 N :    0.138738
   2 C :   -0.295479
   3 C :   -0.359071
   4 N :   -0.062964
   5 C :   -0.310018
   6 O :    0.015153
   7 C :   -0.175099
   8 N :    0.079384
   9 H :    0.119115
  10 H :    0.131805
  11 H :    0.116404
  12 H :    0.117192
  13 H :    0.126115
  14 H :    0.120337
  15 H :    0.165908
  16 H :    0.172164
  17 H :    0.189715

  Mayer bond orders larger than 0.1
B(  0-C ,  1-N ) :   0.8859 B(  0-C ,  9-H ) :   0.9274 B(  0-C , 10-H ) :   0.9268
B(  0-C , 11-H ) :   0.9318 B(  1-N ,  2-C ) :   0.8936 B(  1-N ,  3-C ) :   1.1754
B(  2-C , 12-H ) :   0.9273 B(  2-C , 13-H ) :   0.9239 B(  2-C , 14-H ) :   0.9325
B(  3-C ,  4-N ) :   1.8407 B(  3-C ,  5-C ) :   0.8880 B(  4-N , 15-H ) :   0.8615
B(  5-C ,  6-O ) :   0.8627 B(  5-C ,  7-C ) :   0.9293 B(  5-C , 16-H ) :   0.8989
B(  6-O , 17-H ) :   0.8293 B(  7-C ,  8-N ) :   2.8495

MP2 TOTAL ENERGY:     -434.543892124 Eh
FINAL SINGLE POINT ENERGY      -434.543892124121

DIPOLE MOMENT
-------------
                                X             Y             Z
Electronic contribution:     -7.47088      -7.12423      -0.77873
Nuclear contribution   :      9.02226       7.57535       1.12299
                        -----------------------------------------
Total Dipole Moment    :      1.55138       0.45112       0.34426
                        -----------------------------------------
Magnitude (a.u.)       :      1.65191
Magnitude (Debye)      :      4.19883

                             ****ORCA TERMINATED NORMALLY****
TOTAL RUN TIME: 0 days 0 hours 19 minutes 26 seconds 646 msec
