                         Program Version 3.0.3 - RELEASE   -
|  1> ! RI-MP2 RIJK def2-TZVP def2-TZVP/C def2-TZVP/JK TIGHTSCF
|  2> % maxcore 2000
|  3> % mp2 density relaxed end
|  4> *xyz 0 1
|  5>  O       -0.1519425285    -0.0048558990    -0.0265994122
|  6>  C       -0.0290439252     1.1919938557     0.0089657001
|  7>  C        1.2836885705     1.9417567095     0.0015071808
|  8>  C        1.3807265919     2.8234771824    -1.2617606076
|  9>  C        2.7278502238     3.5570055817    -1.3181749138
| 10>  C        3.1005347328     4.1633540560     0.0088802689
| 11>  C        2.5010850476     3.8434429038     1.1542322601
| 12>  C        1.4070987276     2.8138109754     1.2686472454
| 13>  H       -0.9260015050     1.8584894434     0.0452197710
| 14>  H        2.0859319834     1.1961364828    -0.0130162829
| 15>  H        1.2426651971     2.2135612170    -2.1607146315
| 16>  H        0.5659374276     3.5591120819    -1.2461142215
| 17>  H        3.5194461811     2.8663864355    -1.6441764216
| 18>  H        2.6896304285     4.3392041038    -2.0865978241
| 19>  H        3.9010276110     4.8990758296     0.0070482066
| 20>  H        2.8017584719     4.3316129875     2.0781610044
| 21>  H        0.4476866806     3.3153703933     1.4732237695
| 22>  H        1.5900523133     2.1713980994     2.1388286485
| 23> *
| 24>
| 25>                          ****END OF INPUT****

CARTESIAN COORDINATES (ANGSTROEM)
---------------------------------
  O     -0.151943   -0.004856   -0.026599
  C     -0.029044    1.191994    0.008966
  C      1.283689    1.941757    0.001507
  C      1.380727    2.823477   -1.261761
  C      2.727850    3.557006   -1.318175
  C      3.100535    4.163354    0.008880
  C      2.501085    3.843443    1.154232
  C      1.407099    2.813811    1.268647
  H     -0.926002    1.858489    0.045220
  H      2.085932    1.196136   -0.013016
  H      1.242665    2.213561   -2.160715
  H      0.565937    3.559112   -1.246114
  H      3.519446    2.866386   -1.644176
  H      2.689630    4.339204   -2.086598
  H      3.901028    4.899076    0.007048
  H      2.801758    4.331613    2.078161
  H      0.447687    3.315370    1.473224
  H      1.590052    2.171398    2.138829

 Total Charge           Charge          ....    0
 Multiplicity           Mult            ....    1
 Number of Electrons    NEL             ....   60
 Basis Dimension        Dim             ....  308

ORBITAL ENERGIES
----------------

  NO   OCC          E(Eh)            E(eV)
   0   2.0000     -20.555825      -559.3524
   1   2.0000     -11.328157      -308.2548
   2   2.0000     -11.244302      -305.9730
   3   2.0000     -11.242961      -305.9365
   4   2.0000     -11.239405      -305.8398
   5   2.0000     -11.236859      -305.7705
   6   2.0000     -11.234482      -305.7058
   7   2.0000     -11.232567      -305.6537
   8   2.0000      -1.394399       -37.9435
   9   2.0000      -1.139905       -31.0184
  10   2.0000      -1.039434       -28.2844
  11   2.0000      -1.019371       -27.7385
  12   2.0000      -0.885293       -24.0901
  13   2.0000      -0.854475       -23.2514
  14   2.0000      -0.789580       -21.4856
  15   2.0000      -0.721665       -19.6375
  16   2.0000      -0.684645       -18.6301
  17   2.0000      -0.649189       -17.6653
  18   2.0000      -0.637949       -17.3595
  19   2.0000      -0.602759       -16.4019
  20   2.0000      -0.594230       -16.1698
  21   2.0000      -0.574016       -15.6198
  22   2.0000      -0.551045       -14.9947
  23   2.0000      -0.540963       -14.7203
  24   2.0000      -0.523174       -14.2363
  25   2.0000      -0.491953       -13.3867
  26   2.0000      -0.479049       -13.0356
  27   2.0000      -0.459095       -12.4926
  28   2.0000      -0.410690       -11.1754
  29   2.0000      -0.356839        -9.7101
  30   0.0000       0.129244         3.5169
  31   0.0000       0.133705         3.6383
  32   0.0000       0.149625         4.0715
  33   0.0000       0.154812         4.2127
  34   0.0000       0.163600         4.4518

MULLIKEN ATOMIC CHARGES
-----------------------
   0 O :   -0.258510
   1 C :    0.067711
   2 C :    0.038139
   3 C :   -0.293286
   4 C :   -0.140005
   5 C :   -0.198928
   6 C :   -0.167193
   7 C :   -0.224536
   8 H :    0.068568
   9 H :    0.098096
  10 H :    0.140270
  11 H :    0.115570
  12 H :    0.121980
  13 H :    0.128758
  14 H :    0.123648
  15 H :    0.124510
  16 H :    0.117455
  17 H :    0.137752
Sum of atomic charges:   -0.0000000

LOEWDIN ATOMIC CHARGES
----------------------
   0 O :    0.134843
   1 C :   -0.276729
   2 C :   -0.243032
   3 C :   -0.225973
   4 C :   -0.251628
   5 C :   -0.173140
   6 C :   -0.172155
   7 C :   -0.225418
   8 H :    0.111600
   9 H :    0.161714
  10 H :    0.142154
  11 H :    0.144004
  12 H :    0.146573
  13 H :    0.144960
  14 H :    0.142473
  15 H :    0.142991
  16 H :    0.147774
  17 H :    0.148990

  Mayer bond orders larger than 0.1
B(  0-O ,  1-C ) :   2.0143 B(  1-C ,  2-C ) :   0.8414 B(  1-C ,  8-H ) :   0.9400
B(  2-C ,  3-C ) :   0.8958 B(  2-C ,  7-C ) :   0.9356 B(  2-C ,  9-H ) :   0.8985
B(  3-C ,  4-C ) :   0.9405 B(  3-C , 10-H ) :   0.9342 B(  3-C , 11-H ) :   0.9196
B(  4-C ,  5-C ) :   0.9434 B(  4-C , 12-H ) :   0.9113 B(  4-C , 13-H ) :   0.9276
B(  5-C ,  6-C ) :   1.8079 B(  5-C , 14-H ) :   0.9291 B(  6-C ,  7-C ) :   0.9223
B(  6-C , 15-H ) :   0.9278 B(  7-C , 16-H ) :   0.9036 B(  7-C , 17-H ) :   0.9242

MP2 TOTAL ENERGY:     -347.218901499 Eh
FINAL SINGLE POINT ENERGY      -347.218901499123

DIPOLE MOMENT
-------------
                                X             Y             Z
Electronic contribution:     -2.44632      -4.36074       0.96889
Nuclear contribution   :      2.79894       5.37738      -1.02301
                        -----------------------------------------
Total Dipole Moment    :      0.35263       1.01664      -0.05412
                        -----------------------------------------
Magnitude (a.u.)       :      1.07742
Magnitude (Debye)      :      2.73858

                             ****ORCA TERMINATED NORMALLY****
TOTAL RUN TIME: 0 days 0 hours 13 minutes 57 seconds 193 msec
