                         Program Version 3.0.3 - RELEASE   -
|  1> ! RI-MP2 RIJK def2-TZVP def2-TZVP/C def2-TZVP/JK TIGHTSCF
|  2> % maxcore 2000
|  3> % mp2 density relaxed end
|  4> *xyz 0 1
|  5>  C        0.0104634783     1.4223485121     0.0319338724
|  6>  C        0.0079874956    -0.0734439546    -0.0569479319
|  7>  C       -0.9451682177    -0.9865496611     0.7209664597
|  8>  C        0.5548241997    -1.0980978425     0.9178371706
|  9>  C        0.5374460950    -2.1050523783    -0.2597582808
| 10>  O        1.4378767203    -3.1391651589    -0.3683963965
| 11>  C       -1.0508601755    -2.1916669518    -0.2427087772
| 12>  C       -1.1021061253    -1.6108677131    -1.6773547087
| 13>  C        0.2519397299    -0.9532528654    -1.3132456019
| 14>  H        0.9777226307     1.8418403989    -0.2674394629
| 15>  H       -0.7583597484     1.8624035249    -0.6147442533
| 16>  H       -0.1902053577     1.7531888853     1.0570085809
| 17>  H       -1.6867556393    -0.6036565614     1.4106671529
| 18>  H        1.1731404783    -0.9963593358     1.7996773529
| 19>  H        1.2611364919    -3.6217046691    -1.1842712757
| 20>  H       -1.6126987622    -3.0706749898     0.0728707096
| 21>  H       -0.9907466868    -2.3885971816    -2.4415708967
| 22>  H       -1.9404673569    -0.9589659030    -1.9416589598
| 23>  H        0.9749275102    -0.6094187650    -2.0537301136
| 24> *
| 25>
| 26>                          ****END OF INPUT****

CARTESIAN COORDINATES (ANGSTROEM)
---------------------------------
  C      0.010463    1.422349    0.031934
  C      0.007987   -0.073444   -0.056948
  C     -0.945168   -0.986550    0.720966
  C      0.554824   -1.098098    0.917837
  C      0.537446   -2.105052   -0.259758
  O      1.437877   -3.139165   -0.368396
  C     -1.050860   -2.191667   -0.242709
  C     -1.102106   -1.610868   -1.677355
  C      0.251940   -0.953253   -1.313246
  H      0.977723    1.841840   -0.267439
  H     -0.758360    1.862404   -0.614744
  H     -0.190205    1.753189    1.057009
  H     -1.686756   -0.603657    1.410667
  H      1.173140   -0.996359    1.799677
  H      1.261136   -3.621705   -1.184271
  H     -1.612699   -3.070675    0.072871
  H     -0.990747   -2.388597   -2.441571
  H     -1.940467   -0.958966   -1.941659
  H      0.974928   -0.609419   -2.053730

 Total Charge           Charge          ....    0
 Multiplicity           Mult            ....    1
 Number of Electrons    NEL             ....   66
 Basis Dimension        Dim             ....  339

ORBITAL ENERGIES
----------------

  NO   OCC          E(Eh)            E(eV)
   0   2.0000     -20.568527      -559.6981
   1   2.0000     -11.289966      -307.2156
   2   2.0000     -11.235730      -305.7398
   3   2.0000     -11.227823      -305.5246
   4   2.0000     -11.227261      -305.5093
   5   2.0000     -11.225958      -305.4739
   6   2.0000     -11.223001      -305.3934
   7   2.0000     -11.220315      -305.3203
   8   2.0000     -11.219600      -305.3008
   9   2.0000      -1.380678       -37.5701
  10   2.0000      -1.241906       -33.7940
  11   2.0000      -1.042422       -28.3657
  12   2.0000      -0.984096       -26.7786
  13   2.0000      -0.921433       -25.0735
  14   2.0000      -0.868711       -23.6388
  15   2.0000      -0.807968       -21.9859
  16   2.0000      -0.736649       -20.0452
  17   2.0000      -0.708688       -19.2844
  18   2.0000      -0.691781       -18.8243
  19   2.0000      -0.654389       -17.8068
  20   2.0000      -0.613997       -16.7077
  21   2.0000      -0.592475       -16.1221
  22   2.0000      -0.586107       -15.9488
  23   2.0000      -0.562926       -15.3180
  24   2.0000      -0.559080       -15.2134
  25   2.0000      -0.538569       -14.6552
  26   2.0000      -0.520851       -14.1731
  27   2.0000      -0.472068       -12.8456
  28   2.0000      -0.466582       -12.6963
  29   2.0000      -0.409133       -11.1331
  30   2.0000      -0.401299       -10.9199
  31   2.0000      -0.376868       -10.2551
  32   2.0000      -0.341586        -9.2950
  33   0.0000       0.133581         3.6349
  34   0.0000       0.146119         3.9761
  35   0.0000       0.168065         4.5733
  36   0.0000       0.177722         4.8361
  37   0.0000       0.188678         5.1342

MULLIKEN ATOMIC CHARGES
-----------------------
   0 C :   -0.417705
   1 C :    0.001792
   2 C :   -0.191180
   3 C :   -0.197795
   4 C :    0.180088
   5 O :   -0.440960
   6 C :   -0.067386
   7 C :   -0.286582
   8 C :   -0.045110
   9 H :    0.136154
  10 H :    0.132410
  11 H :    0.132882
  12 H :    0.134359
  13 H :    0.142202
  14 H :    0.322905
  15 H :    0.124723
  16 H :    0.107867
  17 H :    0.113000
  18 H :    0.118338
Sum of atomic charges:    0.0000000

LOEWDIN ATOMIC CHARGES
----------------------
   0 C :   -0.274086
   1 C :   -0.180907
   2 C :   -0.118978
   3 C :   -0.095652
   4 C :   -0.259238
   5 O :    0.039284
   6 C :   -0.146737
   7 C :   -0.212651
   8 C :   -0.126239
   9 H :    0.127805
  10 H :    0.128531
  11 H :    0.131901
  12 H :    0.137120
  13 H :    0.135268
  14 H :    0.186871
  15 H :    0.133520
  16 H :    0.132770
  17 H :    0.126467
  18 H :    0.134951

  Mayer bond orders larger than 0.1
B(  0-C ,  1-C ) :   0.8568 B(  0-C ,  9-H ) :   0.9480 B(  0-C , 10-H ) :   0.9391
B(  0-C , 11-H ) :   0.9378 B(  1-C ,  2-C ) :   0.8949 B(  1-C ,  3-C ) :   0.8449
B(  1-C ,  8-C ) :   0.8846 B(  2-C ,  3-C ) :   0.8352 B(  2-C ,  6-C ) :   0.8737
B(  2-C , 12-H ) :   0.9264 B(  3-C ,  4-C ) :   0.9729 B(  3-C , 13-H ) :   0.9062
B(  4-C ,  5-O ) :   1.0133 B(  4-C ,  6-C ) :   0.9077 B(  4-C ,  8-C ) :   0.9195
B(  5-O , 14-H ) :   0.8323 B(  6-C ,  7-C ) :   0.9256 B(  6-C , 15-H ) :   0.9091
B(  7-C ,  8-C ) :   0.9047 B(  7-C , 16-H ) :   0.9265 B(  7-C , 17-H ) :   0.9073
B(  8-C , 18-H ) :   0.9102

MP2 TOTAL ENERGY:     -385.144299552 Eh
FINAL SINGLE POINT ENERGY      -385.144299551800

DIPOLE MOMENT
-------------
                                X             Y             Z
Electronic contribution:      2.22789      -4.87313       1.01191
Nuclear contribution   :     -2.54804       4.98907      -1.39900
                        -----------------------------------------
Total Dipole Moment    :     -0.32015       0.11594      -0.38709
                        -----------------------------------------
Magnitude (a.u.)       :      0.51554
Magnitude (Debye)      :      1.31039

                             ****ORCA TERMINATED NORMALLY****
TOTAL RUN TIME: 0 days 0 hours 24 minutes 5 seconds 676 msec
