                         Program Version 3.0.3 - RELEASE   -
|  1> ! RI-MP2 RIJK def2-TZVP def2-TZVP/C def2-TZVP/JK TIGHTSCF
|  2> % maxcore 2000
|  3> % mp2 density relaxed end
|  4> *xyz 0 1
|  5>  O       -0.0406416989     0.0074226128     0.0033913446
|  6>  C       -0.0081839397     1.1918893743     0.0165952338
|  7>  O       -1.1521167461     1.9865684160    -0.0333691183
|  8>  C       -0.7107691418     3.2870200629    -0.0114973863
|  9>  N        0.5318694905     3.5202253790     0.0409036121
| 10>  C        1.1715554902     2.1912139834     0.0620912693
| 11>  C        2.0333947211     1.9831164588     1.2151119170
| 12>  C        2.7344563827     1.7968711727     2.1707509681
| 13>  H       -1.4998302975     4.0284334188    -0.0456065651
| 14>  H        1.7524568073     2.0640522258    -0.8616820392
| 15>  H        3.3589552221     1.6334638456     3.0144490140
| 16> *
| 17>
| 18>                          ****END OF INPUT****

CARTESIAN COORDINATES (ANGSTROEM)
---------------------------------
  O     -0.040642    0.007423    0.003391
  C     -0.008184    1.191889    0.016595
  O     -1.152117    1.986568   -0.033369
  C     -0.710769    3.287020   -0.011497
  N      0.531869    3.520225    0.040904
  C      1.171555    2.191214    0.062091
  C      2.033395    1.983116    1.215112
  C      2.734456    1.796871    2.170751
  H     -1.499830    4.028433   -0.045607
  H      1.752457    2.064052   -0.861682
  H      3.358955    1.633464    3.014449

 Total Charge           Charge          ....    0
 Multiplicity           Mult            ....    1
 Number of Electrons    NEL             ....   56
 Basis Dimension        Dim             ....  266

ORBITAL ENERGIES
----------------

  NO   OCC          E(Eh)            E(eV)
   0   2.0000     -20.653320      -562.0054
   1   2.0000     -20.583574      -560.1075
   2   2.0000     -15.595652      -424.3793
   3   2.0000     -11.417184      -310.6774
   4   2.0000     -11.375334      -309.5386
   5   2.0000     -11.334668      -308.4320
   6   2.0000     -11.257081      -306.3208
   7   2.0000     -11.249397      -306.1116
   8   2.0000      -1.515258       -41.2323
   9   2.0000      -1.422064       -38.6963
  10   2.0000      -1.267803       -34.4987
  11   2.0000      -1.089195       -29.6385
  12   2.0000      -1.010913       -27.5083
  13   2.0000      -0.899296       -24.4711
  14   2.0000      -0.823083       -22.3972
  15   2.0000      -0.768710       -20.9177
  16   2.0000      -0.742249       -20.1976
  17   2.0000      -0.711610       -19.3639
  18   2.0000      -0.684363       -18.6225
  19   2.0000      -0.642952       -17.4956
  20   2.0000      -0.636804       -17.3283
  21   2.0000      -0.620637       -16.8884
  22   2.0000      -0.553162       -15.0523
  23   2.0000      -0.527225       -14.3465
  24   2.0000      -0.464196       -12.6314
  25   2.0000      -0.442443       -12.0395
  26   2.0000      -0.415277       -11.3003
  27   2.0000      -0.407959       -11.1011
  28   0.0000       0.108153         2.9430
  29   0.0000       0.136213         3.7065
  30   0.0000       0.142674         3.8823
  31   0.0000       0.158727         4.3192
  32   0.0000       0.161557         4.3962

MULLIKEN ATOMIC CHARGES
-----------------------
   0 O :   -0.229775
   1 C :    0.255329
   2 O :   -0.204109
   3 C :    0.124346
   4 N :   -0.243420
   5 C :   -0.090794
   6 C :   -0.057003
   7 C :   -0.083831
   8 H :    0.164968
   9 H :    0.161250
  10 H :    0.203039
Sum of atomic charges:   -0.0000000

LOEWDIN ATOMIC CHARGES
----------------------
   0 O :    0.192679
   1 C :   -0.381627
   2 O :    0.282249
   3 C :   -0.295476
   4 N :    0.113898
   5 C :   -0.235099
   6 C :   -0.077704
   7 C :   -0.057893
   8 H :    0.139866
   9 H :    0.187072
  10 H :    0.132035

  Mayer bond orders larger than 0.1
B(  0-O ,  1-C ) :   2.0785 B(  1-C ,  2-O ) :   0.9999 B(  1-C ,  5-C ) :   0.9109
B(  2-O ,  3-C ) :   0.9916 B(  3-C ,  4-N ) :   1.8169 B(  3-C ,  8-H ) :   0.9180
B(  4-N ,  5-C ) :   0.9468 B(  5-C ,  6-C ) :   1.1674 B(  5-C ,  7-C ) :  -0.1077
B(  5-C ,  9-H ) :   0.8740 B(  6-C ,  7-C ) :   2.5779 B(  7-C , 10-H ) :   0.8878

MP2 TOTAL ENERGY:     -396.736596949 Eh
FINAL SINGLE POINT ENERGY      -396.736596949136

DIPOLE MOMENT
-------------
                                X             Y             Z
Electronic contribution:     -1.88251      -1.11341      -0.83385
Nuclear contribution   :      1.94439       1.69341       0.83530
                        -----------------------------------------
Total Dipole Moment    :      0.06187       0.58000       0.00145
                        -----------------------------------------
Magnitude (a.u.)       :      0.58329
Magnitude (Debye)      :      1.48261

                             ****ORCA TERMINATED NORMALLY****
TOTAL RUN TIME: 0 days 0 hours 9 minutes 23 seconds 156 msec
