                         Program Version 3.0.3 - RELEASE   -
|  1> ! RI-MP2 RIJK def2-TZVP def2-TZVP/C def2-TZVP/JK TIGHTSCF
|  2> % maxcore 2000
|  3> % mp2 density relaxed end
|  4> *xyz 0 1
|  5>  O       -0.2211513738     1.4551979437    -0.4581486317
|  6>  C        0.0025699763     0.0633123471    -0.3470285334
|  7>  C       -1.2543192272    -0.6217659422     0.1621784678
|  8>  O       -2.3439367644    -0.4642735358    -0.7924725023
|  9>  C       -2.6029058346    -1.8836550913    -0.7892112351
| 10>  C       -1.8427023812    -2.6398180642    -1.9079565843
| 11>  C       -0.7792859325    -3.0753665833    -0.8482326967
| 12>  O        0.5942479240    -3.0226077168    -1.1281421461
| 13>  C       -1.4452301150    -2.1556978631     0.2175174380
| 14>  H       -1.0097726442     1.5593431458    -1.0045319440
| 15>  H        0.2998297634    -0.3527683020    -1.3229141253
| 16>  H        0.8324156027    -0.0794959956     0.3528104970
| 17>  H       -1.5304519012    -0.1452892592     1.1125566455
| 18>  H       -3.6551924724    -2.1172667039    -0.6175682958
| 19>  H       -2.3720795896    -3.4600566134    -2.3982255348
| 20>  H       -1.4705274568    -1.9509504594    -2.6711300196
| 21>  H       -0.9654962589    -4.1115611650    -0.5490427954
| 22>  H        0.7933106465    -2.1840571419    -1.5550215618
| 23>  H       -1.5732875210    -2.5726462995     1.2156293481
| 24> *
| 25>
| 26>                          ****END OF INPUT****

CARTESIAN COORDINATES (ANGSTROEM)
---------------------------------
  O     -0.221151    1.455198   -0.458149
  C      0.002570    0.063312   -0.347029
  C     -1.254319   -0.621766    0.162178
  O     -2.343937   -0.464274   -0.792473
  C     -2.602906   -1.883655   -0.789211
  C     -1.842702   -2.639818   -1.907957
  C     -0.779286   -3.075367   -0.848233
  O      0.594248   -3.022608   -1.128142
  C     -1.445230   -2.155698    0.217517
  H     -1.009773    1.559343   -1.004532
  H      0.299830   -0.352768   -1.322914
  H      0.832416   -0.079496    0.352810
  H     -1.530452   -0.145289    1.112557
  H     -3.655192   -2.117267   -0.617568
  H     -2.372080   -3.460057   -2.398226
  H     -1.470527   -1.950950   -2.671130
  H     -0.965496   -4.111561   -0.549043
  H      0.793311   -2.184057   -1.555022
  H     -1.573288   -2.572646    1.215629

 Total Charge           Charge          ....    0
 Multiplicity           Mult            ....    1
 Number of Electrons    NEL             ....   70
 Basis Dimension        Dim             ....  339

ORBITAL ENERGIES
----------------

  NO   OCC          E(Eh)            E(eV)
   0   2.0000     -20.567816      -559.6787
   1   2.0000     -20.560326      -559.4749
   2   2.0000     -20.559900      -559.4633
   3   2.0000     -11.296821      -307.4021
   4   2.0000     -11.296622      -307.3967
   5   2.0000     -11.295371      -307.3627
   6   2.0000     -11.286764      -307.1285
   7   2.0000     -11.243526      -305.9519
   8   2.0000     -11.235100      -305.7226
   9   2.0000      -1.398128       -38.0450
  10   2.0000      -1.375235       -37.4221
  11   2.0000      -1.362466       -37.0746
  12   2.0000      -1.113327       -30.2952
  13   2.0000      -1.018975       -27.7277
  14   2.0000      -0.930485       -25.3198
  15   2.0000      -0.885756       -24.1026
  16   2.0000      -0.836873       -22.7725
  17   2.0000      -0.758304       -20.6345
  18   2.0000      -0.715456       -19.4685
  19   2.0000      -0.696060       -18.9407
  20   2.0000      -0.682154       -18.5624
  21   2.0000      -0.650917       -17.7124
  22   2.0000      -0.637230       -17.3399
  23   2.0000      -0.615630       -16.7521
  24   2.0000      -0.588493       -16.0137
  25   2.0000      -0.572348       -15.5744
  26   2.0000      -0.564083       -15.3495
  27   2.0000      -0.549144       -14.9430
  28   2.0000      -0.535256       -14.5651
  29   2.0000      -0.510136       -13.8815
  30   2.0000      -0.477356       -12.9895
  31   2.0000      -0.450161       -12.2495
  32   2.0000      -0.434669       -11.8280
  33   2.0000      -0.428309       -11.6549
  34   2.0000      -0.407434       -11.0868
  35   0.0000       0.133553         3.6342
  36   0.0000       0.141877         3.8607
  37   0.0000       0.156655         4.2628
  38   0.0000       0.163052         4.4369
  39   0.0000       0.181772         4.9463

MULLIKEN ATOMIC CHARGES
-----------------------
   0 O :   -0.470149
   1 C :    0.000178
   2 C :   -0.014243
   3 O :   -0.347841
   4 C :    0.005036
   5 C :   -0.204667
   6 C :   -0.059345
   7 O :   -0.435577
   8 C :    0.005038
   9 H :    0.329561
  10 H :    0.048576
  11 H :    0.132237
  12 H :    0.094005
  13 H :    0.113137
  14 H :    0.129332
  15 H :    0.121110
  16 H :    0.108302
  17 H :    0.311983
  18 H :    0.133326
Sum of atomic charges:    0.0000000

LOEWDIN ATOMIC CHARGES
----------------------
   0 O :   -0.036553
   1 C :   -0.338969
   2 C :   -0.266336
   3 O :    0.139184
   4 C :   -0.227910
   5 C :   -0.209036
   6 C :   -0.316358
   7 O :   -0.005358
   8 C :   -0.159277
   9 H :    0.181234
  10 H :    0.108664
  11 H :    0.136314
  12 H :    0.145255
  13 H :    0.126854
  14 H :    0.131831
  15 H :    0.137903
  16 H :    0.148456
  17 H :    0.164806
  18 H :    0.139297

  Mayer bond orders larger than 0.1
B(  0-O ,  1-C ) :   0.9239 B(  0-O ,  9-H ) :   0.8330 B(  1-C ,  2-C ) :   0.9524
B(  1-C , 10-H ) :   0.9019 B(  1-C , 11-H ) :   0.9218 B(  2-C ,  3-O ) :   0.9012
B(  2-C ,  8-C ) :   0.9204 B(  2-C , 12-H ) :   0.9195 B(  3-O ,  4-C ) :   0.9607
B(  4-C ,  5-C ) :   0.8937 B(  4-C ,  8-C ) :   0.9047 B(  4-C , 13-H ) :   0.9305
B(  5-C ,  6-C ) :   0.9367 B(  5-C , 14-H ) :   0.9167 B(  5-C , 15-H ) :   0.9027
B(  6-C ,  7-O ) :   1.0019 B(  6-C ,  8-C ) :   0.8359 B(  6-C , 16-H ) :   0.9291
B(  7-O , 17-H ) :   0.8364 B(  8-C , 18-H ) :   0.9252

MP2 TOTAL ENERGY:     -459.384699312 Eh
FINAL SINGLE POINT ENERGY      -459.384699312458

DIPOLE MOMENT
-------------
                                X             Y             Z
Electronic contribution:     -0.44975       1.47133       0.60376
Nuclear contribution   :     -0.06888      -2.04036      -0.65744
                        -----------------------------------------
Total Dipole Moment    :     -0.51863      -0.56903      -0.05367
                        -----------------------------------------
Magnitude (a.u.)       :      0.77178
Magnitude (Debye)      :      1.96172

                             ****ORCA TERMINATED NORMALLY****
TOTAL RUN TIME: 0 days 0 hours 26 minutes 16 seconds 751 msec
