                         Program Version 3.0.3 - RELEASE   -
|  1> ! RI-MP2 RIJK def2-TZVP def2-TZVP/C def2-TZVP/JK TIGHTSCF
|  2> % maxcore 2000
|  3> % mp2 density relaxed end
|  4> *xyz 0 1
|  5>  C        0.0134039669     1.3598176387     0.0846652835
|  6>  O       -0.0368999614    -0.0460441876    -0.0215653859
|  7>  C        0.6554533938    -0.5393336505    -1.1381547552
|  8>  C        0.5954503126    -2.0708767725    -1.0980664024
|  9>  C        1.1953912782    -2.7113378159    -2.3744126327
| 10>  O        1.1119990217    -4.1154996080    -2.3650204992
| 11>  C        1.2951084090    -2.6019056041     0.0751446300
| 12>  N        1.8899385300    -3.0720635422     0.9479283605
| 13>  H        1.0480095282     1.7222403453     0.1820449989
| 14>  H       -0.4456383767     1.8502343948    -0.7877190593
| 15>  H       -0.5452081324     1.6354212121     0.9813615395
| 16>  H        0.1953891515    -0.1890289857    -2.0778683126
| 17>  H        1.7042841358    -0.1999554522    -1.1364915858
| 18>  H       -0.4556577480    -2.3715844018    -1.0242955542
| 19>  H        0.6141194202    -2.3721510456    -3.2370687976
| 20>  H        2.2299670944    -2.3591109623    -2.5048019638
| 21>  H        1.6665829963    -4.4448689424    -1.6479491236
| 22> *
| 23>
| 24>                          ****END OF INPUT****

CARTESIAN COORDINATES (ANGSTROEM)
---------------------------------
  C      0.013404    1.359818    0.084665
  O     -0.036900   -0.046044   -0.021565
  C      0.655453   -0.539334   -1.138155
  C      0.595450   -2.070877   -1.098066
  C      1.195391   -2.711338   -2.374413
  O      1.111999   -4.115500   -2.365020
  C      1.295108   -2.601906    0.075145
  N      1.889939   -3.072064    0.947928
  H      1.048010    1.722240    0.182045
  H     -0.445638    1.850234   -0.787719
  H     -0.545208    1.635421    0.981362
  H      0.195389   -0.189029   -2.077868
  H      1.704284   -0.199955   -1.136492
  H     -0.455658   -2.371584   -1.024296
  H      0.614119   -2.372151   -3.237069
  H      2.229967   -2.359111   -2.504802
  H      1.666583   -4.444869   -1.647949

 Total Charge           Charge          ....    0
 Multiplicity           Mult            ....    1
 Number of Electrons    NEL             ....   62
 Basis Dimension        Dim             ....  302

ORBITAL ENERGIES
----------------

  NO   OCC          E(Eh)            E(eV)
   0   2.0000     -20.578916      -559.9808
   1   2.0000     -20.575381      -559.8846
   2   2.0000     -15.573557      -423.7780
   3   2.0000     -11.311069      -307.7898
   4   2.0000     -11.308848      -307.7294
   5   2.0000     -11.289008      -307.1895
   6   2.0000     -11.287217      -307.1408
   7   2.0000     -11.276167      -306.8401
   8   2.0000      -1.402445       -38.1625
   9   2.0000      -1.384482       -37.6737
  10   2.0000      -1.223425       -33.2911
  11   2.0000      -1.103672       -30.0324
  12   2.0000      -0.971703       -26.4414
  13   2.0000      -0.903652       -24.5896
  14   2.0000      -0.881859       -23.9966
  15   2.0000      -0.738983       -20.1088
  16   2.0000      -0.715609       -19.4727
  17   2.0000      -0.679317       -18.4852
  18   2.0000      -0.674727       -18.3602
  19   2.0000      -0.656825       -17.8731
  20   2.0000      -0.618972       -16.8431
  21   2.0000      -0.599502       -16.3133
  22   2.0000      -0.579636       -15.7727
  23   2.0000      -0.557334       -15.1658
  24   2.0000      -0.547795       -14.9063
  25   2.0000      -0.517889       -14.0925
  26   2.0000      -0.507801       -13.8180
  27   2.0000      -0.485153       -13.2017
  28   2.0000      -0.461015       -12.5449
  29   2.0000      -0.451802       -12.2942
  30   2.0000      -0.446832       -12.1589
  31   0.0000       0.118364         3.2208
  32   0.0000       0.142249         3.8708
  33   0.0000       0.156188         4.2501
  34   0.0000       0.159596         4.3428
  35   0.0000       0.173377         4.7178

MULLIKEN ATOMIC CHARGES
-----------------------
   0 C :   -0.222514
   1 O :   -0.296422
   2 C :   -0.080161
   3 C :    0.098031
   4 C :   -0.041503
   5 O :   -0.465685
   6 C :   -0.244909
   7 N :   -0.053711
   8 H :    0.119482
   9 H :    0.114453
  10 H :    0.148003
  11 H :    0.112672
  12 H :    0.108395
  13 H :    0.130333
  14 H :    0.126748
  15 H :    0.114076
  16 H :    0.332712
Sum of atomic charges:    0.0000000

LOEWDIN ATOMIC CHARGES
----------------------
   0 C :   -0.350339
   1 O :    0.148191
   2 C :   -0.297434
   3 C :   -0.252456
   4 C :   -0.311858
   5 O :   -0.024411
   6 C :   -0.179196
   7 N :    0.061865
   8 H :    0.104558
   9 H :    0.103216
  10 H :    0.117288
  11 H :    0.127249
  12 H :    0.128262
  13 H :    0.181649
  14 H :    0.135235
  15 H :    0.125083
  16 H :    0.183098

  Mayer bond orders larger than 0.1
B(  0-C ,  1-O ) :   0.9086 B(  0-C ,  8-H ) :   0.9363 B(  0-C ,  9-H ) :   0.9363
B(  0-C , 10-H ) :   0.9379 B(  1-O ,  2-C ) :   0.9593 B(  2-C ,  3-C ) :   0.9165
B(  2-C , 11-H ) :   0.9248 B(  2-C , 12-H ) :   0.9074 B(  3-C ,  4-C ) :   0.8970
B(  3-C ,  6-C ) :   0.9060 B(  3-C , 13-H ) :   0.8894 B(  4-C ,  5-O ) :   0.9581
B(  4-C , 14-H ) :   0.9256 B(  4-C , 15-H ) :   0.9184 B(  5-O , 16-H ) :   0.8338
B(  6-C ,  7-N ) :   2.8610

MP2 TOTAL ENERGY:     -400.349281228 Eh
FINAL SINGLE POINT ENERGY      -400.349281227583

DIPOLE MOMENT
-------------
                                X             Y             Z
Electronic contribution:      1.12820      -6.66258       2.97350
Nuclear contribution   :     -1.31722       7.98602      -3.98088
                        -----------------------------------------
Total Dipole Moment    :     -0.18902       1.32345      -1.00738
                        -----------------------------------------
Magnitude (a.u.)       :      1.67393
Magnitude (Debye)      :      4.25479

                             ****ORCA TERMINATED NORMALLY****
TOTAL RUN TIME: 0 days 0 hours 10 minutes 21 seconds 286 msec
