                         Program Version 3.0.3 - RELEASE   -
|  1> ! RI-MP2 RIJK def2-TZVP def2-TZVP/C def2-TZVP/JK TIGHTSCF
|  2> % maxcore 2000
|  3> % mp2 density relaxed end
|  4> *xyz 0 1
|  5>  O       -0.4444740702     0.5113367818     0.6966102111
|  6>  C        0.1957405062     0.9175900059    -0.2348523949
|  7>  C        1.2990406342     1.9694639339    -0.0866849583
|  8>  C        1.3214518758     2.6449400304     1.3201121634
|  9>  C        2.4062371284     1.6480770213     1.8205273953
| 10>  C        2.6333043080     1.2056507605     0.3821796961
| 11>  O        3.4679030065     0.6239168867    -0.2254707812
| 12>  C        1.4239898969     2.7859809818    -1.2729909137
| 13>  N        1.5262867762     3.4349535506    -2.2248090457
| 14>  H        0.0664348201     0.5317162829    -1.2643067010
| 15>  H        1.6754652079     3.6739671551     1.2683515368
| 16>  H        0.3633157762     2.5938219249     1.8343578043
| 17>  H        3.2867362339     2.0446787856     2.3297548822
| 18>  H        1.9862419997     0.8311913585     2.4160236055
| 19> *
| 20>
| 21>                          ****END OF INPUT****

CARTESIAN COORDINATES (ANGSTROEM)
---------------------------------
  O     -0.444474    0.511337    0.696610
  C      0.195741    0.917590   -0.234852
  C      1.299041    1.969464   -0.086685
  C      1.321452    2.644940    1.320112
  C      2.406237    1.648077    1.820527
  C      2.633304    1.205651    0.382180
  O      3.467903    0.623917   -0.225471
  C      1.423990    2.785981   -1.272991
  N      1.526287    3.434954   -2.224809
  H      0.066435    0.531716   -1.264307
  H      1.675465    3.673967    1.268352
  H      0.363316    2.593822    1.834358
  H      3.286736    2.044679    2.329755
  H      1.986242    0.831191    2.416024

 Total Charge           Charge          ....    0
 Multiplicity           Mult            ....    1
 Number of Electrons    NEL             ....   64
 Basis Dimension        Dim             ....  309

ORBITAL ENERGIES
----------------

  NO   OCC          E(Eh)            E(eV)
   0   2.0000     -20.602357      -560.6186
   1   2.0000     -20.601048      -560.5830
   2   2.0000     -15.597136      -424.4196
   3   2.0000     -11.386621      -309.8457
   4   2.0000     -11.380020      -309.6661
   5   2.0000     -11.323866      -308.1380
   6   2.0000     -11.297587      -307.4230
   7   2.0000     -11.282113      -307.0019
   8   2.0000     -11.278696      -306.9089
   9   2.0000      -1.450435       -39.4683
  10   2.0000      -1.441623       -39.2286
  11   2.0000      -1.246035       -33.9063
  12   2.0000      -1.185264       -32.2527
  13   2.0000      -1.035610       -28.1804
  14   2.0000      -0.917296       -24.9609
  15   2.0000      -0.859463       -23.3872
  16   2.0000      -0.809748       -22.0344
  17   2.0000      -0.754013       -20.5177
  18   2.0000      -0.714491       -19.4423
  19   2.0000      -0.692406       -18.8413
  20   2.0000      -0.670829       -18.2542
  21   2.0000      -0.647844       -17.6287
  22   2.0000      -0.597566       -16.2606
  23   2.0000      -0.590665       -16.0728
  24   2.0000      -0.570501       -15.5241
  25   2.0000      -0.559544       -15.2260
  26   2.0000      -0.544590       -14.8191
  27   2.0000      -0.536767       -14.6062
  28   2.0000      -0.506281       -13.7766
  29   2.0000      -0.494156       -13.4467
  30   2.0000      -0.460801       -12.5390
  31   2.0000      -0.422516       -11.4972
  32   0.0000       0.074617         2.0304
  33   0.0000       0.100779         2.7423
  34   0.0000       0.125538         3.4161
  35   0.0000       0.143033         3.8921
  36   0.0000       0.148366         4.0373

MULLIKEN ATOMIC CHARGES
-----------------------
   0 O :   -0.250153
   1 C :    0.068779
   2 C :    0.279936
   3 C :   -0.289434
   4 C :   -0.208642
   5 C :    0.090955
   6 O :   -0.191719
   7 C :   -0.235550
   8 N :   -0.036598
   9 H :    0.128641
  10 H :    0.159991
  11 H :    0.158572
  12 H :    0.159161
  13 H :    0.166061
Sum of atomic charges:   -0.0000000

LOEWDIN ATOMIC CHARGES
----------------------
   0 O :    0.164890
   1 C :   -0.228273
   2 C :   -0.214086
   3 C :   -0.162372
   4 C :   -0.192406
   5 C :   -0.249908
   6 O :    0.218116
   7 C :   -0.156187
   8 N :    0.085939
   9 H :    0.133058
  10 H :    0.147411
  11 H :    0.144529
  12 H :    0.147420
  13 H :    0.161869

  Mayer bond orders larger than 0.1
B(  0-O ,  1-C ) :   1.9711 B(  1-C ,  2-C ) :   0.8229 B(  1-C ,  9-H ) :   0.9374
B(  2-C ,  3-C ) :   0.8777 B(  2-C ,  4-C ) :  -0.1059 B(  2-C ,  5-C ) :   0.6998
B(  2-C ,  7-C ) :   0.9164 B(  3-C ,  4-C ) :   0.9481 B(  3-C , 10-H ) :   0.9216
B(  3-C , 11-H ) :   0.9148 B(  4-C ,  5-C ) :   0.9241 B(  4-C , 12-H ) :   0.9046
B(  4-C , 13-H ) :   0.8858 B(  5-C ,  6-O ) :   2.0757 B(  7-C ,  8-N ) :   2.8496

MP2 TOTAL ENERGY:     -435.978716131 Eh
FINAL SINGLE POINT ENERGY      -435.978716130722

DIPOLE MOMENT
-------------
                                X             Y             Z
Electronic contribution:      0.17767      -1.07948      -4.61535
Nuclear contribution   :     -0.26659       1.04331       5.93489
                        -----------------------------------------
Total Dipole Moment    :     -0.08892      -0.03617       1.31954
                        -----------------------------------------
Magnitude (a.u.)       :      1.32303
Magnitude (Debye)      :      3.36287

                             ****ORCA TERMINATED NORMALLY****
TOTAL RUN TIME: 0 days 0 hours 15 minutes 12 seconds 528 msec
