                         Program Version 3.0.3 - RELEASE   -
|  1> ! RI-MP2 RIJK def2-TZVP def2-TZVP/C def2-TZVP/JK TIGHTSCF
|  2> % maxcore 2000
|  3> % mp2 density relaxed end
|  4> *xyz 0 1
|  5>  O        0.2762429456     1.2134848497    -0.4806732213
|  6>  C        0.0229189004    -0.0329474342     0.1602200432
|  7>  C       -1.4129588250    -0.4643833471     0.1221566903
|  8>  C       -2.1021402693    -0.9609432338    -1.1391078119
|  9>  C       -1.9687245898    -1.9171369833     0.0022232853
| 10>  O       -1.2783896271    -3.0969781048    -0.1604437875
| 11>  C       -2.9710919563    -1.6040602694     1.0894913074
| 12>  O       -2.2606369349    -1.1573254334     2.2630312584
| 13>  C       -2.4622741921    -0.2241562807     1.1900201795
| 14>  H       -0.2088136818     1.8931036388    -0.0022055891
| 15>  H        0.6333439984    -0.7659928768    -0.3785252830
| 16>  H        0.3706365457    -0.0224333520     1.2044602959
| 17>  H       -3.0710920859    -0.5699173312    -1.4369069980
| 18>  H       -1.4291358369    -1.1611228586    -1.9676068699
| 19>  H       -0.9173605743    -3.3467598602     0.6987817613
| 20>  H       -3.9737191033    -1.9869302638     1.2397224268
| 21>  H       -3.0260921535     0.6733445408     1.4183118426
| 22> *
| 23>
| 24>                          ****END OF INPUT****

CARTESIAN COORDINATES (ANGSTROEM)
---------------------------------
  O      0.276243    1.213485   -0.480673
  C      0.022919   -0.032947    0.160220
  C     -1.412959   -0.464383    0.122157
  C     -2.102140   -0.960943   -1.139108
  C     -1.968725   -1.917137    0.002223
  O     -1.278390   -3.096978   -0.160444
  C     -2.971092   -1.604060    1.089491
  O     -2.260637   -1.157325    2.263031
  C     -2.462274   -0.224156    1.190020
  H     -0.208814    1.893104   -0.002206
  H      0.633344   -0.765993   -0.378525
  H      0.370637   -0.022433    1.204460
  H     -3.071092   -0.569917   -1.436907
  H     -1.429136   -1.161123   -1.967607
  H     -0.917361   -3.346760    0.698782
  H     -3.973719   -1.986930    1.239722
  H     -3.026092    0.673345    1.418312

 Total Charge           Charge          ....    0
 Multiplicity           Mult            ....    1
 Number of Electrons    NEL             ....   68
 Basis Dimension        Dim             ....  327

ORBITAL ENERGIES
----------------

  NO   OCC          E(Eh)            E(eV)
   0   2.0000     -20.582922      -560.0898
   1   2.0000     -20.579676      -560.0015
   2   2.0000     -20.558738      -559.4317
   3   2.0000     -11.309846      -307.7565
   4   2.0000     -11.301259      -307.5229
   5   2.0000     -11.298574      -307.4498
   6   2.0000     -11.284198      -307.0586
   7   2.0000     -11.250565      -306.1434
   8   2.0000     -11.246851      -306.0424
   9   2.0000      -1.431142       -38.9434
  10   2.0000      -1.391293       -37.8590
  11   2.0000      -1.361466       -37.0474
  12   2.0000      -1.176828       -32.0231
  13   2.0000      -0.972110       -26.4525
  14   2.0000      -0.944454       -25.6999
  15   2.0000      -0.884185       -24.0599
  16   2.0000      -0.817158       -22.2360
  17   2.0000      -0.776069       -21.1179
  18   2.0000      -0.722336       -19.6557
  19   2.0000      -0.692968       -18.8566
  20   2.0000      -0.675816       -18.3899
  21   2.0000      -0.656065       -17.8524
  22   2.0000      -0.638256       -17.3678
  23   2.0000      -0.595979       -16.2174
  24   2.0000      -0.584926       -15.9167
  25   2.0000      -0.572888       -15.5891
  26   2.0000      -0.557091       -15.1592
  27   2.0000      -0.538385       -14.6502
  28   2.0000      -0.501641       -13.6504
  29   2.0000      -0.480385       -13.0719
  30   2.0000      -0.465689       -12.6720
  31   2.0000      -0.437154       -11.8956
  32   2.0000      -0.415231       -11.2990
  33   2.0000      -0.378935       -10.3113
  34   0.0000       0.128174         3.4878
  35   0.0000       0.139782         3.8037
  36   0.0000       0.158953         4.3253
  37   0.0000       0.180190         4.9032
  38   0.0000       0.189396         5.1537

MULLIKEN ATOMIC CHARGES
-----------------------
   0 O :   -0.461762
   1 C :   -0.075828
   2 C :    0.029440
   3 C :   -0.228526
   4 C :    0.138422
   5 O :   -0.448973
   6 C :   -0.054153
   7 O :   -0.318321
   8 C :   -0.029022
   9 H :    0.311070
  10 H :    0.124187
  11 H :    0.121888
  12 H :    0.143774
  13 H :    0.135822
  14 H :    0.336845
  15 H :    0.135179
  16 H :    0.139957
Sum of atomic charges:    0.0000000

LOEWDIN ATOMIC CHARGES
----------------------
   0 O :   -0.049588
   1 C :   -0.307340
   2 C :   -0.187117
   3 C :   -0.141544
   4 C :   -0.303545
   5 O :    0.045754
   6 C :   -0.207025
   7 O :    0.164318
   8 C :   -0.207650
   9 H :    0.171838
  10 H :    0.139467
  11 H :    0.128524
  12 H :    0.136484
  13 H :    0.152304
  14 H :    0.194143
  15 H :    0.135728
  16 H :    0.135250

  Mayer bond orders larger than 0.1
B(  0-O ,  1-C ) :   0.9168 B(  0-O ,  9-H ) :   0.8499 B(  1-C ,  2-C ) :   0.9254
B(  1-C , 10-H ) :   0.9197 B(  1-C , 11-H ) :   0.9371 B(  2-C ,  3-C ) :   0.8452
B(  2-C ,  4-C ) :   0.7480 B(  2-C ,  8-C ) :   0.8680 B(  3-C ,  4-C ) :   0.9009
B(  3-C , 12-H ) :   0.9142 B(  3-C , 13-H ) :   0.9075 B(  4-C ,  5-O ) :   1.0925
B(  4-C ,  6-C ) :   0.9212 B(  5-O , 14-H ) :   0.8301 B(  6-C ,  7-O ) :   0.9164
B(  6-C ,  8-C ) :   0.9168 B(  6-C , 15-H ) :   0.9317 B(  7-O ,  8-C ) :   0.9248
B(  8-C , 16-H ) :   0.9134

MP2 TOTAL ENERGY:     -458.161028900 Eh
FINAL SINGLE POINT ENERGY      -458.161028899823

DIPOLE MOMENT
-------------
                                X             Y             Z
Electronic contribution:     -1.10181      -1.66299       2.08913
Nuclear contribution   :      0.52456       1.85864      -1.83161
                        -----------------------------------------
Total Dipole Moment    :     -0.57725       0.19565       0.25752
                        -----------------------------------------
Magnitude (a.u.)       :      0.66168
Magnitude (Debye)      :      1.68185

                             ****ORCA TERMINATED NORMALLY****
TOTAL RUN TIME: 0 days 0 hours 15 minutes 49 seconds 884 msec
