                         Program Version 3.0.3 - RELEASE   -
|  1> ! RI-MP2 RIJK def2-TZVP def2-TZVP/C def2-TZVP/JK TIGHTSCF
|  2> % maxcore 2000
|  3> % mp2 density relaxed end
|  4> *xyz 0 1
|  5>  C        0.0566390287    -1.1848009501    -0.0039442894
|  6>  C        0.0499873989     0.0161477373     0.0129557614
|  7>  C        0.0269094059     1.4524302188     0.0448685728
|  8>  C       -1.0545611669     2.0782002563    -0.6808941956
|  9>  N       -1.9087622034     2.6020929175    -1.2583583469
| 10>  C        0.4484648589     2.2620694818     1.2938110217
| 11>  C        1.6174169942     1.5580723051     1.9884464690
| 12>  N        2.3752758421     1.5141072423     0.6880080010
| 13>  C        1.3128303098     2.3034812892     0.0657816771
| 14>  H        0.0676749308    -2.2464262406    -0.0327183389
| 15>  H       -0.2415192347     2.9735520386     1.7266671636
| 16>  H        2.0851013430     2.2098749840     2.7312472329
| 17>  H        1.4276598609     0.5728274709     2.4226098872
| 18>  H        3.2409174604     2.0387640863     0.7435482295
| 19>  H        1.4819511516     3.0598651526    -0.6907252354
| 20> *
| 21>
| 22>                          ****END OF INPUT****

CARTESIAN COORDINATES (ANGSTROEM)
---------------------------------
  C      0.056639   -1.184801   -0.003944
  C      0.049987    0.016148    0.012956
  C      0.026909    1.452430    0.044869
  C     -1.054561    2.078200   -0.680894
  N     -1.908762    2.602093   -1.258358
  C      0.448465    2.262069    1.293811
  C      1.617417    1.558072    1.988446
  N      2.375276    1.514107    0.688008
  C      1.312830    2.303481    0.065782
  H      0.067675   -2.246426   -0.032718
  H     -0.241519    2.973552    1.726667
  H      2.085101    2.209875    2.731247
  H      1.427660    0.572827    2.422610
  H      3.240917    2.038764    0.743548
  H      1.481951    3.059865   -0.690725

 Total Charge           Charge          ....    0
 Multiplicity           Mult            ....    1
 Number of Electrons    NEL             ....   62
 Basis Dimension        Dim             ....  315

ORBITAL ENERGIES
----------------

  NO   OCC          E(Eh)            E(eV)
   0   2.0000     -15.575792      -423.8389
   1   2.0000     -15.573613      -423.7796
   2   2.0000     -11.317396      -307.9620
   3   2.0000     -11.311392      -307.7986
   4   2.0000     -11.286033      -307.1086
   5   2.0000     -11.280496      -306.9579
   6   2.0000     -11.280125      -306.9478
   7   2.0000     -11.249260      -306.1079
   8   2.0000     -11.237968      -305.8007
   9   2.0000      -1.303020       -35.4570
  10   2.0000      -1.222209       -33.2580
  11   2.0000      -1.128907       -30.7191
  12   2.0000      -1.037274       -28.2256
  13   2.0000      -0.969474       -26.3807
  14   2.0000      -0.910295       -24.7704
  15   2.0000      -0.798010       -21.7150
  16   2.0000      -0.784034       -21.3346
  17   2.0000      -0.734056       -19.9747
  18   2.0000      -0.688712       -18.7408
  19   2.0000      -0.670530       -18.2460
  20   2.0000      -0.635781       -17.3005
  21   2.0000      -0.569780       -15.5045
  22   2.0000      -0.564923       -15.3723
  23   2.0000      -0.556368       -15.1395
  24   2.0000      -0.534075       -14.5329
  25   2.0000      -0.486770       -13.2457
  26   2.0000      -0.465207       -12.6589
  27   2.0000      -0.450705       -12.2643
  28   2.0000      -0.408258       -11.1093
  29   2.0000      -0.396709       -10.7950
  30   2.0000      -0.369296       -10.0490
  31   0.0000       0.121240         3.2991
  32   0.0000       0.142968         3.8904
  33   0.0000       0.146638         3.9902
  34   0.0000       0.154612         4.2072
  35   0.0000       0.158016         4.2998

MULLIKEN ATOMIC CHARGES
-----------------------
   0 C :   -0.134562
   1 C :    0.036210
   2 C :    0.028768
   3 C :   -0.227877
   4 N :   -0.046726
   5 C :   -0.177188
   6 C :   -0.119534
   7 N :   -0.349296
   8 C :   -0.018044
   9 H :    0.196671
  10 H :    0.162847
  11 H :    0.139853
  12 H :    0.130391
  13 H :    0.220037
  14 H :    0.158449
Sum of atomic charges:    0.0000000

LOEWDIN ATOMIC CHARGES
----------------------
   0 C :   -0.061745
   1 C :   -0.050537
   2 C :   -0.189659
   3 C :   -0.132254
   4 N :    0.074116
   5 C :   -0.122840
   6 C :   -0.219162
   7 N :    0.009123
   8 C :   -0.161665
   9 H :    0.130358
  10 H :    0.147941
  11 H :    0.132371
  12 H :    0.130841
  13 H :    0.168816
  14 H :    0.144295

  Mayer bond orders larger than 0.1
B(  0-C ,  1-C ) :   2.5591 B(  0-C ,  2-C ) :  -0.1215 B(  0-C ,  9-H ) :   0.8916
B(  1-C ,  2-C ) :   1.1976 B(  2-C ,  3-C ) :   0.9177 B(  2-C ,  5-C ) :   0.8094
B(  2-C ,  7-N ) :  -0.1023 B(  2-C ,  8-C ) :   0.8118 B(  3-C ,  4-N ) :   2.8639
B(  5-C ,  6-C ) :   0.9631 B(  5-C ,  8-C ) :   0.9225 B(  5-C , 10-H ) :   0.9091
B(  6-C ,  7-N ) :   0.9362 B(  6-C , 11-H ) :   0.9238 B(  6-C , 12-H ) :   0.9095
B(  7-N ,  8-C ) :   1.0396 B(  7-N , 13-H ) :   0.8757 B(  8-C , 14-H ) :   0.9081

MP2 TOTAL ENERGY:     -378.903890851 Eh
FINAL SINGLE POINT ENERGY      -378.903890851082

DIPOLE MOMENT
-------------
                                X             Y             Z
Electronic contribution:     -4.07740       0.03272      -3.76390
Nuclear contribution   :      5.45675       0.06633       4.95990
                        -----------------------------------------
Total Dipole Moment    :      1.37935       0.09905       1.19600
                        -----------------------------------------
Magnitude (a.u.)       :      1.82834
Magnitude (Debye)      :      4.64728

                             ****ORCA TERMINATED NORMALLY****
TOTAL RUN TIME: 0 days 0 hours 15 minutes 23 seconds 793 msec
