                         Program Version 3.0.3 - RELEASE   -
|  1> ! RI-MP2 RIJK def2-TZVP def2-TZVP/C def2-TZVP/JK TIGHTSCF
|  2> % maxcore 2000
|  3> % mp2 density relaxed end
|  4> *xyz 0 1
|  5>  C       -0.0630691790     1.4130937399    -0.1466305419
|  6>  N       -0.0289260761    -0.0210987785     0.0111933078
|  7>  C       -1.2305937079    -0.8401934136    -0.0267239454
|  8>  C       -0.6903529778    -2.2592760333    -0.0114324831
|  9>  O        0.1402991701    -2.5455472596    -1.1361945619
| 10>  C        0.7707293677    -2.2040602452     0.1222815808
| 11>  C        1.6892369207    -3.2059851110     0.7479598407
| 12>  C        1.1397448606    -0.7270646425     0.1349855281
| 13>  O        2.2567400044    -0.2629833978     0.2411658964
| 14>  H        0.9635240642     1.7766243970    -0.0753922547
| 15>  H       -0.4809742303     1.6978626566    -1.1206352885
| 16>  H       -0.6668381576     1.8836967389     0.6391324837
| 17>  H       -1.8722988046    -0.6502590348     0.8454557443
| 18>  H       -1.8197076908    -0.6427645275    -0.9321137298
| 19>  H       -1.2987735657    -3.0777361139     0.3615583492
| 20>  H        1.3118101380    -4.2192712504     0.5935981143
| 21>  H        2.6848989003    -3.1213839246     0.3034471982
| 22>  H        1.7895437438    -3.0200462797     1.8217320120
| 23> *
| 24>
| 25>                          ****END OF INPUT****

CARTESIAN COORDINATES (ANGSTROEM)
---------------------------------
  C     -0.063069    1.413094   -0.146631
  N     -0.028926   -0.021099    0.011193
  C     -1.230594   -0.840193   -0.026724
  C     -0.690353   -2.259276   -0.011432
  O      0.140299   -2.545547   -1.136195
  C      0.770729   -2.204060    0.122282
  C      1.689237   -3.205985    0.747960
  C      1.139745   -0.727065    0.134986
  O      2.256740   -0.262983    0.241166
  H      0.963524    1.776624   -0.075392
  H     -0.480974    1.697863   -1.120635
  H     -0.666838    1.883697    0.639132
  H     -1.872299   -0.650259    0.845456
  H     -1.819708   -0.642765   -0.932114
  H     -1.298774   -3.077736    0.361558
  H      1.311810   -4.219271    0.593598
  H      2.684899   -3.121384    0.303447
  H      1.789544   -3.020046    1.821732

 Total Charge           Charge          ....    0
 Multiplicity           Mult            ....    1
 Number of Electrons    NEL             ....   68
 Basis Dimension        Dim             ....  333

ORBITAL ENERGIES
----------------

  NO   OCC          E(Eh)            E(eV)
   0   2.0000     -20.584720      -560.1387
   1   2.0000     -20.523595      -558.4754
   2   2.0000     -15.590832      -424.2481
   3   2.0000     -11.350650      -308.8669
   4   2.0000     -11.307757      -307.6997
   5   2.0000     -11.305913      -307.6495
   6   2.0000     -11.286669      -307.1259
   7   2.0000     -11.263099      -306.4845
   8   2.0000     -11.232396      -305.6490
   9   2.0000      -1.437221       -39.1088
  10   2.0000      -1.381611       -37.5955
  11   2.0000      -1.260609       -34.3029
  12   2.0000      -1.042677       -28.3727
  13   2.0000      -1.021101       -27.7856
  14   2.0000      -0.960901       -26.1474
  15   2.0000      -0.894338       -24.3362
  16   2.0000      -0.825349       -22.4589
  17   2.0000      -0.753449       -20.5024
  18   2.0000      -0.703062       -19.1313
  19   2.0000      -0.670224       -18.2377
  20   2.0000      -0.667535       -18.1645
  21   2.0000      -0.632875       -17.2214
  22   2.0000      -0.613828       -16.7031
  23   2.0000      -0.599901       -16.3241
  24   2.0000      -0.581002       -15.8099
  25   2.0000      -0.569876       -15.5071
  26   2.0000      -0.559111       -15.2142
  27   2.0000      -0.541742       -14.7416
  28   2.0000      -0.539303       -14.6752
  29   2.0000      -0.516396       -14.0518
  30   2.0000      -0.476912       -12.9774
  31   2.0000      -0.451093       -12.2749
  32   2.0000      -0.409261       -11.1366
  33   2.0000      -0.380517       -10.3544
  34   0.0000       0.130475         3.5504
  35   0.0000       0.147279         4.0077
  36   0.0000       0.159484         4.3398
  37   0.0000       0.162510         4.4221
  38   0.0000       0.186576         5.0770

MULLIKEN ATOMIC CHARGES
-----------------------
   0 C :   -0.330289
   1 N :   -0.076277
   2 C :   -0.116183
   3 C :   -0.022002
   4 O :   -0.322451
   5 C :    0.187351
   6 C :   -0.403411
   7 C :    0.164183
   8 O :   -0.359625
   9 H :    0.179079
  10 H :    0.137676
  11 H :    0.134661
  12 H :    0.117963
  13 H :    0.129167
  14 H :    0.139238
  15 H :    0.144521
  16 H :    0.158022
  17 H :    0.138377
Sum of atomic charges:   -0.0000000

LOEWDIN ATOMIC CHARGES
----------------------
   0 C :   -0.289150
   1 N :    0.183344
   2 C :   -0.225104
   3 C :   -0.237708
   4 O :    0.193869
   5 C :   -0.271394
   6 C :   -0.257170
   7 C :   -0.392989
   8 O :    0.091649
   9 H :    0.137567
  10 H :    0.119018
  11 H :    0.118000
  12 H :    0.136251
  13 H :    0.139648
  14 H :    0.139963
  15 H :    0.134748
  16 H :    0.142186
  17 H :    0.137270

  Mayer bond orders larger than 0.1
B(  0-C ,  1-N ) :   0.8735 B(  0-C ,  9-H ) :   0.9234 B(  0-C , 10-H ) :   0.9315
B(  0-C , 11-H ) :   0.9308 B(  1-N ,  2-C ) :   0.9271 B(  1-N ,  7-C ) :   1.1946
B(  2-C ,  3-C ) :   0.9173 B(  2-C , 12-H ) :   0.9099 B(  2-C , 13-H ) :   0.9112
B(  3-C ,  4-O ) :   0.9118 B(  3-C ,  5-C ) :   0.9303 B(  3-C , 14-H ) :   0.9228
B(  4-O ,  5-C ) :   0.8351 B(  5-C ,  6-C ) :   0.8907 B(  5-C ,  7-C ) :   0.8994
B(  6-C , 15-H ) :   0.9409 B(  6-C , 16-H ) :   0.9341 B(  6-C , 17-H ) :   0.9244
B(  7-C ,  8-O ) :   1.9539

MP2 TOTAL ENERGY:     -438.390163277 Eh
FINAL SINGLE POINT ENERGY      -438.390163277208

DIPOLE MOMENT
-------------
                                X             Y             Z
Electronic contribution:      1.80758      -1.10105      -1.84063
Nuclear contribution   :     -3.25692       1.07714       2.39647
                        -----------------------------------------
Total Dipole Moment    :     -1.44935      -0.02391       0.55584
                        -----------------------------------------
Magnitude (a.u.)       :      1.55246
Magnitude (Debye)      :      3.94604

                             ****ORCA TERMINATED NORMALLY****
TOTAL RUN TIME: 0 days 0 hours 18 minutes 23 seconds 508 msec
