                         Program Version 3.0.3 - RELEASE   -
|  1> ! RI-MP2 RIJK def2-TZVP def2-TZVP/C def2-TZVP/JK TIGHTSCF
|  2> % maxcore 2000
|  3> % mp2 density relaxed end
|  4> *xyz 0 1
|  5>  O       -0.0118130068     1.3894329222    -0.4146146312
|  6>  C        0.1056169088     0.0203798091    -0.0819129383
|  7>  C       -1.2569684534    -0.5496432012     0.2803334391
|  8>  O       -2.1731153864    -0.3563913453    -0.8353766985
|  9>  C       -2.3673315995    -1.7824915642    -0.9939261338
| 10>  C       -1.4609292422    -2.0611452889     0.2000800009
| 11>  C       -0.4681511656    -3.1671771776     0.3939250647
| 12>  C       -1.6650701573    -3.0416798294     1.3107637084
| 13>  H       -0.7182988277     1.4370546867    -1.0711647220
| 14>  H        0.5358092726    -0.5647873215    -0.9106284751
| 15>  H        0.7914762362    -0.0483126437     0.7703415159
| 16>  H       -1.6447153037    -0.0602350653     1.1836251385
| 17>  H       -3.4217535664    -2.0626761168    -0.8760551341
| 18>  H       -2.0064385379    -2.1401636944    -1.9671147749
| 19>  H       -0.4603543235    -3.9743378850    -0.3318786470
| 20>  H        0.5103040609    -2.9214346589     0.7937499830
| 21>  H       -1.4962497121    -2.7035567137     2.3284428613
| 22>  H       -2.4674154059    -3.7658127522     1.2094494433
| 23> *
| 24>
| 25>                          ****END OF INPUT****

CARTESIAN COORDINATES (ANGSTROEM)
---------------------------------
  O     -0.011813    1.389433   -0.414615
  C      0.105617    0.020380   -0.081913
  C     -1.256968   -0.549643    0.280333
  O     -2.173115   -0.356391   -0.835377
  C     -2.367332   -1.782492   -0.993926
  C     -1.460929   -2.061145    0.200080
  C     -0.468151   -3.167177    0.393925
  C     -1.665070   -3.041680    1.310764
  H     -0.718299    1.437055   -1.071165
  H      0.535809   -0.564787   -0.910628
  H      0.791476   -0.048313    0.770342
  H     -1.644715   -0.060235    1.183625
  H     -3.421754   -2.062676   -0.876055
  H     -2.006439   -2.140164   -1.967115
  H     -0.460354   -3.974338   -0.331879
  H      0.510304   -2.921435    0.793750
  H     -1.496250   -2.703557    2.328443
  H     -2.467415   -3.765813    1.209449

 Total Charge           Charge          ....    0
 Multiplicity           Mult            ....    1
 Number of Electrons    NEL             ....   62
 Basis Dimension        Dim             ....  308

ORBITAL ENERGIES
----------------

  NO   OCC          E(Eh)            E(eV)
   0   2.0000     -20.555983      -559.3567
   1   2.0000     -20.549405      -559.1777
   2   2.0000     -11.286456      -307.1201
   3   2.0000     -11.286246      -307.1144
   4   2.0000     -11.273999      -306.7811
   5   2.0000     -11.250417      -306.1394
   6   2.0000     -11.240173      -305.8607
   7   2.0000     -11.239120      -305.8320
   8   2.0000      -1.389071       -37.7986
   9   2.0000      -1.351413       -36.7738
  10   2.0000      -1.154475       -31.4149
  11   2.0000      -0.998183       -27.1619
  12   2.0000      -0.944188       -25.6927
  13   2.0000      -0.866054       -23.5665
  14   2.0000      -0.838372       -22.8133
  15   2.0000      -0.738193       -20.0872
  16   2.0000      -0.704768       -19.1777
  17   2.0000      -0.686387       -18.6775
  18   2.0000      -0.673307       -18.3216
  19   2.0000      -0.639591       -17.4042
  20   2.0000      -0.611228       -16.6324
  21   2.0000      -0.579205       -15.7610
  22   2.0000      -0.563643       -15.3375
  23   2.0000      -0.539909       -14.6917
  24   2.0000      -0.529962       -14.4210
  25   2.0000      -0.523093       -14.2341
  26   2.0000      -0.466734       -12.7005
  27   2.0000      -0.457670       -12.4538
  28   2.0000      -0.445997       -12.1362
  29   2.0000      -0.420704       -11.4479
  30   2.0000      -0.396110       -10.7787
  31   0.0000       0.135906         3.6982
  32   0.0000       0.152833         4.1588
  33   0.0000       0.158237         4.3059
  34   0.0000       0.162080         4.4104
  35   0.0000       0.186858         5.0847

MULLIKEN ATOMIC CHARGES
-----------------------
   0 O :   -0.476569
   1 C :   -0.040508
   2 C :    0.113789
   3 O :   -0.359738
   4 C :   -0.007329
   5 C :   -0.066241
   6 C :   -0.257852
   7 C :   -0.272832
   8 H :    0.329476
   9 H :    0.103298
  10 H :    0.103325
  11 H :    0.094096
  12 H :    0.101742
  13 H :    0.098154
  14 H :    0.133311
  15 H :    0.137151
  16 H :    0.133916
  17 H :    0.132810
Sum of atomic charges:    0.0000000

LOEWDIN ATOMIC CHARGES
----------------------
   0 O :   -0.042407
   1 C :   -0.332203
   2 C :   -0.249528
   3 O :    0.123589
   4 C :   -0.222730
   5 C :   -0.223370
   6 C :   -0.205800
   7 C :   -0.203858
   8 H :    0.179956
   9 H :    0.121334
  10 H :    0.129885
  11 H :    0.139500
  12 H :    0.121269
  13 H :    0.120422
  14 H :    0.135590
  15 H :    0.136242
  16 H :    0.136364
  17 H :    0.135746

  Mayer bond orders larger than 0.1
B(  0-O ,  1-C ) :   0.9261 B(  0-O ,  8-H ) :   0.8300 B(  1-C ,  2-C ) :   0.9291
B(  1-C ,  9-H ) :   0.9155 B(  1-C , 10-H ) :   0.9240 B(  2-C ,  3-O ) :   0.9068
B(  2-C ,  5-C ) :   0.9114 B(  2-C , 11-H ) :   0.9103 B(  3-O ,  4-C ) :   0.9463
B(  4-C ,  5-C ) :   0.9628 B(  4-C , 12-H ) :   0.9115 B(  4-C , 13-H ) :   0.9141
B(  5-C ,  6-C ) :   0.8626 B(  5-C ,  7-C ) :   0.8688 B(  6-C ,  7-C ) :   0.9156
B(  6-C , 14-H ) :   0.9229 B(  6-C , 15-H ) :   0.9209 B(  7-C , 16-H ) :   0.9235
B(  7-C , 17-H ) :   0.9226

MP2 TOTAL ENERGY:     -384.262221632 Eh
FINAL SINGLE POINT ENERGY      -384.262221632075

DIPOLE MOMENT
-------------
                                X             Y             Z
Electronic contribution:     -1.16232       4.08013      -1.37206
Nuclear contribution   :      1.02038      -5.23681       1.49707
                        -----------------------------------------
Total Dipole Moment    :     -0.14195      -1.15668       0.12501
                        -----------------------------------------
Magnitude (a.u.)       :      1.17205
Magnitude (Debye)      :      2.97910

                             ****ORCA TERMINATED NORMALLY****
TOTAL RUN TIME: 0 days 0 hours 11 minutes 34 seconds 115 msec
