                         Program Version 3.0.3 - RELEASE   -
|  1> ! RI-MP2 RIJK def2-TZVP def2-TZVP/C def2-TZVP/JK TIGHTSCF
|  2> % maxcore 2000
|  3> % mp2 density relaxed end
|  4> *xyz 0 1
|  5>  C       -0.2222605700     1.4091265254    -0.0559349776
|  6>  N        0.0775965599    -0.0137877073    -0.1100044115
|  7>  C       -0.0391560067    -0.7943079136     1.0997487521
|  8>  C       -1.4869361793    -1.0190378182     1.5544213981
|  9>  C       -1.6734352962    -2.0061693430     2.6895959418
| 10>  O       -2.4096493225    -0.4400015269     1.0320217833
| 11>  C        0.0373803216    -0.7266119225    -1.2953611696
| 12>  N       -0.0584419375     0.0346937894    -2.4456678219
| 13>  O        0.0640236509    -1.9469589729    -1.3313872554
| 14>  H        0.5258542826     1.9959213240    -0.6050265301
| 15>  H       -1.2204726580     1.6387157574    -0.4422453557
| 16>  H       -0.1803676109     1.7385686952     0.9836933535
| 17>  H        0.4311890617    -1.7654813005     0.9281456306
| 18>  H        0.5054963110    -0.3035994485     1.9180743564
| 19>  H       -0.9630226545    -1.8181015525     3.5018956310
| 20>  H       -2.6959223986    -1.9552053336     3.0653195379
| 21>  H       -1.4752651342    -3.0191161587     2.3197383563
| 22>  H        0.2702009064     0.9858287138    -2.4535695553
| 23>  H        0.1344629943    -0.4962502969    -3.2798733738
| 24> *
| 25>
| 26>                          ****END OF INPUT****

CARTESIAN COORDINATES (ANGSTROEM)
---------------------------------
  C     -0.222261    1.409127   -0.055935
  N      0.077597   -0.013788   -0.110004
  C     -0.039156   -0.794308    1.099749
  C     -1.486936   -1.019038    1.554421
  C     -1.673435   -2.006169    2.689596
  O     -2.409649   -0.440002    1.032022
  C      0.037380   -0.726612   -1.295361
  N     -0.058442    0.034694   -2.445668
  O      0.064024   -1.946959   -1.331387
  H      0.525854    1.995921   -0.605027
  H     -1.220473    1.638716   -0.442245
  H     -0.180368    1.738569    0.983693
  H      0.431189   -1.765481    0.928146
  H      0.505496   -0.303599    1.918074
  H     -0.963023   -1.818102    3.501896
  H     -2.695922   -1.955205    3.065320
  H     -1.475265   -3.019116    2.319738
  H      0.270201    0.985829   -2.453570
  H      0.134463   -0.496250   -3.279873

 Total Charge           Charge          ....    0
 Multiplicity           Mult            ....    1
 Number of Electrons    NEL             ....   70
 Basis Dimension        Dim             ....  339

ORBITAL ENERGIES
----------------

  NO   OCC          E(Eh)            E(eV)
   0   2.0000     -20.546708      -559.1044
   1   2.0000     -20.503923      -557.9401
   2   2.0000     -15.584708      -424.0815
   3   2.0000     -15.576798      -423.8662
   4   2.0000     -11.371682      -309.4392
   5   2.0000     -11.332012      -308.3597
   6   2.0000     -11.274529      -306.7955
   7   2.0000     -11.268653      -306.6356
   8   2.0000     -11.236953      -305.7730
   9   2.0000      -1.395391       -37.9705
  10   2.0000      -1.385590       -37.7038
  11   2.0000      -1.251613       -34.0581
  12   2.0000      -1.195855       -32.5409
  13   2.0000      -1.037302       -28.2264
  14   2.0000      -0.976024       -26.5590
  15   2.0000      -0.939147       -25.5555
  16   2.0000      -0.795420       -21.6445
  17   2.0000      -0.747827       -20.3494
  18   2.0000      -0.729336       -19.8462
  19   2.0000      -0.687639       -18.7116
  20   2.0000      -0.677889       -18.4463
  21   2.0000      -0.641699       -17.4615
  22   2.0000      -0.625816       -17.0293
  23   2.0000      -0.614763       -16.7285
  24   2.0000      -0.603727       -16.4283
  25   2.0000      -0.581688       -15.8285
  26   2.0000      -0.565622       -15.3914
  27   2.0000      -0.558556       -15.1991
  28   2.0000      -0.554580       -15.0909
  29   2.0000      -0.539427       -14.6786
  30   2.0000      -0.493813       -13.4373
  31   2.0000      -0.439118       -11.9490
  32   2.0000      -0.436072       -11.8661
  33   2.0000      -0.418069       -11.3762
  34   2.0000      -0.373736       -10.1699
  35   0.0000       0.122344         3.3291
  36   0.0000       0.135818         3.6958
  37   0.0000       0.144532         3.9329
  38   0.0000       0.166668         4.5353
  39   0.0000       0.179314         4.8794

MULLIKEN ATOMIC CHARGES
-----------------------
   0 C :   -0.346793
   1 N :   -0.131331
   2 C :   -0.201341
   3 C :    0.220725
   4 C :   -0.413400
   5 O :   -0.295520
   6 C :    0.363510
   7 N :   -0.507044
   8 O :   -0.423059
   9 H :    0.125232
  10 H :    0.173984
  11 H :    0.140723
  12 H :    0.177377
  13 H :    0.152960
  14 H :    0.138699
  15 H :    0.153785
  16 H :    0.161385
  17 H :    0.248626
  18 H :    0.261481
Sum of atomic charges:    0.0000000

LOEWDIN ATOMIC CHARGES
----------------------
   0 C :   -0.301307
   1 N :    0.149966
   2 C :   -0.250083
   3 C :   -0.347677
   4 C :   -0.279053
   5 O :    0.156203
   6 C :   -0.546070
   7 N :   -0.047680
   8 O :    0.041326
   9 H :    0.111238
  10 H :    0.123355
  11 H :    0.127317
  12 H :    0.162166
  13 H :    0.146876
  14 H :    0.133787
  15 H :    0.134283
  16 H :    0.144178
  17 H :    0.164441
  18 H :    0.176734

  Mayer bond orders larger than 0.1
B(  0-C ,  1-N ) :   0.8825 B(  0-C ,  9-H ) :   0.9250 B(  0-C , 10-H ) :   0.9268
B(  0-C , 11-H ) :   0.9353 B(  1-N ,  2-C ) :   0.9343 B(  1-N ,  6-C ) :   1.1273
B(  2-C ,  3-C ) :   0.8772 B(  2-C , 12-H ) :   0.8959 B(  2-C , 13-H ) :   0.9131
B(  3-C ,  4-C ) :   0.9212 B(  3-C ,  5-O ) :   1.9874 B(  4-C , 14-H ) :   0.9174
B(  4-C , 15-H ) :   0.9359 B(  4-C , 16-H ) :   0.9154 B(  6-C ,  7-N ) :   1.1003
B(  6-C ,  8-O ) :   1.8813 B(  7-N , 17-H ) :   0.8685 B(  7-N , 18-H ) :   0.8688

MP2 TOTAL ENERGY:     -455.663487588 Eh
FINAL SINGLE POINT ENERGY      -455.663487587607

DIPOLE MOMENT
-------------
                                X             Y             Z
Electronic contribution:     -0.72159      -1.83511      -4.02257
Nuclear contribution   :      1.56727       2.84176       4.58412
                        -----------------------------------------
Total Dipole Moment    :      0.84568       1.00665       0.56155
                        -----------------------------------------
Magnitude (a.u.)       :      1.42963
Magnitude (Debye)      :      3.63384

                             ****ORCA TERMINATED NORMALLY****
TOTAL RUN TIME: 0 days 0 hours 18 minutes 10 seconds 76 msec
