                         Program Version 3.0.3 - RELEASE   -
|  1> ! RI-MP2 RIJK def2-TZVP def2-TZVP/C def2-TZVP/JK TIGHTSCF
|  2> % maxcore 2000
|  3> % mp2 density relaxed end
|  4> *xyz 0 1
|  5>  N       -0.0277736095     1.2144883641     0.4425603083
|  6>  C       -0.0136557081     0.0248700768     0.0283174095
|  7>  O        1.1474924177    -0.5601081774    -0.4202472288
|  8>  C        1.1232055326    -1.8573486892    -0.8634527193
|  9>  C        0.0153619345    -2.5832669666    -0.8792400838
| 10>  O       -1.1923718411    -2.0933133001    -0.4535907407
| 11>  C       -1.2742670666    -0.8010931454     0.0102358157
| 12>  N       -2.3675007816    -0.3184302665     0.4088141852
| 13>  H        0.9095719696     1.6176701764     0.3830817727
| 14>  H        2.0894039189    -2.2099834652    -1.1904026178
| 15>  H       -0.0403880329    -3.6055542126    -1.2207187151
| 16>  H       -3.1099787635    -1.0158940043     0.3252633342
| 17> *
| 18>
| 19>                          ****END OF INPUT****

CARTESIAN COORDINATES (ANGSTROEM)
---------------------------------
  N     -0.027774    1.214488    0.442560
  C     -0.013656    0.024870    0.028317
  O      1.147492   -0.560108   -0.420247
  C      1.123206   -1.857349   -0.863453
  C      0.015362   -2.583267   -0.879240
  O     -1.192372   -2.093313   -0.453591
  C     -1.274267   -0.801093    0.010236
  N     -2.367501   -0.318430    0.408814
  H      0.909572    1.617670    0.383082
  H      2.089404   -2.209983   -1.190403
  H     -0.040388   -3.605554   -1.220719
  H     -3.109979   -1.015894    0.325263

 Total Charge           Charge          ....    0
 Multiplicity           Mult            ....    1
 Number of Electrons    NEL             ....   58
 Basis Dimension        Dim             ....  272

ORBITAL ENERGIES
----------------

  NO   OCC          E(Eh)            E(eV)
   0   2.0000     -20.635437      -561.5188
   1   2.0000     -20.635433      -561.5187
   2   2.0000     -15.563314      -423.4993
   3   2.0000     -15.563306      -423.4991
   4   2.0000     -11.370370      -309.4035
   5   2.0000     -11.369719      -309.3858
   6   2.0000     -11.319775      -308.0267
   7   2.0000     -11.317987      -307.9781
   8   2.0000      -1.490550       -40.5599
   9   2.0000      -1.451109       -39.4867
  10   2.0000      -1.250142       -34.0181
  11   2.0000      -1.203969       -32.7617
  12   2.0000      -1.058105       -28.7925
  13   2.0000      -0.941067       -25.6077
  14   2.0000      -0.901348       -24.5269
  15   2.0000      -0.794514       -21.6198
  16   2.0000      -0.744855       -20.2685
  17   2.0000      -0.712254       -19.3814
  18   2.0000      -0.687136       -18.6979
  19   2.0000      -0.652051       -17.7432
  20   2.0000      -0.645104       -17.5542
  21   2.0000      -0.637462       -17.3462
  22   2.0000      -0.628422       -17.1002
  23   2.0000      -0.539065       -14.6687
  24   2.0000      -0.503108       -13.6903
  25   2.0000      -0.470683       -12.8079
  26   2.0000      -0.460819       -12.5395
  27   2.0000      -0.410655       -11.1745
  28   2.0000      -0.358284        -9.7494
  29   0.0000       0.091006         2.4764
  30   0.0000       0.146949         3.9987
  31   0.0000       0.149592         4.0706
  32   0.0000       0.163717         4.4550
  33   0.0000       0.168128         4.5750

MULLIKEN ATOMIC CHARGES
-----------------------
   0 N :   -0.296866
   1 C :    0.171068
   2 O :   -0.234203
   3 C :   -0.027991
   4 C :   -0.027991
   5 O :   -0.234203
   6 C :    0.171068
   7 N :   -0.296866
   8 H :    0.231248
   9 H :    0.156744
  10 H :    0.156744
  11 H :    0.231248
Sum of atomic charges:   -0.0000000

LOEWDIN ATOMIC CHARGES
----------------------
   0 N :    0.007513
   1 C :   -0.350149
   2 O :    0.291510
   3 C :   -0.270617
   4 C :   -0.270617
   5 O :    0.291510
   6 C :   -0.350149
   7 N :    0.007513
   8 H :    0.174684
   9 H :    0.147059
  10 H :    0.147059
  11 H :    0.174684

  Mayer bond orders larger than 0.1
B(  0-N ,  1-C ) :   2.0505 B(  0-N ,  8-H ) :   0.8460 B(  1-C ,  2-O ) :   1.0203
B(  1-C ,  6-C ) :   0.9210 B(  2-O ,  3-C ) :   0.9680 B(  3-C ,  4-C ) :   1.7195
B(  3-C ,  9-H ) :   0.9272 B(  4-C ,  5-O ) :   0.9680 B(  4-C , 10-H ) :   0.9272
B(  5-O ,  6-C ) :   1.0203 B(  6-C ,  7-N ) :   2.0505 B(  7-N , 11-H ) :   0.8460

MP2 TOTAL ENERGY:     -413.978048785 Eh
FINAL SINGLE POINT ENERGY      -413.978048784853

DIPOLE MOMENT
-------------
                                X             Y             Z
Electronic contribution:     -0.21327       0.32207       0.15669
Nuclear contribution   :      1.06971      -1.61544      -0.78540
                        -----------------------------------------
Total Dipole Moment    :      0.85644      -1.29337      -0.62871
                        -----------------------------------------
Magnitude (a.u.)       :      1.67379
Magnitude (Debye)      :      4.25445

                             ****ORCA TERMINATED NORMALLY****
TOTAL RUN TIME: 0 days 0 hours 8 minutes 21 seconds 99 msec
