                         Program Version 3.0.3 - RELEASE   -
|  1> ! RI-MP2 RIJK def2-TZVP def2-TZVP/C def2-TZVP/JK TIGHTSCF
|  2> % maxcore 2000
|  3> % mp2 density relaxed end
|  4> *xyz 0 1
|  5>  C        0.1962520990     1.3750839883     0.5005670761
|  6>  N        0.0210804114     0.0797336871    -0.1637021829
|  7>  C       -1.2862140393    -0.4624176755    -0.1035271859
|  8>  C       -1.7918426964    -1.2256739682     0.9362398569
|  9>  C       -1.1537404193    -1.6738311226     2.2064876646
| 10>  N       -3.0640612264    -1.5309627294     0.5721210362
| 11>  N       -3.4161291508    -1.0412644682    -0.6363000363
| 12>  C       -2.3407489799    -0.3777000952    -1.0543830023
| 13>  C       -2.3298351855     0.3073097041    -2.3844787732
| 14>  H        1.2313558490     1.7069765327     0.3733113568
| 15>  H       -0.4737556998     2.1665577394     0.1275552214
| 16>  H        0.0107626268     1.2622341032     1.5728847412
| 17>  H        0.3274457257     0.1469251289    -1.1270225724
| 18>  H       -1.4512848562    -1.0613014054     3.0666430444
| 19>  H       -1.4041932948    -2.7142587153     2.4408322279
| 20>  H       -0.0682250732    -1.5980635993     2.1014646184
| 21>  H       -3.7340873671    -2.0740732334     1.0889623911
| 22>  H       -2.0600090561     1.3656289807    -2.2937122518
| 23>  H       -1.6118558262    -0.1519021384    -3.0753351700
| 24>  H       -3.3203133511     0.2429221464    -2.8398651401
| 25> *
| 26>
| 27>                          ****END OF INPUT****

CARTESIAN COORDINATES (ANGSTROEM)
---------------------------------
  C      0.196252    1.375084    0.500567
  N      0.021080    0.079734   -0.163702
  C     -1.286214   -0.462418   -0.103527
  C     -1.791843   -1.225674    0.936240
  C     -1.153740   -1.673831    2.206488
  N     -3.064061   -1.530963    0.572121
  N     -3.416129   -1.041264   -0.636300
  C     -2.340749   -0.377700   -1.054383
  C     -2.329835    0.307310   -2.384479
  H      1.231356    1.706977    0.373311
  H     -0.473756    2.166558    0.127555
  H      0.010763    1.262234    1.572885
  H      0.327446    0.146925   -1.127023
  H     -1.451285   -1.061301    3.066643
  H     -1.404193   -2.714259    2.440832
  H     -0.068225   -1.598064    2.101465
  H     -3.734087   -2.074073    1.088962
  H     -2.060009    1.365629   -2.293712
  H     -1.611856   -0.151902   -3.075335
  H     -3.320313    0.242922   -2.839865

 Total Charge           Charge          ....    0
 Multiplicity           Mult            ....    1
 Number of Electrons    NEL             ....   68
 Basis Dimension        Dim             ....  345

ORBITAL ENERGIES
----------------

  NO   OCC          E(Eh)            E(eV)
   0   2.0000     -15.618087      -424.9898
   1   2.0000     -15.568031      -423.6277
   2   2.0000     -15.550982      -423.1637
   3   2.0000     -11.266105      -306.5663
   4   2.0000     -11.246556      -306.0343
   5   2.0000     -11.245912      -306.0168
   6   2.0000     -11.235609      -305.7365
   7   2.0000     -11.232720      -305.6579
   8   2.0000     -11.220037      -305.3127
   9   2.0000      -1.357963       -36.9521
  10   2.0000      -1.209176       -32.9034
  11   2.0000      -1.106384       -30.1063
  12   2.0000      -1.044921       -28.4338
  13   2.0000      -0.958609       -26.0851
  14   2.0000      -0.955391       -25.9975
  15   2.0000      -0.901046       -24.5187
  16   2.0000      -0.771938       -21.0055
  17   2.0000      -0.760564       -20.6960
  18   2.0000      -0.705685       -19.2027
  19   2.0000      -0.641773       -17.4635
  20   2.0000      -0.618636       -16.8339
  21   2.0000      -0.611533       -16.6407
  22   2.0000      -0.581804       -15.8317
  23   2.0000      -0.576357       -15.6835
  24   2.0000      -0.566794       -15.4233
  25   2.0000      -0.561552       -15.2806
  26   2.0000      -0.542082       -14.7508
  27   2.0000      -0.541583       -14.7372
  28   2.0000      -0.522848       -14.2274
  29   2.0000      -0.511634       -13.9223
  30   2.0000      -0.453874       -12.3505
  31   2.0000      -0.394933       -10.7467
  32   2.0000      -0.338024        -9.1981
  33   2.0000      -0.308011        -8.3814
  34   0.0000       0.126858         3.4520
  35   0.0000       0.138116         3.7583
  36   0.0000       0.157466         4.2849
  37   0.0000       0.166587         4.5331
  38   0.0000       0.178906         4.8683

MULLIKEN ATOMIC CHARGES
-----------------------
   0 C :   -0.270687
   1 N :   -0.368204
   2 C :    0.064405
   3 C :    0.037560
   4 C :   -0.466398
   5 N :   -0.113857
   6 N :   -0.215341
   7 C :    0.075286
   8 C :   -0.477171
   9 H :    0.130882
  10 H :    0.116200
  11 H :    0.130732
  12 H :    0.215988
  13 H :    0.147825
  14 H :    0.140268
  15 H :    0.171917
  16 H :    0.248634
  17 H :    0.138405
  18 H :    0.136615
  19 H :    0.156939
Sum of atomic charges:   -0.0000000

LOEWDIN ATOMIC CHARGES
----------------------
   0 C :   -0.335501
   1 N :    0.003867
   2 C :   -0.233651
   3 C :   -0.245997
   4 C :   -0.278345
   5 N :    0.141271
   6 N :    0.037128
   7 C :   -0.294663
   8 C :   -0.284007
   9 H :    0.113737
  10 H :    0.101049
  11 H :    0.115296
  12 H :    0.175510
  13 H :    0.130434
  14 H :    0.130867
  15 H :    0.143769
  16 H :    0.186221
  17 H :    0.128101
  18 H :    0.127817
  19 H :    0.137098

  Mayer bond orders larger than 0.1
B(  0-C ,  1-N ) :   0.8977 B(  0-C ,  9-H ) :   0.9368 B(  0-C , 10-H ) :   0.9270
B(  0-C , 11-H ) :   0.9421 B(  1-N ,  2-C ) :   1.0184 B(  1-N , 12-H ) :   0.8906
B(  2-C ,  3-C ) :   1.4390 B(  2-C ,  7-C ) :   1.2295 B(  3-C ,  4-C ) :   0.8317
B(  3-C ,  5-N ) :   1.2168 B(  3-C ,  6-N ) :   0.1164 B(  4-C , 13-H ) :   0.9319
B(  4-C , 14-H ) :   0.9393 B(  4-C , 15-H ) :   0.9476 B(  5-N ,  6-N ) :   1.0487
B(  5-N , 16-H ) :   0.8727 B(  6-N ,  7-C ) :   1.6014 B(  7-C ,  8-C ) :   0.8518
B(  8-C , 17-H ) :   0.9413 B(  8-C , 18-H ) :   0.9336 B(  8-C , 19-H ) :   0.9492

MP2 TOTAL ENERGY:     -398.658066370 Eh
FINAL SINGLE POINT ENERGY      -398.658066370232

DIPOLE MOMENT
-------------
                                X             Y             Z
Electronic contribution:     -4.97129      -4.21834      -0.82860
Nuclear contribution   :      5.33719       4.30400       1.38969
                        -----------------------------------------
Total Dipole Moment    :      0.36590       0.08566       0.56109
                        -----------------------------------------
Magnitude (a.u.)       :      0.67531
Magnitude (Debye)      :      1.71650

                             ****ORCA TERMINATED NORMALLY****
TOTAL RUN TIME: 0 days 0 hours 20 minutes 46 seconds 792 msec
