                         Program Version 3.0.3 - RELEASE   -
|  1> ! RI-MP2 RIJK def2-TZVP def2-TZVP/C def2-TZVP/JK TIGHTSCF
|  2> % maxcore 2000
|  3> % mp2 density relaxed end
|  4> *xyz 0 1
|  5>  O       -0.0314866596     1.4760140003    -0.1266886076
|  6>  C       -0.0103059144     0.0737951948    -0.0917496894
|  7>  C        0.3256385442    -0.5392950486     1.3012129449
|  8>  C       -1.2039298458    -0.6824609360     1.5578590269
|  9>  C       -1.8801660441    -1.6995443555     2.5191090151
| 10>  C       -2.5223589898    -0.5319112537     3.3353060766
| 11>  C       -1.8410867273     0.4429721478     2.3691729584
| 12>  O       -1.8020609724     1.6419434436     2.2619323188
| 13>  C       -1.4126760511    -0.5975205759     0.0167032491
| 14>  H       -0.5830164697     1.7976620264     0.6050668710
| 15>  H        0.6175273877    -0.2439470664    -0.9269789849
| 16>  H        0.8006315098    -1.5215424720     1.2185665428
| 17>  H        0.9001338535     0.0903891512     1.9855383164
| 18>  H       -2.6030147088    -2.3585431582     2.0336334361
| 19>  H       -1.1763529576    -2.3108371606     3.0878284622
| 20>  H       -3.6146814090    -0.4755122337     3.3204764022
| 21>  H       -2.1907780885    -0.4278341372     4.3725112727
| 22>  H       -2.2617761981    -0.0155249727    -0.3509353812
| 23>  H       -1.4302228590    -1.5962652334    -0.4299043199
| 24> *
| 25>
| 26>                          ****END OF INPUT****

CARTESIAN COORDINATES (ANGSTROEM)
---------------------------------
  O     -0.031487    1.476014   -0.126689
  C     -0.010306    0.073795   -0.091750
  C      0.325639   -0.539295    1.301213
  C     -1.203930   -0.682461    1.557859
  C     -1.880166   -1.699544    2.519109
  C     -2.522359   -0.531911    3.335306
  C     -1.841087    0.442972    2.369173
  O     -1.802061    1.641943    2.261932
  C     -1.412676   -0.597521    0.016703
  H     -0.583016    1.797662    0.605067
  H      0.617527   -0.243947   -0.926979
  H      0.800632   -1.521542    1.218567
  H      0.900134    0.090389    1.985538
  H     -2.603015   -2.358543    2.033633
  H     -1.176353   -2.310837    3.087828
  H     -3.614681   -0.475512    3.320476
  H     -2.190778   -0.427834    4.372511
  H     -2.261776   -0.015525   -0.350935
  H     -1.430223   -1.596265   -0.429904

 Total Charge           Charge          ....    0
 Multiplicity           Mult            ....    1
 Number of Electrons    NEL             ....   68
 Basis Dimension        Dim             ....  339

ORBITAL ENERGIES
----------------

  NO   OCC          E(Eh)            E(eV)
   0   2.0000     -20.564927      -559.6001
   1   2.0000     -20.541134      -558.9527
   2   2.0000     -11.339971      -308.5763
   3   2.0000     -11.283700      -307.0451
   4   2.0000     -11.253952      -306.2356
   5   2.0000     -11.249702      -306.1200
   6   2.0000     -11.245273      -305.9994
   7   2.0000     -11.236573      -305.7627
   8   2.0000     -11.236559      -305.7623
   9   2.0000      -1.406868       -38.2828
  10   2.0000      -1.353733       -36.8370
  11   2.0000      -1.166466       -31.7412
  12   2.0000      -1.081946       -29.4413
  13   2.0000      -0.918004       -24.9802
  14   2.0000      -0.905847       -24.6493
  15   2.0000      -0.873740       -23.7757
  16   2.0000      -0.806091       -21.9348
  17   2.0000      -0.706704       -19.2304
  18   2.0000      -0.685894       -18.6641
  19   2.0000      -0.663332       -18.0502
  20   2.0000      -0.655068       -17.8253
  21   2.0000      -0.649027       -17.6609
  22   2.0000      -0.620027       -16.8718
  23   2.0000      -0.586946       -15.9716
  24   2.0000      -0.555240       -15.1089
  25   2.0000      -0.544656       -14.8209
  26   2.0000      -0.540475       -14.7071
  27   2.0000      -0.530917       -14.4470
  28   2.0000      -0.514995       -14.0137
  29   2.0000      -0.501953       -13.6588
  30   2.0000      -0.454944       -12.3797
  31   2.0000      -0.434396       -11.8205
  32   2.0000      -0.413777       -11.2594
  33   2.0000      -0.400179       -10.8894
  34   0.0000       0.115120         3.1326
  35   0.0000       0.128029         3.4839
  36   0.0000       0.142986         3.8909
  37   0.0000       0.167464         4.5569
  38   0.0000       0.171323         4.6619

MULLIKEN ATOMIC CHARGES
-----------------------
   0 O :   -0.464143
   1 C :    0.051218
   2 C :   -0.251529
   3 C :    0.076635
   4 C :   -0.254962
   5 C :   -0.189869
   6 C :    0.093527
   7 O :   -0.303516
   8 C :   -0.251535
   9 H :    0.330715
  10 H :    0.110766
  11 H :    0.122446
  12 H :    0.132894
  13 H :    0.128336
  14 H :    0.128340
  15 H :    0.142670
  16 H :    0.142661
  17 H :    0.132899
  18 H :    0.122446
Sum of atomic charges:    0.0000000

LOEWDIN ATOMIC CHARGES
----------------------
   0 O :   -0.008522
   1 C :   -0.321652
   2 C :   -0.179017
   3 C :   -0.206134
   4 C :   -0.194928
   5 C :   -0.200878
   6 C :   -0.277946
   7 O :    0.148951
   8 C :   -0.179017
   9 H :    0.174157
  10 H :    0.130906
  11 H :    0.141777
  12 H :    0.134825
  13 H :    0.134634
  14 H :    0.134632
  15 H :    0.145802
  16 H :    0.145805
  17 H :    0.134825
  18 H :    0.141778

  Mayer bond orders larger than 0.1
B(  0-O ,  1-C ) :   0.9916 B(  0-O ,  9-H ) :   0.8030 B(  1-C ,  2-C ) :   0.9097
B(  1-C ,  8-C ) :   0.9097 B(  1-C , 10-H ) :   0.9495 B(  2-C ,  3-C ) :   0.8822
B(  2-C , 11-H ) :   0.9140 B(  2-C , 12-H ) :   0.9198 B(  3-C ,  4-C ) :   0.8636
B(  3-C ,  5-C ) :  -0.1480 B(  3-C ,  6-C ) :   0.8125 B(  3-C ,  8-C ) :   0.8822
B(  4-C ,  5-C ) :   0.9861 B(  4-C , 13-H ) :   0.9152 B(  4-C , 14-H ) :   0.9152
B(  5-C ,  6-C ) :   0.9583 B(  5-C , 15-H ) :   0.9021 B(  5-C , 16-H ) :   0.9021
B(  6-C ,  7-O ) :   1.9165 B(  8-C , 17-H ) :   0.9198 B(  8-C , 18-H ) :   0.9140

MP2 TOTAL ENERGY:     -422.313732232 Eh
FINAL SINGLE POINT ENERGY      -422.313732231771

DIPOLE MOMENT
-------------
                                X             Y             Z
Electronic contribution:     -0.20204       5.14577       0.04017
Nuclear contribution   :     -0.14226      -6.60307       0.49184
                        -----------------------------------------
Total Dipole Moment    :     -0.34429      -1.45729       0.53201
                        -----------------------------------------
Magnitude (a.u.)       :      1.58911
Magnitude (Debye)      :      4.03920

                             ****ORCA TERMINATED NORMALLY****
TOTAL RUN TIME: 0 days 0 hours 18 minutes 37 seconds 875 msec
