                         Program Version 3.0.3 - RELEASE   -
|  1> ! RI-MP2 RIJK def2-TZVP def2-TZVP/C def2-TZVP/JK TIGHTSCF
|  2> % maxcore 2000
|  3> % mp2 density relaxed end
|  4> *xyz 0 1
|  5>  O       -0.1045026934     1.2885769442     0.6970614382
|  6>  C       -0.0022760044     0.0624178984    -0.0279254496
|  7>  C       -1.3528785167    -0.5717950887    -0.0494156819
|  8>  C       -1.7652905990    -1.8895761574    -0.0956416181
|  9>  C       -0.9012675819    -3.1082080679    -0.1101127727
| 10>  O       -1.4027984621    -4.0410030992     0.8453080275
| 11>  C       -3.1913513198    -1.8782045324    -0.1578130416
| 12>  C       -3.5972234349    -0.5666039945    -0.1438797104
| 13>  N       -2.4732178120     0.2176835912    -0.0996562823
| 14>  H        0.7079647989     1.7840465641     0.5582466586
| 15>  H        0.3576823148     0.2633463482    -1.0514436084
| 16>  H        0.7198650936    -0.6250154327     0.4370226626
| 17>  H       -0.8976612529    -3.5641296011    -1.1146255635
| 18>  H        0.1429441334    -2.8334614583     0.1134698914
| 19>  H       -0.9429681842    -4.8749722570     0.7076103438
| 20>  H       -3.8299269456    -2.7470252084    -0.1859324185
| 21>  H       -4.5819269259    -0.1273964451    -0.1466546333
| 22>  H       -2.4378038779     1.2150508766     0.0233323382
| 23> *
| 24>
| 25>                          ****END OF INPUT****

CARTESIAN COORDINATES (ANGSTROEM)
---------------------------------
  O     -0.104503    1.288577    0.697061
  C     -0.002276    0.062418   -0.027925
  C     -1.352879   -0.571795   -0.049416
  C     -1.765291   -1.889576   -0.095642
  C     -0.901268   -3.108208   -0.110113
  O     -1.402798   -4.041003    0.845308
  C     -3.191351   -1.878205   -0.157813
  C     -3.597223   -0.566604   -0.143880
  N     -2.473218    0.217684   -0.099656
  H      0.707965    1.784047    0.558247
  H      0.357682    0.263346   -1.051444
  H      0.719865   -0.625015    0.437023
  H     -0.897661   -3.564130   -1.114626
  H      0.142944   -2.833461    0.113470
  H     -0.942968   -4.874972    0.707610
  H     -3.829927   -2.747025   -0.185932
  H     -4.581927   -0.127396   -0.146655
  H     -2.437804    1.215051    0.023332

 Total Charge           Charge          ....    0
 Multiplicity           Mult            ....    1
 Number of Electrons    NEL             ....   68
 Basis Dimension        Dim             ....  333

ORBITAL ENERGIES
----------------

  NO   OCC          E(Eh)            E(eV)
   0   2.0000     -20.569802      -559.7328
   1   2.0000     -20.548484      -559.1527
   2   2.0000     -15.589813      -424.2204
   3   2.0000     -11.293637      -307.3155
   4   2.0000     -11.276105      -306.8384
   5   2.0000     -11.249097      -306.1035
   6   2.0000     -11.242590      -305.9264
   7   2.0000     -11.206343      -304.9401
   8   2.0000     -11.197635      -304.7031
   9   2.0000      -1.373636       -37.3785
  10   2.0000      -1.351130       -36.7661
  11   2.0000      -1.281260       -34.8649
  12   2.0000      -1.053155       -28.6578
  13   2.0000      -1.015217       -27.6255
  14   2.0000      -0.934637       -25.4328
  15   2.0000      -0.884174       -24.0596
  16   2.0000      -0.783684       -21.3251
  17   2.0000      -0.735625       -20.0174
  18   2.0000      -0.709760       -19.3135
  19   2.0000      -0.695324       -18.9207
  20   2.0000      -0.681154       -18.5351
  21   2.0000      -0.645501       -17.5650
  22   2.0000      -0.618461       -16.8292
  23   2.0000      -0.584586       -15.9074
  24   2.0000      -0.578348       -15.7376
  25   2.0000      -0.553203       -15.0534
  26   2.0000      -0.549366       -14.9490
  27   2.0000      -0.529959       -14.4209
  28   2.0000      -0.513029       -13.9602
  29   2.0000      -0.491624       -13.3778
  30   2.0000      -0.466524       -12.6948
  31   2.0000      -0.443060       -12.0563
  32   2.0000      -0.333365        -9.0713
  33   2.0000      -0.286002        -7.7825
  34   0.0000       0.123517         3.3611
  35   0.0000       0.136460         3.7133
  36   0.0000       0.162676         4.4266
  37   0.0000       0.174934         4.7602
  38   0.0000       0.180973         4.9245

MULLIKEN ATOMIC CHARGES
-----------------------
   0 O :   -0.479548
   1 C :   -0.140015
   2 C :    0.118672
   3 C :    0.048209
   4 C :   -0.125683
   5 O :   -0.458257
   6 C :   -0.228746
   7 C :   -0.065272
   8 N :   -0.258658
   9 H :    0.319499
  10 H :    0.116297
  11 H :    0.118645
  12 H :    0.112578
  13 H :    0.083489
  14 H :    0.310303
  15 H :    0.131586
  16 H :    0.140656
  17 H :    0.256244
Sum of atomic charges:   -0.0000000

LOEWDIN ATOMIC CHARGES
----------------------
   0 O :   -0.054017
   1 C :   -0.311088
   2 C :   -0.214035
   3 C :   -0.173111
   4 C :   -0.310700
   5 O :   -0.047520
   6 C :   -0.164119
   7 C :   -0.233481
   8 N :    0.208604
   9 H :    0.172971
  10 H :    0.122974
  11 H :    0.126557
  12 H :    0.121476
  13 H :    0.117748
  14 H :    0.168693
  15 H :    0.142407
  16 H :    0.131351
  17 H :    0.195289

  Mayer bond orders larger than 0.1
B(  0-O ,  1-C ) :   1.0401 B(  0-O ,  2-C ) :  -0.1206 B(  0-O ,  9-H ) :   0.8451
B(  1-C ,  2-C ) :   0.8823 B(  1-C , 10-H ) :   0.9260 B(  1-C , 11-H ) :   0.9538
B(  2-C ,  3-C ) :   1.4303 B(  2-C ,  8-N ) :   1.1570 B(  3-C ,  4-C ) :   0.8836
B(  3-C ,  5-O ) :  -0.1595 B(  3-C ,  6-C ) :   1.2722 B(  4-C ,  5-O ) :   1.0948
B(  4-C , 12-H ) :   0.9373 B(  4-C , 13-H ) :   0.9356 B(  5-O , 14-H ) :   0.8495
B(  6-C ,  7-C ) :   1.4825 B(  6-C , 15-H ) :   0.9333 B(  7-C ,  8-N ) :   1.1209
B(  7-C , 16-H ) :   0.9225 B(  8-N , 17-H ) :   0.8628

MP2 TOTAL ENERGY:     -438.390679961 Eh
FINAL SINGLE POINT ENERGY      -438.390679961019

DIPOLE MOMENT
-------------
                                X             Y             Z
Electronic contribution:     -2.19159       1.45451       0.95344
Nuclear contribution   :      3.16800      -0.96131      -1.63577
                        -----------------------------------------
Total Dipole Moment    :      0.97641       0.49320      -0.68232
                        -----------------------------------------
Magnitude (a.u.)       :      1.28926
Magnitude (Debye)      :      3.27704

                             ****ORCA TERMINATED NORMALLY****
TOTAL RUN TIME: 0 days 0 hours 15 minutes 18 seconds 347 msec
