                         Program Version 3.0.3 - RELEASE   -
|  1> ! RI-MP2 RIJK def2-TZVP def2-TZVP/C def2-TZVP/JK TIGHTSCF
|  2> % maxcore 2000
|  3> % mp2 density relaxed end
|  4> *xyz 0 1
|  5>  O        0.0815314532     1.5969286569    -0.1938461642
|  6>  C       -0.0059380003     0.2046672480     0.0197459404
|  7>  C        0.1794641804    -0.3263777442     1.4868797649
|  8>  C       -1.1079410496    -1.1721654683     1.3093313152
|  9>  C       -1.4805710378    -0.2942706233     0.0867270545
| 10>  C        0.8083858940    -0.5286416921    -0.9429457980
| 11>  C        1.5153790167    -1.1118956196    -1.7323825006
| 12>  C        2.3053761460    -1.7763549988    -2.6253332266
| 13>  N        2.9795500265    -2.3420701058    -3.3839329667
| 14>  H        1.0114369359     1.8443090380    -0.2555779163
| 15>  H        1.1124820342    -0.8395492834     1.7253638919
| 16>  H        0.0326787453     0.5122753031     2.1718647617
| 17>  H       -0.8861254019    -2.2027498364     1.0231125361
| 18>  H       -1.8113798508    -1.1848102288     2.1425551144
| 19>  H       -2.1098545567     0.5556061631     0.3609582150
| 20>  H       -1.8853383353    -0.7764495584    -0.8035653116
| 21> *
| 22>
| 23>                          ****END OF INPUT****

CARTESIAN COORDINATES (ANGSTROEM)
---------------------------------
  O      0.081531    1.596929   -0.193846
  C     -0.005938    0.204667    0.019746
  C      0.179464   -0.326378    1.486880
  C     -1.107941   -1.172165    1.309331
  C     -1.480571   -0.294271    0.086727
  C      0.808386   -0.528642   -0.942946
  C      1.515379   -1.111896   -1.732383
  C      2.305376   -1.776355   -2.625333
  N      2.979550   -2.342070   -3.383933
  H      1.011437    1.844309   -0.255578
  H      1.112482   -0.839549    1.725364
  H      0.032679    0.512275    2.171865
  H     -0.886125   -2.202750    1.023113
  H     -1.811380   -1.184810    2.142555
  H     -2.109855    0.555606    0.360958
  H     -1.885338   -0.776450   -0.803565

 Total Charge           Charge          ....    0
 Multiplicity           Mult            ....    1
 Number of Electrons    NEL             ....   64
 Basis Dimension        Dim             ....  321

ORBITAL ENERGIES
----------------

  NO   OCC          E(Eh)            E(eV)
   0   2.0000     -20.588271      -560.2353
   1   2.0000     -15.597254      -424.4229
   2   2.0000     -11.338721      -308.5423
   3   2.0000     -11.304511      -307.6114
   4   2.0000     -11.294705      -307.3445
   5   2.0000     -11.284030      -307.0541
   6   2.0000     -11.251297      -306.1633
   7   2.0000     -11.249353      -306.1105
   8   2.0000     -11.245305      -306.0003
   9   2.0000      -1.399248       -38.0755
  10   2.0000      -1.237191       -33.6657
  11   2.0000      -1.159217       -31.5439
  12   2.0000      -1.087580       -29.5946
  13   2.0000      -0.951749       -25.8984
  14   2.0000      -0.931962       -25.3600
  15   2.0000      -0.879359       -23.9286
  16   2.0000      -0.802541       -21.8383
  17   2.0000      -0.748388       -20.3647
  18   2.0000      -0.687231       -18.7005
  19   2.0000      -0.651682       -17.7332
  20   2.0000      -0.617125       -16.7928
  21   2.0000      -0.581956       -15.8358
  22   2.0000      -0.576670       -15.6920
  23   2.0000      -0.567636       -15.4462
  24   2.0000      -0.539986       -14.6938
  25   2.0000      -0.533683       -14.5222
  26   2.0000      -0.505815       -13.7639
  27   2.0000      -0.499864       -13.6020
  28   2.0000      -0.480164       -13.0659
  29   2.0000      -0.461799       -12.5662
  30   2.0000      -0.412281       -11.2187
  31   2.0000      -0.399063       -10.8591
  32   0.0000       0.084320         2.2945
  33   0.0000       0.093953         2.5566
  34   0.0000       0.120570         3.2809
  35   0.0000       0.143396         3.9020
  36   0.0000       0.156498         4.2585

MULLIKEN ATOMIC CHARGES
-----------------------
   0 O :   -0.446688
   1 C :    0.309668
   2 C :   -0.261177
   3 C :   -0.245690
   4 C :   -0.255356
   5 C :   -0.271983
   6 C :    0.293545
   7 C :   -0.218982
   8 N :   -0.032337
   9 H :    0.326105
  10 H :    0.133189
  11 H :    0.129657
  12 H :    0.135684
  13 H :    0.127307
  14 H :    0.136757
  15 H :    0.140300
Sum of atomic charges:   -0.0000000

LOEWDIN ATOMIC CHARGES
----------------------
   0 O :    0.031252
   1 C :   -0.352361
   2 C :   -0.187750
   3 C :   -0.236545
   4 C :   -0.177557
   5 C :    0.039844
   6 C :   -0.046905
   7 C :   -0.176386
   8 N :    0.101343
   9 H :    0.184210
  10 H :    0.130671
  11 H :    0.143686
  12 H :    0.137401
  13 H :    0.127529
  14 H :    0.148155
  15 H :    0.133412

  Mayer bond orders larger than 0.1
B(  0-O ,  1-C ) :   0.9448 B(  0-O ,  5-C ) :   0.1260 B(  0-O ,  9-H ) :   0.8326
B(  1-C ,  2-C ) :   0.8649 B(  1-C ,  4-C ) :   0.8124 B(  1-C ,  5-C ) :   1.1070
B(  2-C ,  3-C ) :   0.9473 B(  2-C , 10-H ) :   0.9249 B(  2-C , 11-H ) :   0.9174
B(  3-C ,  4-C ) :   0.9411 B(  3-C , 12-H ) :   0.9251 B(  3-C , 13-H ) :   0.9323
B(  4-C , 14-H ) :   0.9189 B(  4-C , 15-H ) :   0.9289 B(  5-C ,  6-C ) :   2.5592
B(  5-C ,  8-N ) :   0.1124 B(  6-C ,  7-C ) :   0.9404 B(  7-C ,  8-N ) :   2.7633

MP2 TOTAL ENERGY:     -400.020687583 Eh
FINAL SINGLE POINT ENERGY      -400.020687583296

DIPOLE MOMENT
-------------
                                X             Y             Z
Electronic contribution:      7.11758      -1.33165      -8.57527
Nuclear contribution   :     -7.77605       1.82695       9.91329
                        -----------------------------------------
Total Dipole Moment    :     -0.65847       0.49530       1.33802
                        -----------------------------------------
Magnitude (a.u.)       :      1.57137
Magnitude (Debye)      :      3.99410

                             ****ORCA TERMINATED NORMALLY****
TOTAL RUN TIME: 0 days 0 hours 14 minutes 50 seconds 549 msec
