                         Program Version 3.0.3 - RELEASE   -
|  1> ! RI-MP2 RIJK def2-TZVP def2-TZVP/C def2-TZVP/JK TIGHTSCF
|  2> % maxcore 2000
|  3> % mp2 density relaxed end
|  4> *xyz 0 1
|  5>  C       -0.2612640599     1.4718192608     0.0188952988
|  6>  C        0.0371443040     0.0056605238    -0.0295311779
|  7>  N        0.0758011029    -0.5512200437    -1.1886620907
|  8>  O        0.3568233623    -1.9299240106    -1.2221918459
|  9>  C        0.5781521994    -2.6417592034    -0.0715480021
| 10>  N        0.8337186004    -3.8844246543    -0.0673499996
| 11>  C        0.5010551852    -1.8719050030     1.1686023996
| 12>  N        0.2462807485    -0.6181507169     1.2114726531
| 13>  H        0.5628975036     2.0007702898     0.5082453555
| 14>  H       -0.4086408862     1.8687594016    -0.9853730739
| 15>  H       -1.1587192677     1.6467034931     0.6209644364
| 16>  H        0.8492495419    -4.2619170669    -1.0169189468
| 17>  H        0.6746939257    -2.4243092003     2.0899707834
| 18> *
| 19>
| 20>                          ****END OF INPUT****

CARTESIAN COORDINATES (ANGSTROEM)
---------------------------------
  C     -0.261264    1.471819    0.018895
  C      0.037144    0.005661   -0.029531
  N      0.075801   -0.551220   -1.188662
  O      0.356823   -1.929924   -1.222192
  C      0.578152   -2.641759   -0.071548
  N      0.833719   -3.884425   -0.067350
  C      0.501055   -1.871905    1.168602
  N      0.246281   -0.618151    1.211473
  H      0.562898    2.000770    0.508245
  H     -0.408641    1.868759   -0.985373
  H     -1.158719    1.646703    0.620964
  H      0.849250   -4.261917   -1.016919
  H      0.674694   -2.424309    2.089971

 Total Charge           Charge          ....    0
 Multiplicity           Mult            ....    1
 Number of Electrons    NEL             ....   58
 Basis Dimension        Dim             ....  278

ORBITAL ENERGIES
----------------

  NO   OCC          E(Eh)            E(eV)
   0   2.0000     -20.644138      -561.7556
   1   2.0000     -15.646357      -425.7590
   2   2.0000     -15.613046      -424.8526
   3   2.0000     -15.567189      -423.6047
   4   2.0000     -11.367934      -309.3372
   5   2.0000     -11.337771      -308.5164
   6   2.0000     -11.335536      -308.4556
   7   2.0000     -11.246608      -306.0357
   8   2.0000      -1.484874       -40.4055
   9   2.0000      -1.299292       -35.3555
  10   2.0000      -1.250126       -34.0177
  11   2.0000      -1.161572       -31.6080
  12   2.0000      -1.013828       -27.5877
  13   2.0000      -0.953408       -25.9436
  14   2.0000      -0.877577       -23.8801
  15   2.0000      -0.784067       -21.3355
  16   2.0000      -0.723801       -19.6956
  17   2.0000      -0.690063       -18.7776
  18   2.0000      -0.675053       -18.3691
  19   2.0000      -0.615012       -16.7353
  20   2.0000      -0.599780       -16.3208
  21   2.0000      -0.579350       -15.7649
  22   2.0000      -0.566628       -15.4187
  23   2.0000      -0.533206       -14.5093
  24   2.0000      -0.518959       -14.1216
  25   2.0000      -0.490430       -13.3453
  26   2.0000      -0.487223       -13.2580
  27   2.0000      -0.433667       -11.8007
  28   2.0000      -0.373891       -10.1741
  29   0.0000       0.042244         1.1495
  30   0.0000       0.138055         3.7567
  31   0.0000       0.147798         4.0218
  32   0.0000       0.158033         4.3003
  33   0.0000       0.175326         4.7709

MULLIKEN ATOMIC CHARGES
-----------------------
   0 C :   -0.376448
   1 C :    0.170150
   2 N :   -0.082268
   3 O :   -0.144462
   4 C :    0.159911
   5 N :   -0.368874
   6 C :    0.007691
   7 N :   -0.212144
   8 H :    0.147462
   9 H :    0.157583
  10 H :    0.147465
  11 H :    0.231973
  12 H :    0.161962
Sum of atomic charges:    0.0000000

LOEWDIN ATOMIC CHARGES
----------------------
   0 C :   -0.260935
   1 C :   -0.355123
   2 N :    0.084849
   3 O :    0.225593
   4 C :   -0.420990
   5 N :   -0.037259
   6 C :   -0.144307
   7 N :    0.164848
   8 H :    0.139136
   9 H :    0.137425
  10 H :    0.139140
  11 H :    0.171914
  12 H :    0.155711

  Mayer bond orders larger than 0.1
B(  0-C ,  1-C ) :   0.9125 B(  0-C ,  8-H ) :   0.9192 B(  0-C ,  9-H ) :   0.9439
B(  0-C , 10-H ) :   0.9192 B(  1-C ,  2-N ) :   1.7744 B(  1-C ,  7-N ) :   1.0388
B(  2-N ,  3-O ) :   0.7921 B(  3-O ,  4-C ) :   1.0727 B(  4-C ,  5-N ) :   1.9330
B(  4-C ,  6-C ) :   1.0114 B(  5-N , 11-H ) :   0.8514 B(  6-C ,  7-N ) :   1.7246
B(  6-C , 12-H ) :   0.9122

MP2 TOTAL ENERGY:     -394.091158828 Eh
FINAL SINGLE POINT ENERGY      -394.091158828174

DIPOLE MOMENT
-------------
                                X             Y             Z
Electronic contribution:      0.78769      -4.20562      -1.18079
Nuclear contribution   :     -0.89049       4.76708       1.37419
                        -----------------------------------------
Total Dipole Moment    :     -0.10280       0.56146       0.19340
                        -----------------------------------------
Magnitude (a.u.)       :      0.60267
Magnitude (Debye)      :      1.53186

                             ****ORCA TERMINATED NORMALLY****
TOTAL RUN TIME: 0 days 0 hours 10 minutes 7 seconds 947 msec
