                         Program Version 3.0.3 - RELEASE   -
|  1> ! RI-MP2 RIJK def2-TZVP def2-TZVP/C def2-TZVP/JK TIGHTSCF
|  2> % maxcore 2000
|  3> % mp2 density relaxed end
|  4> *xyz 0 1
|  5>  C        0.0036223608     1.4237399332     0.1054683773
|  6>  C       -0.0219096622    -0.0543839242    -0.0492359425
|  7>  N       -0.0656133109    -0.7206745141    -1.1354954667
|  8>  C       -0.0165000272    -2.1103511308    -0.7856455911
|  9>  C        1.2098346949    -2.5863507395    -0.0511126053
| 10>  C        0.0185591473    -2.1291932392     0.7566761480
| 11>  O        0.0026539323    -0.7637415245     1.1282239174
| 12>  C       -0.7140218051    -2.9990338569     1.6242224243
| 13>  N       -1.2991662991    -3.7301144170     2.3031306688
| 14>  H        0.9457595104     1.7440334391     0.5613487839
| 15>  H       -0.1031884079     1.8921251327    -0.8722264820
| 16>  H       -0.8065189203     1.7479997633     0.7653502965
| 17>  H       -0.6001445428    -2.8004183106    -1.3817314677
| 18>  H        1.3951021122    -3.6541347409    -0.0483037691
| 19>  H        2.0910863278    -1.9537527705    -0.0402506419
| 20> *
| 21>
| 22>                          ****END OF INPUT****

CARTESIAN COORDINATES (ANGSTROEM)
---------------------------------
  C      0.003622    1.423740    0.105468
  C     -0.021910   -0.054384   -0.049236
  N     -0.065613   -0.720675   -1.135495
  C     -0.016500   -2.110351   -0.785646
  C      1.209835   -2.586351   -0.051113
  C      0.018559   -2.129193    0.756676
  O      0.002654   -0.763742    1.128224
  C     -0.714022   -2.999034    1.624222
  N     -1.299166   -3.730114    2.303131
  H      0.945760    1.744033    0.561349
  H     -0.103188    1.892125   -0.872226
  H     -0.806519    1.748000    0.765350
  H     -0.600145   -2.800418   -1.381731
  H      1.395102   -3.654135   -0.048304
  H      2.091086   -1.953753   -0.040251

 Total Charge           Charge          ....    0
 Multiplicity           Mult            ....    1
 Number of Electrons    NEL             ....   64
 Basis Dimension        Dim             ....  315

ORBITAL ENERGIES
----------------

  NO   OCC          E(Eh)            E(eV)
   0   2.0000     -20.631283      -561.4058
   1   2.0000     -15.584566      -424.0776
   2   2.0000     -15.571912      -423.7333
   3   2.0000     -11.362921      -309.2008
   4   2.0000     -11.353120      -308.9341
   5   2.0000     -11.304101      -307.6002
   6   2.0000     -11.286797      -307.1293
   7   2.0000     -11.272515      -306.7407
   8   2.0000     -11.255655      -306.2820
   9   2.0000      -1.479647       -40.2632
  10   2.0000      -1.253288       -34.1037
  11   2.0000      -1.231386       -33.5077
  12   2.0000      -1.163066       -31.6486
  13   2.0000      -1.025754       -27.9122
  14   2.0000      -0.935898       -25.4671
  15   2.0000      -0.869791       -23.6682
  16   2.0000      -0.803965       -21.8770
  17   2.0000      -0.773398       -21.0452
  18   2.0000      -0.687885       -18.7183
  19   2.0000      -0.679018       -18.4770
  20   2.0000      -0.629278       -17.1235
  21   2.0000      -0.622278       -16.9330
  22   2.0000      -0.591746       -16.1022
  23   2.0000      -0.584190       -15.8966
  24   2.0000      -0.573227       -15.5983
  25   2.0000      -0.560910       -15.2631
  26   2.0000      -0.536249       -14.5921
  27   2.0000      -0.514945       -14.0124
  28   2.0000      -0.487406       -13.2630
  29   2.0000      -0.475966       -12.9517
  30   2.0000      -0.406679       -11.0663
  31   2.0000      -0.394920       -10.7463
  32   0.0000       0.129398         3.5211
  33   0.0000       0.135475         3.6865
  34   0.0000       0.147969         4.0265
  35   0.0000       0.153871         4.1870
  36   0.0000       0.164166         4.4672

MULLIKEN ATOMIC CHARGES
-----------------------
   0 C :   -0.423897
   1 C :    0.226899
   2 N :   -0.264860
   3 C :   -0.012944
   4 C :   -0.257112
   5 C :    0.297332
   6 O :   -0.246420
   7 C :   -0.228554
   8 N :   -0.045445
   9 H :    0.154443
  10 H :    0.167084
  11 H :    0.159906
  12 H :    0.157030
  13 H :    0.160245
  14 H :    0.156293
Sum of atomic charges:   -0.0000000

LOEWDIN ATOMIC CHARGES
----------------------
   0 C :   -0.256729
   1 C :   -0.361058
   2 N :    0.127232
   3 C :   -0.199981
   4 C :   -0.155430
   5 C :   -0.276479
   6 O :    0.305529
   7 C :   -0.146531
   8 N :    0.084895
   9 H :    0.141776
  10 H :    0.144270
  11 H :    0.142721
  12 H :    0.149364
  13 H :    0.152208
  14 H :    0.148214

  Mayer bond orders larger than 0.1
B(  0-C ,  1-C ) :   0.8851 B(  0-C ,  9-H ) :   0.9198 B(  0-C , 10-H ) :   0.9462
B(  0-C , 11-H ) :   0.9265 B(  1-C ,  2-N ) :   1.8178 B(  1-C ,  6-O ) :   1.0455
B(  2-N ,  3-C ) :   0.9744 B(  3-C ,  4-C ) :   0.8790 B(  3-C ,  5-C ) :   0.8150
B(  3-C , 12-H ) :   0.9195 B(  4-C ,  5-C ) :   0.8474 B(  4-C , 13-H ) :   0.9186
B(  4-C , 14-H ) :   0.8976 B(  5-C ,  6-O ) :   0.9395 B(  5-C ,  7-C ) :   0.9404
B(  7-C ,  8-N ) :   2.8415

MP2 TOTAL ENERGY:     -416.110200073 Eh
FINAL SINGLE POINT ENERGY      -416.110200072757

DIPOLE MOMENT
-------------
                                X             Y             Z
Electronic contribution:     -2.37097      -4.66191       2.73244
Nuclear contribution   :      3.21405       5.42312      -3.36561
                        -----------------------------------------
Total Dipole Moment    :      0.84308       0.76121      -0.63317
                        -----------------------------------------
Magnitude (a.u.)       :      1.30044
Magnitude (Debye)      :      3.30544

                             ****ORCA TERMINATED NORMALLY****
TOTAL RUN TIME: 0 days 0 hours 16 minutes 30 seconds 359 msec
