                         Program Version 3.0.3 - RELEASE   -
|  1> ! RI-MP2 RIJK def2-TZVP def2-TZVP/C def2-TZVP/JK TIGHTSCF
|  2> % maxcore 2000
|  3> % mp2 density relaxed end
|  4> *xyz 0 1
|  5>  O        0.0936937028     1.4374273996     0.7104425154
|  6>  C       -0.0258317821     0.1380071198     0.1520754448
|  7>  C       -1.4369633504    -0.4234809296     0.2367508958
|  8>  C       -2.4467596022     0.3178614326    -0.6292185597
|  9>  C       -3.8992909525    -0.1664883656    -0.4646107909
| 10>  C       -4.8436247657     0.6871087232    -1.1794527396
| 11>  N       -5.5772578004     1.3719648818    -1.7525306296
| 12>  C       -1.5572455409    -1.8717378496     0.5538104766
| 13>  N       -1.9208503571    -0.8552268456     1.5550121850
| 14>  H       -0.2354546711     2.0784002186     0.0738758005
| 15>  H        0.3228648399     0.1164741497    -0.8919268614
| 16>  H        0.6495075495    -0.4995514231     0.7339776043
| 17>  H       -2.4109154970     1.3810103294    -0.3630297914
| 18>  H       -2.1499484574     0.2437507283    -1.6822687754
| 19>  H       -4.0153295180    -1.1896669497    -0.8378564543
| 20>  H       -4.1537429508    -0.1840126328     0.5995846391
| 21>  H       -2.3878253893    -2.4613333893     0.1769672178
| 22>  H       -0.6390313071    -2.4387451524     0.6877671610
| 23>  H       -1.1912305102    -0.7482145755     2.2552596020
| 24> *
| 25>
| 26>                          ****END OF INPUT****

CARTESIAN COORDINATES (ANGSTROEM)
---------------------------------
  O      0.093694    1.437427    0.710443
  C     -0.025832    0.138007    0.152075
  C     -1.436963   -0.423481    0.236751
  C     -2.446760    0.317861   -0.629219
  C     -3.899291   -0.166488   -0.464611
  C     -4.843625    0.687109   -1.179453
  N     -5.577258    1.371965   -1.752531
  C     -1.557246   -1.871738    0.553810
  N     -1.920850   -0.855227    1.555012
  H     -0.235455    2.078400    0.073876
  H      0.322865    0.116474   -0.891927
  H      0.649508   -0.499551    0.733978
  H     -2.410915    1.381010   -0.363030
  H     -2.149948    0.243751   -1.682269
  H     -4.015330   -1.189667   -0.837856
  H     -4.153743   -0.184013    0.599585
  H     -2.387825   -2.461333    0.176967
  H     -0.639031   -2.438745    0.687767
  H     -1.191231   -0.748215    2.255260

 Total Charge           Charge          ....    0
 Multiplicity           Mult            ....    1
 Number of Electrons    NEL             ....   68
 Basis Dimension        Dim             ....  339

ORBITAL ENERGIES
----------------

  NO   OCC          E(Eh)            E(eV)
   0   2.0000     -20.575060      -559.8758
   1   2.0000     -15.573652      -423.7806
   2   2.0000     -15.565532      -423.5597
   3   2.0000     -11.300625      -307.5056
   4   2.0000     -11.286428      -307.1193
   5   2.0000     -11.279290      -306.9251
   6   2.0000     -11.274863      -306.8046
   7   2.0000     -11.270704      -306.6914
   8   2.0000     -11.260045      -306.4014
   9   2.0000      -1.380918       -37.5767
  10   2.0000      -1.283939       -34.9377
  11   2.0000      -1.215938       -33.0873
  12   2.0000      -1.089383       -29.6436
  13   2.0000      -0.998565       -27.1723
  14   2.0000      -0.922962       -25.1151
  15   2.0000      -0.901051       -24.5188
  16   2.0000      -0.786494       -21.4016
  17   2.0000      -0.730615       -19.8811
  18   2.0000      -0.705281       -19.1917
  19   2.0000      -0.682006       -18.5583
  20   2.0000      -0.666965       -18.1490
  21   2.0000      -0.654737       -17.8163
  22   2.0000      -0.601423       -16.3656
  23   2.0000      -0.580929       -15.8079
  24   2.0000      -0.568385       -15.4665
  25   2.0000      -0.556184       -15.1345
  26   2.0000      -0.548878       -14.9357
  27   2.0000      -0.520161       -14.1543
  28   2.0000      -0.501521       -13.6471
  29   2.0000      -0.478924       -13.0322
  30   2.0000      -0.464695       -12.6450
  31   2.0000      -0.454917       -12.3789
  32   2.0000      -0.446428       -12.1479
  33   2.0000      -0.407808       -11.0970
  34   0.0000       0.116235         3.1629
  35   0.0000       0.133278         3.6267
  36   0.0000       0.141874         3.8606
  37   0.0000       0.156307         4.2533
  38   0.0000       0.172991         4.7073

MULLIKEN ATOMIC CHARGES
-----------------------
   0 O :   -0.468145
   1 C :   -0.071971
   2 C :    0.124931
   3 C :   -0.248613
   4 C :   -0.144711
   5 C :   -0.178400
   6 N :   -0.058005
   7 C :   -0.201760
   8 N :   -0.384877
   9 H :    0.324710
  10 H :    0.126193
  11 H :    0.114382
  12 H :    0.117730
  13 H :    0.133079
  14 H :    0.142052
  15 H :    0.190089
  16 H :    0.124639
  17 H :    0.133068
  18 H :    0.225606
Sum of atomic charges:   -0.0000000

LOEWDIN ATOMIC CHARGES
----------------------
   0 O :   -0.038210
   1 C :   -0.312665
   2 C :   -0.324015
   3 C :   -0.209651
   4 C :   -0.237531
   5 C :   -0.194669
   6 N :    0.052235
   7 C :   -0.241637
   8 N :    0.014336
   9 H :    0.174131
  10 H :    0.126984
  11 H :    0.135327
  12 H :    0.149142
  13 H :    0.149640
  14 H :    0.162122
  15 H :    0.173301
  16 H :    0.125208
  17 H :    0.125106
  18 H :    0.170848

  Mayer bond orders larger than 0.1
B(  0-O ,  1-C ) :   0.9695 B(  0-O ,  9-H ) :   0.8453 B(  1-C ,  2-C ) :   0.9364
B(  1-C , 10-H ) :   0.9436 B(  1-C , 11-H ) :   0.9172 B(  2-C ,  3-C ) :   0.8832
B(  2-C ,  7-C ) :   0.9322 B(  2-C ,  8-N ) :   0.8638 B(  3-C ,  4-C ) :   0.9499
B(  3-C , 12-H ) :   0.9235 B(  3-C , 13-H ) :   0.9216 B(  4-C ,  5-C ) :   0.9315
B(  4-C , 14-H ) :   0.9028 B(  4-C , 15-H ) :   0.9050 B(  5-C ,  6-N ) :   2.8926
B(  7-C ,  8-N ) :   0.9167 B(  7-C , 16-H ) :   0.9117 B(  7-C , 17-H ) :   0.9149
B(  8-N , 18-H ) :   0.8669

MP2 TOTAL ENERGY:     -418.490964016 Eh
FINAL SINGLE POINT ENERGY      -418.490964015547

DIPOLE MOMENT
-------------
                                X             Y             Z
Electronic contribution:     -4.91773       3.18191      -1.14610
Nuclear contribution   :      6.41659      -4.24417       1.20922
                        -----------------------------------------
Total Dipole Moment    :      1.49885      -1.06226       0.06312
                        -----------------------------------------
Magnitude (a.u.)       :      1.83819
Magnitude (Debye)      :      4.67231

                             ****ORCA TERMINATED NORMALLY****
TOTAL RUN TIME: 0 days 0 hours 16 minutes 50 seconds 793 msec
