                         Program Version 3.0.3 - RELEASE   -
|  1> ! RI-MP2 RIJK def2-TZVP def2-TZVP/C def2-TZVP/JK TIGHTSCF
|  2> % maxcore 2000
|  3> % mp2 density relaxed end
|  4> *xyz 0 1
|  5>  C       -0.2263980327     1.5769852191     0.0041005300
|  6>  C        0.0363257320     0.0680943300    -0.0400939817
|  7>  O        0.7248021324    -0.3068043906    -1.2317826129
|  8>  C        2.1383049715    -0.2674109019    -1.1325298017
|  9>  C        2.6343686173    -0.7571083146     0.2180848715
| 10>  C        1.6806858200    -1.6967321826     1.0270036156
| 11>  C        2.4277644368    -1.2405675495     2.3086851159
| 12>  C        2.2137521771     0.0537482343     1.4819064572
| 13>  C        0.7602598538    -0.4442522394     1.2004730624
| 14>  H        0.7094882420     2.1424517179     0.0578315550
| 15>  H       -0.7657317479     1.8918104986    -0.8933596811
| 16>  H       -0.8285088197     1.8406947232     0.8803736710
| 17>  H       -0.9286604358    -0.4505613389    -0.1123909917
| 18>  H        2.5087839796    -0.9140229784    -1.9359941408
| 19>  H        2.5261059652     0.7475060999    -1.3288038166
| 20>  H        3.6875663653    -1.0553412561     0.1838991727
| 21>  H        1.3705700617    -2.7084162496     0.7614696254
| 22>  H        1.8750212201    -1.3170395664     3.2496502321
| 23>  H        3.4609593067    -1.5826367513     2.4199825150
| 24>  H        2.5274774609     1.0656964236     1.7453008160
| 25>  H        0.0984549139    -0.4570875871     2.0730826268
| 26> *
| 27>
| 28>                          ****END OF INPUT****

CARTESIAN COORDINATES (ANGSTROEM)
---------------------------------
  C     -0.226398    1.576985    0.004101
  C      0.036326    0.068094   -0.040094
  O      0.724802   -0.306804   -1.231783
  C      2.138305   -0.267411   -1.132530
  C      2.634369   -0.757108    0.218085
  C      1.680686   -1.696732    1.027004
  C      2.427764   -1.240568    2.308685
  C      2.213752    0.053748    1.481906
  C      0.760260   -0.444252    1.200473
  H      0.709488    2.142452    0.057832
  H     -0.765732    1.891810   -0.893360
  H     -0.828509    1.840695    0.880374
  H     -0.928660   -0.450561   -0.112391
  H      2.508784   -0.914023   -1.935994
  H      2.526106    0.747506   -1.328804
  H      3.687566   -1.055341    0.183899
  H      1.370570   -2.708416    0.761470
  H      1.875021   -1.317040    3.249650
  H      3.460959   -1.582637    2.419983
  H      2.527477    1.065696    1.745301
  H      0.098455   -0.457088    2.073083

 Total Charge           Charge          ....    0
 Multiplicity           Mult            ....    1
 Number of Electrons    NEL             ....   68
 Basis Dimension        Dim             ....  351

ORBITAL ENERGIES
----------------

  NO   OCC          E(Eh)            E(eV)
   0   2.0000     -20.542892      -559.0005
   1   2.0000     -11.272972      -306.7532
   2   2.0000     -11.267116      -306.5938
   3   2.0000     -11.241915      -305.9081
   4   2.0000     -11.240366      -305.8659
   5   2.0000     -11.234159      -305.6970
   6   2.0000     -11.233620      -305.6824
   7   2.0000     -11.227934      -305.5276
   8   2.0000     -11.211633      -305.0840
   9   2.0000      -1.367203       -37.2035
  10   2.0000      -1.209515       -32.9126
  11   2.0000      -1.040547       -28.3147
  12   2.0000      -0.965026       -26.2597
  13   2.0000      -0.913955       -24.8700
  14   2.0000      -0.857766       -23.3410
  15   2.0000      -0.848463       -23.0878
  16   2.0000      -0.805815       -21.9274
  17   2.0000      -0.682687       -18.5769
  18   2.0000      -0.676916       -18.4198
  19   2.0000      -0.666637       -18.1401
  20   2.0000      -0.643049       -17.4982
  21   2.0000      -0.629826       -17.1384
  22   2.0000      -0.572564       -15.5803
  23   2.0000      -0.567048       -15.4302
  24   2.0000      -0.547477       -14.8976
  25   2.0000      -0.528234       -14.3740
  26   2.0000      -0.515745       -14.0341
  27   2.0000      -0.498935       -13.5767
  28   2.0000      -0.457914       -12.4605
  29   2.0000      -0.444531       -12.0963
  30   2.0000      -0.438465       -11.9312
  31   2.0000      -0.431140       -11.7319
  32   2.0000      -0.413608       -11.2548
  33   2.0000      -0.396284       -10.7834
  34   0.0000       0.139574         3.7980
  35   0.0000       0.156540         4.2597
  36   0.0000       0.159069         4.3285
  37   0.0000       0.169004         4.5988
  38   0.0000       0.190990         5.1971

MULLIKEN ATOMIC CHARGES
-----------------------
   0 C :   -0.413763
   1 C :    0.098576
   2 O :   -0.329613
   3 C :   -0.051506
   4 C :   -0.113100
   5 C :   -0.128419
   6 C :   -0.200272
   7 C :   -0.152014
   8 C :   -0.106982
   9 H :    0.125154
  10 H :    0.140743
  11 H :    0.126077
  12 H :    0.094674
  13 H :    0.119299
  14 H :    0.090923
  15 H :    0.105007
  16 H :    0.133486
  17 H :    0.112136
  18 H :    0.112114
  19 H :    0.131431
  20 H :    0.106048
Sum of atomic charges:    0.0000000

LOEWDIN ATOMIC CHARGES
----------------------
   0 C :   -0.291454
   1 C :   -0.323750
   2 O :    0.174226
   3 C :   -0.297951
   4 C :   -0.186997
   5 C :   -0.135118
   6 C :   -0.197560
   7 C :   -0.151963
   8 C :   -0.166107
   9 H :    0.122927
  10 H :    0.125600
  11 H :    0.126236
  12 H :    0.146905
  13 H :    0.131723
  14 H :    0.122792
  15 H :    0.146188
  16 H :    0.126836
  17 H :    0.127536
  18 H :    0.127506
  19 H :    0.124545
  20 H :    0.147883

  Mayer bond orders larger than 0.1
B(  0-C ,  1-C ) :   0.9116 B(  0-C ,  9-H ) :   0.9325 B(  0-C , 10-H ) :   0.9402
B(  0-C , 11-H ) :   0.9344 B(  1-C ,  2-O ) :   0.9158 B(  1-C ,  8-C ) :   0.9294
B(  1-C , 12-H ) :   0.9197 B(  2-O ,  3-C ) :   0.9438 B(  3-C ,  4-C ) :   0.9421
B(  3-C , 13-H ) :   0.9287 B(  3-C , 14-H ) :   0.9229 B(  4-C ,  5-C ) :   0.8948
B(  4-C ,  7-C ) :   0.8867 B(  4-C , 15-H ) :   0.9200 B(  5-C ,  6-C ) :   0.9126
B(  5-C ,  8-C ) :   0.8919 B(  5-C , 16-H ) :   0.8873 B(  6-C ,  7-C ) :   0.9127
B(  6-C , 17-H ) :   0.9288 B(  6-C , 18-H ) :   0.9283 B(  7-C ,  8-C ) :   0.9035
B(  7-C , 19-H ) :   0.8913 B(  8-C , 20-H ) :   0.9209

MP2 TOTAL ENERGY:     -386.377739460 Eh
FINAL SINGLE POINT ENERGY      -386.377739459864

DIPOLE MOMENT
-------------
                                X             Y             Z
Electronic contribution:      0.23503      -2.61360      -1.79885
Nuclear contribution   :     -0.00928       2.71805       2.25768
                        -----------------------------------------
Total Dipole Moment    :      0.22575       0.10444       0.45884
                        -----------------------------------------
Magnitude (a.u.)       :      0.52192
Magnitude (Debye)      :      1.32662

                             ****ORCA TERMINATED NORMALLY****
TOTAL RUN TIME: 0 days 0 hours 19 minutes 54 seconds 139 msec
