                         Program Version 3.0.3 - RELEASE   -
|  1> ! RI-MP2 RIJK def2-TZVP def2-TZVP/C def2-TZVP/JK TIGHTSCF
|  2> % maxcore 2000
|  3> % mp2 density relaxed end
|  4> *xyz 0 1
|  5>  C       -0.0143039780     1.5396655827    -0.1109020527
|  6>  C       -0.0266780341     0.0189190377     0.0688624355
|  7>  C       -1.4323703303    -0.5787925540     0.0687254049
|  8>  C       -2.1257418097    -0.6130996241    -1.3366029236
|  9>  C       -2.1355443023    -2.1453875138    -1.2867751078
| 10>  C       -1.4604755742    -2.1157815362     0.0942732989
| 11>  C       -2.8474567554    -2.6899845834    -0.0711519078
| 12>  C       -4.0900176131    -2.0506536802     0.5211656670
| 13>  C       -2.8845455293    -4.2103504903    -0.0204148183
| 14>  H        1.0073693212     1.9320728927    -0.1122899429
| 15>  H       -0.4837133195     1.8342599456    -1.0558083159
| 16>  H       -0.5613712710     2.0372407831     0.6977360171
| 17>  H        0.5660585953    -0.4555578913    -0.7250338832
| 18>  H        0.4686508218    -0.2418306672     1.0139307280
| 19>  H       -2.0209580053    -0.0982385151     0.8606400043
| 20>  H       -3.0958776543    -0.1154312933    -1.4371854559
| 21>  H       -1.4633675541    -0.2285963139    -2.1171712688
| 22>  H       -1.9187361078    -2.7886356150    -2.1330173629
| 23>  H       -0.6444312291    -2.7290134177     0.4646606920
| 24>  H       -4.0750323764    -0.9601123509     0.4734832178
| 25>  H       -4.9872240101    -2.3908815782    -0.0095462946
| 26>  H       -4.2052880290    -2.3334179894     1.5743130678
| 27>  H       -2.9693770813    -4.5676258331     1.0125084666
| 28>  H       -3.7439909147    -4.6013103600    -0.5775768903
| 29>  H       -1.9788901395    -4.6483843447    -0.4521026453
| 30> *
| 31>
| 32>                          ****END OF INPUT****

CARTESIAN COORDINATES (ANGSTROEM)
---------------------------------
  C     -0.014304    1.539666   -0.110902
  C     -0.026678    0.018919    0.068862
  C     -1.432370   -0.578793    0.068725
  C     -2.125742   -0.613100   -1.336603
  C     -2.135544   -2.145388   -1.286775
  C     -1.460476   -2.115782    0.094273
  C     -2.847457   -2.689985   -0.071152
  C     -4.090018   -2.050654    0.521166
  C     -2.884546   -4.210350   -0.020415
  H      1.007369    1.932073   -0.112290
  H     -0.483713    1.834260   -1.055808
  H     -0.561371    2.037241    0.697736
  H      0.566059   -0.455558   -0.725034
  H      0.468651   -0.241831    1.013931
  H     -2.020958   -0.098239    0.860640
  H     -3.095878   -0.115431   -1.437185
  H     -1.463368   -0.228596   -2.117171
  H     -1.918736   -2.788636   -2.133017
  H     -0.644431   -2.729013    0.464661
  H     -4.075032   -0.960112    0.473483
  H     -4.987224   -2.390882   -0.009546
  H     -4.205288   -2.333418    1.574313
  H     -2.969377   -4.567626    1.012508
  H     -3.743991   -4.601310   -0.577577
  H     -1.978890   -4.648384   -0.452103

 Total Charge           Charge          ....    0
 Multiplicity           Mult            ....    1
 Number of Electrons    NEL             ....   70
 Basis Dimension        Dim             ....  375

ORBITAL ENERGIES
----------------

  NO   OCC          E(Eh)            E(eV)
   0   2.0000     -11.233517      -305.6795
   1   2.0000     -11.223038      -305.3944
   2   2.0000     -11.221229      -305.3452
   3   2.0000     -11.219185      -305.2895
   4   2.0000     -11.217120      -305.2333
   5   2.0000     -11.216063      -305.2046
   6   2.0000     -11.212413      -305.1053
   7   2.0000     -11.210115      -305.0427
   8   2.0000     -11.209233      -305.0187
   9   2.0000      -1.187734       -32.3199
  10   2.0000      -1.059817       -28.8391
  11   2.0000      -1.003668       -27.3112
  12   2.0000      -0.938094       -25.5268
  13   2.0000      -0.909117       -24.7383
  14   2.0000      -0.895792       -24.3757
  15   2.0000      -0.806202       -21.9379
  16   2.0000      -0.728615       -19.8266
  17   2.0000      -0.719454       -19.5773
  18   2.0000      -0.658065       -17.9069
  19   2.0000      -0.634663       -17.2701
  20   2.0000      -0.609961       -16.5979
  21   2.0000      -0.585826       -15.9411
  22   2.0000      -0.573729       -15.6120
  23   2.0000      -0.553939       -15.0734
  24   2.0000      -0.538588       -14.6557
  25   2.0000      -0.530313       -14.4306
  26   2.0000      -0.519095       -14.1253
  27   2.0000      -0.510217       -13.8837
  28   2.0000      -0.501251       -13.6397
  29   2.0000      -0.475845       -12.9484
  30   2.0000      -0.470707       -12.8086
  31   2.0000      -0.444900       -12.1064
  32   2.0000      -0.437705       -11.9106
  33   2.0000      -0.377518       -10.2728
  34   2.0000      -0.363374        -9.8879
  35   0.0000       0.136639         3.7181
  36   0.0000       0.149639         4.0719
  37   0.0000       0.159926         4.3518
  38   0.0000       0.168752         4.5920
  39   0.0000       0.184331         5.0159

MULLIKEN ATOMIC CHARGES
-----------------------
   0 C :   -0.386568
   1 C :   -0.266040
   2 C :   -0.008908
   3 C :   -0.275197
   4 C :   -0.158862
   5 C :   -0.203766
   6 C :    0.173247
   7 C :   -0.396127
   8 C :   -0.446633
   9 H :    0.134310
  10 H :    0.125029
  11 H :    0.122019
  12 H :    0.115605
  13 H :    0.110668
  14 H :    0.091496
  15 H :    0.117639
  16 H :    0.117447
  17 H :    0.124112
  18 H :    0.120327
  19 H :    0.135825
  20 H :    0.128123
  21 H :    0.127532
  22 H :    0.132511
  23 H :    0.132943
  24 H :    0.133268
Sum of atomic charges:   -0.0000000

LOEWDIN ATOMIC CHARGES
----------------------
   0 C :   -0.317558
   1 C :   -0.275209
   2 C :   -0.211242
   3 C :   -0.198457
   4 C :   -0.150598
   5 C :   -0.134647
   6 C :   -0.263741
   7 C :   -0.264305
   8 C :   -0.262406
   9 H :    0.120503
  10 H :    0.120575
  11 H :    0.120633
  12 H :    0.139071
  13 H :    0.137325
  14 H :    0.141832
  15 H :    0.125307
  16 H :    0.137216
  17 H :    0.134866
  18 H :    0.138115
  19 H :    0.126789
  20 H :    0.127402
  21 H :    0.127383
  22 H :    0.125941
  23 H :    0.125812
  24 H :    0.129394

  Mayer bond orders larger than 0.1
B(  0-C ,  1-C ) :   0.9226 B(  0-C ,  9-H ) :   0.9429 B(  0-C , 10-H ) :   0.9393
B(  0-C , 11-H ) :   0.9381 B(  1-C ,  2-C ) :   0.8894 B(  1-C , 12-H ) :   0.9362
B(  1-C , 13-H ) :   0.9376 B(  2-C ,  3-C ) :   0.9316 B(  2-C ,  5-C ) :   0.8889
B(  2-C , 14-H ) :   0.9326 B(  3-C ,  4-C ) :   0.9362 B(  3-C , 15-H ) :   0.9236
B(  3-C , 16-H ) :   0.9184 B(  4-C ,  5-C ) :   0.8434 B(  4-C ,  6-C ) :   0.8567
B(  4-C , 17-H ) :   0.9265 B(  5-C ,  6-C ) :   0.8365 B(  5-C , 18-H ) :   0.9288
B(  6-C ,  7-C ) :   0.9163 B(  6-C ,  8-C ) :   0.8829 B(  7-C , 19-H ) :   0.9339
B(  7-C , 20-H ) :   0.9368 B(  7-C , 21-H ) :   0.9373 B(  8-C , 22-H ) :   0.9430
B(  8-C , 23-H ) :   0.9433 B(  8-C , 24-H ) :   0.9318

MP2 TOTAL ENERGY:     -351.690172253 Eh
FINAL SINGLE POINT ENERGY      -351.690172252921

DIPOLE MOMENT
-------------
                                X             Y             Z
Electronic contribution:     -0.06906      -2.04177      -0.94025
Nuclear contribution   :      0.11960       2.02536       0.94908
                        -----------------------------------------
Total Dipole Moment    :      0.05054      -0.01641       0.00883
                        -----------------------------------------
Magnitude (a.u.)       :      0.05387
Magnitude (Debye)      :      0.13693

                             ****ORCA TERMINATED NORMALLY****
TOTAL RUN TIME: 0 days 0 hours 35 minutes 25 seconds 948 msec
