                         Program Version 3.0.3 - RELEASE   -
|  1> ! RI-MP2 RIJK def2-TZVP def2-TZVP/C def2-TZVP/JK TIGHTSCF
|  2> % maxcore 2000
|  3> % mp2 density relaxed end
|  4> *xyz 0 1
|  5>  C        0.0541902456     1.6020519432     0.2073112469
|  6>  C       -0.0657314088     0.0919231201    -0.0318579826
|  7>  C        0.7772697921    -0.6913618599     0.9961153340
|  8>  C       -1.5010644161    -0.3542058051    -0.0290741211
|  9>  C       -2.6644662165     0.2697102293     0.3617071365
| 10>  C       -3.7451266346    -0.6450526356     0.1789516855
| 11>  C       -3.2139291093    -1.8061199062    -0.3326448265
| 12>  N       -3.7820475838    -3.0221710089    -0.7739576655
| 13>  N       -1.8574608918    -1.6207533948    -0.4531443816
| 14>  H        1.1007158491     1.9170020180     0.1524079306
| 15>  H       -0.5152779978     2.1687036509    -0.5346107053
| 16>  H       -0.3227787750     1.8706887451     1.2000313094
| 17>  H        0.3561640758    -0.1191636156    -1.0271621225
| 18>  H        0.4220974728    -0.4924960426     2.0127451183
| 19>  H        0.7149540179    -1.7714743378     0.8296516720
| 20>  H        1.8323763606    -0.4023781118     0.9377264317
| 21>  H       -2.7382773567     1.2728975465     0.7522252445
| 22>  H       -4.7866819108    -0.4742978499     0.4062237748
| 23>  H       -4.7679832677    -2.8987667762    -0.9704963920
| 24>  H       -3.7035814180    -3.7576576634    -0.0762649044
| 25>  H       -1.2466608469    -2.2860510252    -0.8959661626
| 26> *
| 27>
| 28>                          ****END OF INPUT****

CARTESIAN COORDINATES (ANGSTROEM)
---------------------------------
  C      0.054190    1.602052    0.207311
  C     -0.065731    0.091923   -0.031858
  C      0.777270   -0.691362    0.996115
  C     -1.501064   -0.354206   -0.029074
  C     -2.664466    0.269710    0.361707
  C     -3.745127   -0.645053    0.178952
  C     -3.213929   -1.806120   -0.332645
  N     -3.782048   -3.022171   -0.773958
  N     -1.857461   -1.620753   -0.453144
  H      1.100716    1.917002    0.152408
  H     -0.515278    2.168704   -0.534611
  H     -0.322779    1.870689    1.200031
  H      0.356164   -0.119164   -1.027162
  H      0.422097   -0.492496    2.012745
  H      0.714954   -1.771474    0.829652
  H      1.832376   -0.402378    0.937726
  H     -2.738277    1.272898    0.752225
  H     -4.786682   -0.474298    0.406224
  H     -4.767983   -2.898767   -0.970496
  H     -3.703581   -3.757658   -0.076265
  H     -1.246661   -2.286051   -0.895966

 Total Charge           Charge          ....    0
 Multiplicity           Mult            ....    1
 Number of Electrons    NEL             ....   68
 Basis Dimension        Dim             ....  351

ORBITAL ENERGIES
----------------

  NO   OCC          E(Eh)            E(eV)
   0   2.0000     -15.586400      -424.1275
   1   2.0000     -15.560652      -423.4269
   2   2.0000     -11.277937      -306.8883
   3   2.0000     -11.242192      -305.9156
   4   2.0000     -11.236329      -305.7561
   5   2.0000     -11.214607      -305.1650
   6   2.0000     -11.211390      -305.0774
   7   2.0000     -11.196660      -304.6766
   8   2.0000     -11.193830      -304.5996
   9   2.0000      -1.291590       -35.1460
  10   2.0000      -1.181958       -32.1627
  11   2.0000      -1.074918       -29.2500
  12   2.0000      -1.031049       -28.0563
  13   2.0000      -0.937830       -25.5196
  14   2.0000      -0.927705       -25.2441
  15   2.0000      -0.817847       -22.2547
  16   2.0000      -0.776804       -21.1379
  17   2.0000      -0.757591       -20.6151
  18   2.0000      -0.690876       -18.7997
  19   2.0000      -0.661437       -17.9986
  20   2.0000      -0.624011       -16.9802
  21   2.0000      -0.596495       -16.2315
  22   2.0000      -0.586547       -15.9608
  23   2.0000      -0.575589       -15.6626
  24   2.0000      -0.556542       -15.1443
  25   2.0000      -0.544269       -14.8103
  26   2.0000      -0.536652       -14.6030
  27   2.0000      -0.524563       -14.2741
  28   2.0000      -0.485277       -13.2051
  29   2.0000      -0.478246       -13.0137
  30   2.0000      -0.470913       -12.8142
  31   2.0000      -0.434069       -11.8116
  32   2.0000      -0.340601        -9.2682
  33   2.0000      -0.269710        -7.3392
  34   0.0000       0.129341         3.5195
  35   0.0000       0.139993         3.8094
  36   0.0000       0.162042         4.4094
  37   0.0000       0.176714         4.8086
  38   0.0000       0.181430         4.9370

MULLIKEN ATOMIC CHARGES
-----------------------
   0 C :   -0.413668
   1 C :   -0.048311
   2 C :   -0.381353
   3 C :    0.122986
   4 C :   -0.222520
   5 C :   -0.236685
   6 C :    0.164155
   7 N :   -0.546739
   8 N :   -0.286128
   9 H :    0.133695
  10 H :    0.142840
  11 H :    0.127403
  12 H :    0.090181
  13 H :    0.130520
  14 H :    0.112714
  15 H :    0.125777
  16 H :    0.124387
  17 H :    0.119654
  18 H :    0.251545
  19 H :    0.251037
  20 H :    0.238510
Sum of atomic charges:   -0.0000000

LOEWDIN ATOMIC CHARGES
----------------------
   0 C :   -0.284953
   1 C :   -0.281946
   2 C :   -0.288541
   3 C :   -0.211040
   4 C :   -0.179904
   5 C :   -0.201168
   6 C :   -0.337209
   7 N :   -0.121928
   8 N :    0.213505
   9 H :    0.123034
  10 H :    0.126801
  11 H :    0.125370
  12 H :    0.154681
  13 H :    0.125966
  14 H :    0.117018
  15 H :    0.120818
  16 H :    0.139148
  17 H :    0.135110
  18 H :    0.169118
  19 H :    0.164576
  20 H :    0.191546

  Mayer bond orders larger than 0.1
B(  0-C ,  1-C ) :   0.9351 B(  0-C ,  9-H ) :   0.9385 B(  0-C , 10-H ) :   0.9382
B(  0-C , 11-H ) :   0.9319 B(  1-C ,  2-C ) :   0.9023 B(  1-C ,  3-C ) :   0.9383
B(  1-C , 12-H ) :   0.9204 B(  2-C , 13-H ) :   0.9330 B(  2-C , 14-H ) :   0.9385
B(  2-C , 15-H ) :   0.9346 B(  3-C ,  4-C ) :   1.4846 B(  3-C ,  8-N ) :   1.0672
B(  4-C ,  5-C ) :   1.2308 B(  4-C , 16-H ) :   0.9421 B(  5-C ,  6-C ) :   1.4861
B(  5-C , 17-H ) :   0.9360 B(  6-C ,  7-N ) :   1.0352 B(  6-C ,  8-N ) :   1.1391
B(  7-N , 18-H ) :   0.8894 B(  7-N , 19-H ) :   0.8753 B(  8-N , 20-H ) :   0.8667

MP2 TOTAL ENERGY:     -382.635661355 Eh
FINAL SINGLE POINT ENERGY      -382.635661354681

DIPOLE MOMENT
-------------
                                X             Y             Z
Electronic contribution:     -6.72352      -3.86144      -2.36855
Nuclear contribution   :      6.86555       3.33601       2.44036
                        -----------------------------------------
Total Dipole Moment    :      0.14203      -0.52543       0.07181
                        -----------------------------------------
Magnitude (a.u.)       :      0.54901
Magnitude (Debye)      :      1.39547

                             ****ORCA TERMINATED NORMALLY****
TOTAL RUN TIME: 0 days 0 hours 18 minutes 3 seconds 7 msec
