                         Program Version 3.0.3 - RELEASE   -
|  1> ! RI-MP2 RIJK def2-TZVP def2-TZVP/C def2-TZVP/JK TIGHTSCF
|  2> % maxcore 2000
|  3> % mp2 density relaxed end
|  4> *xyz 0 1
|  5>  C       -0.2700338284     1.3093893842     0.0736219064
|  6>  O        0.2190347291    -0.0158640620    -0.0682231660
|  7>  C        0.8100040970    -0.5030669399     1.0747239690
|  8>  C        2.2244965249    -0.1838392712     1.5616410292
|  9>  C        2.2276992388    -1.5837671368     2.2648663895
| 10>  C        1.7097803730    -1.4547067276     3.6973507239
| 11>  O        0.4087106181    -0.8662767274     3.5558338223
| 12>  C        0.0033583204    -1.0943823586     2.2223694991
| 13>  C        0.9503204767    -1.9694744950     1.4644799764
| 14>  H        0.5408108930     2.0199548675     0.2852267961
| 15>  H       -0.7389018597     1.5789709577    -0.8751071770
| 16>  H       -1.0133594602     1.3777131867     0.8796039889
| 17>  H        2.9255978627    -0.1552814115     0.7237042792
| 18>  H        2.3706229529     0.6940504502     2.2000975063
| 19>  H        3.1230614759    -2.1922556345     2.1480278196
| 20>  H        1.6332714106    -2.4356260763     4.1904457506
| 21>  H        2.3200185954    -0.7927642196     4.3206673413
| 22>  H       -1.0684779191    -1.1856923195     2.0927664255
| 23>  H        0.7218924290    -2.8899146764     0.9447510698
| 24> *
| 25>
| 26>                          ****END OF INPUT****

CARTESIAN COORDINATES (ANGSTROEM)
---------------------------------
  C     -0.270034    1.309389    0.073622
  O      0.219035   -0.015864   -0.068223
  C      0.810004   -0.503067    1.074724
  C      2.224497   -0.183839    1.561641
  C      2.227699   -1.583767    2.264866
  C      1.709780   -1.454707    3.697351
  O      0.408711   -0.866277    3.555834
  C      0.003358   -1.094382    2.222369
  C      0.950320   -1.969474    1.464480
  H      0.540811    2.019955    0.285227
  H     -0.738902    1.578971   -0.875107
  H     -1.013359    1.377713    0.879604
  H      2.925598   -0.155281    0.723704
  H      2.370623    0.694050    2.200098
  H      3.123061   -2.192256    2.148028
  H      1.633271   -2.435626    4.190446
  H      2.320019   -0.792764    4.320667
  H     -1.068478   -1.185692    2.092766
  H      0.721892   -2.889915    0.944751

 Total Charge           Charge          ....    0
 Multiplicity           Mult            ....    1
 Number of Electrons    NEL             ....   68
 Basis Dimension        Dim             ....  339

ORBITAL ENERGIES
----------------

  NO   OCC          E(Eh)            E(eV)
   0   2.0000     -20.566069      -559.6312
   1   2.0000     -20.553302      -559.2838
   2   2.0000     -11.287693      -307.1537
   3   2.0000     -11.279080      -306.9194
   4   2.0000     -11.273828      -306.7765
   5   2.0000     -11.273744      -306.7742
   6   2.0000     -11.242642      -305.9278
   7   2.0000     -11.230150      -305.5879
   8   2.0000     -11.229582      -305.5725
   9   2.0000      -1.395153       -37.9640
  10   2.0000      -1.376518       -37.4570
  11   2.0000      -1.175132       -31.9770
  12   2.0000      -1.022760       -27.8307
  13   2.0000      -0.942983       -25.6599
  14   2.0000      -0.929092       -25.2819
  15   2.0000      -0.828889       -22.5552
  16   2.0000      -0.793473       -21.5915
  17   2.0000      -0.733385       -19.9564
  18   2.0000      -0.719473       -19.5779
  19   2.0000      -0.669999       -18.2316
  20   2.0000      -0.646560       -17.5938
  21   2.0000      -0.630527       -17.1575
  22   2.0000      -0.621727       -16.9180
  23   2.0000      -0.593948       -16.1622
  24   2.0000      -0.570758       -15.5311
  25   2.0000      -0.554831       -15.0977
  26   2.0000      -0.536778       -14.6065
  27   2.0000      -0.495542       -13.4844
  28   2.0000      -0.490814       -13.3557
  29   2.0000      -0.484099       -13.1730
  30   2.0000      -0.466057       -12.6821
  31   2.0000      -0.433069       -11.7844
  32   2.0000      -0.388573       -10.5736
  33   2.0000      -0.360142        -9.8000
  34   0.0000       0.142974         3.8905
  35   0.0000       0.152650         4.1538
  36   0.0000       0.175645         4.7795
  37   0.0000       0.179967         4.8971
  38   0.0000       0.191059         5.1990

MULLIKEN ATOMIC CHARGES
-----------------------
   0 C :   -0.213343
   1 O :   -0.304296
   2 C :    0.138125
   3 C :   -0.222755
   4 C :   -0.072234
   5 C :   -0.040295
   6 O :   -0.318247
   7 C :   -0.004011
   8 C :   -0.205505
   9 H :    0.120401
  10 H :    0.141271
  11 H :    0.121800
  12 H :    0.120046
  13 H :    0.115582
  14 H :    0.133632
  15 H :    0.093998
  16 H :    0.111713
  17 H :    0.133583
  18 H :    0.150536
Sum of atomic charges:    0.0000000

LOEWDIN ATOMIC CHARGES
----------------------
   0 C :   -0.333381
   1 O :    0.194308
   2 C :   -0.306083
   3 C :   -0.171873
   4 C :   -0.189501
   5 C :   -0.271335
   6 O :    0.167595
   7 C :   -0.245312
   8 C :   -0.120711
   9 H :    0.105201
  10 H :    0.113393
  11 H :    0.105867
  12 H :    0.142041
  13 H :    0.129658
  14 H :    0.144753
  15 H :    0.122236
  16 H :    0.127009
  17 H :    0.147857
  18 H :    0.138277

  Mayer bond orders larger than 0.1
B(  0-C ,  1-O ) :   0.8815 B(  0-C ,  9-H ) :   0.9362 B(  0-C , 10-H ) :   0.9399
B(  0-C , 11-H ) :   0.9336 B(  1-O ,  2-C ) :   1.0042 B(  2-C ,  3-C ) :   0.9387
B(  2-C ,  7-C ) :   0.8665 B(  2-C ,  8-C ) :   0.8315 B(  3-C ,  4-C ) :   0.9058
B(  3-C , 12-H ) :   0.9175 B(  3-C , 13-H ) :   0.9004 B(  4-C ,  5-C ) :   0.9533
B(  4-C ,  8-C ) :   0.8950 B(  4-C , 14-H ) :   0.9085 B(  5-C ,  6-O ) :   0.9352
B(  5-C , 15-H ) :   0.9256 B(  5-C , 16-H ) :   0.9157 B(  6-O ,  7-C ) :   0.9652
B(  7-C ,  8-C ) :   0.9016 B(  7-C , 17-H ) :   0.9325 B(  8-C , 18-H ) :   0.8873

MP2 TOTAL ENERGY:     -422.272202302 Eh
FINAL SINGLE POINT ENERGY      -422.272202302327

DIPOLE MOMENT
-------------
                                X             Y             Z
Electronic contribution:     -1.35057      -2.49196       0.48280
Nuclear contribution   :      1.73302       2.51460      -0.59211
                        -----------------------------------------
Total Dipole Moment    :      0.38245       0.02263      -0.10931
                        -----------------------------------------
Magnitude (a.u.)       :      0.39841
Magnitude (Debye)      :      1.01268

                             ****ORCA TERMINATED NORMALLY****
TOTAL RUN TIME: 0 days 0 hours 17 minutes 16 seconds 596 msec
