                         Program Version 3.0.3 - RELEASE   -
|  1> ! RI-MP2 RIJK def2-TZVP def2-TZVP/C def2-TZVP/JK TIGHTSCF
|  2> % maxcore 2000
|  3> % mp2 density relaxed end
|  4> *xyz 0 1
|  5>  C        0.1103800694     1.6212432544     0.1964386677
|  6>  C        0.0666870190     0.0940250151     0.0476500939
|  7>  O        0.6455394149    -0.5642565414     1.1619209204
|  8>  C       -1.3788887758    -0.4093658456    -0.1379772008
|  9>  O       -2.0354651806    -0.1933822543     1.1062537655
| 10>  C        0.8681438282    -0.3517394811    -1.1729393941
| 11>  O        0.7343612292     0.1205210524    -2.2718702033
| 12>  H        1.1198778921     1.9365090092     0.4718640416
| 13>  H       -0.1644340761     2.0993837522    -0.7473899476
| 14>  H       -0.5833954833     1.9415345329     0.9776677176
| 15>  H       -0.0388984028    -0.5754641115     1.8434148667
| 16>  H       -1.8616903764     0.1368162358    -0.9585047734
| 17>  H       -1.3624559187    -1.4792674969    -0.3900623400
| 18>  H       -2.8402002594    -0.7183513558     1.1265048238
| 19>  H        1.5797311204    -1.1783807055    -0.9571002179
| 20> *
| 21>
| 22>                          ****END OF INPUT****

CARTESIAN COORDINATES (ANGSTROEM)
---------------------------------
  C      0.110380    1.621243    0.196439
  C      0.066687    0.094025    0.047650
  O      0.645539   -0.564257    1.161921
  C     -1.378889   -0.409366   -0.137977
  O     -2.035465   -0.193382    1.106254
  C      0.868144   -0.351739   -1.172939
  O      0.734361    0.120521   -2.271870
  H      1.119878    1.936509    0.471864
  H     -0.164434    2.099384   -0.747390
  H     -0.583395    1.941535    0.977668
  H     -0.038898   -0.575464    1.843415
  H     -1.861690    0.136816   -0.958505
  H     -1.362456   -1.479267   -0.390062
  H     -2.840200   -0.718351    1.126505
  H      1.579731   -1.178381   -0.957100

 Total Charge           Charge          ....    0
 Multiplicity           Mult            ....    1
 Number of Electrons    NEL             ....   56
 Basis Dimension        Dim             ....  265

ORBITAL ENERGIES
----------------

  NO   OCC          E(Eh)            E(eV)
   0   2.0000     -20.585123      -560.1497
   1   2.0000     -20.564411      -559.5861
   2   2.0000     -20.564254      -559.5818
   3   2.0000     -11.332944      -308.3851
   4   2.0000     -11.303566      -307.5857
   5   2.0000     -11.299752      -307.4819
   6   2.0000     -11.221130      -305.3425
   7   2.0000      -1.408475       -38.3266
   8   2.0000      -1.395903       -37.9845
   9   2.0000      -1.366427       -37.1824
  10   2.0000      -1.060546       -28.8589
  11   2.0000      -0.945890       -25.7390
  12   2.0000      -0.894544       -24.3418
  13   2.0000      -0.762722       -20.7547
  14   2.0000      -0.735428       -20.0120
  15   2.0000      -0.704336       -19.1660
  16   2.0000      -0.671317       -18.2675
  17   2.0000      -0.644899       -17.5486
  18   2.0000      -0.639498       -17.4016
  19   2.0000      -0.604671       -16.4539
  20   2.0000      -0.568052       -15.4575
  21   2.0000      -0.549565       -14.9544
  22   2.0000      -0.545694       -14.8491
  23   2.0000      -0.527654       -14.3582
  24   2.0000      -0.510773       -13.8988
  25   2.0000      -0.479486       -13.0475
  26   2.0000      -0.450078       -12.2472
  27   2.0000      -0.418524       -11.3886
  28   0.0000       0.115254         3.1362
  29   0.0000       0.125200         3.4069
  30   0.0000       0.163972         4.4619
  31   0.0000       0.184533         5.0214
  32   0.0000       0.188692         5.1346

MULLIKEN ATOMIC CHARGES
-----------------------
   0 C :   -0.431435
   1 C :    0.272683
   2 O :   -0.486886
   3 C :   -0.120727
   4 O :   -0.492960
   5 C :    0.085668
   6 O :   -0.266387
   7 H :    0.141490
   8 H :    0.141641
   9 H :    0.145993
  10 H :    0.335671
  11 H :    0.122310
  12 H :    0.120601
  13 H :    0.329576
  14 H :    0.102762
Sum of atomic charges:    0.0000000

LOEWDIN ATOMIC CHARGES
----------------------
   0 C :   -0.268273
   1 C :   -0.420005
   2 O :    0.011934
   3 C :   -0.305213
   4 O :   -0.047921
   5 C :   -0.245627
   6 O :    0.145136
   7 H :    0.130607
   8 H :    0.133090
   9 H :    0.130549
  10 H :    0.182358
  11 H :    0.129921
  12 H :    0.125282
  13 H :    0.178601
  14 H :    0.119560

  Mayer bond orders larger than 0.1
B(  0-C ,  1-C ) :   0.9191 B(  0-C ,  7-H ) :   0.9351 B(  0-C ,  8-H ) :   0.9208
B(  0-C ,  9-H ) :   0.9286 B(  1-C ,  2-O ) :   0.9639 B(  1-C ,  3-C ) :   0.9038
B(  1-C ,  5-C ) :   0.8127 B(  2-O , 10-H ) :   0.8192 B(  3-C ,  4-O ) :   0.9699
B(  3-C , 11-H ) :   0.9257 B(  3-C , 12-H ) :   0.9254 B(  4-O , 13-H ) :   0.8416
B(  5-C ,  6-O ) :   1.9919 B(  5-C , 14-H ) :   0.9185

MP2 TOTAL ENERGY:     -382.209456689 Eh
FINAL SINGLE POINT ENERGY      -382.209456688909

DIPOLE MOMENT
-------------
                                X             Y             Z
Electronic contribution:      1.55549      -2.17914      -1.61710
Nuclear contribution   :     -2.54975       1.76965       2.11552
                        -----------------------------------------
Total Dipole Moment    :     -0.99426      -0.40950       0.49842
                        -----------------------------------------
Magnitude (a.u.)       :      1.18519
Magnitude (Debye)      :      3.01251

                             ****ORCA TERMINATED NORMALLY****
TOTAL RUN TIME: 0 days 0 hours 7 minutes 35 seconds 58 msec
