                         Program Version 3.0.3 - RELEASE   -
|  1> ! RI-MP2 RIJK def2-TZVP def2-TZVP/C def2-TZVP/JK TIGHTSCF
|  2> % maxcore 2000
|  3> % mp2 density relaxed end
|  4> *xyz 0 1
|  5>  O       -0.3494065609     0.4112624541     0.5791294017
|  6>  C        0.2762237606     0.8833552444    -0.3358338464
|  7>  C        1.4286515968     1.8541431010    -0.1746554823
|  8>  C        1.2248438752     3.1244369280    -0.9965977152
|  9>  C        2.4449958513     4.0534918063    -1.1922674082
| 10>  C        2.2571607108     3.7324158804    -2.6708267933
| 11>  C        2.2807431435     4.6315826103    -3.8607089464
| 12>  C        3.2541408615     3.4629001570    -3.7458732570
| 13>  O        1.1607410351     2.8465011970    -2.4198999141
| 14>  H        0.0384461242     0.6294066187    -1.3912674048
| 15>  H        1.5444476148     2.0935650462     0.8870994910
| 16>  H        2.3424697096     1.3577321305    -0.5290548924
| 17>  H        0.3170781001     3.6468044211    -0.6692608879
| 18>  H        2.2941597195     5.0962759516    -0.9079749424
| 19>  H        3.3732869385     3.6843520688    -0.7496343841
| 20>  H        1.4662912277     4.5315111320    -4.5700723102
| 21>  H        2.6614567418     5.6411701075    -3.7428197430
| 22>  H        4.3010612976     3.6720103545    -3.5497274185
| 23>  H        3.0732788823     2.6021557405    -4.3809247866
| 24> *
| 25>
| 26>                          ****END OF INPUT****

CARTESIAN COORDINATES (ANGSTROEM)
---------------------------------
  O     -0.349407    0.411262    0.579129
  C      0.276224    0.883355   -0.335834
  C      1.428652    1.854143   -0.174655
  C      1.224844    3.124437   -0.996598
  C      2.444996    4.053492   -1.192267
  C      2.257161    3.732416   -2.670827
  C      2.280743    4.631583   -3.860709
  C      3.254141    3.462900   -3.745873
  O      1.160741    2.846501   -2.419900
  H      0.038446    0.629407   -1.391267
  H      1.544448    2.093565    0.887099
  H      2.342470    1.357732   -0.529055
  H      0.317078    3.646804   -0.669261
  H      2.294160    5.096276   -0.907975
  H      3.373287    3.684352   -0.749634
  H      1.466291    4.531511   -4.570072
  H      2.661457    5.641170   -3.742820
  H      4.301061    3.672010   -3.549727
  H      3.073279    2.602156   -4.380925

 Total Charge           Charge          ....    0
 Multiplicity           Mult            ....    1
 Number of Electrons    NEL             ....   68
 Basis Dimension        Dim             ....  339

ORBITAL ENERGIES
----------------

  NO   OCC          E(Eh)            E(eV)
   0   2.0000     -20.562824      -559.5429
   1   2.0000     -20.554973      -559.3292
   2   2.0000     -11.328852      -308.2737
   3   2.0000     -11.304371      -307.6076
   4   2.0000     -11.300115      -307.4917
   5   2.0000     -11.245798      -306.0137
   6   2.0000     -11.244550      -305.9797
   7   2.0000     -11.233837      -305.6882
   8   2.0000     -11.233024      -305.6661
   9   2.0000      -1.398820       -38.0638
  10   2.0000      -1.392420       -37.8897
  11   2.0000      -1.140066       -31.0228
  12   2.0000      -1.064662       -28.9709
  13   2.0000      -0.999394       -27.1949
  14   2.0000      -0.856949       -23.3188
  15   2.0000      -0.839974       -22.8569
  16   2.0000      -0.794288       -21.6137
  17   2.0000      -0.743431       -20.2298
  18   2.0000      -0.698666       -19.0117
  19   2.0000      -0.682501       -18.5718
  20   2.0000      -0.674312       -18.3490
  21   2.0000      -0.640792       -17.4368
  22   2.0000      -0.621862       -16.9217
  23   2.0000      -0.605370       -16.4730
  24   2.0000      -0.559029       -15.2119
  25   2.0000      -0.551264       -15.0007
  26   2.0000      -0.533997       -14.5308
  27   2.0000      -0.527063       -14.3421
  28   2.0000      -0.516082       -14.0433
  29   2.0000      -0.492028       -13.3888
  30   2.0000      -0.482745       -13.1361
  31   2.0000      -0.429086       -11.6760
  32   2.0000      -0.409312       -11.1379
  33   2.0000      -0.384723       -10.4688
  34   0.0000       0.128284         3.4908
  35   0.0000       0.140138         3.8134
  36   0.0000       0.152127         4.1396
  37   0.0000       0.155337         4.2269
  38   0.0000       0.174856         4.7581

MULLIKEN ATOMIC CHARGES
-----------------------
   0 O :   -0.265705
   1 C :    0.083155
   2 C :   -0.193862
   3 C :    0.092183
   4 C :   -0.266941
   5 C :    0.188501
   6 C :   -0.286735
   7 C :   -0.273623
   8 O :   -0.334702
   9 H :    0.099797
  10 H :    0.123543
  11 H :    0.131172
  12 H :    0.108047
  13 H :    0.134351
  14 H :    0.126713
  15 H :    0.138400
  16 H :    0.129265
  17 H :    0.129288
  18 H :    0.137154
Sum of atomic charges:    0.0000000

LOEWDIN ATOMIC CHARGES
----------------------
   0 O :    0.129286
   1 C :   -0.288511
   2 C :   -0.246317
   3 C :   -0.261027
   4 C :   -0.177659
   5 C :   -0.308290
   6 C :   -0.207871
   7 C :   -0.209387
   8 O :    0.184002
   9 H :    0.116754
  10 H :    0.150229
  11 H :    0.155981
  12 H :    0.139932
  13 H :    0.136742
  14 H :    0.138291
  15 H :    0.140156
  16 H :    0.133765
  17 H :    0.133934
  18 H :    0.139990

  Mayer bond orders larger than 0.1
B(  0-O ,  1-C ) :   1.9866 B(  1-C ,  2-C ) :   0.8883 B(  1-C ,  9-H ) :   0.9360
B(  2-C ,  3-C ) :   0.8974 B(  2-C , 10-H ) :   0.9061 B(  2-C , 11-H ) :   0.9081
B(  3-C ,  4-C ) :   0.9305 B(  3-C ,  8-O ) :   0.8895 B(  3-C , 12-H ) :   0.9107
B(  4-C ,  5-C ) :   0.9268 B(  4-C , 13-H ) :   0.9189 B(  4-C , 14-H ) :   0.9231
B(  5-C ,  6-C ) :   0.8790 B(  5-C ,  7-C ) :   0.8638 B(  5-C ,  8-O ) :   0.9559
B(  6-C ,  7-C ) :   0.9202 B(  6-C , 15-H ) :   0.9170 B(  6-C , 16-H ) :   0.9164
B(  7-C , 17-H ) :   0.9171 B(  7-C , 18-H ) :   0.9176

MP2 TOTAL ENERGY:     -422.283578256 Eh
FINAL SINGLE POINT ENERGY      -422.283578255818

DIPOLE MOMENT
-------------
                                X             Y             Z
Electronic contribution:     -4.68418      -4.18533       2.79564
Nuclear contribution   :      5.72379       5.11737      -3.12002
                        -----------------------------------------
Total Dipole Moment    :      1.03960       0.93204      -0.32438
                        -----------------------------------------
Magnitude (a.u.)       :      1.43342
Magnitude (Debye)      :      3.64346

                             ****ORCA TERMINATED NORMALLY****
TOTAL RUN TIME: 0 days 0 hours 16 minutes 52 seconds 734 msec
