                         Program Version 3.0.3 - RELEASE   -
|  1> ! RI-MP2 RIJK def2-TZVP def2-TZVP/C def2-TZVP/JK TIGHTSCF
|  2> % maxcore 2000
|  3> % mp2 density relaxed end
|  4> *xyz 0 1
|  5>  N        0.6316581876     1.2764048695    -0.1139806985
|  6>  C        0.3756157272    -0.0916069194    -0.1676333980
|  7>  O        1.2519537559    -0.9135089082    -0.3620241747
|  8>  N       -0.9466885115    -0.4158896830     0.0450234900
|  9>  C       -1.3777447809    -1.7828305064     0.1852295631
| 10>  C       -1.9537061695    -2.2703208830     1.5448840496
| 11>  C       -2.9781973911    -3.1096811333     0.7550697599
| 12>  O       -4.2671649838    -3.1072425741     1.3233649925
| 13>  C       -2.7068459748    -2.2159626104    -0.4894292617
| 14>  H        1.5402663401     1.5040627291    -0.4891766543
| 15>  H       -0.1001118064     1.8988148651    -0.4241620457
| 16>  H       -1.5530553779     0.2979806327     0.4183486085
| 17>  H       -0.5373448286    -2.3982821417    -0.1362015554
| 18>  H       -1.2853456451    -2.7745433169     2.2452154628
| 19>  H       -2.4795472848    -1.4616462788     2.0637574928
| 20>  H       -2.6145789321    -4.1340765254     0.5937662941
| 21>  H       -4.8392258251    -3.6579732109     0.7794587738
| 22>  H       -3.4273870556    -1.3913881765    -0.5056984906
| 23>  H       -2.6585908137    -2.6772801485    -1.4788110284
| 24> *
| 25>
| 26>                          ****END OF INPUT****

CARTESIAN COORDINATES (ANGSTROEM)
---------------------------------
  N      0.631658    1.276405   -0.113981
  C      0.375616   -0.091607   -0.167633
  O      1.251954   -0.913509   -0.362024
  N     -0.946689   -0.415890    0.045023
  C     -1.377745   -1.782831    0.185230
  C     -1.953706   -2.270321    1.544884
  C     -2.978197   -3.109681    0.755070
  O     -4.267165   -3.107243    1.323365
  C     -2.706846   -2.215963   -0.489429
  H      1.540266    1.504063   -0.489177
  H     -0.100112    1.898815   -0.424162
  H     -1.553055    0.297981    0.418349
  H     -0.537345   -2.398282   -0.136202
  H     -1.285346   -2.774543    2.245215
  H     -2.479547   -1.461646    2.063757
  H     -2.614579   -4.134077    0.593766
  H     -4.839226   -3.657973    0.779459
  H     -3.427387   -1.391388   -0.505698
  H     -2.658591   -2.677280   -1.478811

 Total Charge           Charge          ....    0
 Multiplicity           Mult            ....    1
 Number of Electrons    NEL             ....   70
 Basis Dimension        Dim             ....  339

ORBITAL ENERGIES
----------------

  NO   OCC          E(Eh)            E(eV)
   0   2.0000     -20.561088      -559.4957
   1   2.0000     -20.507877      -558.0477
   2   2.0000     -15.579909      -423.9509
   3   2.0000     -15.577881      -423.8957
   4   2.0000     -11.374001      -309.5023
   5   2.0000     -11.284817      -307.0755
   6   2.0000     -11.266830      -306.5860
   7   2.0000     -11.225263      -305.4549
   8   2.0000     -11.222910      -305.3909
   9   2.0000      -1.389877       -37.8205
  10   2.0000      -1.368057       -37.2267
  11   2.0000      -1.242705       -33.8157
  12   2.0000      -1.193962       -32.4894
  13   2.0000      -1.110329       -30.2136
  14   2.0000      -0.912168       -24.8213
  15   2.0000      -0.895922       -24.3793
  16   2.0000      -0.803709       -21.8700
  17   2.0000      -0.783101       -21.3093
  18   2.0000      -0.734226       -19.9793
  19   2.0000      -0.714738       -19.4490
  20   2.0000      -0.688751       -18.7419
  21   2.0000      -0.655937       -17.8489
  22   2.0000      -0.628044       -17.0899
  23   2.0000      -0.615613       -16.7517
  24   2.0000      -0.600550       -16.3418
  25   2.0000      -0.576185       -15.6788
  26   2.0000      -0.547627       -14.9017
  27   2.0000      -0.540038       -14.6952
  28   2.0000      -0.509997       -13.8777
  29   2.0000      -0.486875       -13.2485
  30   2.0000      -0.458351       -12.4724
  31   2.0000      -0.442812       -12.0495
  32   2.0000      -0.427341       -11.6286
  33   2.0000      -0.423226       -11.5166
  34   2.0000      -0.383887       -10.4461
  35   0.0000       0.120211         3.2711
  36   0.0000       0.133125         3.6225
  37   0.0000       0.151306         4.1173
  38   0.0000       0.164747         4.4830
  39   0.0000       0.182289         4.9603

MULLIKEN ATOMIC CHARGES
-----------------------
   0 N :   -0.532158
   1 C :    0.398447
   2 O :   -0.400975
   3 N :   -0.357418
   4 C :   -0.133671
   5 C :   -0.118398
   6 C :   -0.044666
   7 O :   -0.446367
   8 C :   -0.092182
   9 H :    0.264916
  10 H :    0.245868
  11 H :    0.226307
  12 H :    0.141244
  13 H :    0.132056
  14 H :    0.099704
  15 H :    0.084212
  16 H :    0.317313
  17 H :    0.088860
  18 H :    0.126909
Sum of atomic charges:    0.0000000

LOEWDIN ATOMIC CHARGES
----------------------
   0 N :   -0.075076
   1 C :   -0.568893
   2 O :    0.050768
   3 N :    0.101488
   4 C :   -0.258639
   5 C :   -0.201189
   6 C :   -0.335160
   7 O :   -0.022393
   8 C :   -0.213631
   9 H :    0.175214
  10 H :    0.163871
  11 H :    0.182600
  12 H :    0.161610
  13 H :    0.128664
  14 H :    0.141782
  15 H :    0.130543
  16 H :    0.176261
  17 H :    0.137832
  18 H :    0.124347

  Mayer bond orders larger than 0.1
B(  0-N ,  1-C ) :   1.0725 B(  0-N ,  9-H ) :   0.8701 B(  0-N , 10-H ) :   0.8731
B(  1-C ,  2-O ) :   1.9158 B(  1-C ,  3-N ) :   1.1146 B(  3-N ,  4-C ) :   0.8426
B(  3-N , 11-H ) :   0.8700 B(  4-C ,  5-C ) :   0.9322 B(  4-C ,  8-C ) :   0.8652
B(  4-C , 12-H ) :   0.9211 B(  5-C ,  6-C ) :   0.9163 B(  5-C ,  7-O ) :  -0.1159
B(  5-C , 13-H ) :   0.9324 B(  5-C , 14-H ) :   0.8915 B(  6-C ,  7-O ) :   1.1639
B(  6-C ,  8-C ) :   0.8955 B(  6-C , 15-H ) :   0.9664 B(  7-O ,  8-C ) :  -0.1355
B(  7-O , 16-H ) :   0.8448 B(  8-C , 17-H ) :   0.8906 B(  8-C , 18-H ) :   0.9262

MP2 TOTAL ENERGY:     -455.643141087 Eh
FINAL SINGLE POINT ENERGY      -455.643141086785

DIPOLE MOMENT
-------------
                                X             Y             Z
Electronic contribution:      3.22955       1.39856      -0.52078
Nuclear contribution   :     -4.25511      -0.83502       0.03370
                        -----------------------------------------
Total Dipole Moment    :     -1.02556       0.56354      -0.48707
                        -----------------------------------------
Magnitude (a.u.)       :      1.26751
Magnitude (Debye)      :      3.22176

                             ****ORCA TERMINATED NORMALLY****
TOTAL RUN TIME: 0 days 0 hours 14 minutes 41 seconds 397 msec
