                         Program Version 3.0.3 - RELEASE   -
|  1> ! RI-MP2 RIJK def2-TZVP def2-TZVP/C def2-TZVP/JK TIGHTSCF
|  2> % maxcore 2000
|  3> % mp2 density relaxed end
|  4> *xyz 0 1
|  5>  O        0.1693120395     1.4259142973     0.3196954920
|  6>  C        0.0178555667     0.0576751135     0.0556874929
|  7>  C       -1.4116858237    -0.5510583248     0.0455820476
|  8>  C       -2.5898359810     0.2228010767    -0.5867970209
|  9>  C       -2.1965309863     1.0317552830    -1.7891976169
| 10>  C       -2.3415587352    -0.4570508844    -1.9392637779
| 11>  C       -1.1319956384    -1.2277622896    -1.3418412049
| 12>  C        0.2103751004    -0.4683361717    -1.3935757189
| 13>  O        1.0591668585    -0.2783150676    -2.2167061874
| 14>  H        1.0210075004     1.6978121279    -0.0425683284
| 15>  H        0.6533856455    -0.5630715776     0.7146343764
| 16>  H       -1.6816907274    -1.1527488734     0.9112027574
| 17>  H       -3.5292591049     0.3915321725    -0.0756192086
| 18>  H       -3.0109497594     1.6022363169    -2.2249488822
| 19>  H       -1.2356768378     1.5312515481    -1.8468232198
| 20>  H       -3.0465906993    -0.8995080440    -2.6314442687
| 21>  H       -1.1278742578    -2.3072487730    -1.4868613516
| 22> *
| 23>
| 24>                          ****END OF INPUT****

CARTESIAN COORDINATES (ANGSTROEM)
---------------------------------
  O      0.169312    1.425914    0.319695
  C      0.017856    0.057675    0.055687
  C     -1.411686   -0.551058    0.045582
  C     -2.589836    0.222801   -0.586797
  C     -2.196531    1.031755   -1.789198
  C     -2.341559   -0.457051   -1.939264
  C     -1.131996   -1.227762   -1.341841
  C      0.210375   -0.468336   -1.393576
  O      1.059167   -0.278315   -2.216706
  H      1.021008    1.697812   -0.042568
  H      0.653386   -0.563072    0.714634
  H     -1.681691   -1.152749    0.911203
  H     -3.529259    0.391532   -0.075619
  H     -3.010950    1.602236   -2.224949
  H     -1.235677    1.531252   -1.846823
  H     -3.046591   -0.899508   -2.631444
  H     -1.127874   -2.307249   -1.486861

 Total Charge           Charge          ....    0
 Multiplicity           Mult            ....    1
 Number of Electrons    NEL             ....   66
 Basis Dimension        Dim             ....  327

ORBITAL ENERGIES
----------------

  NO   OCC          E(Eh)            E(eV)
   0   2.0000     -20.573521      -559.8340
   1   2.0000     -20.561012      -559.4936
   2   2.0000     -11.334374      -308.4240
   3   2.0000     -11.298948      -307.4600
   4   2.0000     -11.252413      -306.1937
   5   2.0000     -11.250717      -306.1476
   6   2.0000     -11.249626      -306.1179
   7   2.0000     -11.245858      -306.0154
   8   2.0000     -11.236762      -305.7678
   9   2.0000      -1.405113       -38.2351
  10   2.0000      -1.377600       -37.4864
  11   2.0000      -1.214796       -33.0563
  12   2.0000      -1.078942       -29.3595
  13   2.0000      -0.931108       -25.3367
  14   2.0000      -0.903791       -24.5934
  15   2.0000      -0.808109       -21.9898
  16   2.0000      -0.774752       -21.0821
  17   2.0000      -0.723994       -19.7009
  18   2.0000      -0.723373       -19.6840
  19   2.0000      -0.686959       -18.6931
  20   2.0000      -0.658576       -17.9208
  21   2.0000      -0.652207       -17.7475
  22   2.0000      -0.608084       -16.5468
  23   2.0000      -0.579816       -15.7776
  24   2.0000      -0.565065       -15.3762
  25   2.0000      -0.537198       -14.6179
  26   2.0000      -0.529726       -14.4146
  27   2.0000      -0.498991       -13.5782
  28   2.0000      -0.476727       -12.9724
  29   2.0000      -0.465931       -12.6786
  30   2.0000      -0.427729       -11.6391
  31   2.0000      -0.397697       -10.8219
  32   2.0000      -0.365374        -9.9423
  33   0.0000       0.113153         3.0791
  34   0.0000       0.146463         3.9855
  35   0.0000       0.152131         4.1397
  36   0.0000       0.162227         4.4144
  37   0.0000       0.164606         4.4791

MULLIKEN ATOMIC CHARGES
-----------------------
   0 O :   -0.458532
   1 C :    0.055978
   2 C :   -0.056844
   3 C :   -0.156769
   4 C :   -0.218196
   5 C :   -0.186712
   6 C :   -0.010771
   7 C :    0.015747
   8 O :   -0.244388
   9 H :    0.331635
  10 H :    0.106629
  11 H :    0.131956
  12 H :    0.136191
  13 H :    0.131893
  14 H :    0.140154
  15 H :    0.138781
  16 H :    0.143250
Sum of atomic charges:    0.0000000

LOEWDIN ATOMIC CHARGES
----------------------
   0 O :   -0.002636
   1 C :   -0.292297
   2 C :   -0.136924
   3 C :   -0.153657
   4 C :   -0.194787
   5 C :   -0.152367
   6 C :   -0.125516
   7 C :   -0.286818
   8 O :    0.165962
   9 H :    0.186735
  10 H :    0.148625
  11 H :    0.143508
  12 H :    0.136905
  13 H :    0.143317
  14 H :    0.135459
  15 H :    0.136670
  16 H :    0.147822

  Mayer bond orders larger than 0.1
B(  0-O ,  1-C ) :   1.0746 B(  0-O ,  9-H ) :   0.8307 B(  1-C ,  2-C ) :   0.8884
B(  1-C ,  6-C ) :  -0.1243 B(  1-C ,  7-C ) :   0.8652 B(  1-C , 10-H ) :   0.9284
B(  2-C ,  3-C ) :   0.9032 B(  2-C ,  6-C ) :   0.9479 B(  2-C , 11-H ) :   0.9221
B(  3-C ,  4-C ) :   0.8848 B(  3-C ,  5-C ) :   0.8545 B(  3-C , 12-H ) :   0.9217
B(  4-C ,  5-C ) :   0.9007 B(  4-C , 13-H ) :   0.9282 B(  4-C , 14-H ) :   0.9109
B(  5-C ,  6-C ) :   0.8742 B(  5-C , 15-H ) :   0.9202 B(  6-C ,  7-C ) :   0.7888
B(  6-C , 16-H ) :   0.8993 B(  7-C ,  8-O ) :   2.0471

MP2 TOTAL ENERGY:     -421.066921127 Eh
FINAL SINGLE POINT ENERGY      -421.066921127486

DIPOLE MOMENT
-------------
                                X             Y             Z
Electronic contribution:      4.25934      -0.57201      -0.64292
Nuclear contribution   :     -4.77695       0.18066       1.02013
                        -----------------------------------------
Total Dipole Moment    :     -0.51762      -0.39135       0.37721
                        -----------------------------------------
Magnitude (a.u.)       :      0.75058
Magnitude (Debye)      :      1.90781

                             ****ORCA TERMINATED NORMALLY****
TOTAL RUN TIME: 0 days 0 hours 17 minutes 13 seconds 228 msec
