                         Program Version 3.0.3 - RELEASE   -
|  1> ! RI-MP2 RIJK def2-TZVP def2-TZVP/C def2-TZVP/JK TIGHTSCF
|  2> % maxcore 2000
|  3> % mp2 density relaxed end
|  4> *xyz 0 1
|  5>  C       -0.5208682477     1.4123513309     0.4775359326
|  6>  N       -0.4697637629    -0.0433324954     0.4056868623
|  7>  C       -1.4777654218    -0.6778861615    -0.4333374292
|  8>  C       -1.1945241384    -0.7055072161    -1.9367190714
|  9>  C       -1.6703643720    -2.0870433419     0.1283404934
| 10>  O       -1.5629593279    -3.1090424103    -0.4987570880
| 11>  C       -1.9940014799    -2.1281215216     1.5729216160
| 12>  N       -2.3147404846    -2.2056167120     2.6812583718
| 13>  H        0.2926755845     1.7661145404     1.1162286206
| 14>  H       -0.4380226197     1.9215824585    -0.4965695460
| 15>  H       -1.4632861412     1.7195526651     0.9422008484
| 16>  H        0.4549883365    -0.3576032051     0.1327830171
| 17>  H       -2.4239656392    -0.1504799238    -0.2423789721
| 18>  H       -2.0128005031    -1.1787106400    -2.4858173245
| 19>  H       -1.0673181016     0.3121857920    -2.3150052332
| 20>  H       -0.2844475310    -1.2754965391    -2.1460264479
| 21> *
| 22>
| 23>                          ****END OF INPUT****

CARTESIAN COORDINATES (ANGSTROEM)
---------------------------------
  C     -0.520868    1.412351    0.477536
  N     -0.469764   -0.043332    0.405687
  C     -1.477765   -0.677886   -0.433337
  C     -1.194524   -0.705507   -1.936719
  C     -1.670364   -2.087043    0.128340
  O     -1.562959   -3.109042   -0.498757
  C     -1.994001   -2.128122    1.572922
  N     -2.314740   -2.205617    2.681258
  H      0.292676    1.766115    1.116229
  H     -0.438023    1.921582   -0.496570
  H     -1.463286    1.719553    0.942201
  H      0.454988   -0.357603    0.132783
  H     -2.423966   -0.150480   -0.242379
  H     -2.012801   -1.178711   -2.485817
  H     -1.067318    0.312186   -2.315005
  H     -0.284448   -1.275497   -2.146026

 Total Charge           Charge          ....    0
 Multiplicity           Mult            ....    1
 Number of Electrons    NEL             ....   60
 Basis Dimension        Dim             ....  296

ORBITAL ENERGIES
----------------

  NO   OCC          E(Eh)            E(eV)
   0   2.0000     -20.598978      -560.5267
   1   2.0000     -15.596922      -424.4138
   2   2.0000     -15.575105      -423.8201
   3   2.0000     -11.389840      -309.9333
   4   2.0000     -11.302213      -307.5488
   5   2.0000     -11.287675      -307.1533
   6   2.0000     -11.267269      -306.5980
   7   2.0000     -11.241148      -305.8872
   8   2.0000      -1.441977       -39.2382
   9   2.0000      -1.245479       -33.8912
  10   2.0000      -1.231695       -33.5161
  11   2.0000      -1.057714       -28.7819
  12   2.0000      -0.968205       -26.3462
  13   2.0000      -0.917736       -24.9729
  14   2.0000      -0.842771       -22.9330
  15   2.0000      -0.745949       -20.2983
  16   2.0000      -0.690017       -18.7763
  17   2.0000      -0.663317       -18.0498
  18   2.0000      -0.652561       -17.7571
  19   2.0000      -0.594294       -16.1715
  20   2.0000      -0.587839       -15.9959
  21   2.0000      -0.576852       -15.6969
  22   2.0000      -0.572989       -15.5918
  23   2.0000      -0.565297       -15.3825
  24   2.0000      -0.544217       -14.8089
  25   2.0000      -0.524524       -14.2730
  26   2.0000      -0.486130       -13.2283
  27   2.0000      -0.480350       -13.0710
  28   2.0000      -0.472127       -12.8472
  29   2.0000      -0.400254       -10.8915
  30   0.0000       0.068449         1.8626
  31   0.0000       0.117687         3.2024
  32   0.0000       0.146259         3.9799
  33   0.0000       0.154702         4.2097
  34   0.0000       0.163748         4.4558

MULLIKEN ATOMIC CHARGES
-----------------------
   0 C :   -0.296138
   1 N :   -0.358802
   2 C :   -0.023671
   3 C :   -0.378167
   4 C :    0.300261
   5 O :   -0.230324
   6 C :   -0.133794
   7 N :   -0.041122
   8 H :    0.146273
   9 H :    0.115540
  10 H :    0.141212
  11 H :    0.212329
  12 H :    0.124097
  13 H :    0.143710
  14 H :    0.142861
  15 H :    0.135734
Sum of atomic charges:    0.0000000

LOEWDIN ATOMIC CHARGES
----------------------
   0 C :   -0.342884
   1 N :   -0.002416
   2 C :   -0.306478
   3 C :   -0.289013
   4 C :   -0.299539
   5 O :    0.212496
   6 C :   -0.139404
   7 N :    0.094017
   8 H :    0.120674
   9 H :    0.101429
  10 H :    0.119489
  11 H :    0.174206
  12 H :    0.168282
  13 H :    0.132862
  14 H :    0.126857
  15 H :    0.129423

  Mayer bond orders larger than 0.1
B(  0-C ,  1-N ) :   0.9211 B(  0-C ,  8-H ) :   0.9377 B(  0-C ,  9-H ) :   0.9283
B(  0-C , 10-H ) :   0.9384 B(  1-N ,  2-C ) :   0.9264 B(  1-N , 11-H ) :   0.8785
B(  2-C ,  3-C ) :   0.9553 B(  2-C ,  4-C ) :   0.9008 B(  2-C , 12-H ) :   0.9020
B(  3-C , 13-H ) :   0.9296 B(  3-C , 14-H ) :   0.9359 B(  3-C , 15-H ) :   0.9189
B(  4-C ,  5-O ) :   1.9920 B(  4-C ,  6-C ) :   0.9154 B(  6-C ,  7-N ) :   2.7962

MP2 TOTAL ENERGY:     -379.290016405 Eh
FINAL SINGLE POINT ENERGY      -379.290016404633

DIPOLE MOMENT
-------------
                                X             Y             Z
Electronic contribution:     -3.25077      -9.84957       5.76686
Nuclear contribution   :      3.74960      11.17526      -6.98713
                        -----------------------------------------
Total Dipole Moment    :      0.49883       1.32568      -1.22027
                        -----------------------------------------
Magnitude (a.u.)       :      1.86958
Magnitude (Debye)      :      4.75210

                             ****ORCA TERMINATED NORMALLY****
TOTAL RUN TIME: 0 days 0 hours 11 minutes 10 seconds 213 msec
