                         Program Version 3.0.3 - RELEASE   -
|  1> ! RI-MP2 RIJK def2-TZVP def2-TZVP/C def2-TZVP/JK TIGHTSCF
|  2> % maxcore 2000
|  3> % mp2 density relaxed end
|  4> *xyz 0 1
|  5>  C       -0.2883263545     1.5028997507     0.1767775341
|  6>  C        0.2665793381     0.1115422548    -0.1487259382
|  7>  C        0.9810627101    -0.5080571691     1.0315357719
|  8>  N        0.1322937059    -1.1248417944     2.0669383482
|  9>  C        1.0521421474    -1.9761851842     1.2703950687
| 10>  C        0.4532724684    -3.0505153852     0.3497864401
| 11>  C        1.2011420496    -4.3657674194     0.7099985941
| 12>  C        2.3178562382    -3.9093710112     1.6194666299
| 13>  C        2.2301577395    -2.6125225722     1.9146898126
| 14>  H        0.5136780959     2.1949036540     0.4579863503
| 15>  H       -0.8130360527     1.9330590509    -0.6817627533
| 16>  H       -0.9917147584     1.4462245229     1.0131728541
| 17>  H       -0.5516492388    -0.5477074485    -0.4563558722
| 18>  H        0.9620975876     0.1731796851    -0.9961488046
| 19>  H        1.8391202130     0.0685408910     1.3825529125
| 20>  H        0.5203619941    -0.9644261555     2.9942502954
| 21>  H       -0.6259770000    -3.1245098563     0.4954030390
| 22>  H        0.6265130086    -2.7918127286    -0.6994503745
| 23>  H        0.5509617902    -5.0875211395     1.2219668503
| 24>  H        1.5797296570    -4.8804825356    -0.1807869117
| 25>  H        3.0815857465    -4.5844850165     1.9893409815
| 26>  H        2.9039540344    -2.0585869629     2.5606978621
| 27> *
| 28>
| 29>                          ****END OF INPUT****

CARTESIAN COORDINATES (ANGSTROEM)
---------------------------------
  C     -0.288326    1.502900    0.176778
  C      0.266579    0.111542   -0.148726
  C      0.981063   -0.508057    1.031536
  N      0.132294   -1.124842    2.066938
  C      1.052142   -1.976185    1.270395
  C      0.453272   -3.050515    0.349786
  C      1.201142   -4.365767    0.709999
  C      2.317856   -3.909371    1.619467
  C      2.230158   -2.612523    1.914690
  H      0.513678    2.194904    0.457986
  H     -0.813036    1.933059   -0.681763
  H     -0.991715    1.446225    1.013173
  H     -0.551649   -0.547707   -0.456356
  H      0.962098    0.173180   -0.996149
  H      1.839120    0.068541    1.382553
  H      0.520362   -0.964426    2.994250
  H     -0.625977   -3.124510    0.495403
  H      0.626513   -2.791813   -0.699450
  H      0.550962   -5.087521    1.221967
  H      1.579730   -4.880483   -0.180787
  H      3.081586   -4.584485    1.989341
  H      2.903954   -2.058587    2.560698

 Total Charge           Charge          ....    0
 Multiplicity           Mult            ....    1
 Number of Electrons    NEL             ....   68
 Basis Dimension        Dim             ....  357

ORBITAL ENERGIES
----------------

  NO   OCC          E(Eh)            E(eV)
   0   2.0000     -15.547041      -423.0565
   1   2.0000     -11.259653      -306.3907
   2   2.0000     -11.251587      -306.1712
   3   2.0000     -11.229615      -305.5734
   4   2.0000     -11.226162      -305.4794
   5   2.0000     -11.225223      -305.4538
   6   2.0000     -11.219246      -305.2912
   7   2.0000     -11.218567      -305.2727
   8   2.0000     -11.209016      -305.0128
   9   2.0000      -1.257850       -34.2278
  10   2.0000      -1.114953       -30.3394
  11   2.0000      -1.032954       -28.1081
  12   2.0000      -0.970285       -26.4028
  13   2.0000      -0.922690       -25.1077
  14   2.0000      -0.886718       -24.1288
  15   2.0000      -0.801820       -21.8186
  16   2.0000      -0.758426       -20.6378
  17   2.0000      -0.738603       -20.0984
  18   2.0000      -0.685859       -18.6632
  19   2.0000      -0.643403       -17.5079
  20   2.0000      -0.622277       -16.9330
  21   2.0000      -0.588430       -16.0120
  22   2.0000      -0.583696       -15.8832
  23   2.0000      -0.538625       -14.6567
  24   2.0000      -0.523587       -14.2475
  25   2.0000      -0.519350       -14.1322
  26   2.0000      -0.503867       -13.7109
  27   2.0000      -0.493254       -13.4221
  28   2.0000      -0.484416       -13.1816
  29   2.0000      -0.469084       -12.7644
  30   2.0000      -0.456609       -12.4250
  31   2.0000      -0.444823       -12.1042
  32   2.0000      -0.403301       -10.9744
  33   2.0000      -0.328442        -8.9374
  34   0.0000       0.136656         3.7186
  35   0.0000       0.148343         4.0366
  36   0.0000       0.151601         4.1253
  37   0.0000       0.161021         4.3816
  38   0.0000       0.177437         4.8283

MULLIKEN ATOMIC CHARGES
-----------------------
   0 C :   -0.404137
   1 C :   -0.211954
   2 C :   -0.085865
   3 N :   -0.397730
   4 C :    0.221678
   5 C :   -0.280432
   6 C :   -0.153857
   7 C :   -0.174921
   8 C :   -0.214439
   9 H :    0.117569
  10 H :    0.132075
  11 H :    0.139882
  12 H :    0.123256
  13 H :    0.107062
  14 H :    0.117431
  15 H :    0.212762
  16 H :    0.135948
  17 H :    0.122170
  18 H :    0.117311
  19 H :    0.119367
  20 H :    0.128651
  21 H :    0.128175
Sum of atomic charges:   -0.0000000

LOEWDIN ATOMIC CHARGES
----------------------
   0 C :   -0.315734
   1 C :   -0.275684
   2 C :   -0.242921
   3 N :    0.023531
   4 C :   -0.259389
   5 C :   -0.192478
   6 C :   -0.235149
   7 C :   -0.151094
   8 C :   -0.138496
   9 H :    0.118974
  10 H :    0.119972
  11 H :    0.125312
  12 H :    0.144023
  13 H :    0.138491
  14 H :    0.139428
  15 H :    0.163916
  16 H :    0.141740
  17 H :    0.141102
  18 H :    0.139979
  19 H :    0.137386
  20 H :    0.136199
  21 H :    0.140892

  Mayer bond orders larger than 0.1
B(  0-C ,  1-C ) :   0.9196 B(  0-C ,  9-H ) :   0.9386 B(  0-C , 10-H ) :   0.9413
B(  0-C , 11-H ) :   0.9388 B(  1-C ,  2-C ) :   0.8957 B(  1-C , 12-H ) :   0.9378
B(  1-C , 13-H ) :   0.9336 B(  2-C ,  3-N ) :   0.9328 B(  2-C ,  4-C ) :   0.8916
B(  2-C , 14-H ) :   0.9131 B(  3-N ,  4-C ) :   0.9030 B(  3-N , 15-H ) :   0.8696
B(  4-C ,  5-C ) :   0.8666 B(  4-C ,  8-C ) :   0.9538 B(  5-C ,  6-C ) :   0.9720
B(  5-C , 16-H ) :   0.9361 B(  5-C , 17-H ) :   0.9346 B(  6-C ,  7-C ) :   0.9381
B(  6-C , 18-H ) :   0.9129 B(  6-C , 19-H ) :   0.9291 B(  7-C ,  8-C ) :   1.7964
B(  7-C , 20-H ) :   0.9263 B(  8-C , 21-H ) :   0.9059

MP2 TOTAL ENERGY:     -366.541096704 Eh
FINAL SINGLE POINT ENERGY      -366.541096703882

DIPOLE MOMENT
-------------
                                X             Y             Z
Electronic contribution:      2.42951      -3.94384       3.40591
Nuclear contribution   :     -1.90950       3.89199      -3.46298
                        -----------------------------------------
Total Dipole Moment    :      0.52001      -0.05185      -0.05708
                        -----------------------------------------
Magnitude (a.u.)       :      0.52570
Magnitude (Debye)      :      1.33622

                             ****ORCA TERMINATED NORMALLY****
TOTAL RUN TIME: 0 days 0 hours 32 minutes 31 seconds 823 msec
