                         Program Version 3.0.3 - RELEASE   -
|  1> ! RI-MP2 RIJK def2-TZVP def2-TZVP/C def2-TZVP/JK TIGHTSCF
|  2> % maxcore 2000
|  3> % mp2 density relaxed end
|  4> *xyz 0 1
|  5>  C       -0.2715689498     1.5121820746    -0.0061249854
|  6>  C       -0.0092965767     0.0045530266     0.0083578362
|  7>  C       -1.2899128164    -0.7825270399    -0.2498568630
|  8>  C        1.2143974468    -0.3989168868    -0.8788257383
|  9>  C        2.1064107253    -0.4714264016     0.3894826829
| 10>  O        2.8826503606     0.7092583604     0.4734085508
| 11>  C        0.8109942342    -0.4487842727     1.2611953960
| 12>  C        2.9569892703    -1.6603992662     0.5386810430
| 13>  N        3.6231897764    -2.5944406326     0.6827963133
| 14>  H        0.6480662897     2.0744898550     0.1747243223
| 15>  H       -0.6776147554     1.8254438437    -0.9746605534
| 16>  H       -0.9996854591     1.7864111755     0.7659444352
| 17>  H       -1.7187205668    -0.5237847650    -1.2247852648
| 18>  H       -1.1069128975    -1.8622856861    -0.2401359493
| 19>  H       -2.0459514771    -0.5632447096     0.5127829346
| 20>  H        1.0927819262    -1.3750941897    -1.3524962665
| 21>  H        1.5671114753     0.3244466290    -1.6166110940
| 22>  H        3.2994537965     0.7380037289     1.3428662002
| 23>  H        0.8491270808     0.2361903919     2.1125697634
| 24>  H        0.5328609968    -1.4453701954     1.6124130466
| 25> *
| 26>
| 27>                          ****END OF INPUT****

CARTESIAN COORDINATES (ANGSTROEM)
---------------------------------
  C     -0.271569    1.512182   -0.006125
  C     -0.009297    0.004553    0.008358
  C     -1.289913   -0.782527   -0.249857
  C      1.214397   -0.398917   -0.878826
  C      2.106411   -0.471426    0.389483
  O      2.882650    0.709258    0.473409
  C      0.810994   -0.448784    1.261195
  C      2.956989   -1.660399    0.538681
  N      3.623190   -2.594441    0.682796
  H      0.648066    2.074490    0.174724
  H     -0.677615    1.825444   -0.974661
  H     -0.999685    1.786411    0.765944
  H     -1.718721   -0.523785   -1.224785
  H     -1.106913   -1.862286   -0.240136
  H     -2.045951   -0.563245    0.512783
  H      1.092782   -1.375094   -1.352496
  H      1.567111    0.324447   -1.616611
  H      3.299454    0.738004    1.342866
  H      0.849127    0.236190    2.112570
  H      0.532861   -1.445370    1.612413

 Total Charge           Charge          ....    0
 Multiplicity           Mult            ....    1
 Number of Electrons    NEL             ....   68
 Basis Dimension        Dim             ....  345

ORBITAL ENERGIES
----------------

  NO   OCC          E(Eh)            E(eV)
   0   2.0000     -20.589358      -560.2649
   1   2.0000     -15.575491      -423.8307
   2   2.0000     -11.339997      -308.5770
   3   2.0000     -11.272447      -306.7389
   4   2.0000     -11.255354      -306.2737
   5   2.0000     -11.247631      -306.0636
   6   2.0000     -11.244104      -305.9676
   7   2.0000     -11.226282      -305.4827
   8   2.0000     -11.222451      -305.3784
   9   2.0000      -1.400985       -38.1227
  10   2.0000      -1.220749       -33.2183
  11   2.0000      -1.159673       -31.5563
  12   2.0000      -1.026695       -27.9378
  13   2.0000      -0.944800       -25.7093
  14   2.0000      -0.935586       -25.4586
  15   2.0000      -0.893231       -24.3061
  16   2.0000      -0.762065       -20.7369
  17   2.0000      -0.740652       -20.1542
  18   2.0000      -0.679440       -18.4885
  19   2.0000      -0.651318       -17.7233
  20   2.0000      -0.615669       -16.7532
  21   2.0000      -0.604582       -16.4515
  22   2.0000      -0.596304       -16.2262
  23   2.0000      -0.576477       -15.6867
  24   2.0000      -0.566334       -15.4107
  25   2.0000      -0.547370       -14.8947
  26   2.0000      -0.534621       -14.5478
  27   2.0000      -0.527382       -14.3508
  28   2.0000      -0.507383       -13.8066
  29   2.0000      -0.481687       -13.1074
  30   2.0000      -0.468838       -12.7577
  31   2.0000      -0.449774       -12.2390
  32   2.0000      -0.445571       -12.1246
  33   2.0000      -0.436870       -11.8878
  34   0.0000       0.115875         3.1531
  35   0.0000       0.130454         3.5498
  36   0.0000       0.157692         4.2910
  37   0.0000       0.166400         4.5280
  38   0.0000       0.174379         4.7451

MULLIKEN ATOMIC CHARGES
-----------------------
   0 C :   -0.455962
   1 C :    0.213043
   2 C :   -0.426615
   3 C :   -0.306393
   4 C :    0.397478
   5 O :   -0.453418
   6 C :   -0.335567
   7 C :   -0.280623
   8 N :   -0.047815
   9 H :    0.156872
  10 H :    0.130315
  11 H :    0.128018
  12 H :    0.135812
  13 H :    0.132418
  14 H :    0.134743
  15 H :    0.149584
  16 H :    0.133798
  17 H :    0.327741
  18 H :    0.128554
  19 H :    0.138017
Sum of atomic charges:    0.0000000

LOEWDIN ATOMIC CHARGES
----------------------
   0 C :   -0.270832
   1 C :   -0.295865
   2 C :   -0.274934
   3 C :   -0.133983
   4 C :   -0.349575
   5 O :    0.036863
   6 C :   -0.145212
   7 C :   -0.157986
   8 N :    0.067683
   9 H :    0.130858
  10 H :    0.127097
  11 H :    0.126030
  12 H :    0.128340
  13 H :    0.125548
  14 H :    0.127881
  15 H :    0.147322
  16 H :    0.143078
  17 H :    0.185274
  18 H :    0.135877
  19 H :    0.146535

  Mayer bond orders larger than 0.1
B(  0-C ,  1-C ) :   0.8910 B(  0-C ,  9-H ) :   0.9320 B(  0-C , 10-H ) :   0.9382
B(  0-C , 11-H ) :   0.9377 B(  1-C ,  2-C ) :   0.8818 B(  1-C ,  3-C ) :   0.9083
B(  1-C ,  6-C ) :   0.8818 B(  2-C , 12-H ) :   0.9400 B(  2-C , 13-H ) :   0.9339
B(  2-C , 14-H ) :   0.9393 B(  3-C ,  4-C ) :   0.8835 B(  3-C , 15-H ) :   0.9160
B(  3-C , 16-H ) :   0.9160 B(  4-C ,  5-O ) :   0.9317 B(  4-C ,  6-C ) :   0.9070
B(  4-C ,  7-C ) :   0.9188 B(  5-O , 17-H ) :   0.8331 B(  6-C , 18-H ) :   0.9207
B(  6-C , 19-H ) :   0.8929 B(  7-C ,  8-N ) :   2.8770

MP2 TOTAL ENERGY:     -402.471026837 Eh
FINAL SINGLE POINT ENERGY      -402.471026836984

DIPOLE MOMENT
-------------
                                X             Y             Z
Electronic contribution:     11.09154      -4.47473       1.74919
Nuclear contribution   :    -12.18325       5.32757      -1.50844
                        -----------------------------------------
Total Dipole Moment    :     -1.09172       0.85283       0.24074
                        -----------------------------------------
Magnitude (a.u.)       :      1.40610
Magnitude (Debye)      :      3.57403

                             ****ORCA TERMINATED NORMALLY****
TOTAL RUN TIME: 0 days 0 hours 21 minutes 47 seconds 221 msec
