                         Program Version 3.0.3 - RELEASE   -
|  1> ! RI-MP2 RIJK def2-TZVP def2-TZVP/C def2-TZVP/JK TIGHTSCF
|  2> % maxcore 2000
|  3> % mp2 density relaxed end
|  4> *xyz 0 1
|  5>  C       -0.1209711092     1.3951357339    -0.1643246033
|  6>  C        1.2975920177     0.9567122426     0.0957704744
|  7>  C        0.1942064304    -0.0709420273     0.0108335830
|  8>  C       -0.2559440999    -0.7976969692     1.2466020641
|  9>  C       -1.6183698612    -1.5040074513     1.2985387087
| 10>  C       -1.3458581331    -2.9119030563     0.7408149548
| 11>  O        0.0197812925    -2.9706109618     0.3277560420
| 12>  C        0.3238416211    -2.2159983194     1.5378982363
| 13>  C       -1.0573668365    -2.6248083771     2.1718805069
| 14>  H       -0.6492638619     1.9003427382     0.6381668141
| 15>  H       -0.3784964044     1.7515515576    -1.1556268099
| 16>  H        2.0133805042     1.0114105327    -0.7168270273
| 17>  H        1.7209735083     1.1677188757     1.0729615642
| 18>  H        0.1738034446    -0.6813661260    -0.8855934090
| 19>  H       -0.1390943537    -0.1721399554     2.1392011099
| 20>  H       -2.6083785764    -1.0663592653     1.3220161174
| 21>  H       -2.0743301646    -3.5410265590     0.2471999115
| 22>  H        1.3312780438    -2.3865207170     1.9116581928
| 23>  H       -1.3688673418    -3.0595608557     3.1107466494
| 24> *
| 25>
| 26>                          ****END OF INPUT****

CARTESIAN COORDINATES (ANGSTROEM)
---------------------------------
  C     -0.120971    1.395136   -0.164325
  C      1.297592    0.956712    0.095770
  C      0.194206   -0.070942    0.010834
  C     -0.255944   -0.797697    1.246602
  C     -1.618370   -1.504007    1.298539
  C     -1.345858   -2.911903    0.740815
  O      0.019781   -2.970611    0.327756
  C      0.323842   -2.215998    1.537898
  C     -1.057367   -2.624808    2.171881
  H     -0.649264    1.900343    0.638167
  H     -0.378496    1.751552   -1.155627
  H      2.013381    1.011411   -0.716827
  H      1.720974    1.167719    1.072962
  H      0.173803   -0.681366   -0.885593
  H     -0.139094   -0.172140    2.139201
  H     -2.608379   -1.066359    1.322016
  H     -2.074330   -3.541027    0.247200
  H      1.331278   -2.386521    1.911658
  H     -1.368867   -3.059561    3.110747

 Total Charge           Charge          ....    0
 Multiplicity           Mult            ....    1
 Number of Electrons    NEL             ....   66
 Basis Dimension        Dim             ....  339

ORBITAL ENERGIES
----------------

  NO   OCC          E(Eh)            E(eV)
   0   2.0000     -20.550465      -559.2066
   1   2.0000     -11.292901      -307.2955
   2   2.0000     -11.288783      -307.1834
   3   2.0000     -11.239426      -305.8403
   4   2.0000     -11.238371      -305.8116
   5   2.0000     -11.237812      -305.7964
   6   2.0000     -11.222296      -305.3742
   7   2.0000     -11.221249      -305.3457
   8   2.0000     -11.220765      -305.3325
   9   2.0000      -1.400997       -38.1231
  10   2.0000      -1.157609       -31.5001
  11   2.0000      -1.129764       -30.7424
  12   2.0000      -0.986394       -26.8411
  13   2.0000      -0.896701       -24.4005
  14   2.0000      -0.818682       -22.2775
  15   2.0000      -0.804247       -21.8847
  16   2.0000      -0.759499       -20.6670
  17   2.0000      -0.742927       -20.2161
  18   2.0000      -0.724235       -19.7074
  19   2.0000      -0.662425       -18.0255
  20   2.0000      -0.638500       -17.3745
  21   2.0000      -0.610947       -16.6247
  22   2.0000      -0.588054       -16.0018
  23   2.0000      -0.558287       -15.1918
  24   2.0000      -0.539311       -14.6754
  25   2.0000      -0.516052       -14.0425
  26   2.0000      -0.508232       -13.8297
  27   2.0000      -0.479006       -13.0344
  28   2.0000      -0.443673       -12.0730
  29   2.0000      -0.421243       -11.4626
  30   2.0000      -0.400404       -10.8955
  31   2.0000      -0.385372       -10.4865
  32   2.0000      -0.373271       -10.1572
  33   0.0000       0.149318         4.0631
  34   0.0000       0.162987         4.4351
  35   0.0000       0.167213         4.5501
  36   0.0000       0.171522         4.6674
  37   0.0000       0.181648         4.9429

MULLIKEN ATOMIC CHARGES
-----------------------
   0 C :   -0.261217
   1 C :   -0.262458
   2 C :   -0.130674
   3 C :   -0.032408
   4 C :   -0.192461
   5 C :    0.014144
   6 O :   -0.332279
   7 C :    0.082031
   8 C :   -0.200919
   9 H :    0.123169
  10 H :    0.129805
  11 H :    0.130603
  12 H :    0.122496
  13 H :    0.138919
  14 H :    0.109273
  15 H :    0.131746
  16 H :    0.138590
  17 H :    0.137459
  18 H :    0.154180
Sum of atomic charges:   -0.0000000

LOEWDIN ATOMIC CHARGES
----------------------
   0 C :   -0.228775
   1 C :   -0.228303
   2 C :   -0.207319
   3 C :   -0.191907
   4 C :   -0.144000
   5 C :   -0.234963
   6 O :    0.167529
   7 C :   -0.171258
   8 C :   -0.135639
   9 H :    0.131366
  10 H :    0.130419
  11 H :    0.130871
  12 H :    0.130828
  13 H :    0.155064
  14 H :    0.162920
  15 H :    0.137308
  16 H :    0.133988
  17 H :    0.129379
  18 H :    0.132492

  Mayer bond orders larger than 0.1
B(  0-C ,  1-C ) :   0.9134 B(  0-C ,  2-C ) :   0.8575 B(  0-C ,  9-H ) :   0.9278
B(  0-C , 10-H ) :   0.9307 B(  1-C ,  2-C ) :   0.8636 B(  1-C , 11-H ) :   0.9301
B(  1-C , 12-H ) :   0.9299 B(  2-C ,  3-C ) :   0.9169 B(  2-C , 13-H ) :   0.9283
B(  3-C ,  4-C ) :   0.9059 B(  3-C ,  7-C ) :   0.9398 B(  3-C , 14-H ) :   0.9002
B(  4-C ,  5-C ) :   0.8757 B(  4-C ,  8-C ) :   0.8443 B(  4-C , 15-H ) :   0.9213
B(  5-C ,  6-O ) :   0.9466 B(  5-C ,  8-C ) :   0.8965 B(  5-C , 16-H ) :   0.9240
B(  6-O ,  7-C ) :   0.8969 B(  7-C ,  8-C ) :   0.9589 B(  7-C , 17-H ) :   0.9080
B(  8-C , 18-H ) :   0.8984

MP2 TOTAL ENERGY:     -385.120083262 Eh
FINAL SINGLE POINT ENERGY      -385.120083262349

DIPOLE MOMENT
-------------
                                X             Y             Z
Electronic contribution:     -1.01973      -6.16131       0.70614
Nuclear contribution   :      0.65888       6.42446      -0.19494
                        -----------------------------------------
Total Dipole Moment    :     -0.36085       0.26315       0.51120
                        -----------------------------------------
Magnitude (a.u.)       :      0.67881
Magnitude (Debye)      :      1.72540

                             ****ORCA TERMINATED NORMALLY****
TOTAL RUN TIME: 0 days 0 hours 18 minutes 31 seconds 549 msec
