                         Program Version 3.0.3 - RELEASE   -
|  1> ! RI-MP2 RIJK def2-TZVP def2-TZVP/C def2-TZVP/JK TIGHTSCF
|  2> % maxcore 2000
|  3> % mp2 density relaxed end
|  4> *xyz 0 1
|  5>  C       -0.5597773775     0.5582361959     0.2169534874
|  6>  O        0.4038730846     0.3616736673    -0.8092224608
|  7>  C        0.7114735060    -0.9257397160    -1.0739741521
|  8>  N        1.5647863596    -1.1943032064    -1.9585805206
|  9>  C        1.8422170052    -2.5593499571    -2.3053779728
| 10>  C        1.5208202036    -3.8260386128    -1.3961703968
| 11>  C        0.6884490422    -4.3783784381    -2.5520199112
| 12>  N       -0.3845963886    -3.3795640041    -2.7825983359
| 13>  C        0.9485110381    -3.1819714358    -3.3955797128
| 14>  H       -1.5197935455     0.0929564580    -0.0379857692
| 15>  H       -0.2119828963     0.1617115847     1.1790949568
| 16>  H       -0.6986572962     1.6364310468     0.3067308256
| 17>  H        0.1631487664    -1.6530400140    -0.4650860237
| 18>  H        2.8880936344    -2.6202781708    -2.6200660927
| 19>  H        2.4272131474    -4.3971094756    -1.1853364329
| 20>  H        0.9697388923    -3.6682833896    -0.4670326882
| 21>  H        0.5571198846    -5.4128942707    -2.8434676872
| 22>  H       -0.9943078582    -3.7463049436    -3.5126008344
| 23>  H        1.0574167478    -3.0804893381    -4.4681714283
| 24> *
| 25>
| 26>                          ****END OF INPUT****

CARTESIAN COORDINATES (ANGSTROEM)
---------------------------------
  C     -0.559777    0.558236    0.216953
  O      0.403873    0.361674   -0.809222
  C      0.711474   -0.925740   -1.073974
  N      1.564786   -1.194303   -1.958581
  C      1.842217   -2.559350   -2.305378
  C      1.520820   -3.826039   -1.396170
  C      0.688449   -4.378378   -2.552020
  N     -0.384596   -3.379564   -2.782598
  C      0.948511   -3.181971   -3.395580
  H     -1.519794    0.092956   -0.037986
  H     -0.211983    0.161712    1.179095
  H     -0.698657    1.636431    0.306731
  H      0.163149   -1.653040   -0.465086
  H      2.888094   -2.620278   -2.620066
  H      2.427213   -4.397109   -1.185336
  H      0.969739   -3.668283   -0.467033
  H      0.557120   -5.412894   -2.843468
  H     -0.994308   -3.746305   -3.512601
  H      1.057417   -3.080489   -4.468171

 Total Charge           Charge          ....    0
 Multiplicity           Mult            ....    1
 Number of Electrons    NEL             ....   68
 Basis Dimension        Dim             ....  339

ORBITAL ENERGIES
----------------

  NO   OCC          E(Eh)            E(eV)
   0   2.0000     -20.581717      -560.0570
   1   2.0000     -15.560145      -423.4131
   2   2.0000     -15.529355      -422.5752
   3   2.0000     -11.321111      -308.0631
   4   2.0000     -11.285462      -307.0930
   5   2.0000     -11.261556      -306.4425
   6   2.0000     -11.261090      -306.4298
   7   2.0000     -11.257301      -306.3267
   8   2.0000     -11.228287      -305.5372
   9   2.0000      -1.415683       -38.5227
  10   2.0000      -1.283402       -34.9232
  11   2.0000      -1.205159       -32.7940
  12   2.0000      -1.038207       -28.2511
  13   2.0000      -0.960301       -26.1311
  14   2.0000      -0.902394       -24.5554
  15   2.0000      -0.844073       -22.9684
  16   2.0000      -0.805739       -21.9253
  17   2.0000      -0.747943       -20.3526
  18   2.0000      -0.723276       -19.6813
  19   2.0000      -0.695286       -18.9197
  20   2.0000      -0.654231       -17.8025
  21   2.0000      -0.644091       -17.5266
  22   2.0000      -0.598847       -16.2955
  23   2.0000      -0.591514       -16.0959
  24   2.0000      -0.552142       -15.0245
  25   2.0000      -0.540043       -14.6953
  26   2.0000      -0.522032       -14.2052
  27   2.0000      -0.511262       -13.9121
  28   2.0000      -0.498943       -13.5769
  29   2.0000      -0.475484       -12.9386
  30   2.0000      -0.453344       -12.3361
  31   2.0000      -0.393721       -10.7137
  32   2.0000      -0.373111       -10.1529
  33   2.0000      -0.357537        -9.7291
  34   0.0000       0.140928         3.8348
  35   0.0000       0.146165         3.9773
  36   0.0000       0.156881         4.2689
  37   0.0000       0.168350         4.5810
  38   0.0000       0.178527         4.8580

MULLIKEN ATOMIC CHARGES
-----------------------
   0 C :   -0.243415
   1 O :   -0.230416
   2 C :    0.105595
   3 N :   -0.219927
   4 C :    0.063090
   5 C :   -0.229330
   6 C :   -0.076987
   7 N :   -0.406064
   8 C :   -0.081725
   9 H :    0.136182
  10 H :    0.129243
  11 H :    0.147680
  12 H :    0.067576
  13 H :    0.112497
  14 H :    0.120838
  15 H :    0.111509
  16 H :    0.137596
  17 H :    0.216532
  18 H :    0.139525
Sum of atomic charges:   -0.0000000

LOEWDIN ATOMIC CHARGES
----------------------
   0 C :   -0.337654
   1 O :    0.215141
   2 C :   -0.348953
   3 N :    0.107264
   4 C :   -0.256608
   5 C :   -0.203295
   6 C :   -0.242281
   7 N :   -0.001357
   8 C :   -0.216527
   9 H :    0.108700
  10 H :    0.106314
  11 H :    0.117675
  12 H :    0.113268
  13 H :    0.149406
  14 H :    0.134256
  15 H :    0.126846
  16 H :    0.127170
  17 H :    0.171649
  18 H :    0.128986

  Mayer bond orders larger than 0.1
B(  0-C ,  1-O ) :   0.8743 B(  0-C ,  9-H ) :   0.9351 B(  0-C , 10-H ) :   0.9369
B(  0-C , 11-H ) :   0.9391 B(  1-O ,  2-C ) :   1.0737 B(  2-C ,  3-N ) :   1.8479
B(  2-C , 12-H ) :   0.9267 B(  3-N ,  4-C ) :   0.9631 B(  4-C ,  5-C ) :   0.9499
B(  4-C ,  8-C ) :   0.8981 B(  4-C , 13-H ) :   0.9331 B(  5-C ,  6-C ) :   0.9447
B(  5-C , 14-H ) :   0.9270 B(  5-C , 15-H ) :   0.9172 B(  6-C ,  7-N ) :   0.9614
B(  6-C ,  8-C ) :   0.8679 B(  6-C , 16-H ) :   0.9170 B(  7-N ,  8-C ) :   0.8766
B(  7-N , 17-H ) :   0.8696 B(  8-C , 18-H ) :   0.9180

MP2 TOTAL ENERGY:     -418.431956449 Eh
FINAL SINGLE POINT ENERGY      -418.431956449058

DIPOLE MOMENT
-------------
                                X             Y             Z
Electronic contribution:      1.76749       1.52107      -2.79618
Nuclear contribution   :     -2.31354      -2.43370       3.10885
                        -----------------------------------------
Total Dipole Moment    :     -0.54604      -0.91263       0.31267
                        -----------------------------------------
Magnitude (a.u.)       :      1.10852
Magnitude (Debye)      :      2.81763

                             ****ORCA TERMINATED NORMALLY****
TOTAL RUN TIME: 0 days 0 hours 15 minutes 20 seconds 387 msec
