                         Program Version 3.0.3 - RELEASE   -
|  1> ! RI-MP2 RIJK def2-TZVP def2-TZVP/C def2-TZVP/JK TIGHTSCF
|  2> % maxcore 2000
|  3> % mp2 density relaxed end
|  4> *xyz 0 1
|  5>  C       -0.2742473899     1.5919949449    -0.1169842432
|  6>  C       -0.0060764118     0.0973184216     0.0025125984
|  7>  O        0.7263166151    -0.3541708861    -1.1817613945
|  8>  C        1.9491524320    -1.0290550302    -0.8707308468
|  9>  C        2.1890710492    -0.6377899279     0.5547616823
| 10>  C        2.8139919797    -0.9175643392     1.9415268865
| 11>  C        1.9010698463     0.3540348099     2.0076336786
| 12>  O        2.5112492761     0.8098269036     0.7514800777
| 13>  C        0.8117201687    -0.4102916910     1.1976217882
| 14>  H        0.6618707016     2.1496891104    -0.1125739911
| 15>  H       -0.8107198122     1.7982221234    -1.0476363632
| 16>  H       -0.8989606810     1.9300258493     0.7174890011
| 17>  H       -0.9652000710    -0.4366934338    -0.0059816253
| 18>  H        1.8443580787    -2.1201963457    -0.9679382626
| 19>  H        2.7239331612    -0.6797828362    -1.5601232861
| 20>  H        2.4996473269    -1.8188731618     2.4731090154
| 21>  H        3.8807254842    -0.7118277482     2.0289093222
| 22>  H        1.8032786666     1.0785304839     2.8167928651
| 23>  H        0.3639213694    -1.2692438068     1.7034485572
| 24> *
| 25>
| 26>                          ****END OF INPUT****

CARTESIAN COORDINATES (ANGSTROEM)
---------------------------------
  C     -0.274247    1.591995   -0.116984
  C     -0.006076    0.097318    0.002513
  O      0.726317   -0.354171   -1.181761
  C      1.949152   -1.029055   -0.870731
  C      2.189071   -0.637790    0.554762
  C      2.813992   -0.917564    1.941527
  C      1.901070    0.354035    2.007634
  O      2.511249    0.809827    0.751480
  C      0.811720   -0.410292    1.197622
  H      0.661871    2.149689   -0.112574
  H     -0.810720    1.798222   -1.047636
  H     -0.898961    1.930026    0.717489
  H     -0.965200   -0.436693   -0.005982
  H      1.844358   -2.120196   -0.967938
  H      2.723933   -0.679783   -1.560123
  H      2.499647   -1.818873    2.473109
  H      3.880725   -0.711828    2.028909
  H      1.803279    1.078530    2.816793
  H      0.363921   -1.269244    1.703449

 Total Charge           Charge          ....    0
 Multiplicity           Mult            ....    1
 Number of Electrons    NEL             ....   68
 Basis Dimension        Dim             ....  339

ORBITAL ENERGIES
----------------

  NO   OCC          E(Eh)            E(eV)
   0   2.0000     -20.549234      -559.1731
   1   2.0000     -20.546194      -559.0904
   2   2.0000     -11.313085      -307.8447
   3   2.0000     -11.305405      -307.6357
   4   2.0000     -11.283074      -307.0280
   5   2.0000     -11.282888      -307.0230
   6   2.0000     -11.254409      -306.2480
   7   2.0000     -11.238889      -305.8257
   8   2.0000     -11.203872      -304.8728
   9   2.0000      -1.409808       -38.3628
  10   2.0000      -1.353537       -36.8316
  11   2.0000      -1.090602       -29.6768
  12   2.0000      -1.033787       -28.1308
  13   2.0000      -0.972114       -26.4526
  14   2.0000      -0.925943       -25.1962
  15   2.0000      -0.856558       -23.3081
  16   2.0000      -0.797432       -21.6992
  17   2.0000      -0.734671       -19.9914
  18   2.0000      -0.695651       -18.9296
  19   2.0000      -0.658585       -17.9210
  20   2.0000      -0.643408       -17.5080
  21   2.0000      -0.632912       -17.2224
  22   2.0000      -0.597067       -16.2470
  23   2.0000      -0.560157       -15.2426
  24   2.0000      -0.554874       -15.0989
  25   2.0000      -0.536940       -14.6109
  26   2.0000      -0.528626       -14.3846
  27   2.0000      -0.513875       -13.9833
  28   2.0000      -0.486283       -13.2324
  29   2.0000      -0.480595       -13.0777
  30   2.0000      -0.457559       -12.4508
  31   2.0000      -0.433801       -11.8043
  32   2.0000      -0.414114       -11.2686
  33   2.0000      -0.397370       -10.8130
  34   0.0000       0.140756         3.8302
  35   0.0000       0.148110         4.0303
  36   0.0000       0.167459         4.5568
  37   0.0000       0.179917         4.8958
  38   0.0000       0.194418         5.2904

MULLIKEN ATOMIC CHARGES
-----------------------
   0 C :   -0.417324
   1 C :    0.106032
   2 O :   -0.313407
   3 C :   -0.038985
   4 C :   -0.004151
   5 C :   -0.115695
   6 C :   -0.016506
   7 O :   -0.322858
   8 C :   -0.088142
   9 H :    0.155194
  10 H :    0.134300
  11 H :    0.114742
  12 H :    0.080773
  13 H :    0.098124
  14 H :    0.120143
  15 H :    0.119972
  16 H :    0.128673
  17 H :    0.142614
  18 H :    0.116501
Sum of atomic charges:   -0.0000000

LOEWDIN ATOMIC CHARGES
----------------------
   0 C :   -0.295587
   1 C :   -0.285969
   2 O :    0.153568
   3 C :   -0.272462
   4 C :   -0.253901
   5 C :   -0.171131
   6 C :   -0.209187
   7 O :    0.156442
   8 C :   -0.145798
   9 H :    0.129347
  10 H :    0.125609
  11 H :    0.123959
  12 H :    0.140835
  13 H :    0.129766
  14 H :    0.136310
  15 H :    0.130761
  16 H :    0.134800
  17 H :    0.124638
  18 H :    0.148000

  Mayer bond orders larger than 0.1
B(  0-C ,  1-C ) :   0.8857 B(  0-C ,  9-H ) :   0.9384 B(  0-C , 10-H ) :   0.9333
B(  0-C , 11-H ) :   0.9284 B(  1-C ,  2-O ) :   0.9287 B(  1-C ,  8-C ) :   0.9419
B(  1-C , 12-H ) :   0.9270 B(  2-O ,  3-C ) :   0.9879 B(  3-C ,  4-C ) :   0.9491
B(  3-C , 13-H ) :   0.9156 B(  3-C , 14-H ) :   0.9068 B(  4-C ,  5-C ) :   0.8523
B(  4-C ,  7-O ) :   0.8421 B(  4-C ,  8-C ) :   0.8637 B(  5-C ,  6-C ) :   0.9236
B(  5-C , 15-H ) :   0.9119 B(  5-C , 16-H ) :   0.9225 B(  6-C ,  7-O ) :   0.8993
B(  6-C ,  8-C ) :   0.8682 B(  6-C , 17-H ) :   0.8885 B(  8-C , 18-H ) :   0.9321

MP2 TOTAL ENERGY:     -422.236526909 Eh
FINAL SINGLE POINT ENERGY      -422.236526909484

DIPOLE MOMENT
-------------
                                X             Y             Z
Electronic contribution:      2.57324      -0.90864      -0.61410
Nuclear contribution   :     -2.64382       0.24617       1.49831
                        -----------------------------------------
Total Dipole Moment    :     -0.07058      -0.66247       0.88421
                        -----------------------------------------
Magnitude (a.u.)       :      1.10710
Magnitude (Debye)      :      2.81403

                             ****ORCA TERMINATED NORMALLY****
TOTAL RUN TIME: 0 days 0 hours 18 minutes 57 seconds 807 msec
