                         Program Version 3.0.3 - RELEASE   -
|  1> ! RI-MP2 RIJK def2-TZVP def2-TZVP/C def2-TZVP/JK TIGHTSCF
|  2> % maxcore 2000
|  3> % mp2 density relaxed end
|  4> *xyz 0 1
|  5>  C       -0.0569358577     1.5595843869    -0.0529399979
|  6>  C        0.1416126895     0.0588012237     0.0446111142
|  7>  C        1.4063992316    -0.7180184318    -0.2047253442
|  8>  O        1.5797894456    -1.6958986012    -1.1663623777
|  9>  C        2.6302072719     0.0118668161     0.3282798015
| 10>  C        2.0042159483    -0.0629609636     1.7705234904
| 11>  O        1.7693357107     1.1304798113     2.4935529165
| 12>  C        0.7653913604    -0.7265284550     1.1962057315
| 13>  O        0.0809645545    -1.7483850120     1.8348562217
| 14>  H        0.7631552392     2.1061669470     0.4136693144
| 15>  H       -0.1390464741     1.8748289498    -1.0994747246
| 16>  H       -0.9777767239     1.8623813120     0.4580419965
| 17>  H       -0.7141431329    -0.5156620877    -0.3183662727
| 18>  H        0.7309887812    -2.1214013008    -1.3281050469
| 19>  H        3.5397082719    -0.5855135611     0.2350518004
| 20>  H        2.8100997540     1.0166458257    -0.0638067689
| 21>  H        2.5537526458    -0.7899367330     2.3829250027
| 22>  H        2.6080344396     1.4348363155     2.8547833243
| 23>  H       -0.6326350855    -1.3588150319     2.3527262490
| 24> *
| 25>
| 26>                          ****END OF INPUT****

CARTESIAN COORDINATES (ANGSTROEM)
---------------------------------
  C     -0.056936    1.559584   -0.052940
  C      0.141613    0.058801    0.044611
  C      1.406399   -0.718018   -0.204725
  O      1.579789   -1.695899   -1.166362
  C      2.630207    0.011867    0.328280
  C      2.004216   -0.062961    1.770523
  O      1.769336    1.130480    2.493553
  C      0.765391   -0.726528    1.196206
  O      0.080965   -1.748385    1.834856
  H      0.763155    2.106167    0.413669
  H     -0.139046    1.874829   -1.099475
  H     -0.977777    1.862381    0.458042
  H     -0.714143   -0.515662   -0.318366
  H      0.730989   -2.121401   -1.328105
  H      3.539708   -0.585514    0.235052
  H      2.810100    1.016646   -0.063807
  H      2.553753   -0.789937    2.382925
  H      2.608034    1.434836    2.854783
  H     -0.632635   -1.358815    2.352726

 Total Charge           Charge          ....    0
 Multiplicity           Mult            ....    1
 Number of Electrons    NEL             ....   70
 Basis Dimension        Dim             ....  339

ORBITAL ENERGIES
----------------

  NO   OCC          E(Eh)            E(eV)
   0   2.0000     -20.569731      -559.7308
   1   2.0000     -20.569023      -559.7116
   2   2.0000     -20.560793      -559.4876
   3   2.0000     -11.290870      -307.2402
   4   2.0000     -11.287143      -307.1388
   5   2.0000     -11.281620      -306.9885
   6   2.0000     -11.236737      -305.7671
   7   2.0000     -11.227190      -305.5074
   8   2.0000     -11.212675      -305.1124
   9   2.0000      -1.389485       -37.8098
  10   2.0000      -1.372899       -37.3585
  11   2.0000      -1.363825       -37.1116
  12   2.0000      -1.171967       -31.8908
  13   2.0000      -1.014097       -27.5950
  14   2.0000      -0.935789       -25.4641
  15   2.0000      -0.890945       -24.2438
  16   2.0000      -0.781521       -21.2663
  17   2.0000      -0.757958       -20.6251
  18   2.0000      -0.726107       -19.7584
  19   2.0000      -0.702542       -19.1172
  20   2.0000      -0.660390       -17.9701
  21   2.0000      -0.623936       -16.9782
  22   2.0000      -0.613427       -16.6922
  23   2.0000      -0.607049       -16.5187
  24   2.0000      -0.583079       -15.8664
  25   2.0000      -0.562966       -15.3191
  26   2.0000      -0.547630       -14.9018
  27   2.0000      -0.543755       -14.7963
  28   2.0000      -0.531129       -14.4528
  29   2.0000      -0.519078       -14.1248
  30   2.0000      -0.498058       -13.5528
  31   2.0000      -0.476513       -12.9666
  32   2.0000      -0.429900       -11.6982
  33   2.0000      -0.385894       -10.5007
  34   2.0000      -0.356535        -9.7018
  35   0.0000       0.126441         3.4406
  36   0.0000       0.142921         3.8891
  37   0.0000       0.155696         4.2367
  38   0.0000       0.165131         4.4934
  39   0.0000       0.181500         4.9389

MULLIKEN ATOMIC CHARGES
-----------------------
   0 C :   -0.374993
   1 C :   -0.223083
   2 C :    0.149711
   3 O :   -0.434148
   4 C :   -0.222778
   5 C :    0.026377
   6 O :   -0.469909
   7 C :    0.180486
   8 O :   -0.454939
   9 H :    0.145919
  10 H :    0.127610
  11 H :    0.124467
  12 H :    0.115251
  13 H :    0.325523
  14 H :    0.120407
  15 H :    0.124164
  16 H :    0.091838
  17 H :    0.316889
  18 H :    0.331208
Sum of atomic charges:   -0.0000000

LOEWDIN ATOMIC CHARGES
----------------------
   0 C :   -0.294776
   1 C :   -0.194126
   2 C :   -0.298615
   3 O :    0.037355
   4 C :   -0.174014
   5 C :   -0.286455
   6 O :   -0.022356
   7 C :   -0.291827
   8 O :    0.025911
   9 H :    0.128212
  10 H :    0.124062
  11 H :    0.125346
  12 H :    0.159317
  13 H :    0.186785
  14 H :    0.140537
  15 H :    0.131605
  16 H :    0.140009
  17 H :    0.175204
  18 H :    0.187824

  Mayer bond orders larger than 0.1
B(  0-C ,  1-C ) :   0.8801 B(  0-C ,  9-H ) :   0.9330 B(  0-C , 10-H ) :   0.9331
B(  0-C , 11-H ) :   0.9343 B(  1-C ,  2-C ) :   0.9320 B(  1-C ,  7-C ) :   0.8543
B(  1-C , 12-H ) :   0.9430 B(  2-C ,  3-O ) :   1.0653 B(  2-C ,  4-C ) :   0.9569
B(  2-C ,  7-C ) :   0.7621 B(  3-O , 13-H ) :   0.8325 B(  4-C ,  5-C ) :   0.9437
B(  4-C , 14-H ) :   0.9042 B(  4-C , 15-H ) :   0.9057 B(  5-C ,  6-O ) :   1.0589
B(  5-C ,  7-C ) :   0.9261 B(  5-C , 16-H ) :   0.9359 B(  6-O , 17-H ) :   0.8436
B(  7-C ,  8-O ) :   1.0348 B(  8-O , 18-H ) :   0.8351

MP2 TOTAL ENERGY:     -459.394128120 Eh
FINAL SINGLE POINT ENERGY      -459.394128119766

DIPOLE MOMENT
-------------
                                X             Y             Z
Electronic contribution:      0.63829      -4.70846       1.45207
Nuclear contribution   :     -0.79801       5.06956      -1.20489
                        -----------------------------------------
Total Dipole Moment    :     -0.15971       0.36111       0.24718
                        -----------------------------------------
Magnitude (a.u.)       :      0.46584
Magnitude (Debye)      :      1.18407

                             ****ORCA TERMINATED NORMALLY****
TOTAL RUN TIME: 0 days 0 hours 16 minutes 14 seconds 612 msec
