                         Program Version 3.0.3 - RELEASE   -
|  1> ! RI-MP2 RIJK def2-TZVP def2-TZVP/C def2-TZVP/JK TIGHTSCF
|  2> % maxcore 2000
|  3> % mp2 density relaxed end
|  4> *xyz 0 1
|  5>  C       -0.1112718231     1.5259812898     0.0116321172
|  6>  C        0.0801319580     0.0269439276    -0.0290722956
|  7>  C        0.7605270503    -0.6264729476    -1.2551998515
|  8>  C       -0.3521928403    -1.6844035491    -1.0656820471
|  9>  C       -1.0645947509    -2.2477350496    -2.2742128346
| 10>  C        0.0438775984    -2.7315909711    -0.0137523604
| 11>  C        0.9232780633    -2.0832483411     1.0819250402
| 12>  C        0.5856589404    -0.5869685444     1.2853035569
| 13>  O       -1.1560468587    -0.6822838836    -0.3637415653
| 14>  H        0.8482248626     2.0339720226     0.1561325653
| 15>  H       -0.5580990582     1.8799790425    -0.9215786126
| 16>  H       -0.7733019772     1.8088108356     0.8373373313
| 17>  H        0.6046151350    -0.0377404196    -2.1621188846
| 18>  H        1.8060942832    -0.9338679427    -1.1837798718
| 19>  H       -0.4009837306    -2.9110236713    -2.8392238446
| 20>  H       -1.9440476992    -2.8256721308    -1.9698822544
| 21>  H       -1.3969793347    -1.4406038347    -2.9329319175
| 22>  H       -0.8865561977    -3.1258869643     0.4101251241
| 23>  H        0.5738340030    -3.5733410672    -0.4751271828
| 24>  H        0.8345787833    -2.6317323636     2.0244147289
| 25>  H        1.9742542658    -2.1687825896     0.7848167377
| 26>  H        1.4642849246    -0.0485249109     1.6599481603
| 27>  H       -0.2131967074    -0.4604219069     2.0246708508
| 28> *
| 29>
| 30>                          ****END OF INPUT****

CARTESIAN COORDINATES (ANGSTROEM)
---------------------------------
  C     -0.111272    1.525981    0.011632
  C      0.080132    0.026944   -0.029072
  C      0.760527   -0.626473   -1.255200
  C     -0.352193   -1.684404   -1.065682
  C     -1.064595   -2.247735   -2.274213
  C      0.043878   -2.731591   -0.013752
  C      0.923278   -2.083248    1.081925
  C      0.585659   -0.586969    1.285304
  O     -1.156047   -0.682284   -0.363742
  H      0.848225    2.033972    0.156133
  H     -0.558099    1.879979   -0.921579
  H     -0.773302    1.808811    0.837337
  H      0.604615   -0.037740   -2.162119
  H      1.806094   -0.933868   -1.183780
  H     -0.400984   -2.911024   -2.839224
  H     -1.944048   -2.825672   -1.969882
  H     -1.396979   -1.440604   -2.932932
  H     -0.886556   -3.125887    0.410125
  H      0.573834   -3.573341   -0.475127
  H      0.834579   -2.631732    2.024415
  H      1.974254   -2.168783    0.784817
  H      1.464285   -0.048525    1.659948
  H     -0.213197   -0.460422    2.024671

 Total Charge           Charge          ....    0
 Multiplicity           Mult            ....    1
 Number of Electrons    NEL             ....   70
 Basis Dimension        Dim             ....  363

ORBITAL ENERGIES
----------------

  NO   OCC          E(Eh)            E(eV)
   0   2.0000     -20.531004      -558.6770
   1   2.0000     -11.280709      -306.9637
   2   2.0000     -11.280700      -306.9634
   3   2.0000     -11.220576      -305.3274
   4   2.0000     -11.219383      -305.2949
   5   2.0000     -11.217002      -305.2301
   6   2.0000     -11.216948      -305.2287
   7   2.0000     -11.212004      -305.0941
   8   2.0000     -11.212003      -305.0941
   9   2.0000      -1.369763       -37.2731
  10   2.0000      -1.079018       -29.3616
  11   2.0000      -1.048631       -28.5347
  12   2.0000      -1.001963       -27.2648
  13   2.0000      -0.945232       -25.7211
  14   2.0000      -0.922140       -25.0927
  15   2.0000      -0.828467       -22.5437
  16   2.0000      -0.770590       -20.9688
  17   2.0000      -0.710795       -19.3417
  18   2.0000      -0.653571       -17.7846
  19   2.0000      -0.634534       -17.2665
  20   2.0000      -0.632353       -17.2072
  21   2.0000      -0.600885       -16.3509
  22   2.0000      -0.585234       -15.9250
  23   2.0000      -0.558095       -15.1865
  24   2.0000      -0.553885       -15.0720
  25   2.0000      -0.536974       -14.6118
  26   2.0000      -0.528356       -14.3773
  27   2.0000      -0.511287       -13.9128
  28   2.0000      -0.505868       -13.7654
  29   2.0000      -0.498259       -13.5583
  30   2.0000      -0.469763       -12.7829
  31   2.0000      -0.469366       -12.7721
  32   2.0000      -0.439132       -11.9494
  33   2.0000      -0.417618       -11.3640
  34   2.0000      -0.388883       -10.5821
  35   0.0000       0.131174         3.5694
  36   0.0000       0.155606         4.2343
  37   0.0000       0.158159         4.3037
  38   0.0000       0.177163         4.8208
  39   0.0000       0.191338         5.2066

MULLIKEN ATOMIC CHARGES
-----------------------
   0 C :   -0.398012
   1 C :    0.251445
   2 C :   -0.264011
   3 C :    0.251446
   4 C :   -0.398014
   5 C :   -0.309798
   6 C :   -0.203798
   7 C :   -0.309798
   8 O :   -0.339767
   9 H :    0.127898
  10 H :    0.132866
  11 H :    0.134881
  12 H :    0.112043
  13 H :    0.126528
  14 H :    0.127899
  15 H :    0.134881
  16 H :    0.132867
  17 H :    0.111709
  18 H :    0.109348
  19 H :    0.130509
  20 H :    0.117820
  21 H :    0.109348
  22 H :    0.111709
Sum of atomic charges:    0.0000000

LOEWDIN ATOMIC CHARGES
----------------------
   0 C :   -0.271452
   1 C :   -0.338210
   2 C :   -0.160163
   3 C :   -0.338210
   4 C :   -0.271452
   5 C :   -0.221203
   6 C :   -0.251588
   7 C :   -0.221203
   8 O :    0.188527
   9 H :    0.129544
  10 H :    0.128374
  11 H :    0.130924
  12 H :    0.140199
  13 H :    0.131300
  14 H :    0.129545
  15 H :    0.130923
  16 H :    0.128374
  17 H :    0.143787
  18 H :    0.138960
  19 H :    0.135048
  20 H :    0.135229
  21 H :    0.138960
  22 H :    0.143787

  Mayer bond orders larger than 0.1
B(  0-C ,  1-C ) :   0.8656 B(  0-C ,  9-H ) :   0.9339 B(  0-C , 10-H ) :   0.9434
B(  0-C , 11-H ) :   0.9395 B(  1-C ,  2-C ) :   0.9171 B(  1-C ,  7-C ) :   0.9449
B(  1-C ,  8-O ) :   0.9256 B(  2-C ,  3-C ) :   0.9171 B(  2-C , 12-H ) :   0.9172
B(  2-C , 13-H ) :   0.9154 B(  3-C ,  4-C ) :   0.8656 B(  3-C ,  5-C ) :   0.9449
B(  3-C ,  8-O ) :   0.9256 B(  4-C , 14-H ) :   0.9339 B(  4-C , 15-H ) :   0.9395
B(  4-C , 16-H ) :   0.9434 B(  5-C ,  6-C ) :   0.9430 B(  5-C , 17-H ) :   0.9221
B(  5-C , 18-H ) :   0.9220 B(  6-C ,  7-C ) :   0.9430 B(  6-C , 19-H ) :   0.9359
B(  6-C , 20-H ) :   0.9366 B(  7-C , 21-H ) :   0.9220 B(  7-C , 22-H ) :   0.9221

MP2 TOTAL ENERGY:     -387.637171248 Eh
FINAL SINGLE POINT ENERGY      -387.637171248301

DIPOLE MOMENT
-------------
                                X             Y             Z
Electronic contribution:     -1.78587       0.26489       0.30751
Nuclear contribution   :      2.43724      -0.37725      -0.39366
                        -----------------------------------------
Total Dipole Moment    :      0.65137      -0.11236      -0.08616
                        -----------------------------------------
Magnitude (a.u.)       :      0.66658
Magnitude (Debye)      :      1.69432

                             ****ORCA TERMINATED NORMALLY****
TOTAL RUN TIME: 0 days 0 hours 22 minutes 39 seconds 582 msec
