                         Program Version 3.0.3 - RELEASE   -
|  1> ! RI-MP2 RIJK def2-TZVP def2-TZVP/C def2-TZVP/JK TIGHTSCF
|  2> % maxcore 2000
|  3> % mp2 density relaxed end
|  4> *xyz 0 1
|  5>  C       -0.0199529595     1.5239634866    -0.0074237936
|  6>  C       -0.0126073691     0.0386933877    -0.0095589298
|  7>  N       -0.0425205264    -0.7451583052    -1.0595043756
|  8>  N       -0.0232528620    -2.0897434018    -0.6722594180
|  9>  C        0.0182981876    -2.0401918941     0.6219085817
| 10>  O        0.0556654821    -2.9136858339     1.6439508632
| 11>  N        0.0904806179    -2.1521725727     2.8412219808
| 12>  C        0.0728686185    -0.9058395945     2.4885577282
| 13>  N        0.0280788267    -0.7645275222     1.1233682937
| 14>  H        0.8802939258     1.9341304810     0.4636196289
| 15>  H       -0.0564662849     1.8649371240    -1.0429212623
| 16>  H       -0.8905402228     1.9252851819     0.5232031703
| 17>  H        0.0918830360    -0.0984888468     3.2031592026
| 18> *
| 19>
| 20>                          ****END OF INPUT****

CARTESIAN COORDINATES (ANGSTROEM)
---------------------------------
  C     -0.019953    1.523963   -0.007424
  C     -0.012607    0.038693   -0.009559
  N     -0.042521   -0.745158   -1.059504
  N     -0.023253   -2.089743   -0.672259
  C      0.018298   -2.040192    0.621909
  O      0.055665   -2.913686    1.643951
  N      0.090481   -2.152173    2.841222
  C      0.072869   -0.905840    2.488558
  N      0.028079   -0.764528    1.123368
  H      0.880294    1.934130    0.463620
  H     -0.056466    1.864937   -1.042921
  H     -0.890540    1.925285    0.523203
  H      0.091883   -0.098489    3.203159

 Total Charge           Charge          ....    0
 Multiplicity           Mult            ....    1
 Number of Electrons    NEL             ....   64
 Basis Dimension        Dim             ....  303

ORBITAL ENERGIES
----------------

  NO   OCC          E(Eh)            E(eV)
   0   2.0000     -20.673661      -562.5589
   1   2.0000     -15.673259      -426.4911
   2   2.0000     -15.671008      -426.4298
   3   2.0000     -15.604929      -424.6317
   4   2.0000     -15.589122      -424.2016
   5   2.0000     -11.384277      -309.7819
   6   2.0000     -11.377697      -309.6029
   7   2.0000     -11.338623      -308.5396
   8   2.0000     -11.266641      -306.5809
   9   2.0000      -1.542331       -41.9690
  10   2.0000      -1.406490       -38.2725
  11   2.0000      -1.290016       -35.1031
  12   2.0000      -1.186043       -32.2739
  13   2.0000      -1.131357       -30.7858
  14   2.0000      -1.005681       -27.3660
  15   2.0000      -0.930239       -25.3131
  16   2.0000      -0.881918       -23.9982
  17   2.0000      -0.844779       -22.9876
  18   2.0000      -0.732758       -19.9394
  19   2.0000      -0.724736       -19.7211
  20   2.0000      -0.717391       -19.5212
  21   2.0000      -0.636497       -17.3200
  22   2.0000      -0.633781       -17.2460
  23   2.0000      -0.602856       -16.4046
  24   2.0000      -0.583928       -15.8895
  25   2.0000      -0.578269       -15.7355
  26   2.0000      -0.556851       -15.1527
  27   2.0000      -0.529254       -14.4017
  28   2.0000      -0.490401       -13.3445
  29   2.0000      -0.450033       -12.2460
  30   2.0000      -0.414221       -11.2715
  31   2.0000      -0.363217        -9.8836
  32   0.0000       0.091894         2.5006
  33   0.0000       0.108845         2.9618
  34   0.0000       0.149993         4.0815
  35   0.0000       0.167732         4.5642
  36   0.0000       0.169388         4.6093

MULLIKEN ATOMIC CHARGES
-----------------------
   0 C :   -0.431075
   1 C :    0.137623
   2 N :   -0.136651
   3 N :   -0.193955
   4 C :    0.261819
   5 O :   -0.123589
   6 N :   -0.092454
   7 C :    0.022177
   8 N :   -0.114912
   9 H :    0.151889
  10 H :    0.178532
  11 H :    0.151835
  12 H :    0.188762
Sum of atomic charges:    0.0000000

LOEWDIN ATOMIC CHARGES
----------------------
   0 C :   -0.269653
   1 C :   -0.328816
   2 N :    0.070508
   3 N :    0.033328
   4 C :   -0.426157
   5 O :    0.265207
   6 N :    0.067275
   7 C :   -0.268167
   8 N :    0.282274
   9 H :    0.136188
  10 H :    0.150988
  11 H :    0.136170
  12 H :    0.150855

  Mayer bond orders larger than 0.1
B(  0-C ,  1-C ) :   0.8689 B(  0-C ,  9-H ) :   0.9289 B(  0-C , 10-H ) :   0.9399
B(  0-C , 11-H ) :   0.9289 B(  1-C ,  2-N ) :   1.6716 B(  1-C ,  8-N ) :   1.0641
B(  2-N ,  3-N ) :   0.9763 B(  3-N ,  4-C ) :   1.6724 B(  4-C ,  5-O ) :   1.1100
B(  4-C ,  8-N ) :   1.0470 B(  5-O ,  6-N ) :   0.8410 B(  6-N ,  7-C ) :   1.6707
B(  7-C ,  8-N ) :   1.0636 B(  7-C , 12-H ) :   0.9069

MP2 TOTAL ENERGY:     -448.153463499 Eh
FINAL SINGLE POINT ENERGY      -448.153463499008

DIPOLE MOMENT
-------------
                                X             Y             Z
Electronic contribution:      0.08132      -7.54442       1.34476
Nuclear contribution   :     -0.04731       9.42093      -0.00045
                        -----------------------------------------
Total Dipole Moment    :      0.03400       1.87652       1.34431
                        -----------------------------------------
Magnitude (a.u.)       :      2.30860
Magnitude (Debye)      :      5.86800

                             ****ORCA TERMINATED NORMALLY****
TOTAL RUN TIME: 0 days 0 hours 14 minutes 20 seconds 428 msec
