                         Program Version 3.0.3 - RELEASE   -
|  1> ! RI-MP2 RIJK def2-TZVP def2-TZVP/C def2-TZVP/JK TIGHTSCF
|  2> % maxcore 2000
|  3> % mp2 density relaxed end
|  4> *xyz 0 1
|  5>  C       -0.1813044569     1.5593725623     0.0418234592
|  6>  C        0.1741562374     0.0743859509    -0.0930503996
|  7>  C        0.8288016164    -0.4888326950     1.1615433056
|  8>  C       -0.0430060288    -0.8524614438     2.3779616451
|  9>  N       -0.5557555013    -2.1460946100     1.7005631278
| 10>  C       -0.1887991008    -2.9646263020     2.9333491796
| 11>  C        0.9551092975    -1.9552046161     2.8804417477
| 12>  O        2.0988590962    -1.8279239773     3.6473139424
| 13>  C        0.9486431674    -2.0123606560     1.3335176076
| 14>  H        0.7090601917     2.1646027144     0.2471288898
| 15>  H       -0.6398365715     1.9424986919    -0.8748917778
| 16>  H       -0.8895646575     1.7253941231     0.8608725446
| 17>  H       -0.7242193266    -0.5086206456    -0.3206451541
| 18>  H        0.8598023661    -0.0607489708    -0.9399462123
| 19>  H        1.7424041669     0.0550575914     1.4257361697
| 20>  H       -0.7253800338    -0.2411073589     2.9730409525
| 21>  H       -0.9231984139    -2.8837379955     3.7422195288
| 22>  H        0.0344783869    -4.0131269636     2.7112483949
| 23>  H        1.8420752150    -1.6340911531     4.5557629540
| 24>  H        1.4234515297    -2.7611196264     0.6962069944
| 25> *
| 26>
| 27>                          ****END OF INPUT****

CARTESIAN COORDINATES (ANGSTROEM)
---------------------------------
  C     -0.181304    1.559373    0.041823
  C      0.174156    0.074386   -0.093050
  C      0.828802   -0.488833    1.161543
  C     -0.043006   -0.852461    2.377962
  N     -0.555756   -2.146095    1.700563
  C     -0.188799   -2.964626    2.933349
  C      0.955109   -1.955205    2.880442
  O      2.098859   -1.827924    3.647314
  C      0.948643   -2.012361    1.333518
  H      0.709060    2.164603    0.247129
  H     -0.639837    1.942499   -0.874892
  H     -0.889565    1.725394    0.860873
  H     -0.724219   -0.508621   -0.320645
  H      0.859802   -0.060749   -0.939946
  H      1.742404    0.055058    1.425736
  H     -0.725380   -0.241107    2.973041
  H     -0.923198   -2.883738    3.742220
  H      0.034478   -4.013127    2.711248
  H      1.842075   -1.634091    4.555763
  H      1.423452   -2.761120    0.696207

 Total Charge           Charge          ....    0
 Multiplicity           Mult            ....    1
 Number of Electrons    NEL             ....   68
 Basis Dimension        Dim             ....  345

ORBITAL ENERGIES
----------------

  NO   OCC          E(Eh)            E(eV)
   0   2.0000     -20.574446      -559.8592
   1   2.0000     -15.566236      -423.5788
   2   2.0000     -11.303095      -307.5729
   3   2.0000     -11.268857      -306.6412
   4   2.0000     -11.267928      -306.6159
   5   2.0000     -11.254412      -306.2481
   6   2.0000     -11.233455      -305.6779
   7   2.0000     -11.215769      -305.1966
   8   2.0000     -11.212024      -305.0947
   9   2.0000      -1.389762       -37.8174
  10   2.0000      -1.310548       -35.6618
  11   2.0000      -1.069265       -29.0962
  12   2.0000      -0.994766       -27.0690
  13   2.0000      -0.915548       -24.9133
  14   2.0000      -0.884702       -24.0740
  15   2.0000      -0.871990       -23.7281
  16   2.0000      -0.791758       -21.5448
  17   2.0000      -0.723163       -19.6783
  18   2.0000      -0.702479       -19.1154
  19   2.0000      -0.662174       -18.0187
  20   2.0000      -0.630040       -17.1443
  21   2.0000      -0.626779       -17.0555
  22   2.0000      -0.592617       -16.1259
  23   2.0000      -0.586771       -15.9668
  24   2.0000      -0.563995       -15.3471
  25   2.0000      -0.526279       -14.3208
  26   2.0000      -0.501063       -13.6346
  27   2.0000      -0.488300       -13.2873
  28   2.0000      -0.461930       -12.5698
  29   2.0000      -0.460160       -12.5216
  30   2.0000      -0.436540       -11.8789
  31   2.0000      -0.432713       -11.7747
  32   2.0000      -0.410636       -11.1740
  33   2.0000      -0.386164       -10.5080
  34   0.0000       0.131367         3.5747
  35   0.0000       0.144161         3.9228
  36   0.0000       0.159277         4.3342
  37   0.0000       0.169990         4.6257
  38   0.0000       0.192696         5.2435

MULLIKEN ATOMIC CHARGES
-----------------------
   0 C :   -0.401649
   1 C :   -0.235197
   2 C :   -0.067324
   3 C :   -0.129694
   4 N :   -0.222364
   5 C :   -0.131826
   6 C :    0.139165
   7 O :   -0.441402
   8 C :   -0.073352
   9 H :    0.122285
  10 H :    0.134997
  11 H :    0.125100
  12 H :    0.143396
  13 H :    0.108851
  14 H :    0.111353
  15 H :    0.135922
  16 H :    0.110672
  17 H :    0.115395
  18 H :    0.325156
  19 H :    0.130516
Sum of atomic charges:    0.0000000

LOEWDIN ATOMIC CHARGES
----------------------
   0 C :   -0.317039
   1 C :   -0.274034
   2 C :   -0.197817
   3 C :   -0.149033
   4 N :    0.133751
   5 C :   -0.225237
   6 C :   -0.339006
   7 O :    0.023005
   8 C :   -0.133037
   9 H :    0.119837
  10 H :    0.121149
  11 H :    0.120204
  12 H :    0.145459
  13 H :    0.137960
  14 H :    0.152303
  15 H :    0.124642
  16 H :    0.121199
  17 H :    0.124056
  18 H :    0.182822
  19 H :    0.128815

  Mayer bond orders larger than 0.1
B(  0-C ,  1-C ) :   0.9096 B(  0-C ,  9-H ) :   0.9390 B(  0-C , 10-H ) :   0.9414
B(  0-C , 11-H ) :   0.9417 B(  1-C ,  2-C ) :   0.8929 B(  1-C , 12-H ) :   0.9324
B(  1-C , 13-H ) :   0.9334 B(  2-C ,  3-C ) :   0.9246 B(  2-C ,  8-C ) :   0.9103
B(  2-C , 14-H ) :   0.9021 B(  3-C ,  4-N ) :   0.9397 B(  3-C ,  6-C ) :   0.8998
B(  3-C , 15-H ) :   0.8674 B(  4-N ,  5-C ) :   0.9200 B(  4-N ,  8-C ) :   0.9320
B(  5-C ,  6-C ) :   0.9895 B(  5-C , 16-H ) :   0.9164 B(  5-C , 17-H ) :   0.9230
B(  6-C ,  7-O ) :   1.1326 B(  6-C ,  8-C ) :   0.9214 B(  7-O , 18-H ) :   0.8328
B(  8-C , 19-H ) :   0.8800

MP2 TOTAL ENERGY:     -402.369638278 Eh
FINAL SINGLE POINT ENERGY      -402.369638277769

DIPOLE MOMENT
-------------
                                X             Y             Z
Electronic contribution:      2.30753      -5.91695       4.98828
Nuclear contribution   :     -2.26112       6.13509      -4.38852
                        -----------------------------------------
Total Dipole Moment    :      0.04642       0.21813       0.59976
                        -----------------------------------------
Magnitude (a.u.)       :      0.63988
Magnitude (Debye)      :      1.62645

                             ****ORCA TERMINATED NORMALLY****
TOTAL RUN TIME: 0 days 0 hours 18 minutes 55 seconds 537 msec
