                         Program Version 3.0.3 - RELEASE   -
|  1> ! RI-MP2 RIJK def2-TZVP def2-TZVP/C def2-TZVP/JK TIGHTSCF
|  2> % maxcore 2000
|  3> % mp2 density relaxed end
|  4> *xyz 0 1
|  5>  N        0.0178205307     1.3423521703     0.0872789005
|  6>  C        0.0053598314    -0.0342021370    -0.0018917042
|  7>  N       -1.0716473262    -0.7287726265     0.0498632149
|  8>  C       -0.7327135388    -2.1518691352     0.0593772393
|  9>  C        0.7945765185    -2.2493552411    -0.0294280085
| 10>  O        1.4797942965    -3.2344283480    -0.0992443891
| 11>  C        1.2729119100    -0.8152249865    -0.0425099351
| 12>  C        2.5424066481    -0.3980706735    -0.7082945245
| 13>  N        2.4794229568    -0.4639542216     0.7452312860
| 14>  H        0.7023216515     1.8201782744    -0.4812250933
| 15>  H       -0.9052711028     1.7499429936     0.0128217677
| 16>  H       -1.0959171582    -2.6431016530     0.9715299522
| 17>  H       -1.2007950035    -2.6766927409    -0.7825782364
| 18>  H        3.1364492313    -1.1812933788    -1.1712502054
| 19>  H        2.5748648805     0.5680639819    -1.2077483414
| 20>  H        2.3390512844     0.4666861419     1.1367066773
| 21> *
| 22>
| 23>                          ****END OF INPUT****

CARTESIAN COORDINATES (ANGSTROEM)
---------------------------------
  N      0.017821    1.342352    0.087279
  C      0.005360   -0.034202   -0.001892
  N     -1.071647   -0.728773    0.049863
  C     -0.732714   -2.151869    0.059377
  C      0.794577   -2.249355   -0.029428
  O      1.479794   -3.234428   -0.099244
  C      1.272912   -0.815225   -0.042510
  C      2.542407   -0.398071   -0.708295
  N      2.479423   -0.463954    0.745231
  H      0.702322    1.820178   -0.481225
  H     -0.905271    1.749943    0.012822
  H     -1.095917   -2.643102    0.971530
  H     -1.200795   -2.676693   -0.782578
  H      3.136449   -1.181293   -1.171250
  H      2.574865    0.568064   -1.207748
  H      2.339051    0.466686    1.136707

 Total Charge           Charge          ....    0
 Multiplicity           Mult            ....    1
 Number of Electrons    NEL             ....   66
 Basis Dimension        Dim             ....  321

ORBITAL ENERGIES
----------------

  NO   OCC          E(Eh)            E(eV)
   0   2.0000     -20.555171      -559.3347
   1   2.0000     -15.595086      -424.3639
   2   2.0000     -15.593889      -424.3313
   3   2.0000     -15.553326      -423.2275
   4   2.0000     -11.337199      -308.5009
   5   2.0000     -11.331828      -308.3547
   6   2.0000     -11.293998      -307.3253
   7   2.0000     -11.292414      -307.2822
   8   2.0000     -11.265850      -306.5594
   9   2.0000      -1.400127       -38.0994
  10   2.0000      -1.314999       -35.7830
  11   2.0000      -1.272557       -34.6280
  12   2.0000      -1.198102       -32.6020
  13   2.0000      -0.986491       -26.8438
  14   2.0000      -0.963189       -26.2097
  15   2.0000      -0.906250       -24.6603
  16   2.0000      -0.808085       -21.9891
  17   2.0000      -0.757345       -20.6084
  18   2.0000      -0.742009       -20.1911
  19   2.0000      -0.682088       -18.5606
  20   2.0000      -0.664585       -18.0843
  21   2.0000      -0.650621       -17.7043
  22   2.0000      -0.637578       -17.3494
  23   2.0000      -0.590531       -16.0692
  24   2.0000      -0.583048       -15.8655
  25   2.0000      -0.544708       -14.8223
  26   2.0000      -0.540215       -14.7000
  27   2.0000      -0.536585       -14.6012
  28   2.0000      -0.488498       -13.2927
  29   2.0000      -0.463428       -12.6105
  30   2.0000      -0.430999       -11.7281
  31   2.0000      -0.389800       -10.6070
  32   2.0000      -0.371819       -10.1177
  33   0.0000       0.110365         3.0032
  34   0.0000       0.112380         3.0580
  35   0.0000       0.155646         4.2353
  36   0.0000       0.161245         4.3877
  37   0.0000       0.167288         4.5521

MULLIKEN ATOMIC CHARGES
-----------------------
   0 N :   -0.523567
   1 C :    0.183670
   2 N :   -0.252914
   3 C :   -0.107451
   4 C :    0.113194
   5 O :   -0.264228
   6 C :    0.099493
   7 C :   -0.193325
   8 N :   -0.360161
   9 H :    0.254170
  10 H :    0.260453
  11 H :    0.143075
  12 H :    0.139577
  13 H :    0.150411
  14 H :    0.125563
  15 H :    0.232038
Sum of atomic charges:   -0.0000000

LOEWDIN ATOMIC CHARGES
----------------------
   0 N :   -0.050566
   1 C :   -0.347455
   2 N :    0.092687
   3 C :   -0.246454
   4 C :   -0.274664
   5 O :    0.172917
   6 C :   -0.239870
   7 C :   -0.224009
   8 N :    0.041526
   9 H :    0.169615
  10 H :    0.178383
  11 H :    0.147011
  12 H :    0.145977
  13 H :    0.139540
  14 H :    0.121318
  15 H :    0.174046

  Mayer bond orders larger than 0.1
B(  0-N ,  1-C ) :   1.0161 B(  0-N ,  9-H ) :   0.8696 B(  0-N , 10-H ) :   0.8629
B(  1-C ,  2-N ) :   1.8185 B(  1-C ,  6-C ) :   0.9430 B(  2-N ,  3-C ) :   0.9405
B(  3-C ,  4-C ) :   0.9622 B(  3-C ,  6-C ) :  -0.1046 B(  3-C , 11-H ) :   0.9032
B(  3-C , 12-H ) :   0.9058 B(  4-C ,  5-O ) :   2.0471 B(  4-C ,  6-C ) :   0.8504
B(  6-C ,  7-C ) :   0.8721 B(  6-C ,  8-N ) :   0.7893 B(  7-C ,  8-N ) :   0.9868
B(  7-C , 13-H ) :   0.9116 B(  7-C , 14-H ) :   0.9166 B(  8-N , 15-H ) :   0.8598

MP2 TOTAL ENERGY:     -433.347723543 Eh
FINAL SINGLE POINT ENERGY      -433.347723543351

DIPOLE MOMENT
-------------
                                X             Y             Z
Electronic contribution:     -0.20581      -2.90513       0.77371
Nuclear contribution   :      0.18165       4.47086      -1.45363
                        -----------------------------------------
Total Dipole Moment    :     -0.02416       1.56573      -0.67992
                        -----------------------------------------
Magnitude (a.u.)       :      1.70716
Magnitude (Debye)      :      4.33925

                             ****ORCA TERMINATED NORMALLY****
TOTAL RUN TIME: 0 days 0 hours 17 minutes 28 seconds 819 msec
