                         Program Version 3.0.3 - RELEASE   -
|  1> ! RI-MP2 RIJK def2-TZVP def2-TZVP/C def2-TZVP/JK TIGHTSCF
|  2> % maxcore 2000
|  3> % mp2 density relaxed end
|  4> *xyz 0 1
|  5>  O        0.1555218719     0.1174475714     0.4491206181
|  6>  C        0.0922356258     1.2246392731    -0.0015642338
|  7>  N       -0.9637716924     2.1062911144     0.0325960022
|  8>  C       -0.7022575259     3.3136923783    -0.6793626099
|  9>  C        0.5280103066     4.2060484050    -0.3280120533
| 10>  N        1.3741556448     3.8529623962     0.7835680997
| 11>  C        1.7312972528     2.6477302898     0.5890572461
| 12>  N        1.2274601195     1.9858506822    -0.6075243423
| 13>  C        0.6099521134     3.1041063677    -1.3559568139
| 14>  H       -1.8200842120     1.8861824608     0.5124597830
| 15>  H       -1.5387706452     3.7852101790    -1.1790585574
| 16>  H        0.4602273548     5.2541895379    -0.5893040492
| 17>  H        2.3150302716     2.0562931749     1.2848774714
| 18>  H        0.8166171144     3.1858069392    -2.4158698407
| 19> *
| 20>
| 21>                          ****END OF INPUT****

CARTESIAN COORDINATES (ANGSTROEM)
---------------------------------
  O      0.155522    0.117448    0.449121
  C      0.092236    1.224639   -0.001564
  N     -0.963772    2.106291    0.032596
  C     -0.702258    3.313692   -0.679363
  C      0.528010    4.206048   -0.328012
  N      1.374156    3.852962    0.783568
  C      1.731297    2.647730    0.589057
  N      1.227460    1.985851   -0.607524
  C      0.609952    3.104106   -1.355957
  H     -1.820084    1.886182    0.512460
  H     -1.538771    3.785210   -1.179059
  H      0.460227    5.254190   -0.589304
  H      2.315030    2.056293    1.284877
  H      0.816617    3.185807   -2.415870

 Total Charge           Charge          ....    0
 Multiplicity           Mult            ....    1
 Number of Electrons    NEL             ....   64
 Basis Dimension        Dim             ....  309

ORBITAL ENERGIES
----------------

  NO   OCC          E(Eh)            E(eV)
   0   2.0000     -20.546481      -559.0982
   1   2.0000     -15.608456      -424.7277
   2   2.0000     -15.605350      -424.6432
   3   2.0000     -15.577827      -423.8942
   4   2.0000     -11.399223      -310.1886
   5   2.0000     -11.325533      -308.1834
   6   2.0000     -11.306194      -307.6572
   7   2.0000     -11.289656      -307.2072
   8   2.0000     -11.286129      -307.1112
   9   2.0000      -1.428420       -38.8693
  10   2.0000      -1.355187       -36.8765
  11   2.0000      -1.256469       -34.1903
  12   2.0000      -1.173698       -31.9379
  13   2.0000      -1.117291       -30.4030
  14   2.0000      -0.897321       -24.4173
  15   2.0000      -0.849423       -23.1140
  16   2.0000      -0.832348       -22.6493
  17   2.0000      -0.806189       -21.9375
  18   2.0000      -0.748636       -20.3714
  19   2.0000      -0.692094       -18.8328
  20   2.0000      -0.668879       -18.2011
  21   2.0000      -0.641201       -17.4480
  22   2.0000      -0.627287       -17.0694
  23   2.0000      -0.599618       -16.3164
  24   2.0000      -0.588187       -16.0054
  25   2.0000      -0.531679       -14.4677
  26   2.0000      -0.510059       -13.8794
  27   2.0000      -0.506580       -13.7848
  28   2.0000      -0.451465       -12.2850
  29   2.0000      -0.441013       -12.0006
  30   2.0000      -0.417214       -11.3530
  31   2.0000      -0.359398        -9.7797
  32   0.0000       0.117726         3.2035
  33   0.0000       0.133684         3.6377
  34   0.0000       0.150554         4.0968
  35   0.0000       0.174992         4.7618
  36   0.0000       0.177965         4.8427

MULLIKEN ATOMIC CHARGES
-----------------------
   0 O :   -0.285557
   1 C :    0.250502
   2 N :   -0.327284
   3 C :   -0.018149
   4 C :   -0.050918
   5 N :   -0.221088
   6 C :    0.010736
   7 N :   -0.133797
   8 C :   -0.086352
   9 H :    0.253674
  10 H :    0.154047
  11 H :    0.144089
  12 H :    0.162245
  13 H :    0.147852
Sum of atomic charges:   -0.0000000

LOEWDIN ATOMIC CHARGES
----------------------
   0 O :    0.129944
   1 C :   -0.468104
   2 N :    0.145692
   3 C :   -0.218028
   4 C :   -0.215255
   5 N :    0.125316
   6 C :   -0.235812
   7 N :    0.154031
   8 C :   -0.190714
   9 H :    0.193267
  10 H :    0.149973
  11 H :    0.146700
  12 H :    0.143381
  13 H :    0.139610

  Mayer bond orders larger than 0.1
B(  0-O ,  1-C ) :   2.0423 B(  1-C ,  2-N ) :   1.1576 B(  1-C ,  7-N ) :   0.8868
B(  2-N ,  3-C ) :   0.9438 B(  2-N ,  9-H ) :   0.8655 B(  3-C ,  4-C ) :   0.8165
B(  3-C ,  8-C ) :   0.8904 B(  3-C , 10-H ) :   0.9227 B(  4-C ,  5-N ) :   0.9723
B(  4-C ,  8-C ) :   0.8647 B(  4-C , 11-H ) :   0.9314 B(  5-N ,  6-C ) :   1.8165
B(  6-C ,  7-N ) :   0.9507 B(  6-C , 12-H ) :   0.9158 B(  7-N ,  8-C ) :   0.9431
B(  8-C , 13-H ) :   0.9282

MP2 TOTAL ENERGY:     -432.149286645 Eh
FINAL SINGLE POINT ENERGY      -432.149286645289

DIPOLE MOMENT
-------------
                                X             Y             Z
Electronic contribution:      0.80865      -2.54599       1.04339
Nuclear contribution   :     -1.79526       3.56964      -1.70883
                        -----------------------------------------
Total Dipole Moment    :     -0.98662       1.02365      -0.66545
                        -----------------------------------------
Magnitude (a.u.)       :      1.56974
Magnitude (Debye)      :      3.98996

                             ****ORCA TERMINATED NORMALLY****
TOTAL RUN TIME: 0 days 0 hours 16 minutes 0 seconds 35 msec
