                         Program Version 3.0.3 - RELEASE   -
|  1> ! RI-MP2 RIJK def2-TZVP def2-TZVP/C def2-TZVP/JK TIGHTSCF
|  2> % maxcore 2000
|  3> % mp2 density relaxed end
|  4> *xyz 0 1
|  5>  C        0.3612919694     0.8848739478     0.7227791955
|  6>  C       -0.4172078001     0.3404915548    -0.4878933755
|  7>  C        0.4877369950    -0.1970111622    -1.5560553174
|  8>  N        0.6363328357     0.3563315181    -2.6940745433
|  9>  C        1.5277747825    -0.1990011976    -3.6510770023
| 10>  O        1.6796382328     0.3164020759    -4.7356445397
| 11>  C        2.2272300084    -1.4156564029    -3.2199312609
| 12>  C        1.9965160575    -1.9127375191    -2.0010192587
| 13>  O        1.1294861048    -1.3330949808    -1.1320001030
| 14>  H        0.9709337230     0.1031234640     1.1833859220
| 15>  H        1.0204722323     1.7053528873     0.4248640614
| 16>  H       -0.3340250963     1.2637729979     1.4762234694
| 17>  H       -1.0862484222    -0.4647029820    -0.1627496680
| 18>  H       -1.0217121613     1.1246238591    -0.9460085749
| 19>  H        2.9218821616    -1.8945441020    -3.8972546865
| 20>  H        2.4501765069    -2.7997689080    -1.5761303681
| 21> *
| 22>
| 23>                          ****END OF INPUT****

CARTESIAN COORDINATES (ANGSTROEM)
---------------------------------
  C      0.361292    0.884874    0.722779
  C     -0.417208    0.340492   -0.487893
  C      0.487737   -0.197011   -1.556055
  N      0.636333    0.356332   -2.694075
  C      1.527775   -0.199001   -3.651077
  O      1.679638    0.316402   -4.735645
  C      2.227230   -1.415656   -3.219931
  C      1.996516   -1.912738   -2.001019
  O      1.129486   -1.333095   -1.132000
  H      0.970934    0.103123    1.183386
  H      1.020472    1.705353    0.424864
  H     -0.334025    1.263773    1.476223
  H     -1.086248   -0.464703   -0.162750
  H     -1.021712    1.124624   -0.946009
  H      2.921882   -1.894544   -3.897255
  H      2.450177   -2.799769   -1.576130

 Total Charge           Charge          ....    0
 Multiplicity           Mult            ....    1
 Number of Electrons    NEL             ....   66
 Basis Dimension        Dim             ....  321

ORBITAL ENERGIES
----------------

  NO   OCC          E(Eh)            E(eV)
   0   2.0000     -20.656778      -562.0995
   1   2.0000     -20.529052      -558.6239
   2   2.0000     -15.570612      -423.6979
   3   2.0000     -11.381152      -309.6969
   4   2.0000     -11.356448      -309.0247
   5   2.0000     -11.344520      -308.7001
   6   2.0000     -11.258279      -306.3533
   7   2.0000     -11.254410      -306.2481
   8   2.0000     -11.241182      -305.8881
   9   2.0000      -1.496854       -40.7315
  10   2.0000      -1.385292       -37.6957
  11   2.0000      -1.244460       -33.8635
  12   2.0000      -1.114420       -30.3249
  13   2.0000      -1.055230       -28.7143
  14   2.0000      -0.936610       -25.4864
  15   2.0000      -0.906877       -24.6774
  16   2.0000      -0.840494       -22.8710
  17   2.0000      -0.757665       -20.6171
  18   2.0000      -0.740120       -20.1397
  19   2.0000      -0.687226       -18.7004
  20   2.0000      -0.666171       -18.1274
  21   2.0000      -0.638751       -17.3813
  22   2.0000      -0.630774       -17.1642
  23   2.0000      -0.615600       -16.7513
  24   2.0000      -0.585511       -15.9326
  25   2.0000      -0.558844       -15.2069
  26   2.0000      -0.551032       -14.9944
  27   2.0000      -0.534355       -14.5405
  28   2.0000      -0.520398       -14.1607
  29   2.0000      -0.473517       -12.8851
  30   2.0000      -0.440255       -11.9799
  31   2.0000      -0.417182       -11.3521
  32   2.0000      -0.384313       -10.4577
  33   0.0000       0.095619         2.6019
  34   0.0000       0.113755         3.0954
  35   0.0000       0.136254         3.7077
  36   0.0000       0.153754         4.1839
  37   0.0000       0.168055         4.5730

MULLIKEN ATOMIC CHARGES
-----------------------
   0 C :   -0.411810
   1 C :   -0.191636
   2 C :    0.255076
   3 N :   -0.216572
   4 C :    0.227608
   5 O :   -0.287747
   6 C :   -0.227802
   7 C :    0.045480
   8 O :   -0.214583
   9 H :    0.138829
  10 H :    0.143167
  11 H :    0.142746
  12 H :    0.130200
  13 H :    0.150947
  14 H :    0.156082
  15 H :    0.160016
Sum of atomic charges:   -0.0000000

LOEWDIN ATOMIC CHARGES
----------------------
   0 C :   -0.302325
   1 C :   -0.242378
   2 C :   -0.310252
   3 N :    0.167155
   4 C :   -0.419421
   5 O :    0.133896
   6 C :   -0.145807
   7 C :   -0.202766
   8 O :    0.331884
   9 H :    0.124273
  10 H :    0.127541
  11 H :    0.126215
  12 H :    0.151314
  13 H :    0.155565
  14 H :    0.160770
  15 H :    0.144336

  Mayer bond orders larger than 0.1
B(  0-C ,  1-C ) :   0.9050 B(  0-C ,  9-H ) :   0.9358 B(  0-C , 10-H ) :   0.9340
B(  0-C , 11-H ) :   0.9354 B(  1-C ,  2-C ) :   0.9102 B(  1-C , 12-H ) :   0.9202
B(  1-C , 13-H ) :   0.9384 B(  2-C ,  3-N ) :   1.7626 B(  2-C ,  8-O ) :   0.9950
B(  3-N ,  4-C ) :   1.0430 B(  4-C ,  5-O ) :   1.9953 B(  4-C ,  6-C ) :   1.0432
B(  6-C ,  7-C ) :   1.6174 B(  6-C , 14-H ) :   0.9062 B(  7-C ,  8-O ) :   1.0227
B(  7-C , 15-H ) :   0.9308

MP2 TOTAL ENERGY:     -437.206619658 Eh
FINAL SINGLE POINT ENERGY      -437.206619658321

DIPOLE MOMENT
-------------
                                X             Y             Z
Electronic contribution:      2.40687      -2.39323      -8.49101
Nuclear contribution   :     -2.35997       1.31415      10.20754
                        -----------------------------------------
Total Dipole Moment    :      0.04690      -1.07908       1.71654
                        -----------------------------------------
Magnitude (a.u.)       :      2.02808
Magnitude (Debye)      :      5.15496

                             ****ORCA TERMINATED NORMALLY****
TOTAL RUN TIME: 0 days 0 hours 14 minutes 46 seconds 494 msec
