                         Program Version 3.0.3 - RELEASE   -
|  1> ! RI-MP2 RIJK def2-TZVP def2-TZVP/C def2-TZVP/JK TIGHTSCF
|  2> % maxcore 2000
|  3> % mp2 density relaxed end
|  4> *xyz 0 1
|  5>  N        0.0265118821    -1.1835931043    -0.1540126814
|  6>  C        0.0154893503    -0.0302892026    -0.0761407606
|  7>  C        0.0164899272     1.4216288142     0.0496989963
|  8>  C       -0.2383135628     2.0296941540     1.4791444222
|  9>  C        1.1192868775     2.7486413283     1.3916909504
| 10>  C        2.2263583124     1.7397258728     1.1794857997
| 11>  C        1.3871242100     2.1237108100     0.0052194863
| 12>  C        1.3631828233     4.0820276818     1.8331740683
| 13>  N        1.5446257889     5.1670324934     2.1931844752
| 14>  H       -0.6782968823     1.8453092053    -0.6780429640
| 15>  H       -1.0895186963     2.7099082052     1.4796891032
| 16>  H       -0.3394040575     1.3157438209     2.2988992215
| 17>  H        3.2288239141     2.1520693789     1.1818494702
| 18>  H        2.1367468190     0.7540962839     1.6281326558
| 19>  H        1.7998850339     2.6012661081    -0.8733924431
| 20> *
| 21>
| 22>                          ****END OF INPUT****

CARTESIAN COORDINATES (ANGSTROEM)
---------------------------------
  N      0.026512   -1.183593   -0.154013
  C      0.015489   -0.030289   -0.076141
  C      0.016490    1.421629    0.049699
  C     -0.238314    2.029694    1.479144
  C      1.119287    2.748641    1.391691
  C      2.226358    1.739726    1.179486
  C      1.387124    2.123711    0.005219
  C      1.363183    4.082028    1.833174
  N      1.544626    5.167032    2.193184
  H     -0.678297    1.845309   -0.678043
  H     -1.089519    2.709908    1.479689
  H     -0.339404    1.315744    2.298899
  H      3.228824    2.152069    1.181849
  H      2.136747    0.754096    1.628133
  H      1.799885    2.601266   -0.873392

 Total Charge           Charge          ....    0
 Multiplicity           Mult            ....    1
 Number of Electrons    NEL             ....   62
 Basis Dimension        Dim             ....  315

ORBITAL ENERGIES
----------------

  NO   OCC          E(Eh)            E(eV)
   0   2.0000     -15.585383      -424.0998
   1   2.0000     -15.583157      -424.0393
   2   2.0000     -11.314821      -307.8919
   3   2.0000     -11.311802      -307.8098
   4   2.0000     -11.299046      -307.4627
   5   2.0000     -11.287963      -307.1611
   6   2.0000     -11.287822      -307.1572
   7   2.0000     -11.286819      -307.1300
   8   2.0000     -11.282534      -307.0134
   9   2.0000      -1.265786       -34.4438
  10   2.0000      -1.232026       -33.5251
  11   2.0000      -1.218896       -33.1678
  12   2.0000      -1.063641       -28.9431
  13   2.0000      -0.986570       -26.8459
  14   2.0000      -0.886977       -24.1359
  15   2.0000      -0.861934       -23.4544
  16   2.0000      -0.759872       -20.6772
  17   2.0000      -0.717464       -19.5232
  18   2.0000      -0.679064       -18.4783
  19   2.0000      -0.613517       -16.6946
  20   2.0000      -0.607304       -16.5256
  21   2.0000      -0.590206       -16.0603
  22   2.0000      -0.571404       -15.5487
  23   2.0000      -0.560459       -15.2509
  24   2.0000      -0.553788       -15.0694
  25   2.0000      -0.522470       -14.2171
  26   2.0000      -0.505966       -13.7680
  27   2.0000      -0.476945       -12.9783
  28   2.0000      -0.464083       -12.6283
  29   2.0000      -0.448936       -12.2162
  30   2.0000      -0.414532       -11.2800
  31   0.0000       0.110599         3.0095
  32   0.0000       0.115741         3.1495
  33   0.0000       0.136880         3.7247
  34   0.0000       0.140994         3.8366
  35   0.0000       0.159218         4.3325

MULLIKEN ATOMIC CHARGES
-----------------------
   0 N :   -0.045183
   1 C :   -0.217561
   2 C :    0.014179
   3 C :   -0.225491
   4 C :    0.183181
   5 C :   -0.266121
   6 C :   -0.076638
   7 C :   -0.288777
   8 N :   -0.041084
   9 H :    0.158199
  10 H :    0.157601
  11 H :    0.154330
  12 H :    0.166362
  13 H :    0.161976
  14 H :    0.165027
Sum of atomic charges:    0.0000000

LOEWDIN ATOMIC CHARGES
----------------------
   0 N :    0.070281
   1 C :   -0.171923
   2 C :   -0.184590
   3 C :   -0.120239
   4 C :   -0.190647
   5 C :   -0.140624
   6 C :   -0.099798
   7 C :   -0.159945
   8 N :    0.074214
   9 H :    0.178385
  10 H :    0.148802
  11 H :    0.144397
  12 H :    0.155009
  13 H :    0.147321
  14 H :    0.149358

  Mayer bond orders larger than 0.1
B(  0-N ,  1-C ) :   2.8477 B(  1-C ,  2-C ) :   0.9563 B(  2-C ,  3-C ) :   0.9360
B(  2-C ,  6-C ) :   0.9062 B(  2-C ,  9-H ) :   0.8990 B(  3-C ,  4-C ) :   0.8947
B(  3-C , 10-H ) :   0.9275 B(  3-C , 11-H ) :   0.9148 B(  4-C ,  5-C ) :   0.8498
B(  4-C ,  6-C ) :   0.7726 B(  4-C ,  7-C ) :   0.9472 B(  5-C ,  6-C ) :   0.9047
B(  5-C , 12-H ) :   0.9254 B(  5-C , 13-H ) :   0.9046 B(  6-C , 14-H ) :   0.9071
B(  7-C ,  8-N ) :   2.8689

MP2 TOTAL ENERGY:     -378.991296034 Eh
FINAL SINGLE POINT ENERGY      -378.991296034166

DIPOLE MOMENT
-------------
                                X             Y             Z
Electronic contribution:     -0.21771       0.66135      -0.14818
Nuclear contribution   :      0.08291      -0.60830      -0.23059
                        -----------------------------------------
Total Dipole Moment    :     -0.13479       0.05304      -0.37877
                        -----------------------------------------
Magnitude (a.u.)       :      0.40553
Magnitude (Debye)      :      1.03077

                             ****ORCA TERMINATED NORMALLY****
TOTAL RUN TIME: 0 days 0 hours 15 minutes 11 seconds 806 msec
