                         Program Version 3.0.3 - RELEASE   -
|  1> ! RI-MP2 RIJK def2-TZVP def2-TZVP/C def2-TZVP/JK TIGHTSCF
|  2> % maxcore 2000
|  3> % mp2 density relaxed end
|  4> *xyz 0 1
|  5>  N        0.0023756249     1.3479712362     0.3430972076
|  6>  C        0.0103535845     0.1307720034    -0.0007678082
|  7>  C       -1.2637244221    -0.6815869525    -0.0741228546
|  8>  C       -1.2955883010    -1.6244174838     1.1027556471
|  9>  C       -0.6737342579    -2.8078365415     1.1458178824
| 10>  C        0.0649646916    -3.4559085319     0.0636136811
| 11>  C        0.8174938070    -2.9373769980    -0.9166965319
| 12>  C        1.2701065969    -1.5333496936    -1.2151071810
| 13>  O        1.1822232580    -0.5554525354    -0.1801708123
| 14>  H        0.9613541485     1.7013125800     0.3825315076
| 15>  H       -2.1011521707     0.0156257252    -0.0478081759
| 16>  H       -1.3087886092    -1.2499206005    -1.0095853982
| 17>  H       -1.8265495228    -1.2743312126     1.9831621681
| 18>  H       -0.7812851936    -3.4050820942     2.0490374848
| 19>  H       -0.0183698957    -4.5421269018     0.0644641617
| 20>  H        1.2243414161    -3.6392083433    -1.6445262746
| 21>  H        2.3390586596    -1.5730260965    -1.4553901052
| 22>  H        0.7731077559    -1.1638575693    -2.1257542586
| 23> *
| 24>
| 25>                          ****END OF INPUT****

CARTESIAN COORDINATES (ANGSTROEM)
---------------------------------
  N      0.002376    1.347971    0.343097
  C      0.010354    0.130772   -0.000768
  C     -1.263724   -0.681587   -0.074123
  C     -1.295588   -1.624417    1.102756
  C     -0.673734   -2.807837    1.145818
  C      0.064965   -3.455909    0.063614
  C      0.817494   -2.937377   -0.916697
  C      1.270107   -1.533350   -1.215107
  O      1.182223   -0.555453   -0.180171
  H      0.961354    1.701313    0.382532
  H     -2.101152    0.015626   -0.047808
  H     -1.308789   -1.249921   -1.009585
  H     -1.826550   -1.274331    1.983162
  H     -0.781285   -3.405082    2.049037
  H     -0.018370   -4.542127    0.064464
  H      1.224341   -3.639208   -1.644526
  H      2.339059   -1.573026   -1.455390
  H      0.773108   -1.163858   -2.125754

 Total Charge           Charge          ....    0
 Multiplicity           Mult            ....    1
 Number of Electrons    NEL             ....   66
 Basis Dimension        Dim             ....  333

ORBITAL ENERGIES
----------------

  NO   OCC          E(Eh)            E(eV)
   0   2.0000     -20.588261      -560.2351
   1   2.0000     -15.532629      -422.6643
   2   2.0000     -11.335535      -308.4556
   3   2.0000     -11.306945      -307.6776
   4   2.0000     -11.250215      -306.1339
   5   2.0000     -11.246106      -306.0221
   6   2.0000     -11.244225      -305.9709
   7   2.0000     -11.243490      -305.9509
   8   2.0000     -11.238726      -305.8213
   9   2.0000      -1.420792       -38.6617
  10   2.0000      -1.197205       -32.5776
  11   2.0000      -1.115617       -30.3575
  12   2.0000      -1.059625       -28.8339
  13   2.0000      -0.988783       -26.9062
  14   2.0000      -0.942577       -25.6488
  15   2.0000      -0.820541       -22.3281
  16   2.0000      -0.786669       -21.4064
  17   2.0000      -0.714106       -19.4318
  18   2.0000      -0.700126       -19.0514
  19   2.0000      -0.687372       -18.7043
  20   2.0000      -0.655371       -17.8336
  21   2.0000      -0.646054       -17.5800
  22   2.0000      -0.615969       -16.7614
  23   2.0000      -0.576888       -15.6979
  24   2.0000      -0.559705       -15.2304
  25   2.0000      -0.547879       -14.9085
  26   2.0000      -0.530174       -14.4268
  27   2.0000      -0.503743       -13.7075
  28   2.0000      -0.475120       -12.9287
  29   2.0000      -0.440458       -11.9855
  30   2.0000      -0.422508       -11.4970
  31   2.0000      -0.401959       -10.9379
  32   2.0000      -0.329175        -8.9573
  33   0.0000       0.098830         2.6893
  34   0.0000       0.133748         3.6395
  35   0.0000       0.157617         4.2890
  36   0.0000       0.166287         4.5249
  37   0.0000       0.174635         4.7521

MULLIKEN ATOMIC CHARGES
-----------------------
   0 N :   -0.363916
   1 C :    0.134813
   2 C :   -0.110090
   3 C :   -0.193987
   4 C :   -0.117752
   5 C :   -0.125263
   6 C :   -0.203119
   7 C :   -0.043391
   8 O :   -0.272957
   9 H :    0.219635
  10 H :    0.141154
  11 H :    0.139663
  12 H :    0.136078
  13 H :    0.126469
  14 H :    0.126018
  15 H :    0.122560
  16 H :    0.146709
  17 H :    0.137375
Sum of atomic charges:   -0.0000000

LOEWDIN ATOMIC CHARGES
----------------------
   0 N :   -0.045991
   1 C :   -0.408907
   2 C :   -0.209261
   3 C :   -0.141875
   4 C :   -0.165732
   5 C :   -0.165477
   6 C :   -0.173947
   7 C :   -0.291900
   8 O :    0.233822
   9 H :    0.167107
  10 H :    0.156614
  11 H :    0.157410
  12 H :    0.148422
  13 H :    0.151511
  14 H :    0.154770
  15 H :    0.152621
  16 H :    0.144314
  17 H :    0.136500

  Mayer bond orders larger than 0.1
B(  0-N ,  1-C ) :   2.0662 B(  0-N ,  9-H ) :   0.8569 B(  1-C ,  2-C ) :   0.8688
B(  1-C ,  8-O ) :   1.0578 B(  2-C ,  3-C ) :   0.9332 B(  2-C , 10-H ) :   0.9243
B(  2-C , 11-H ) :   0.9121 B(  3-C ,  4-C ) :   1.7658 B(  3-C , 12-H ) :   0.9211
B(  4-C ,  5-C ) :   0.9812 B(  4-C , 13-H ) :   0.9212 B(  5-C ,  6-C ) :   1.7706
B(  5-C , 14-H ) :   0.9227 B(  6-C ,  7-C ) :   0.9156 B(  6-C , 15-H ) :   0.9146
B(  7-C ,  8-O ) :   0.8732 B(  7-C , 16-H ) :   0.9243 B(  7-C , 17-H ) :   0.9355

MP2 TOTAL ENERGY:     -401.246568856 Eh
FINAL SINGLE POINT ENERGY      -401.246568855638

DIPOLE MOMENT
-------------
                                X             Y             Z
Electronic contribution:      1.24464       2.23065       1.20234
Nuclear contribution   :     -1.04284      -3.17820      -1.78741
                        -----------------------------------------
Total Dipole Moment    :      0.20181      -0.94755      -0.58507
                        -----------------------------------------
Magnitude (a.u.)       :      1.13177
Magnitude (Debye)      :      2.87672

                             ****ORCA TERMINATED NORMALLY****
TOTAL RUN TIME: 0 days 0 hours 17 minutes 8 seconds 846 msec
