                         Program Version 3.0.3 - RELEASE   -
|  1> ! RI-MP2 RIJK def2-TZVP def2-TZVP/C def2-TZVP/JK TIGHTSCF
|  2> % maxcore 2000
|  3> % mp2 density relaxed end
|  4> *xyz 0 1
|  5>  C       -0.1095253831     1.5665530953     0.0179378790
|  6>  C       -0.0156628492     0.0426273352    -0.0580341409
|  7>  O       -1.3164556518    -0.5480608942    -0.0026855280
|  8>  C        0.8084627543    -0.4857204842    -1.2086030962
|  9>  C        1.8248487052    -1.2549668315    -0.8170093510
| 10>  C        1.9113890968    -1.3990946688     0.6785967696
| 11>  C        0.7538915885    -0.5254010147     1.1744843736
| 12>  O        0.4778955986    -0.2834947410     2.3168630447
| 13>  H        0.8808407299     2.0316657166     0.0014659834
| 14>  H       -0.6754623353     1.9579880195    -0.8362919745
| 15>  H       -0.6181455827     1.8494455125     0.9431160343
| 16>  H       -1.8597359141    -0.1246243154    -0.6764980620
| 17>  H        0.5627842956    -0.2553006491    -2.2402909290
| 18>  H        2.5275833785    -1.7395475876    -1.4857315622
| 19>  H        1.7840452849    -2.4325607263     1.0262418384
| 20>  H        2.8577824939    -1.0472744264     1.1079561107
| 21> *
| 22>
| 23>                          ****END OF INPUT****

CARTESIAN COORDINATES (ANGSTROEM)
---------------------------------
  C     -0.109525    1.566553    0.017938
  C     -0.015663    0.042627   -0.058034
  O     -1.316456   -0.548061   -0.002686
  C      0.808463   -0.485720   -1.208603
  C      1.824849   -1.254967   -0.817009
  C      1.911389   -1.399095    0.678597
  C      0.753892   -0.525401    1.174484
  O      0.477896   -0.283495    2.316863
  H      0.880841    2.031666    0.001466
  H     -0.675462    1.957988   -0.836292
  H     -0.618146    1.849446    0.943116
  H     -1.859736   -0.124624   -0.676498
  H      0.562784   -0.255301   -2.240291
  H      2.527583   -1.739548   -1.485732
  H      1.784045   -2.432561    1.026242
  H      2.857782   -1.047274    1.107956

 Total Charge           Charge          ....    0
 Multiplicity           Mult            ....    1
 Number of Electrons    NEL             ....   60
 Basis Dimension        Dim             ....  296

ORBITAL ENERGIES
----------------

  NO   OCC          E(Eh)            E(eV)
   0   2.0000     -20.566815      -559.6515
   1   2.0000     -20.551714      -559.2406
   2   2.0000     -11.331222      -308.3382
   3   2.0000     -11.305160      -307.6291
   4   2.0000     -11.251265      -306.1625
   5   2.0000     -11.247351      -306.0560
   6   2.0000     -11.241178      -305.8880
   7   2.0000     -11.230204      -305.5894
   8   2.0000      -1.400346       -38.1054
   9   2.0000      -1.368950       -37.2510
  10   2.0000      -1.141550       -31.0632
  11   2.0000      -1.022641       -27.8275
  12   2.0000      -0.960470       -26.1357
  13   2.0000      -0.895446       -24.3663
  14   2.0000      -0.779797       -21.2194
  15   2.0000      -0.738089       -20.0844
  16   2.0000      -0.690525       -18.7901
  17   2.0000      -0.670775       -18.2527
  18   2.0000      -0.632624       -17.2146
  19   2.0000      -0.612851       -16.6765
  20   2.0000      -0.608981       -16.5712
  21   2.0000      -0.590005       -16.0548
  22   2.0000      -0.563498       -15.3336
  23   2.0000      -0.555822       -15.1247
  24   2.0000      -0.533085       -14.5060
  25   2.0000      -0.518296       -14.1036
  26   2.0000      -0.505019       -13.7423
  27   2.0000      -0.457004       -12.4357
  28   2.0000      -0.398522       -10.8443
  29   2.0000      -0.375747       -10.2246
  30   0.0000       0.121695         3.3115
  31   0.0000       0.129988         3.5371
  32   0.0000       0.142611         3.8806
  33   0.0000       0.148806         4.0492
  34   0.0000       0.167915         4.5692

MULLIKEN ATOMIC CHARGES
-----------------------
   0 C :   -0.443580
   1 C :    0.337156
   2 O :   -0.460038
   3 C :   -0.247086
   4 C :   -0.180488
   5 C :   -0.146728
   6 C :    0.092357
   7 O :   -0.248785
   8 H :    0.133197
   9 H :    0.125814
  10 H :    0.166620
  11 H :    0.314245
  12 H :    0.133574
  13 H :    0.136192
  14 H :    0.146178
  15 H :    0.141373
Sum of atomic charges:   -0.0000000

LOEWDIN ATOMIC CHARGES
----------------------
   0 C :   -0.270053
   1 C :   -0.363440
   2 O :    0.015268
   3 C :   -0.124972
   4 C :   -0.141314
   5 C :   -0.211157
   6 C :   -0.247904
   7 O :    0.181703
   8 H :    0.132451
   9 H :    0.124387
  10 H :    0.137264
  11 H :    0.176781
  12 H :    0.139978
  13 H :    0.139164
  14 H :    0.157429
  15 H :    0.154415

  Mayer bond orders larger than 0.1
B(  0-C ,  1-C ) :   0.9071 B(  0-C ,  8-H ) :   0.9231 B(  0-C ,  9-H ) :   0.9240
B(  0-C , 10-H ) :   0.9374 B(  1-C ,  2-O ) :   0.9047 B(  1-C ,  3-C ) :   0.8858
B(  1-C ,  5-C ) :  -0.1254 B(  1-C ,  6-C ) :   0.7947 B(  2-O , 11-H ) :   0.8398
B(  3-C ,  4-C ) :   1.7624 B(  3-C , 12-H ) :   0.9023 B(  4-C ,  5-C ) :   0.9214
B(  4-C , 13-H ) :   0.9188 B(  5-C ,  6-C ) :   0.9575 B(  5-C , 14-H ) :   0.8952
B(  5-C , 15-H ) :   0.8965 B(  6-C ,  7-O ) :   2.0797

MP2 TOTAL ENERGY:     -383.125125549 Eh
FINAL SINGLE POINT ENERGY      -383.125125548679

DIPOLE MOMENT
-------------
                                X             Y             Z
Electronic contribution:     -1.01084      -2.50807       2.88642
Nuclear contribution   :      1.46584       2.74993      -4.16238
                        -----------------------------------------
Total Dipole Moment    :      0.45500       0.24186      -1.27595
                        -----------------------------------------
Magnitude (a.u.)       :      1.37608
Magnitude (Debye)      :      3.49771

                             ****ORCA TERMINATED NORMALLY****
TOTAL RUN TIME: 0 days 0 hours 11 minutes 46 seconds 390 msec
