                         Program Version 3.0.3 - RELEASE   -
|  1> ! RI-MP2 RIJK def2-TZVP def2-TZVP/C def2-TZVP/JK TIGHTSCF
|  2> % maxcore 2000
|  3> % mp2 density relaxed end
|  4> *xyz 0 1
|  5>  C        0.1764839851     1.4122214904    -0.1667480969
|  6>  C        0.0731407674    -0.1110149937     0.0235524589
|  7>  C        0.7236286570    -0.5311660636     1.3534861232
|  8>  C       -1.4057106100    -0.5376050486     0.0064960730
|  9>  O       -2.0745508756     0.1018135517     1.0808368008
| 10>  C        0.7524412042    -0.8414678006    -1.1461367140
| 11>  O        2.1516209716    -0.5382372872    -1.2017126920
| 12>  C        2.6397655486     0.0555363496    -2.3059510154
| 13>  O        3.7917104213     0.3425368724    -2.4309954270
| 14>  H        1.2176353181     1.7432421911    -0.1276861294
| 15>  H       -0.2448733142     1.7217835677    -1.1308268129
| 16>  H       -0.3790455798     1.9263000711     0.6200135767
| 17>  H        0.2186387603    -0.0458094145     2.1909153456
| 18>  H        0.6538174114    -1.6152468560     1.4999451866
| 19>  H        1.7810352091    -0.2566959114     1.3692881693
| 20>  H       -1.8584191052    -0.2585150446    -0.9597849653
| 21>  H       -1.4719517230    -1.6343459148     0.0987013457
| 22>  H       -2.9953550201    -0.1735326725     1.0714506180
| 23>  H        0.6712082091    -1.9272267130    -1.0228398108
| 24>  H        0.2792183245    -0.5688459313    -2.0997025246
| 25>  H        1.8611523002     0.2395342379    -3.0726078895
| 26> *
| 27>
| 28>                          ****END OF INPUT****

CARTESIAN COORDINATES (ANGSTROEM)
---------------------------------
  C      0.176484    1.412221   -0.166748
  C      0.073141   -0.111015    0.023552
  C      0.723629   -0.531166    1.353486
  C     -1.405711   -0.537605    0.006496
  O     -2.074551    0.101814    1.080837
  C      0.752441   -0.841468   -1.146137
  O      2.151621   -0.538237   -1.201713
  C      2.639766    0.055536   -2.305951
  O      3.791710    0.342537   -2.430995
  H      1.217635    1.743242   -0.127686
  H     -0.244873    1.721784   -1.130827
  H     -0.379046    1.926300    0.620014
  H      0.218639   -0.045809    2.190915
  H      0.653817   -1.615247    1.499945
  H      1.781035   -0.256696    1.369288
  H     -1.858419   -0.258515   -0.959785
  H     -1.471952   -1.634346    0.098701
  H     -2.995355   -0.173533    1.071451
  H      0.671208   -1.927227   -1.022840
  H      0.279218   -0.568846   -2.099703
  H      1.861152    0.239534   -3.072608

 Total Charge           Charge          ....    0
 Multiplicity           Mult            ....    1
 Number of Electrons    NEL             ....   72
 Basis Dimension        Dim             ....  351

ORBITAL ENERGIES
----------------

  NO   OCC          E(Eh)            E(eV)
   0   2.0000     -20.608043      -560.7734
   1   2.0000     -20.569380      -559.7213
   2   2.0000     -20.549436      -559.1786
   3   2.0000     -11.383073      -309.7492
   4   2.0000     -11.305191      -307.6299
   5   2.0000     -11.290959      -307.2426
   6   2.0000     -11.250740      -306.1482
   7   2.0000     -11.218097      -305.2599
   8   2.0000     -11.212986      -305.1208
   9   2.0000      -1.462185       -39.7881
  10   2.0000      -1.375660       -37.4336
  11   2.0000      -1.372595       -37.3502
  12   2.0000      -1.114254       -30.3204
  13   2.0000      -0.962107       -26.1803
  14   2.0000      -0.938118       -25.5275
  15   2.0000      -0.931635       -25.3511
  16   2.0000      -0.847178       -23.0529
  17   2.0000      -0.766311       -20.8524
  18   2.0000      -0.728788       -19.8313
  19   2.0000      -0.712514       -19.3885
  20   2.0000      -0.684729       -18.6324
  21   2.0000      -0.657971       -17.9043
  22   2.0000      -0.650962       -17.7136
  23   2.0000      -0.607575       -16.5329
  24   2.0000      -0.604134       -16.4393
  25   2.0000      -0.584206       -15.8971
  26   2.0000      -0.561611       -15.2822
  27   2.0000      -0.549723       -14.9587
  28   2.0000      -0.532730       -14.4963
  29   2.0000      -0.526153       -14.3174
  30   2.0000      -0.502012       -13.6604
  31   2.0000      -0.481382       -13.0991
  32   2.0000      -0.469757       -12.7827
  33   2.0000      -0.458126       -12.4662
  34   2.0000      -0.454601       -12.3703
  35   2.0000      -0.448154       -12.1949
  36   0.0000       0.117972         3.2102
  37   0.0000       0.140763         3.8304
  38   0.0000       0.147233         4.0064
  39   0.0000       0.160560         4.3691
  40   0.0000       0.170151         4.6300

MULLIKEN ATOMIC CHARGES
-----------------------
   0 C :   -0.463306
   1 C :    0.131098
   2 C :   -0.433801
   3 C :   -0.082419
   4 O :   -0.466140
   5 C :   -0.117607
   6 O :   -0.210877
   7 C :    0.201627
   8 O :   -0.270188
   9 H :    0.156333
  10 H :    0.118389
  11 H :    0.162561
  12 H :    0.155322
  13 H :    0.118454
  14 H :    0.155506
  15 H :    0.100386
  16 H :    0.103660
  17 H :    0.318310
  18 H :    0.131899
  19 H :    0.120552
  20 H :    0.070240
Sum of atomic charges:    0.0000000

LOEWDIN ATOMIC CHARGES
----------------------
   0 C :   -0.267601
   1 C :   -0.343188
   2 C :   -0.264987
   3 C :   -0.309969
   4 O :   -0.034639
   5 C :   -0.254782
   6 O :    0.255170
   7 C :   -0.457179
   8 O :    0.119617
   9 H :    0.130401
  10 H :    0.124122
  11 H :    0.134604
  12 H :    0.132074
  13 H :    0.125618
  14 H :    0.130908
  15 H :    0.119761
  16 H :    0.120874
  17 H :    0.175344
  18 H :    0.135131
  19 H :    0.128032
  20 H :    0.100689

  Mayer bond orders larger than 0.1
B(  0-C ,  1-C ) :   0.8883 B(  0-C ,  9-H ) :   0.9353 B(  0-C , 10-H ) :   0.9332
B(  0-C , 11-H ) :   0.9276 B(  1-C ,  2-C ) :   0.9217 B(  1-C ,  3-C ) :   0.9103
B(  1-C ,  5-C ) :   0.8963 B(  2-C , 12-H ) :   0.9318 B(  2-C , 13-H ) :   0.9288
B(  2-C , 14-H ) :   0.9315 B(  3-C ,  4-O ) :   1.0265 B(  3-C , 15-H ) :   0.9199
B(  3-C , 16-H ) :   0.9225 B(  4-O , 17-H ) :   0.8455 B(  5-C ,  6-O ) :   0.8642
B(  5-C , 18-H ) :   0.9284 B(  5-C , 19-H ) :   0.9392 B(  6-O ,  7-C ) :   1.0692
B(  7-C ,  8-O ) :   2.0271 B(  7-C , 20-H ) :   0.9144

MP2 TOTAL ENERGY:     -460.654829531 Eh
FINAL SINGLE POINT ENERGY      -460.654829531134

DIPOLE MOMENT
-------------
                                X             Y             Z
Electronic contribution:      6.57253      -0.54797      -4.59445
Nuclear contribution   :     -8.50399      -0.02800       4.41826
                        -----------------------------------------
Total Dipole Moment    :     -1.93146      -0.57597      -0.17620
                        -----------------------------------------
Magnitude (a.u.)       :      2.02320
Magnitude (Debye)      :      5.14255

                             ****ORCA TERMINATED NORMALLY****
TOTAL RUN TIME: 0 days 0 hours 17 minutes 28 seconds 85 msec
