                         Program Version 3.0.3 - RELEASE   -
|  1> ! RI-MP2 RIJK def2-TZVP def2-TZVP/C def2-TZVP/JK TIGHTSCF
|  2> % maxcore 2000
|  3> % mp2 density relaxed end
|  4> *xyz 0 1
|  5>  N       -0.0372878792     1.3405272989     0.5987937119
|  6>  C       -0.0643777461     0.0372587198     0.1289623332
|  7>  C       -0.9850659028    -0.7600402807    -0.4709403145
|  8>  N       -0.3692350844    -1.9630400513    -0.8207725324
|  9>  C        0.8517945418    -1.8483561819    -0.4231465319
| 10>  C        1.9718810874    -2.8235721921    -0.5087465565
| 11>  C        1.5580018621    -4.1106172769    -1.2133005291
| 12>  O        2.7002242105    -4.9545026520    -1.2282600489
| 13>  O        1.1188384350    -0.6364148979     0.1702405479
| 14>  H        0.5311945626     1.4489152977     1.4299804789
| 15>  H       -0.9638648406     1.7141950260     0.7523208532
| 16>  H       -2.0247341882    -0.5651360110    -0.6757520430
| 17>  H        2.8203407080    -2.3765575441    -1.0414341072
| 18>  H        2.3392940513    -3.0658913137     0.4965352025
| 19>  H        0.7163932378    -4.5710761885    -0.6773367094
| 20>  H        1.2074263675    -3.8791920402    -2.2288375849
| 21>  H        2.4588656172    -5.7722439722    -1.6721712897
| 22> *
| 23>
| 24>                          ****END OF INPUT****

CARTESIAN COORDINATES (ANGSTROEM)
---------------------------------
  N     -0.037288    1.340527    0.598794
  C     -0.064378    0.037259    0.128962
  C     -0.985066   -0.760040   -0.470940
  N     -0.369235   -1.963040   -0.820773
  C      0.851795   -1.848356   -0.423147
  C      1.971881   -2.823572   -0.508747
  C      1.558002   -4.110617   -1.213301
  O      2.700224   -4.954503   -1.228260
  O      1.118838   -0.636415    0.170241
  H      0.531195    1.448915    1.429980
  H     -0.963865    1.714195    0.752321
  H     -2.024734   -0.565136   -0.675752
  H      2.820341   -2.376558   -1.041434
  H      2.339294   -3.065891    0.496535
  H      0.716393   -4.571076   -0.677337
  H      1.207426   -3.879192   -2.228838
  H      2.458866   -5.772244   -1.672171

 Total Charge           Charge          ....    0
 Multiplicity           Mult            ....    1
 Number of Electrons    NEL             ....   68
 Basis Dimension        Dim             ....  327

ORBITAL ENERGIES
----------------

  NO   OCC          E(Eh)            E(eV)
   0   2.0000     -20.628487      -561.3297
   1   2.0000     -20.556852      -559.3804
   2   2.0000     -15.583839      -424.0578
   3   2.0000     -15.554697      -423.2648
   4   2.0000     -11.330077      -308.3071
   5   2.0000     -11.324600      -308.1580
   6   2.0000     -11.277402      -306.8737
   7   2.0000     -11.240056      -305.8575
   8   2.0000     -11.237027      -305.7750
   9   2.0000      -1.481660       -40.3180
  10   2.0000      -1.361241       -37.0413
  11   2.0000      -1.233578       -33.5674
  12   2.0000      -1.215551       -33.0768
  13   2.0000      -1.066074       -29.0094
  14   2.0000      -0.972000       -26.4495
  15   2.0000      -0.874151       -23.7869
  16   2.0000      -0.819330       -22.2951
  17   2.0000      -0.784862       -21.3572
  18   2.0000      -0.728597       -19.8261
  19   2.0000      -0.697732       -18.9862
  20   2.0000      -0.676486       -18.4081
  21   2.0000      -0.670091       -18.2341
  22   2.0000      -0.643564       -17.5123
  23   2.0000      -0.633389       -17.2354
  24   2.0000      -0.574694       -15.6382
  25   2.0000      -0.569441       -15.4953
  26   2.0000      -0.554502       -15.0888
  27   2.0000      -0.546072       -14.8594
  28   2.0000      -0.496881       -13.5208
  29   2.0000      -0.490978       -13.3602
  30   2.0000      -0.450154       -12.2493
  31   2.0000      -0.448961       -12.2168
  32   2.0000      -0.443996       -12.0817
  33   2.0000      -0.298899        -8.1334
  34   0.0000       0.126951         3.4545
  35   0.0000       0.138681         3.7737
  36   0.0000       0.161277         4.3886
  37   0.0000       0.162421         4.4197
  38   0.0000       0.179049         4.8722

MULLIKEN ATOMIC CHARGES
-----------------------
   0 N :   -0.515649
   1 C :    0.250236
   2 C :   -0.187250
   3 N :   -0.292062
   4 C :    0.216367
   5 C :   -0.168027
   6 C :   -0.059286
   7 O :   -0.465378
   8 O :   -0.234912
   9 H :    0.262826
  10 H :    0.257303
  11 H :    0.137739
  12 H :    0.134950
  13 H :    0.131660
  14 H :    0.106886
  15 H :    0.106633
  16 H :    0.317966
Sum of atomic charges:   -0.0000000

LOEWDIN ATOMIC CHARGES
----------------------
   0 N :   -0.077578
   1 C :   -0.367330
   2 C :   -0.265794
   3 N :    0.117139
   4 C :   -0.338216
   5 C :   -0.234472
   6 C :   -0.337662
   7 O :   -0.052592
   8 O :    0.347334
   9 H :    0.175640
  10 H :    0.177065
  11 H :    0.133392
  12 H :    0.154501
  13 H :    0.153780
  14 H :    0.120687
  15 H :    0.120780
  16 H :    0.173327

  Mayer bond orders larger than 0.1
B(  0-N ,  1-C ) :   1.0560 B(  0-N ,  9-H ) :   0.8669 B(  0-N , 10-H ) :   0.8768
B(  1-C ,  2-C ) :   1.5680 B(  1-C ,  8-O ) :   1.0478 B(  2-C ,  3-N ) :   1.1666
B(  2-C , 11-H ) :   0.9367 B(  3-N ,  4-C ) :   1.6373 B(  4-C ,  5-C ) :   0.9109
B(  4-C ,  8-O ) :   1.0183 B(  5-C ,  6-C ) :   0.9516 B(  5-C , 12-H ) :   0.9136
B(  5-C , 13-H ) :   0.9126 B(  6-C ,  7-O ) :   1.0126 B(  6-C , 14-H ) :   0.9307
B(  6-C , 15-H ) :   0.9315 B(  7-O , 16-H ) :   0.8488

MP2 TOTAL ENERGY:     -454.437149969 Eh
FINAL SINGLE POINT ENERGY      -454.437149968824

DIPOLE MOMENT
-------------
                                X             Y             Z
Electronic contribution:     -1.11769       3.01202       0.80313
Nuclear contribution   :      0.66038      -2.57965      -0.25593
                        -----------------------------------------
Total Dipole Moment    :     -0.45731       0.43237       0.54720
                        -----------------------------------------
Magnitude (a.u.)       :      0.83397
Magnitude (Debye)      :      2.11979

                             ****ORCA TERMINATED NORMALLY****
TOTAL RUN TIME: 0 days 0 hours 13 minutes 55 seconds 126 msec
