                         Program Version 3.0.3 - RELEASE   -
|  1> ! RI-MP2 RIJK def2-TZVP def2-TZVP/C def2-TZVP/JK TIGHTSCF
|  2> % maxcore 2000
|  3> % mp2 density relaxed end
|  4> *xyz 0 1
|  5>  O        0.2278788992     1.3547845194    -0.0079949962
|  6>  C        0.2160929556    -0.0309637420     0.1853931325
|  7>  C        0.1632307171    -0.6014988997     1.6570948889
|  8>  C       -1.1772945326    -1.2429785038     1.3034155420
|  9>  N       -2.0524696205    -0.1167676881     0.8772044157
| 10>  C       -1.1213967537    -0.7463809665    -0.0993910244
| 11>  C       -1.6067496338    -1.2988132514    -1.4086308337
| 12>  C       -2.0095649820    -0.1908125586    -2.3729412189
| 13>  O       -3.0112374074    -0.2095110038    -3.0393676876
| 14>  H       -0.5862218195     1.6767734060     0.4041395546
| 15>  H        1.0515501171    -0.4443887308    -0.3852402993
| 16>  H        0.9606328581    -1.3211483697     1.8548017917
| 17>  H        0.1314756857     0.1479853838     2.4514598976
| 18>  H       -1.6113581664    -2.1575423439     1.6884106715
| 19>  H       -2.9831334280    -0.4926535903     0.6973508622
| 20>  H       -0.7945032746    -1.8675428588    -1.8853501818
| 21>  H       -2.4567578694    -1.9780529170    -1.2837787520
| 22>  H       -1.2955339648     0.6605307653    -2.4180105927
| 23> *
| 24>
| 25>                          ****END OF INPUT****

CARTESIAN COORDINATES (ANGSTROEM)
---------------------------------
  O      0.227879    1.354785   -0.007995
  C      0.216093   -0.030964    0.185393
  C      0.163231   -0.601499    1.657095
  C     -1.177295   -1.242979    1.303416
  N     -2.052470   -0.116768    0.877204
  C     -1.121397   -0.746381   -0.099391
  C     -1.606750   -1.298813   -1.408631
  C     -2.009565   -0.190813   -2.372941
  O     -3.011237   -0.209511   -3.039368
  H     -0.586222    1.676773    0.404140
  H      1.051550   -0.444389   -0.385240
  H      0.960633   -1.321148    1.854802
  H      0.131476    0.147985    2.451460
  H     -1.611358   -2.157542    1.688411
  H     -2.983133   -0.492654    0.697351
  H     -0.794503   -1.867543   -1.885350
  H     -2.456758   -1.978053   -1.283779
  H     -1.295534    0.660531   -2.418011

 Total Charge           Charge          ....    0
 Multiplicity           Mult            ....    1
 Number of Electrons    NEL             ....   68
 Basis Dimension        Dim             ....  333

ORBITAL ENERGIES
----------------

  NO   OCC          E(Eh)            E(eV)
   0   2.0000     -20.562470      -559.5333
   1   2.0000     -20.560539      -559.4807
   2   2.0000     -15.579384      -423.9366
   3   2.0000     -11.337526      -308.5098
   4   2.0000     -11.297425      -307.4186
   5   2.0000     -11.283931      -307.0514
   6   2.0000     -11.281416      -306.9829
   7   2.0000     -11.260012      -306.4005
   8   2.0000     -11.239290      -305.8366
   9   2.0000      -1.401548       -38.1381
  10   2.0000      -1.376757       -37.4635
  11   2.0000      -1.294235       -35.2179
  12   2.0000      -1.055117       -28.7112
  13   2.0000      -1.050123       -28.5753
  14   2.0000      -0.895183       -24.3592
  15   2.0000      -0.857133       -23.3238
  16   2.0000      -0.808726       -22.0066
  17   2.0000      -0.779732       -21.2176
  18   2.0000      -0.716357       -19.4931
  19   2.0000      -0.670357       -18.2413
  20   2.0000      -0.663804       -18.0630
  21   2.0000      -0.644333       -17.5332
  22   2.0000      -0.627247       -17.0683
  23   2.0000      -0.609108       -16.5747
  24   2.0000      -0.579766       -15.7762
  25   2.0000      -0.569193       -15.4885
  26   2.0000      -0.567935       -15.4543
  27   2.0000      -0.527905       -14.3650
  28   2.0000      -0.512809       -13.9542
  29   2.0000      -0.488792       -13.3007
  30   2.0000      -0.454032       -12.3548
  31   2.0000      -0.438698       -11.9376
  32   2.0000      -0.423120       -11.5137
  33   2.0000      -0.379941       -10.3387
  34   0.0000       0.121914         3.3175
  35   0.0000       0.131133         3.5683
  36   0.0000       0.151296         4.1170
  37   0.0000       0.158672         4.3177
  38   0.0000       0.163806         4.4574

MULLIKEN ATOMIC CHARGES
-----------------------
   0 O :   -0.462543
   1 C :    0.039742
   2 C :   -0.153618
   3 C :   -0.126860
   4 N :   -0.415224
   5 C :    0.032699
   6 C :   -0.164632
   7 C :    0.098123
   8 O :   -0.260825
   9 H :    0.334525
  10 H :    0.109455
  11 H :    0.121464
  12 H :    0.113401
  13 H :    0.146442
  14 H :    0.223057
  15 H :    0.135954
  16 H :    0.125820
  17 H :    0.103019
Sum of atomic charges:    0.0000000

LOEWDIN ATOMIC CHARGES
----------------------
   0 O :   -0.009034
   1 C :   -0.288219
   2 C :   -0.200059
   3 C :   -0.211513
   4 N :    0.013179
   5 C :   -0.259392
   6 C :   -0.233488
   7 C :   -0.282628
   8 O :    0.134656
   9 H :    0.183724
  10 H :    0.142474
  11 H :    0.135913
  12 H :    0.133977
  13 H :    0.131793
  14 H :    0.174945
  15 H :    0.162145
  16 H :    0.152350
  17 H :    0.119177

  Mayer bond orders larger than 0.1
B(  0-O ,  1-C ) :   0.9815 B(  0-O ,  9-H ) :   0.8185 B(  1-C ,  2-C ) :   0.9466
B(  1-C ,  5-C ) :   0.9237 B(  1-C , 10-H ) :   0.9447 B(  2-C ,  3-C ) :   0.9559
B(  2-C , 11-H ) :   0.9235 B(  2-C , 12-H ) :   0.8933 B(  3-C ,  4-N ) :   0.9512
B(  3-C ,  5-C ) :   0.8342 B(  3-C , 13-H ) :   0.9046 B(  4-N ,  5-C ) :   0.8659
B(  4-N , 14-H ) :   0.8704 B(  5-C ,  6-C ) :   0.8787 B(  6-C ,  7-C ) :   0.8861
B(  6-C , 15-H ) :   0.9056 B(  6-C , 16-H ) :   0.9007 B(  7-C ,  8-O ) :   1.9894
B(  7-C , 17-H ) :   0.9270

MP2 TOTAL ENERGY:     -438.328278066 Eh
FINAL SINGLE POINT ENERGY      -438.328278065651

DIPOLE MOMENT
-------------
                                X             Y             Z
Electronic contribution:     -2.34394       1.74945      -3.23302
Nuclear contribution   :      2.66298      -2.83409       3.95918
                        -----------------------------------------
Total Dipole Moment    :      0.31904      -1.08464       0.72616
                        -----------------------------------------
Magnitude (a.u.)       :      1.34370
Magnitude (Debye)      :      3.41542

                             ****ORCA TERMINATED NORMALLY****
TOTAL RUN TIME: 0 days 0 hours 16 minutes 20 seconds 127 msec
