                         Program Version 3.0.3 - RELEASE   -
|  1> ! RI-MP2 RIJK def2-TZVP def2-TZVP/C def2-TZVP/JK TIGHTSCF
|  2> % maxcore 2000
|  3> % mp2 density relaxed end
|  4> *xyz 0 1
|  5>  O        0.2713977961     1.5153563967     0.2807492055
|  6>  C        0.0269871735     0.1556958676     0.0254662704
|  7>  C       -1.4585069374    -0.1383995961    -0.2645018888
|  8>  C       -1.3582211867    -1.3565280581    -1.1868746061
|  9>  O       -0.1313395786    -1.1701670870    -1.9355938367
| 10>  C        0.6598609945    -0.2749673800    -1.3058272600
| 11>  N        1.7453060524     0.2166886575    -1.7143166778
| 12>  C        0.5352047238    -0.7103102620     1.1021435517
| 13>  C        0.9324785806    -1.4255894584     1.9825102048
| 14>  H        1.1402306507     1.6973486910    -0.1105054457
| 15>  H       -2.0464375593    -0.3283509179     0.6333132743
| 16>  H       -1.8705474190     0.7249591408    -0.7940822306
| 17>  H       -1.2820919718    -2.2930786443    -0.6249695527
| 18>  H       -2.1729724659    -1.4346479396    -1.9085156432
| 19>  H        2.0183345435    -0.1404456606    -2.6292987435
| 20>  H        1.3015349536    -2.0445126196     2.7630846084
| 21> *
| 22>
| 23>                          ****END OF INPUT****

CARTESIAN COORDINATES (ANGSTROEM)
---------------------------------
  O      0.271398    1.515356    0.280749
  C      0.026987    0.155696    0.025466
  C     -1.458507   -0.138400   -0.264502
  C     -1.358221   -1.356528   -1.186875
  O     -0.131340   -1.170167   -1.935594
  C      0.659861   -0.274967   -1.305827
  N      1.745306    0.216689   -1.714317
  C      0.535205   -0.710310    1.102144
  C      0.932479   -1.425589    1.982510
  H      1.140231    1.697349   -0.110505
  H     -2.046438   -0.328351    0.633313
  H     -1.870547    0.724959   -0.794082
  H     -1.282092   -2.293079   -0.624970
  H     -2.172972   -1.434648   -1.908516
  H      2.018335   -0.140446   -2.629299
  H      1.301535   -2.044513    2.763085

 Total Charge           Charge          ....    0
 Multiplicity           Mult            ....    1
 Number of Electrons    NEL             ....   66
 Basis Dimension        Dim             ....  321

ORBITAL ENERGIES
----------------

  NO   OCC          E(Eh)            E(eV)
   0   2.0000     -20.609738      -560.8195
   1   2.0000     -20.570311      -559.7466
   2   2.0000     -15.546942      -423.0538
   3   2.0000     -11.351029      -308.8772
   4   2.0000     -11.336960      -308.4944
   5   2.0000     -11.308177      -307.7111
   6   2.0000     -11.253798      -306.2314
   7   2.0000     -11.245123      -305.9954
   8   2.0000     -11.239380      -305.8391
   9   2.0000      -1.448852       -39.4253
  10   2.0000      -1.385554       -37.7028
  11   2.0000      -1.209118       -32.9018
  12   2.0000      -1.102773       -30.0080
  13   2.0000      -1.033776       -28.1305
  14   2.0000      -0.970812       -26.4171
  15   2.0000      -0.865093       -23.5404
  16   2.0000      -0.813783       -22.1442
  17   2.0000      -0.748374       -20.3643
  18   2.0000      -0.714886       -19.4530
  19   2.0000      -0.709348       -19.3023
  20   2.0000      -0.695820       -18.9342
  21   2.0000      -0.669123       -18.2078
  22   2.0000      -0.620519       -16.8852
  23   2.0000      -0.595813       -16.2129
  24   2.0000      -0.585230       -15.9249
  25   2.0000      -0.544119       -14.8062
  26   2.0000      -0.521583       -14.1930
  27   2.0000      -0.503332       -13.6963
  28   2.0000      -0.483593       -13.1592
  29   2.0000      -0.457909       -12.4603
  30   2.0000      -0.418093       -11.3769
  31   2.0000      -0.407599       -11.0913
  32   2.0000      -0.395004       -10.7486
  33   0.0000       0.135017         3.6740
  34   0.0000       0.142767         3.8849
  35   0.0000       0.152927         4.1614
  36   0.0000       0.161689         4.3998
  37   0.0000       0.167199         4.5497

MULLIKEN ATOMIC CHARGES
-----------------------
   0 O :   -0.459868
   1 C :    0.293600
   2 C :   -0.280486
   3 C :   -0.054821
   4 O :   -0.245807
   5 C :    0.131223
   6 N :   -0.438680
   7 C :   -0.118626
   8 C :   -0.144042
   9 H :    0.339573
  10 H :    0.154043
  11 H :    0.138247
  12 H :    0.126787
  13 H :    0.133669
  14 H :    0.230208
  15 H :    0.194982
Sum of atomic charges:   -0.0000000

LOEWDIN ATOMIC CHARGES
----------------------
   0 O :    0.041517
   1 C :   -0.350308
   2 C :   -0.193020
   3 C :   -0.247486
   4 O :    0.250233
   5 C :   -0.377148
   6 N :   -0.052767
   7 C :   -0.055046
   8 C :   -0.073517
   9 H :    0.192921
  10 H :    0.149085
  11 H :    0.151902
  12 H :    0.131152
  13 H :    0.130292
  14 H :    0.172605
  15 H :    0.129586

  Mayer bond orders larger than 0.1
B(  0-O ,  1-C ) :   1.0819 B(  0-O ,  9-H ) :   0.8107 B(  1-C ,  2-C ) :   0.8458
B(  1-C ,  5-C ) :   0.8389 B(  1-C ,  7-C ) :   1.1119 B(  2-C ,  3-C ) :   0.9510
B(  2-C , 10-H ) :   0.9267 B(  2-C , 11-H ) :   0.9197 B(  3-C ,  4-O ) :   0.8614
B(  3-C , 12-H ) :   0.9209 B(  3-C , 13-H ) :   0.9258 B(  4-O ,  5-C ) :   1.1334
B(  5-C ,  6-N ) :   1.9722 B(  6-N , 14-H ) :   0.8553 B(  7-C ,  8-C ) :   2.6293
B(  8-C , 15-H ) :   0.8852

MP2 TOTAL ENERGY:     -437.141424732 Eh
FINAL SINGLE POINT ENERGY      -437.141424731683

DIPOLE MOMENT
-------------
                                X             Y             Z
Electronic contribution:      2.85056       0.67524      -0.17588
Nuclear contribution   :     -3.55384      -1.44813       0.04265
                        -----------------------------------------
Total Dipole Moment    :     -0.70328      -0.77288      -0.13322
                        -----------------------------------------
Magnitude (a.u.)       :      1.05342
Magnitude (Debye)      :      2.67759

                             ****ORCA TERMINATED NORMALLY****
TOTAL RUN TIME: 0 days 0 hours 16 minutes 25 seconds 440 msec
