                         Program Version 3.0.3 - RELEASE   -
|  1> ! RI-MP2 RIJK def2-TZVP def2-TZVP/C def2-TZVP/JK TIGHTSCF
|  2> % maxcore 2000
|  3> % mp2 density relaxed end
|  4> *xyz 0 1
|  5>  C       -0.0179544493     1.4616079846     0.0092051962
|  6>  C        0.0362039631    -0.0489754367     0.0020658230
|  7>  O        1.0760092359    -0.6686910545    -0.0115754434
|  8>  C       -1.3047665862    -0.7735867761     0.0133604694
|  9>  N       -1.0892200139    -2.1949152093     0.0050497318
| 10>  C       -2.1251584474    -3.0742049374     0.0063762601
| 11>  O       -3.2951699031    -2.7309132363     0.0161746181
| 12>  C       -1.7102408746    -4.4713083956    -0.0061277138
| 13>  C       -1.4025390113    -5.6333670133    -0.0163154373
| 14>  H        0.9938273028     1.8676408437     0.0013735575
| 15>  H       -0.5695005790     1.8267543439    -0.8641945233
| 16>  H       -0.5530151188     1.8192516424     0.8958461231
| 17>  H       -1.8811220127    -0.4584046073     0.8951234047
| 18>  H       -1.8999403083    -0.4513083082    -0.8531849044
| 19>  H       -0.1262319663    -2.5012833646    -0.0062854787
| 20>  H       -1.1396354109    -6.6627630253    -0.0251364732
| 21> *
| 22>
| 23>                          ****END OF INPUT****

CARTESIAN COORDINATES (ANGSTROEM)
---------------------------------
  C     -0.017954    1.461608    0.009205
  C      0.036204   -0.048975    0.002066
  O      1.076009   -0.668691   -0.011575
  C     -1.304767   -0.773587    0.013360
  N     -1.089220   -2.194915    0.005050
  C     -2.125158   -3.074205    0.006376
  O     -3.295170   -2.730913    0.016175
  C     -1.710241   -4.471308   -0.006128
  C     -1.402539   -5.633367   -0.016315
  H      0.993827    1.867641    0.001374
  H     -0.569501    1.826754   -0.864195
  H     -0.553015    1.819252    0.895846
  H     -1.881122   -0.458405    0.895123
  H     -1.899940   -0.451308   -0.853185
  H     -0.126232   -2.501283   -0.006285
  H     -1.139635   -6.662763   -0.025136

 Total Charge           Charge          ....    0
 Multiplicity           Mult            ....    1
 Number of Electrons    NEL             ....   66
 Basis Dimension        Dim             ....  321

ORBITAL ENERGIES
----------------

  NO   OCC          E(Eh)            E(eV)
   0   2.0000     -20.569419      -559.7223
   1   2.0000     -20.533163      -558.7358
   2   2.0000     -15.596856      -424.4120
   3   2.0000     -11.382063      -309.7217
   4   2.0000     -11.355857      -309.0086
   5   2.0000     -11.291903      -307.2683
   6   2.0000     -11.261254      -306.4343
   7   2.0000     -11.254245      -306.2436
   8   2.0000     -11.253068      -306.2116
   9   2.0000      -1.416387       -38.5418
  10   2.0000      -1.397432       -38.0261
  11   2.0000      -1.249513       -34.0010
  12   2.0000      -1.070156       -29.1204
  13   2.0000      -1.047011       -28.4906
  14   2.0000      -0.982579       -26.7373
  15   2.0000      -0.866121       -23.5683
  16   2.0000      -0.797327       -21.6964
  17   2.0000      -0.757353       -20.6086
  18   2.0000      -0.723144       -19.6778
  19   2.0000      -0.680130       -18.5073
  20   2.0000      -0.669220       -18.2104
  21   2.0000      -0.658311       -17.9135
  22   2.0000      -0.633298       -17.2329
  23   2.0000      -0.608669       -16.5627
  24   2.0000      -0.594080       -16.1657
  25   2.0000      -0.568336       -15.4652
  26   2.0000      -0.560178       -15.2432
  27   2.0000      -0.515193       -14.0191
  28   2.0000      -0.461994       -12.5715
  29   2.0000      -0.442927       -12.0527
  30   2.0000      -0.420525       -11.4431
  31   2.0000      -0.419752       -11.4220
  32   2.0000      -0.406882       -11.0718
  33   0.0000       0.104765         2.8508
  34   0.0000       0.118699         3.2300
  35   0.0000       0.126219         3.4346
  36   0.0000       0.155146         4.2217
  37   0.0000       0.164095         4.4653

MULLIKEN ATOMIC CHARGES
-----------------------
   0 C :   -0.412908
   1 C :    0.230446
   2 O :   -0.307212
   3 C :   -0.142794
   4 N :   -0.315409
   5 C :    0.144571
   6 O :   -0.352283
   7 C :    0.001149
   8 C :   -0.085869
   9 H :    0.162511
  10 H :    0.152341
  11 H :    0.152279
  12 H :    0.152936
  13 H :    0.153113
  14 H :    0.266201
  15 H :    0.200927
Sum of atomic charges:    0.0000000

LOEWDIN ATOMIC CHARGES
----------------------
   0 C :   -0.272491
   1 C :   -0.342962
   2 O :    0.145705
   3 C :   -0.249817
   4 N :    0.128051
   5 C :   -0.456613
   6 O :    0.104430
   7 C :   -0.058833
   8 C :   -0.054518
   9 H :    0.137505
  10 H :    0.140983
  11 H :    0.140943
  12 H :    0.153637
  13 H :    0.153701
  14 H :    0.199104
  15 H :    0.131174

  Mayer bond orders larger than 0.1
B(  0-C ,  1-C ) :   0.9374 B(  0-C ,  9-H ) :   0.9348 B(  0-C , 10-H ) :   0.9132
B(  0-C , 11-H ) :   0.9133 B(  1-C ,  2-O ) :   1.9372 B(  1-C ,  3-C ) :   0.9027
B(  3-C ,  4-N ) :   0.8869 B(  3-C , 12-H ) :   0.9117 B(  3-C , 13-H ) :   0.9117
B(  4-N ,  5-C ) :   1.2278 B(  4-N , 14-H ) :   0.8441 B(  5-C ,  6-O ) :   1.9339
B(  5-C ,  7-C ) :   1.0474 B(  5-C ,  8-C ) :  -0.1114 B(  7-C ,  8-C ) :   2.6432
B(  8-C , 15-H ) :   0.8890

MP2 TOTAL ENERGY:     -437.162310963 Eh
FINAL SINGLE POINT ENERGY      -437.162310963440

DIPOLE MOMENT
-------------
                                X             Y             Z
Electronic contribution:     -1.51725      -7.59319      -0.02621
Nuclear contribution   :      2.19416       8.34134       0.02559
                        -----------------------------------------
Total Dipole Moment    :      0.67691       0.74815      -0.00062
                        -----------------------------------------
Magnitude (a.u.)       :      1.00892
Magnitude (Debye)      :      2.56448

                             ****ORCA TERMINATED NORMALLY****
TOTAL RUN TIME: 0 days 0 hours 15 minutes 6 seconds 657 msec
