                         Program Version 3.0.3 - RELEASE   -
|  1> ! RI-MP2 RIJK def2-TZVP def2-TZVP/C def2-TZVP/JK TIGHTSCF
|  2> % maxcore 2000
|  3> % mp2 density relaxed end
|  4> *xyz 0 1
|  5>  C        0.0111939161     1.5728044204    -0.1510611580
|  6>  C       -0.0243386179     0.0506828947    -0.0356093476
|  7>  C        1.0440764058    -0.6349376882    -0.9347727480
|  8>  O        1.8954488124    -0.8935184185     0.1989588834
|  9>  C        0.8714190527    -0.4748619052     1.1226012870
| 10>  C       -1.4108161284    -0.5608986215    -0.1042687108
| 11>  O       -1.2928808587    -1.9607095593     0.0145776797
| 12>  C       -2.6194733808     0.0990642995     0.5088721677
| 13>  C       -2.4929914919    -0.0183884404    -1.0026341342
| 14>  H        1.0481100706     1.9159939261    -0.0906417337
| 15>  H       -0.3945513728     1.9224993193    -1.1058179780
| 16>  H       -0.5427547808     2.0597554455     0.6579558563
| 17>  H        0.7050157373    -1.5602565732    -1.4118405211
| 18>  H        1.5308455166     0.0093169491    -1.6776390396
| 19>  H        1.2366390886     0.2820466584     1.8279805032
| 20>  H        0.4460811380    -1.3202375620     1.6732558708
| 21>  H       -2.1695141585    -2.3535730475    -0.0264009540
| 22>  H       -3.3321613926    -0.5488297952     1.0104426477
| 23>  H       -2.5322316219     1.0818059228     0.9573099714
| 24>  H       -2.3204064214     0.8850425950    -1.5757861659
| 25>  H       -3.1211665523    -0.7447478197    -1.5096232364
| 26> *
| 27>
| 28>                          ****END OF INPUT****

CARTESIAN COORDINATES (ANGSTROEM)
---------------------------------
  C      0.011194    1.572804   -0.151061
  C     -0.024339    0.050683   -0.035609
  C      1.044076   -0.634938   -0.934773
  O      1.895449   -0.893518    0.198959
  C      0.871419   -0.474862    1.122601
  C     -1.410816   -0.560899   -0.104269
  O     -1.292881   -1.960710    0.014578
  C     -2.619473    0.099064    0.508872
  C     -2.492991   -0.018388   -1.002634
  H      1.048110    1.915994   -0.090642
  H     -0.394551    1.922499   -1.105818
  H     -0.542755    2.059755    0.657956
  H      0.705016   -1.560257   -1.411841
  H      1.530846    0.009317   -1.677639
  H      1.236639    0.282047    1.827981
  H      0.446081   -1.320238    1.673256
  H     -2.169514   -2.353573   -0.026401
  H     -3.332161   -0.548830    1.010443
  H     -2.532232    1.081806    0.957310
  H     -2.320406    0.885043   -1.575786
  H     -3.121167   -0.744748   -1.509623

 Total Charge           Charge          ....    0
 Multiplicity           Mult            ....    1
 Number of Electrons    NEL             ....   70
 Basis Dimension        Dim             ....  351

ORBITAL ENERGIES
----------------

  NO   OCC          E(Eh)            E(eV)
   0   2.0000     -20.566612      -559.6460
   1   2.0000     -20.536427      -558.8246
   2   2.0000     -11.298663      -307.4523
   3   2.0000     -11.265156      -306.5405
   4   2.0000     -11.265148      -306.5403
   5   2.0000     -11.242726      -305.9301
   6   2.0000     -11.235542      -305.7347
   7   2.0000     -11.234924      -305.7178
   8   2.0000     -11.223740      -305.4135
   9   2.0000      -1.382149       -37.6102
  10   2.0000      -1.364049       -37.1177
  11   2.0000      -1.140736       -31.0410
  12   2.0000      -1.051955       -28.6251
  13   2.0000      -0.924596       -25.1595
  14   2.0000      -0.919048       -25.0086
  15   2.0000      -0.841327       -22.8937
  16   2.0000      -0.831921       -22.6377
  17   2.0000      -0.728495       -19.8233
  18   2.0000      -0.706178       -19.2161
  19   2.0000      -0.688488       -18.7347
  20   2.0000      -0.649247       -17.6669
  21   2.0000      -0.621551       -16.9133
  22   2.0000      -0.616173       -16.7669
  23   2.0000      -0.589725       -16.0472
  24   2.0000      -0.574262       -15.6265
  25   2.0000      -0.551230       -14.9997
  26   2.0000      -0.546240       -14.8639
  27   2.0000      -0.540631       -14.7113
  28   2.0000      -0.514648       -14.0043
  29   2.0000      -0.513181       -13.9644
  30   2.0000      -0.466542       -12.6953
  31   2.0000      -0.455911       -12.4060
  32   2.0000      -0.416190       -11.3251
  33   2.0000      -0.402970       -10.9654
  34   2.0000      -0.383088       -10.4244
  35   0.0000       0.129903         3.5348
  36   0.0000       0.145679         3.9641
  37   0.0000       0.165762         4.5106
  38   0.0000       0.177460         4.8289
  39   0.0000       0.186715         5.0808

MULLIKEN ATOMIC CHARGES
-----------------------
   0 C :   -0.470534
   1 C :    0.193836
   2 C :   -0.061646
   3 O :   -0.332668
   4 C :   -0.061626
   5 C :    0.081292
   6 O :   -0.446514
   7 C :   -0.284060
   8 C :   -0.283894
   9 H :    0.160043
  10 H :    0.133026
  11 H :    0.133004
  12 H :    0.106993
  13 H :    0.090218
  14 H :    0.090210
  15 H :    0.106965
  16 H :    0.310920
  17 H :    0.136324
  18 H :    0.130873
  19 H :    0.130886
  20 H :    0.136352
Sum of atomic charges:   -0.0000000

LOEWDIN ATOMIC CHARGES
----------------------
   0 C :   -0.264040
   1 C :   -0.251056
   2 C :   -0.226585
   3 O :    0.113814
   4 C :   -0.226607
   5 C :   -0.325977
   6 O :    0.033950
   7 C :   -0.213896
   8 C :   -0.213848
   9 H :    0.136625
  10 H :    0.125705
  11 H :    0.125702
  12 H :    0.122986
  13 H :    0.115816
  14 H :    0.115811
  15 H :    0.122978
  16 H :    0.177143
  17 H :    0.132510
  18 H :    0.133219
  19 H :    0.133217
  20 H :    0.132533

  Mayer bond orders larger than 0.1
B(  0-C ,  1-C ) :   0.8723 B(  0-C ,  9-H ) :   0.9347 B(  0-C , 10-H ) :   0.9359
B(  0-C , 11-H ) :   0.9359 B(  1-C ,  2-C ) :   0.9433 B(  1-C ,  4-C ) :   0.9434
B(  1-C ,  5-C ) :   0.9092 B(  1-C ,  6-O ) :  -0.1072 B(  2-C ,  3-O ) :   0.9618
B(  2-C , 12-H ) :   0.8984 B(  2-C , 13-H ) :   0.9069 B(  3-O ,  4-C ) :   0.9618
B(  4-C , 14-H ) :   0.9069 B(  4-C , 15-H ) :   0.8984 B(  5-C ,  6-O ) :   1.0507
B(  5-C ,  7-C ) :   0.8704 B(  5-C ,  8-C ) :   0.8704 B(  6-O , 16-H ) :   0.8394
B(  7-C ,  8-C ) :   0.8547 B(  7-C , 17-H ) :   0.9276 B(  7-C , 18-H ) :   0.9212
B(  8-C , 19-H ) :   0.9212 B(  8-C , 20-H ) :   0.9276

MP2 TOTAL ENERGY:     -423.479089123 Eh
FINAL SINGLE POINT ENERGY      -423.479089122906

DIPOLE MOMENT
-------------
                                X             Y             Z
Electronic contribution:      2.71412      -4.84481       0.60350
Nuclear contribution   :     -3.97574       5.32750      -0.74578
                        -----------------------------------------
Total Dipole Moment    :     -1.26162       0.48269      -0.14228
                        -----------------------------------------
Magnitude (a.u.)       :      1.35828
Magnitude (Debye)      :      3.45247

                             ****ORCA TERMINATED NORMALLY****
TOTAL RUN TIME: 0 days 0 hours 19 minutes 54 seconds 894 msec
