                         Program Version 3.0.3 - RELEASE   -
|  1> ! RI-MP2 RIJK def2-TZVP def2-TZVP/C def2-TZVP/JK TIGHTSCF
|  2> % maxcore 2000
|  3> % mp2 density relaxed end
|  4> *xyz 0 1
|  5>  C        0.4888102805     0.9452316131    -0.4729527837
|  6>  O        0.0016356178    -0.2988921931    -0.0111274736
|  7>  C        0.5080041872    -0.6657598733     1.2387627524
|  8>  C        0.1090684311    -2.1269068462     1.6295166114
|  9>  C       -0.9838423944    -2.8263141875     0.8338203800
| 10>  C        1.5925131546    -2.5663637306     1.4867926478
| 11>  C        2.1328851355    -2.7607137527     0.0520590719
| 12>  O        2.5494420277    -1.3755146182    -0.0407356687
| 13>  C        2.0236738207    -1.0917216849     1.2611007008
| 14>  H        1.5716611245     0.9129866690    -0.6433027285
| 15>  H       -0.0151488681     1.1555798894    -1.4194536789
| 16>  H        0.2588491702     1.7543135562     0.2384408921
| 17>  H        0.2563581845     0.0918389497     1.9986914976
| 18>  H       -0.1516875880    -2.1432037461     2.6933888004
| 19>  H       -0.8094925983    -2.7550471108    -0.2418575226
| 20>  H       -1.0419828774    -3.8854445014     1.1081117074
| 21>  H       -1.9598533437    -2.3733156386     1.0343227687
| 22>  H        2.0083889838    -3.2180717824     2.2545707937
| 23>  H        2.9942639872    -3.4345589275    -0.0257082103
| 24>  H        1.4007023340    -3.0243062696    -0.7189210257
| 25>  H        2.7151491104    -0.5205436943     1.8864564178
| 26> *
| 27>
| 28>                          ****END OF INPUT****

CARTESIAN COORDINATES (ANGSTROEM)
---------------------------------
  C      0.488810    0.945232   -0.472953
  O      0.001636   -0.298892   -0.011127
  C      0.508004   -0.665760    1.238763
  C      0.109068   -2.126907    1.629517
  C     -0.983842   -2.826314    0.833820
  C      1.592513   -2.566364    1.486793
  C      2.132885   -2.760714    0.052059
  O      2.549442   -1.375515   -0.040736
  C      2.023674   -1.091722    1.261101
  H      1.571661    0.912987   -0.643303
  H     -0.015149    1.155580   -1.419454
  H      0.258849    1.754314    0.238441
  H      0.256358    0.091839    1.998691
  H     -0.151688   -2.143204    2.693389
  H     -0.809493   -2.755047   -0.241858
  H     -1.041983   -3.885445    1.108112
  H     -1.959853   -2.373316    1.034323
  H      2.008389   -3.218072    2.254571
  H      2.994264   -3.434559   -0.025708
  H      1.400702   -3.024306   -0.718921
  H      2.715149   -0.520544    1.886456

 Total Charge           Charge          ....    0
 Multiplicity           Mult            ....    1
 Number of Electrons    NEL             ....   70
 Basis Dimension        Dim             ....  351

ORBITAL ENERGIES
----------------

  NO   OCC          E(Eh)            E(eV)
   0   2.0000     -20.552268      -559.2556
   1   2.0000     -20.545274      -559.0653
   2   2.0000     -11.278364      -306.8999
   3   2.0000     -11.277398      -306.8736
   4   2.0000     -11.275920      -306.8334
   5   2.0000     -11.262466      -306.4673
   6   2.0000     -11.231840      -305.6339
   7   2.0000     -11.230870      -305.6075
   8   2.0000     -11.210270      -305.0470
   9   2.0000      -1.389388       -37.8072
  10   2.0000      -1.364061       -37.1180
  11   2.0000      -1.111910       -30.2566
  12   2.0000      -0.973594       -26.4929
  13   2.0000      -0.966612       -26.3028
  14   2.0000      -0.923912       -25.1409
  15   2.0000      -0.842106       -22.9149
  16   2.0000      -0.816599       -22.2208
  17   2.0000      -0.716219       -19.4893
  18   2.0000      -0.708808       -19.2876
  19   2.0000      -0.663721       -18.0608
  20   2.0000      -0.647142       -17.6096
  21   2.0000      -0.630154       -17.1474
  22   2.0000      -0.615379       -16.7453
  23   2.0000      -0.584338       -15.9006
  24   2.0000      -0.571155       -15.5419
  25   2.0000      -0.556019       -15.1301
  26   2.0000      -0.554447       -15.0873
  27   2.0000      -0.519554       -14.1378
  28   2.0000      -0.505614       -13.7585
  29   2.0000      -0.483422       -13.1546
  30   2.0000      -0.451825       -12.2948
  31   2.0000      -0.444967       -12.1082
  32   2.0000      -0.434627       -11.8268
  33   2.0000      -0.413034       -11.2392
  34   2.0000      -0.379675       -10.3315
  35   0.0000       0.137487         3.7412
  36   0.0000       0.153277         4.1709
  37   0.0000       0.161362         4.3909
  38   0.0000       0.173852         4.7308
  39   0.0000       0.190022         5.1708

MULLIKEN ATOMIC CHARGES
-----------------------
   0 C :   -0.231475
   1 O :   -0.298664
   2 C :    0.005971
   3 C :   -0.017009
   4 C :   -0.427406
   5 C :   -0.131457
   6 C :   -0.043367
   7 O :   -0.346555
   8 C :    0.098585
   9 H :    0.135972
  10 H :    0.136638
  11 H :    0.105453
  12 H :    0.082974
  13 H :    0.100301
  14 H :    0.142089
  15 H :    0.130470
  16 H :    0.131330
  17 H :    0.120291
  18 H :    0.101460
  19 H :    0.097697
  20 H :    0.106705
Sum of atomic charges:    0.0000000

LOEWDIN ATOMIC CHARGES
----------------------
   0 C :   -0.347981
   1 O :    0.171651
   2 C :   -0.275022
   3 C :   -0.219359
   4 C :   -0.297433
   5 C :   -0.176864
   6 C :   -0.238201
   7 O :    0.139537
   8 C :   -0.230956
   9 H :    0.108627
  10 H :    0.113131
  11 H :    0.100698
  12 H :    0.126010
  13 H :    0.153337
  14 H :    0.125788
  15 H :    0.124343
  16 H :    0.127362
  17 H :    0.134379
  18 H :    0.118006
  19 H :    0.119780
  20 H :    0.123167

  Mayer bond orders larger than 0.1
B(  0-C ,  1-O ) :   0.9013 B(  0-C ,  9-H ) :   0.9303 B(  0-C , 10-H ) :   0.9432
B(  0-C , 11-H ) :   0.9329 B(  1-O ,  2-C ) :   1.0208 B(  2-C ,  3-C ) :   0.8984
B(  2-C ,  8-C ) :   0.8869 B(  2-C , 12-H ) :   0.9313 B(  3-C ,  4-C ) :   0.8898
B(  3-C ,  5-C ) :   0.9234 B(  3-C , 13-H ) :   0.9145 B(  4-C , 14-H ) :   0.9348
B(  4-C , 15-H ) :   0.9385 B(  4-C , 16-H ) :   0.9352 B(  5-C ,  6-C ) :   0.9805
B(  5-C ,  8-C ) :   0.9270 B(  5-C , 17-H ) :   0.9173 B(  6-C ,  7-O ) :   0.9332
B(  6-C , 18-H ) :   0.9166 B(  6-C , 19-H ) :   0.9066 B(  7-O ,  8-C ) :   0.9367
B(  8-C , 20-H ) :   0.9332

MP2 TOTAL ENERGY:     -423.466212804 Eh
FINAL SINGLE POINT ENERGY      -423.466212804134

DIPOLE MOMENT
-------------
                                X             Y             Z
Electronic contribution:      3.55276       0.62691      -0.01885
Nuclear contribution   :     -3.62823      -0.74550       0.63002
                        -----------------------------------------
Total Dipole Moment    :     -0.07547      -0.11859       0.61117
                        -----------------------------------------
Magnitude (a.u.)       :      0.62713
Magnitude (Debye)      :      1.59404

                             ****ORCA TERMINATED NORMALLY****
TOTAL RUN TIME: 0 days 0 hours 19 minutes 1 seconds 986 msec
