                         Program Version 3.0.3 - RELEASE   -
|  1> ! RI-MP2 RIJK def2-TZVP def2-TZVP/C def2-TZVP/JK TIGHTSCF
|  2> % maxcore 2000
|  3> % mp2 density relaxed end
|  4> *xyz 0 1
|  5>  C       -0.1430702222     1.4525727969    -0.0139632793
|  6>  C        0.0282020183    -0.0357332598     0.0560823924
|  7>  O       -1.2512556838    -0.7703837097     0.0059031354
|  8>  C       -0.9104831266    -1.5090007347     1.1338018736
|  9>  N       -1.5640537105    -2.3716689903     1.7666886103
| 10>  C        0.4554641740    -0.8700073655     1.2700904897
| 11>  N        1.6285796146    -1.4813930382     0.5025299823
| 12>  C        1.1081264801    -2.1785146937    -0.6878835811
| 13>  C        1.1653119751    -0.7074804209    -0.7333962314
| 14>  H        0.8185682101     1.9520958084     0.1383605956
| 15>  H       -0.5275628045     1.7462300105    -0.9966862984
| 16>  H       -0.8448428452     1.7995387317     0.7489320927
| 17>  H       -2.4847640824    -2.5226780573     1.3491417813
| 18>  H        0.7670646031    -0.4782552455     2.2352149137
| 19>  H        1.8930338150    -2.7110607473    -1.2162446130
| 20>  H        0.1559319213    -2.6969350792    -0.6504667557
| 21>  H        1.8726467036    -0.1610381755    -1.3495372181
| 22> *
| 23>
| 24>                          ****END OF INPUT****

CARTESIAN COORDINATES (ANGSTROEM)
---------------------------------
  C     -0.143070    1.452573   -0.013963
  C      0.028202   -0.035733    0.056082
  O     -1.251256   -0.770384    0.005903
  C     -0.910483   -1.509001    1.133802
  N     -1.564054   -2.371669    1.766689
  C      0.455464   -0.870007    1.270090
  N      1.628580   -1.481393    0.502530
  C      1.108126   -2.178515   -0.687884
  C      1.165312   -0.707480   -0.733396
  H      0.818568    1.952096    0.138361
  H     -0.527563    1.746230   -0.996686
  H     -0.844843    1.799539    0.748932
  H     -2.484764   -2.522678    1.349142
  H      0.767065   -0.478255    2.235215
  H      1.893034   -2.711061   -1.216245
  H      0.155932   -2.696935   -0.650467
  H      1.872647   -0.161038   -1.349537

 Total Charge           Charge          ....    0
 Multiplicity           Mult            ....    1
 Number of Electrons    NEL             ....   66
 Basis Dimension        Dim             ....  327

ORBITAL ENERGIES
----------------

  NO   OCC          E(Eh)            E(eV)
   0   2.0000     -20.594992      -560.4182
   1   2.0000     -15.585253      -424.0963
   2   2.0000     -15.547049      -423.0567
   3   2.0000     -11.344704      -308.7051
   4   2.0000     -11.320323      -308.0417
   5   2.0000     -11.284144      -307.0572
   6   2.0000     -11.280000      -306.9444
   7   2.0000     -11.273898      -306.7784
   8   2.0000     -11.243061      -305.9393
   9   2.0000      -1.441546       -39.2265
  10   2.0000      -1.294945       -35.2373
  11   2.0000      -1.204268       -32.7698
  12   2.0000      -1.056248       -28.7420
  13   2.0000      -1.008812       -27.4512
  14   2.0000      -0.902921       -24.5697
  15   2.0000      -0.873781       -23.7768
  16   2.0000      -0.793694       -21.5975
  17   2.0000      -0.737363       -20.0647
  18   2.0000      -0.712407       -19.3856
  19   2.0000      -0.707514       -19.2524
  20   2.0000      -0.663744       -18.0614
  21   2.0000      -0.631360       -17.1802
  22   2.0000      -0.589159       -16.0318
  23   2.0000      -0.588298       -16.0084
  24   2.0000      -0.572220       -15.5709
  25   2.0000      -0.555282       -15.1100
  26   2.0000      -0.530150       -14.4261
  27   2.0000      -0.487754       -13.2725
  28   2.0000      -0.484881       -13.1943
  29   2.0000      -0.461266       -12.5517
  30   2.0000      -0.426132       -11.5956
  31   2.0000      -0.409952       -11.1554
  32   2.0000      -0.384639       -10.4666
  33   0.0000       0.129143         3.5142
  34   0.0000       0.143647         3.9088
  35   0.0000       0.162773         4.4293
  36   0.0000       0.168144         4.5754
  37   0.0000       0.185943         5.0598

MULLIKEN ATOMIC CHARGES
-----------------------
   0 C :   -0.423334
   1 C :    0.297274
   2 O :   -0.279038
   3 C :    0.057456
   4 N :   -0.340150
   5 C :   -0.021880
   6 N :   -0.227673
   7 C :   -0.152097
   8 C :   -0.152760
   9 H :    0.146891
  10 H :    0.148433
  11 H :    0.148351
  12 H :    0.230868
  13 H :    0.140622
  14 H :    0.138929
  15 H :    0.145684
  16 H :    0.142424
Sum of atomic charges:    0.0000000

LOEWDIN ATOMIC CHARGES
----------------------
   0 C :   -0.261894
   1 C :   -0.273049
   2 O :    0.241333
   3 C :   -0.388117
   4 N :   -0.041809
   5 C :   -0.145390
   6 N :    0.128069
   7 C :   -0.235431
   8 C :   -0.171915
   9 H :    0.138649
  10 H :    0.137655
  11 H :    0.135750
  12 H :    0.174637
  13 H :    0.148688
  14 H :    0.138580
  15 H :    0.136497
  16 H :    0.137748

  Mayer bond orders larger than 0.1
B(  0-C ,  1-C ) :   0.8923 B(  0-C ,  9-H ) :   0.9305 B(  0-C , 10-H ) :   0.9365
B(  0-C , 11-H ) :   0.9381 B(  1-C ,  2-O ) :   0.8715 B(  1-C ,  5-C ) :   0.9244
B(  1-C ,  8-C ) :   0.9317 B(  2-O ,  3-C ) :   1.0496 B(  3-C ,  4-N ) :   2.1127
B(  3-C ,  5-C ) :   0.9226 B(  4-N , 12-H ) :   0.8438 B(  5-C ,  6-N ) :   0.9211
B(  5-C , 13-H ) :   0.9168 B(  6-N ,  7-C ) :   0.9033 B(  6-N ,  8-C ) :   0.8724
B(  7-C ,  8-C ) :   0.9515 B(  7-C , 14-H ) :   0.9274 B(  7-C , 15-H ) :   0.8918
B(  8-C , 16-H ) :   0.8892

MP2 TOTAL ENERGY:     -417.237638542 Eh
FINAL SINGLE POINT ENERGY      -417.237638541756

DIPOLE MOMENT
-------------
                                X             Y             Z
Electronic contribution:     -1.27064      -3.22897       1.66791
Nuclear contribution   :      1.34733       4.09890      -2.44118
                        -----------------------------------------
Total Dipole Moment    :      0.07670       0.86993      -0.77327
                        -----------------------------------------
Magnitude (a.u.)       :      1.16645
Magnitude (Debye)      :      2.96488

                             ****ORCA TERMINATED NORMALLY****
TOTAL RUN TIME: 0 days 0 hours 18 minutes 16 seconds 345 msec
