                         Program Version 3.0.3 - RELEASE   -
|  1> ! RI-MP2 RIJK def2-TZVP def2-TZVP/C def2-TZVP/JK TIGHTSCF
|  2> % maxcore 2000
|  3> % mp2 density relaxed end
|  4> *xyz 0 1
|  5>  C        0.3646576946     1.7145229206    -0.2060387603
|  6>  C        0.4260883616     0.1855049925    -0.1689642938
|  7>  C        0.4422884550    -0.3737734122     1.2611597279
|  8>  C        0.4889020416    -1.8885223101     1.3209115916
|  9>  C        1.7795100806    -2.6351120201     0.9790370031
| 10>  C        1.3296824734    -2.5875994489     2.3972418261
| 11>  O        1.9726327292    -1.7633957114     3.3182116072
| 12>  C       -0.7699582227    -2.6131927068     0.9996768627
| 13>  O       -0.8597200859    -3.8128245027     0.8734922704
| 14>  H        1.2267970075     2.1567687436     0.3055543904
| 15>  H        0.3584839578     2.0889128635    -1.2342775381
| 16>  H       -0.5384554711     2.0872942633     0.2898054637
| 17>  H       -0.4302970224    -0.2290074531    -0.7173883871
| 18>  H        1.3197709189    -0.1629379267    -0.7017365189
| 19>  H        1.2961024052     0.0297275443     1.8131800611
| 20>  H       -0.4527546200    -0.0263909724     1.7963055004
| 21>  H        1.6690598578    -3.5685154194     0.4381980711
| 22>  H        2.6256429046    -2.0139681864     0.7040195582
| 23>  H        0.8825706375    -3.4904920377     2.8102601987
| 24>  H        2.8692994724    -2.0929091441     3.4384105648
| 25>  H       -1.6681960955    -1.9620762860     0.9031226407
| 26> *
| 27>
| 28>                          ****END OF INPUT****

CARTESIAN COORDINATES (ANGSTROEM)
---------------------------------
  C      0.364658    1.714523   -0.206039
  C      0.426088    0.185505   -0.168964
  C      0.442288   -0.373773    1.261160
  C      0.488902   -1.888522    1.320912
  C      1.779510   -2.635112    0.979037
  C      1.329682   -2.587599    2.397242
  O      1.972633   -1.763396    3.318212
  C     -0.769958   -2.613193    0.999677
  O     -0.859720   -3.812825    0.873492
  H      1.226797    2.156769    0.305554
  H      0.358484    2.088913   -1.234278
  H     -0.538455    2.087294    0.289805
  H     -0.430297   -0.229007   -0.717388
  H      1.319771   -0.162938   -0.701737
  H      1.296102    0.029728    1.813180
  H     -0.452755   -0.026391    1.796306
  H      1.669060   -3.568515    0.438198
  H      2.625643   -2.013968    0.704020
  H      0.882571   -3.490492    2.810260
  H      2.869299   -2.092909    3.438411
  H     -1.668196   -1.962076    0.903123

 Total Charge           Charge          ....    0
 Multiplicity           Mult            ....    1
 Number of Electrons    NEL             ....   70
 Basis Dimension        Dim             ....  351

ORBITAL ENERGIES
----------------

  NO   OCC          E(Eh)            E(eV)
   0   2.0000     -20.576185      -559.9065
   1   2.0000     -20.549819      -559.1890
   2   2.0000     -11.329805      -308.2997
   3   2.0000     -11.300454      -307.5010
   4   2.0000     -11.248865      -306.0972
   5   2.0000     -11.240830      -305.8785
   6   2.0000     -11.230373      -305.5940
   7   2.0000     -11.227380      -305.5125
   8   2.0000     -11.218167      -305.2618
   9   2.0000      -1.392322       -37.8870
  10   2.0000      -1.385619       -37.7046
  11   2.0000      -1.157757       -31.5042
  12   2.0000      -1.061129       -28.8748
  13   2.0000      -0.962340       -26.1866
  14   2.0000      -0.890310       -24.2266
  15   2.0000      -0.840117       -22.8607
  16   2.0000      -0.816047       -22.2058
  17   2.0000      -0.746387       -20.3102
  18   2.0000      -0.718155       -19.5420
  19   2.0000      -0.679463       -18.4891
  20   2.0000      -0.658721       -17.9247
  21   2.0000      -0.630366       -17.1531
  22   2.0000      -0.619214       -16.8497
  23   2.0000      -0.595761       -16.2115
  24   2.0000      -0.579563       -15.7707
  25   2.0000      -0.564690       -15.3660
  26   2.0000      -0.537928       -14.6378
  27   2.0000      -0.527717       -14.3599
  28   2.0000      -0.516206       -14.0467
  29   2.0000      -0.497574       -13.5397
  30   2.0000      -0.484959       -13.1964
  31   2.0000      -0.478194       -13.0123
  32   2.0000      -0.438732       -11.9385
  33   2.0000      -0.407941       -11.1006
  34   2.0000      -0.399004       -10.8575
  35   0.0000       0.118869         3.2346
  36   0.0000       0.132086         3.5942
  37   0.0000       0.140701         3.8287
  38   0.0000       0.164143         4.4666
  39   0.0000       0.171952         4.6790

MULLIKEN ATOMIC CHARGES
-----------------------
   0 C :   -0.386820
   1 C :   -0.196733
   2 C :   -0.303650
   3 C :    0.184214
   4 C :   -0.337663
   5 C :    0.007654
   6 O :   -0.468246
   7 C :    0.066297
   8 O :   -0.293498
   9 H :    0.124086
  10 H :    0.136004
  11 H :    0.123920
  12 H :    0.109797
  13 H :    0.111188
  14 H :    0.149200
  15 H :    0.122450
  16 H :    0.151272
  17 H :    0.150615
  18 H :    0.134840
  19 H :    0.331617
  20 H :    0.083454
Sum of atomic charges:    0.0000000

LOEWDIN ATOMIC CHARGES
----------------------
   0 C :   -0.319784
   1 C :   -0.289238
   2 C :   -0.225379
   3 C :   -0.229913
   4 C :   -0.180939
   5 C :   -0.286304
   6 O :    0.006082
   7 C :   -0.260732
   8 O :    0.124155
   9 H :    0.121179
  10 H :    0.121310
  11 H :    0.121014
  12 H :    0.135043
  13 H :    0.135579
  14 H :    0.150215
  15 H :    0.146338
  16 H :    0.144358
  17 H :    0.141770
  18 H :    0.141588
  19 H :    0.184785
  20 H :    0.118871

  Mayer bond orders larger than 0.1
B(  0-C ,  1-C ) :   0.9209 B(  0-C ,  9-H ) :   0.9394 B(  0-C , 10-H ) :   0.9432
B(  0-C , 11-H ) :   0.9391 B(  1-C ,  2-C ) :   0.9269 B(  1-C , 12-H ) :   0.9273
B(  1-C , 13-H ) :   0.9355 B(  2-C ,  3-C ) :   0.8911 B(  2-C , 14-H ) :   0.9273
B(  2-C , 15-H ) :   0.9253 B(  3-C ,  4-C ) :   0.8095 B(  3-C ,  5-C ) :   0.7796
B(  3-C ,  7-C ) :   0.8927 B(  4-C ,  5-C ) :   0.9579 B(  4-C , 16-H ) :   0.9036
B(  4-C , 17-H ) :   0.9305 B(  5-C ,  6-O ) :   1.0239 B(  5-C , 18-H ) :   0.9435
B(  6-O , 19-H ) :   0.8354 B(  7-C ,  8-O ) :   1.9548 B(  7-C , 20-H ) :   0.9577

MP2 TOTAL ENERGY:     -423.518233927 Eh
FINAL SINGLE POINT ENERGY      -423.518233926645

DIPOLE MOMENT
-------------
                                X             Y             Z
Electronic contribution:     -1.14489      -9.76235       4.39874
Nuclear contribution   :      1.93142      10.34445      -4.44469
                        -----------------------------------------
Total Dipole Moment    :      0.78653       0.58210      -0.04595
                        -----------------------------------------
Magnitude (a.u.)       :      0.97958
Magnitude (Debye)      :      2.48989

                             ****ORCA TERMINATED NORMALLY****
TOTAL RUN TIME: 0 days 0 hours 18 minutes 13 seconds 911 msec
