                         Program Version 3.0.3 - RELEASE   -
|  1> ! RI-MP2 RIJK def2-TZVP def2-TZVP/C def2-TZVP/JK TIGHTSCF
|  2> % maxcore 2000
|  3> % mp2 density relaxed end
|  4> *xyz 0 1
|  5>  C        0.1387270060     1.7617882838    -0.1166611286
|  6>  C        0.0093357514     0.2570564926    -0.0602588143
|  7>  C        0.4618338816    -0.6762617817    -1.1280746527
|  8>  C        1.4061623779    -0.1916544685    -2.2169802651
|  9>  C        2.7394014165     0.1881466478    -1.5158968261
| 10>  C        3.9314386216    -0.6040646596    -2.0610016253
| 11>  O        2.9548260042     1.5858132262    -1.7602460052
| 12>  C        2.4846521609    -0.1177427663    -0.0014699054
| 13>  N        1.1353803013    -0.6693353862     0.1918500940
| 14>  H        0.9812206573     2.1030865594    -0.7198670093
| 15>  H       -0.7783349091     2.1909663386    -0.5355996931
| 16>  H        0.2548031694     2.1713338447     0.8940126560
| 17>  H       -0.8720846774    -0.0651317013     0.4941580030
| 18>  H       -0.1400457578    -1.5548191965    -1.3493338527
| 19>  H        1.5656202487    -0.9853879737    -2.9519992986
| 20>  H        1.0291267128     0.6796623238    -2.7591906045
| 21>  H        4.0779837750    -0.3885039171    -3.1233636255
| 22>  H        4.8529728870    -0.3405099154    -1.5270158083
| 23>  H        3.7762750330    -1.6807901730    -1.9389363270
| 24>  H        3.7746667592     1.8393758176    -1.3227533727
| 25>  H        3.1970381061    -0.8665329255     0.3618107613
| 26>  H        2.6311830845     0.7894977003     0.5950237601
| 27> *
| 28>
| 29>                          ****END OF INPUT****

CARTESIAN COORDINATES (ANGSTROEM)
---------------------------------
  C      0.138727    1.761788   -0.116661
  C      0.009336    0.257056   -0.060259
  C      0.461834   -0.676262   -1.128075
  C      1.406162   -0.191654   -2.216980
  C      2.739401    0.188147   -1.515897
  C      3.931439   -0.604065   -2.061002
  O      2.954826    1.585813   -1.760246
  C      2.484652   -0.117743   -0.001470
  N      1.135380   -0.669335    0.191850
  H      0.981221    2.103087   -0.719867
  H     -0.778335    2.190966   -0.535600
  H      0.254803    2.171334    0.894013
  H     -0.872085   -0.065132    0.494158
  H     -0.140046   -1.554819   -1.349334
  H      1.565620   -0.985388   -2.951999
  H      1.029127    0.679662   -2.759191
  H      4.077984   -0.388504   -3.123364
  H      4.852973   -0.340510   -1.527016
  H      3.776275   -1.680790   -1.938936
  H      3.774667    1.839376   -1.322753
  H      3.197038   -0.866533    0.361811
  H      2.631183    0.789498    0.595024

 Total Charge           Charge          ....    0
 Multiplicity           Mult            ....    1
 Number of Electrons    NEL             ....   70
 Basis Dimension        Dim             ....  357

ORBITAL ENERGIES
----------------

  NO   OCC          E(Eh)            E(eV)
   0   2.0000     -20.556994      -559.3843
   1   2.0000     -15.547075      -423.0574
   2   2.0000     -11.290669      -307.2347
   3   2.0000     -11.251047      -306.1565
   4   2.0000     -11.248668      -306.0918
   5   2.0000     -11.245509      -306.0058
   6   2.0000     -11.222710      -305.3855
   7   2.0000     -11.222232      -305.3725
   8   2.0000     -11.210936      -305.0651
   9   2.0000      -1.365275       -37.1510
  10   2.0000      -1.268258       -34.5110
  11   2.0000      -1.058079       -28.7918
  12   2.0000      -1.002049       -27.2671
  13   2.0000      -0.975581       -26.5469
  14   2.0000      -0.939376       -25.5617
  15   2.0000      -0.802609       -21.8401
  16   2.0000      -0.791595       -21.5404
  17   2.0000      -0.745355       -20.2821
  18   2.0000      -0.678111       -18.4523
  19   2.0000      -0.676471       -18.4077
  20   2.0000      -0.626494       -17.0478
  21   2.0000      -0.605757       -16.4835
  22   2.0000      -0.599034       -16.3005
  23   2.0000      -0.587270       -15.9804
  24   2.0000      -0.560002       -15.2384
  25   2.0000      -0.547472       -14.8975
  26   2.0000      -0.531772       -14.4702
  27   2.0000      -0.526820       -14.3355
  28   2.0000      -0.516214       -14.0469
  29   2.0000      -0.485264       -13.2047
  30   2.0000      -0.461983       -12.5712
  31   2.0000      -0.460183       -12.5222
  32   2.0000      -0.437989       -11.9183
  33   2.0000      -0.422493       -11.4966
  34   2.0000      -0.352419        -9.5898
  35   0.0000       0.124408         3.3853
  36   0.0000       0.156424         4.2565
  37   0.0000       0.164460         4.4752
  38   0.0000       0.181910         4.9500
  39   0.0000       0.190133         5.1738

MULLIKEN ATOMIC CHARGES
-----------------------
   0 C :   -0.425645
   1 C :   -0.047359
   2 C :   -0.060666
   3 C :   -0.249310
   4 C :    0.238869
   5 C :   -0.472846
   6 O :   -0.477769
   7 C :   -0.169289
   8 N :   -0.229252
   9 H :    0.175422
  10 H :    0.132355
  11 H :    0.130454
  12 H :    0.109752
  13 H :    0.118583
  14 H :    0.132795
  15 H :    0.136352
  16 H :    0.148103
  17 H :    0.125879
  18 H :    0.139135
  19 H :    0.312553
  20 H :    0.125154
  21 H :    0.106730
Sum of atomic charges:   -0.0000000

LOEWDIN ATOMIC CHARGES
----------------------
   0 C :   -0.301966
   1 C :   -0.262887
   2 C :   -0.227041
   3 C :   -0.196651
   4 C :   -0.372311
   5 C :   -0.287515
   6 O :   -0.008075
   7 C :   -0.244269
   8 N :    0.115597
   9 H :    0.132167
  10 H :    0.130561
  11 H :    0.127089
  12 H :    0.143394
  13 H :    0.136625
  14 H :    0.144611
  15 H :    0.150323
  16 H :    0.128231
  17 H :    0.122499
  18 H :    0.130002
  19 H :    0.172215
  20 H :    0.134986
  21 H :    0.132414

  Mayer bond orders larger than 0.1
B(  0-C ,  1-C ) :   0.8906 B(  0-C ,  9-H ) :   0.9247 B(  0-C , 10-H ) :   0.9273
B(  0-C , 11-H ) :   0.9360 B(  1-C ,  2-C ) :   0.9420 B(  1-C ,  8-N ) :   0.9052
B(  1-C , 12-H ) :   0.9250 B(  2-C ,  3-C ) :   0.9505 B(  2-C ,  8-N ) :   0.8803
B(  2-C , 13-H ) :   0.9130 B(  3-C ,  4-C ) :   0.8869 B(  3-C , 14-H ) :   0.9255
B(  3-C , 15-H ) :   0.9127 B(  4-C ,  5-C ) :   0.9005 B(  4-C ,  6-O ) :   0.9010
B(  4-C ,  7-C ) :   0.9267 B(  5-C , 16-H ) :   0.9428 B(  5-C , 17-H ) :   0.9274
B(  5-C , 18-H ) :   0.9358 B(  6-O , 19-H ) :   0.8417 B(  7-C ,  8-N ) :   0.9394
B(  7-C , 20-H ) :   0.9168 B(  7-C , 21-H ) :   0.9273

MP2 TOTAL ENERGY:     -403.648417123 Eh
FINAL SINGLE POINT ENERGY      -403.648417123395

DIPOLE MOMENT
-------------
                                X             Y             Z
Electronic contribution:     -1.11615      -0.91997       0.86694
Nuclear contribution   :      1.58056       1.04595      -1.06710
                        -----------------------------------------
Total Dipole Moment    :      0.46441       0.12597      -0.20015
                        -----------------------------------------
Magnitude (a.u.)       :      0.52116
Magnitude (Debye)      :      1.32469

                             ****ORCA TERMINATED NORMALLY****
TOTAL RUN TIME: 0 days 0 hours 20 minutes 13 seconds 553 msec
