                         Program Version 3.0.3 - RELEASE   -
|  1> ! RI-MP2 RIJK def2-TZVP def2-TZVP/C def2-TZVP/JK TIGHTSCF
|  2> % maxcore 2000
|  3> % mp2 density relaxed end
|  4> *xyz 0 1
|  5>  C        0.1448089664     1.6371187956    -0.0180377477
|  6>  C        0.0831295689     0.1088265673    -0.0232300580
|  7>  C        0.7774381499    -0.5534847873    -1.2205493829
|  8>  C        2.2665215597    -0.6226218312    -1.2021360762
|  9>  C        1.4477875687    -1.8379398184    -0.7538982220
| 10>  C        1.2266516604    -1.9361090680     0.7135786138
| 11>  O        1.4154348421    -2.8953031238     1.4237196461
| 12>  C        0.6836179059    -0.5760612614     1.2231463412
| 13>  O        1.7666020713     0.1910412323     1.7504169912
| 14>  H        1.1767541890     1.9900170656     0.0322373278
| 15>  H       -0.3134616104     2.0387171948    -0.9276609714
| 16>  H       -0.3919375236     2.0506103858     0.8413806974
| 17>  H       -0.9704240406    -0.1975485206    -0.0593875394
| 18>  H        0.2683145120    -0.5294824123    -2.1778954169
| 19>  H        2.7803308887    -0.7439897425    -2.1493118345
| 20>  H        2.8136939537    -0.0692845697    -0.4490596626
| 21>  H        1.4971171294    -2.7483472236    -1.3374139641
| 22>  H       -0.0725935995    -0.7497937956     1.9994681293
| 23>  H        2.1651256981    -0.3312263470     2.4561878689
| 24> *
| 25>
| 26>                          ****END OF INPUT****

CARTESIAN COORDINATES (ANGSTROEM)
---------------------------------
  C      0.144809    1.637119   -0.018038
  C      0.083130    0.108827   -0.023230
  C      0.777438   -0.553485   -1.220549
  C      2.266522   -0.622622   -1.202136
  C      1.447788   -1.837940   -0.753898
  C      1.226652   -1.936109    0.713579
  O      1.415435   -2.895303    1.423720
  C      0.683618   -0.576061    1.223146
  O      1.766602    0.191041    1.750417
  H      1.176754    1.990017    0.032237
  H     -0.313462    2.038717   -0.927661
  H     -0.391938    2.050610    0.841381
  H     -0.970424   -0.197549   -0.059388
  H      0.268315   -0.529482   -2.177895
  H      2.780331   -0.743990   -2.149312
  H      2.813694   -0.069285   -0.449060
  H      1.497117   -2.748347   -1.337414
  H     -0.072594   -0.749794    1.999468
  H      2.165126   -0.331226    2.456188

 Total Charge           Charge          ....    0
 Multiplicity           Mult            ....    1
 Number of Electrons    NEL             ....   68
 Basis Dimension        Dim             ....  339

ORBITAL ENERGIES
----------------

  NO   OCC          E(Eh)            E(eV)
   0   2.0000     -20.572704      -559.8117
   1   2.0000     -20.548718      -559.1590
   2   2.0000     -11.329711      -308.2971
   3   2.0000     -11.294778      -307.3465
   4   2.0000     -11.251113      -306.1583
   5   2.0000     -11.246812      -306.0413
   6   2.0000     -11.245347      -306.0014
   7   2.0000     -11.244787      -305.9862
   8   2.0000     -11.218685      -305.2759
   9   2.0000      -1.396828       -38.0096
  10   2.0000      -1.370901       -37.3041
  11   2.0000      -1.188417       -32.3385
  12   2.0000      -1.053035       -28.6545
  13   2.0000      -0.972216       -26.4553
  14   2.0000      -0.889678       -24.2094
  15   2.0000      -0.858065       -23.3491
  16   2.0000      -0.767944       -20.8968
  17   2.0000      -0.757727       -20.6188
  18   2.0000      -0.725867       -19.7518
  19   2.0000      -0.683816       -18.6076
  20   2.0000      -0.633201       -17.2303
  21   2.0000      -0.621299       -16.9064
  22   2.0000      -0.608539       -16.5592
  23   2.0000      -0.595016       -16.1912
  24   2.0000      -0.570982       -15.5372
  25   2.0000      -0.556826       -15.1520
  26   2.0000      -0.530295       -14.4301
  27   2.0000      -0.525960       -14.3121
  28   2.0000      -0.519091       -14.1252
  29   2.0000      -0.498092       -13.5538
  30   2.0000      -0.460814       -12.5394
  31   2.0000      -0.433514       -11.7965
  32   2.0000      -0.416839       -11.3428
  33   2.0000      -0.393555       -10.7092
  34   0.0000       0.120379         3.2757
  35   0.0000       0.136876         3.7246
  36   0.0000       0.154131         4.1941
  37   0.0000       0.161332         4.3901
  38   0.0000       0.173092         4.7101

MULLIKEN ATOMIC CHARGES
-----------------------
   0 C :   -0.403093
   1 C :   -0.074075
   2 C :   -0.089015
   3 C :   -0.300823
   4 C :   -0.095422
   5 C :    0.047894
   6 O :   -0.272848
   7 C :    0.137211
   8 O :   -0.472136
   9 H :    0.142988
  10 H :    0.129469
  11 H :    0.132166
  12 H :    0.104862
  13 H :    0.132772
  14 H :    0.140955
  15 H :    0.163995
  16 H :    0.141219
  17 H :    0.107804
  18 H :    0.326078
Sum of atomic charges:    0.0000000

LOEWDIN ATOMIC CHARGES
----------------------
   0 C :   -0.284187
   1 C :   -0.230799
   2 C :   -0.167778
   3 C :   -0.178527
   4 C :   -0.155143
   5 C :   -0.296895
   6 O :    0.147208
   7 C :   -0.269178
   8 O :   -0.010962
   9 H :    0.128850
  10 H :    0.124491
  11 H :    0.126806
  12 H :    0.162123
  13 H :    0.147853
  14 H :    0.139261
  15 H :    0.142748
  16 H :    0.151422
  17 H :    0.139894
  18 H :    0.182813

  Mayer bond orders larger than 0.1
B(  0-C ,  1-C ) :   0.9026 B(  0-C ,  9-H ) :   0.9326 B(  0-C , 10-H ) :   0.9375
B(  0-C , 11-H ) :   0.9367 B(  1-C ,  2-C ) :   0.9529 B(  1-C ,  7-C ) :   0.8891
B(  1-C , 12-H ) :   0.9262 B(  2-C ,  3-C ) :   0.8932 B(  2-C ,  4-C ) :   0.8005
B(  2-C , 13-H ) :   0.9222 B(  3-C ,  4-C ) :   0.8350 B(  3-C , 14-H ) :   0.9304
B(  3-C , 15-H ) :   0.9111 B(  4-C ,  5-C ) :   0.9849 B(  4-C ,  7-C ) :  -0.1375
B(  4-C , 16-H ) :   0.9227 B(  5-C ,  6-O ) :   2.0323 B(  5-C ,  7-C ) :   0.8652
B(  7-C ,  8-O ) :   0.9292 B(  7-C , 17-H ) :   0.9069 B(  8-O , 18-H ) :   0.8358

MP2 TOTAL ENERGY:     -422.339413008 Eh
FINAL SINGLE POINT ENERGY      -422.339413007603

DIPOLE MOMENT
-------------
                                X             Y             Z
Electronic contribution:      1.68999      -6.68643       3.53217
Nuclear contribution   :     -1.96537       7.18737      -4.12233
                        -----------------------------------------
Total Dipole Moment    :     -0.27538       0.50094      -0.59016
                        -----------------------------------------
Magnitude (a.u.)       :      0.82163
Magnitude (Debye)      :      2.08841

                             ****ORCA TERMINATED NORMALLY****
TOTAL RUN TIME: 0 days 0 hours 19 minutes 22 seconds 53 msec
