                         Program Version 3.0.3 - RELEASE   -
|  1> ! RI-MP2 RIJK def2-TZVP def2-TZVP/C def2-TZVP/JK TIGHTSCF
|  2> % maxcore 2000
|  3> % mp2 density relaxed end
|  4> *xyz 0 1
|  5>  C       -0.0439667676     1.5991254048     0.0636633031
|  6>  C       -0.0482385444     0.0696150066     0.0404701657
|  7>  C        0.7466054853    -0.5058646838    -1.1235793066
|  8>  O        2.1330082533    -0.2102181937    -1.0022601675
|  9>  C        2.8371323760    -1.2939623049    -1.5603885075
| 10>  C        4.1577413701    -1.4935782120    -0.8581594625
| 11>  O        1.9949314538    -2.4486312023    -1.3927948778
| 12>  C        0.7198419401    -2.0322786872    -1.1844290340
| 13>  O       -0.2144021306    -2.7688631663    -1.0696636747
| 14>  H        0.9766326908     1.9847229486     0.1392445155
| 15>  H       -0.4927468488     2.0102082200    -0.8473517652
| 16>  H       -0.6144294687     1.9763675921     0.9170888243
| 17>  H        0.3707720083    -0.3274429002     0.9719709595
| 18>  H       -1.0682974876    -0.3204845279    -0.0425696731
| 19>  H        0.3516889184    -0.1184367846    -2.0794424170
| 20>  H        2.9713679592    -1.1501081179    -2.6452288560
| 21>  H        3.9874366215    -1.6741478946     0.2057502854
| 22>  H        4.6894107294    -2.3445542509    -1.2902898797
| 23>  H        4.7707390815    -0.5962644757    -0.9757153920
| 24> *
| 25>
| 26>                          ****END OF INPUT****

CARTESIAN COORDINATES (ANGSTROEM)
---------------------------------
  C     -0.043967    1.599125    0.063663
  C     -0.048239    0.069615    0.040470
  C      0.746605   -0.505865   -1.123579
  O      2.133008   -0.210218   -1.002260
  C      2.837132   -1.293962   -1.560389
  C      4.157741   -1.493578   -0.858159
  O      1.994931   -2.448631   -1.392795
  C      0.719842   -2.032279   -1.184429
  O     -0.214402   -2.768863   -1.069664
  H      0.976633    1.984723    0.139245
  H     -0.492747    2.010208   -0.847352
  H     -0.614429    1.976368    0.917089
  H      0.370772   -0.327443    0.971971
  H     -1.068297   -0.320485   -0.042570
  H      0.351689   -0.118437   -2.079442
  H      2.971368   -1.150108   -2.645229
  H      3.987437   -1.674148    0.205750
  H      4.689411   -2.344554   -1.290290
  H      4.770739   -0.596264   -0.975715

 Total Charge           Charge          ....    0
 Multiplicity           Mult            ....    1
 Number of Electrons    NEL             ....   70
 Basis Dimension        Dim             ....  339

ORBITAL ENERGIES
----------------

  NO   OCC          E(Eh)            E(eV)
   0   2.0000     -20.612857      -560.9043
   1   2.0000     -20.590591      -560.2985
   2   2.0000     -20.551812      -559.2432
   3   2.0000     -11.386176      -309.8336
   4   2.0000     -11.363409      -309.2141
   5   2.0000     -11.313648      -307.8600
   6   2.0000     -11.240616      -305.8727
   7   2.0000     -11.236178      -305.7519
   8   2.0000     -11.225010      -305.4481
   9   2.0000      -1.494901       -40.6783
  10   2.0000      -1.409054       -38.3423
  11   2.0000      -1.361077       -37.0368
  12   2.0000      -1.094382       -29.7797
  13   2.0000      -1.036314       -28.1995
  14   2.0000      -0.958650       -26.0862
  15   2.0000      -0.873240       -23.7621
  16   2.0000      -0.846491       -23.0342
  17   2.0000      -0.805840       -21.9280
  18   2.0000      -0.748806       -20.3761
  19   2.0000      -0.689026       -18.7494
  20   2.0000      -0.679385       -18.4870
  21   2.0000      -0.645466       -17.5640
  22   2.0000      -0.616468       -16.7749
  23   2.0000      -0.606996       -16.5172
  24   2.0000      -0.596562       -16.2333
  25   2.0000      -0.578031       -15.7290
  26   2.0000      -0.566652       -15.4194
  27   2.0000      -0.552589       -15.0367
  28   2.0000      -0.549730       -14.9589
  29   2.0000      -0.523543       -14.2463
  30   2.0000      -0.512456       -13.9446
  31   2.0000      -0.498964       -13.5775
  32   2.0000      -0.473550       -12.8860
  33   2.0000      -0.452219       -12.3055
  34   2.0000      -0.439962       -11.9720
  35   0.0000       0.131618         3.5815
  36   0.0000       0.145746         3.9660
  37   0.0000       0.152799         4.1579
  38   0.0000       0.164022         4.4633
  39   0.0000       0.179959         4.8969

MULLIKEN ATOMIC CHARGES
-----------------------
   0 C :   -0.391302
   1 C :   -0.205617
   2 C :    0.039155
   3 O :   -0.301776
   4 C :    0.195425
   5 C :   -0.351002
   6 O :   -0.219799
   7 C :    0.251661
   8 O :   -0.281061
   9 H :    0.142887
  10 H :    0.122024
  11 H :    0.139381
  12 H :    0.116048
  13 H :    0.135385
  14 H :    0.104594
  15 H :    0.087333
  16 H :    0.134504
  17 H :    0.141248
  18 H :    0.140913
Sum of atomic charges:   -0.0000000

LOEWDIN ATOMIC CHARGES
----------------------
   0 C :   -0.313244
   1 C :   -0.263039
   2 C :   -0.285541
   3 O :    0.206738
   4 C :   -0.382782
   5 C :   -0.283114
   6 O :    0.272601
   7 C :   -0.451802
   8 O :    0.149343
   9 H :    0.126082
  10 H :    0.122079
  11 H :    0.123934
  12 H :    0.144834
  13 H :    0.150928
  14 H :    0.153607
  15 H :    0.129489
  16 H :    0.132006
  17 H :    0.133270
  18 H :    0.134612

  Mayer bond orders larger than 0.1
B(  0-C ,  1-C ) :   0.9157 B(  0-C ,  9-H ) :   0.9365 B(  0-C , 10-H ) :   0.9357
B(  0-C , 11-H ) :   0.9405 B(  1-C ,  2-C ) :   0.9362 B(  1-C , 12-H ) :   0.9254
B(  1-C , 13-H ) :   0.9280 B(  2-C ,  3-O ) :   0.9197 B(  2-C ,  7-C ) :   0.9033
B(  2-C , 14-H ) :   0.8918 B(  3-O ,  4-C ) :   0.9737 B(  4-C ,  5-C ) :   0.9365
B(  4-C ,  6-O ) :   0.9012 B(  4-C , 15-H ) :   0.9289 B(  5-C , 16-H ) :   0.9270
B(  5-C , 17-H ) :   0.9299 B(  5-C , 18-H ) :   0.9285 B(  6-O ,  7-C ) :   1.1160
B(  7-C ,  8-O ) :   2.0383

MP2 TOTAL ENERGY:     -459.482342006 Eh
FINAL SINGLE POINT ENERGY      -459.482342006267

DIPOLE MOMENT
-------------
                                X             Y             Z
Electronic contribution:     -1.33328      -7.94824      -3.24740
Nuclear contribution   :      2.03523       8.90604       3.09969
                        -----------------------------------------
Total Dipole Moment    :      0.70196       0.95780      -0.14771
                        -----------------------------------------
Magnitude (a.u.)       :      1.19664
Magnitude (Debye)      :      3.04161

                             ****ORCA TERMINATED NORMALLY****
TOTAL RUN TIME: 0 days 0 hours 26 minutes 15 seconds 625 msec
