                         Program Version 3.0.3 - RELEASE   -
|  1> ! RI-MP2 RIJK def2-TZVP def2-TZVP/C def2-TZVP/JK TIGHTSCF
|  2> % maxcore 2000
|  3> % mp2 density relaxed end
|  4> *xyz 0 1
|  5>  C       -0.1383491846     1.5634162647     0.0153743378
|  6>  C        0.0071526764     0.0590126275     0.0435147079
|  7>  C        1.3027345836    -0.6561017683    -0.3100205217
|  8>  C        2.5877184886     0.1120345656    -0.6179458300
|  9>  C        3.5666261245     0.1459356224     0.5732692166
| 10>  C        2.8615327615     0.4452519478     1.8745089970
| 11>  C        1.5991398250     0.0808719389     2.1040375152
| 12>  C        0.7909563671    -0.6863774519     1.1157991068
| 13>  C        0.1936708375    -1.9720451590     1.6616087198
| 14>  H        0.7190430799     2.0669538853     0.4683676160
| 15>  H       -0.2448617510     1.9327466866    -1.0113795202
| 16>  H       -1.0302745907     1.8744017604     0.5707167237
| 17>  H       -0.8896980267    -0.4641249077    -0.2827855442
| 18>  H        1.1810261633    -1.5801781487    -0.8684366416
| 19>  H        3.0803397633    -0.3353617987    -1.4874497217
| 20>  H        2.3541361610     1.1438312475    -0.9031062510
| 21>  H        4.0883387665    -0.8190287509     0.6578546767
| 22>  H        4.3506099872     0.8892067659     0.3884663968
| 23>  H        3.4239332398     0.9668352018     2.6450712458
| 24>  H        1.1278867661     0.3080776422     3.0589670023
| 25>  H       -0.4796089982    -1.7692387379     2.5035844718
| 26>  H       -0.3843668586    -2.4960678519     0.8935025695
| 27>  H        0.9744596585    -2.6530300414     2.0192571166
| 28> *
| 29>
| 30>                          ****END OF INPUT****

CARTESIAN COORDINATES (ANGSTROEM)
---------------------------------
  C     -0.138349    1.563416    0.015374
  C      0.007153    0.059013    0.043515
  C      1.302735   -0.656102   -0.310021
  C      2.587718    0.112035   -0.617946
  C      3.566626    0.145936    0.573269
  C      2.861533    0.445252    1.874509
  C      1.599140    0.080872    2.104038
  C      0.790956   -0.686377    1.115799
  C      0.193671   -1.972045    1.661609
  H      0.719043    2.066954    0.468368
  H     -0.244862    1.932747   -1.011380
  H     -1.030275    1.874402    0.570717
  H     -0.889698   -0.464125   -0.282786
  H      1.181026   -1.580178   -0.868437
  H      3.080340   -0.335362   -1.487450
  H      2.354136    1.143831   -0.903106
  H      4.088339   -0.819029    0.657855
  H      4.350610    0.889207    0.388466
  H      3.423933    0.966835    2.645071
  H      1.127887    0.308078    3.058967
  H     -0.479609   -1.769239    2.503584
  H     -0.384367   -2.496068    0.893503
  H      0.974460   -2.653030    2.019257

 Total Charge           Charge          ....    0
 Multiplicity           Mult            ....    1
 Number of Electrons    NEL             ....   68
 Basis Dimension        Dim             ....  363

ORBITAL ENERGIES
----------------

  NO   OCC          E(Eh)            E(eV)
   0   2.0000     -11.228806      -305.5513
   1   2.0000     -11.223778      -305.4145
   2   2.0000     -11.221012      -305.3393
   3   2.0000     -11.220104      -305.3146
   4   2.0000     -11.219202      -305.2900
   5   2.0000     -11.218539      -305.2720
   6   2.0000     -11.217275      -305.2376
   7   2.0000     -11.213139      -305.1250
   8   2.0000     -11.209282      -305.0201
   9   2.0000      -1.167338       -31.7649
  10   2.0000      -1.061749       -28.8917
  11   2.0000      -1.011076       -27.5128
  12   2.0000      -0.973505       -26.4904
  13   2.0000      -0.925912       -25.1953
  14   2.0000      -0.863757       -23.5040
  15   2.0000      -0.797792       -21.7090
  16   2.0000      -0.746770       -20.3206
  17   2.0000      -0.684161       -18.6170
  18   2.0000      -0.647196       -17.6111
  19   2.0000      -0.630026       -17.1439
  20   2.0000      -0.604628       -16.4528
  21   2.0000      -0.588400       -16.0112
  22   2.0000      -0.567177       -15.4337
  23   2.0000      -0.553587       -15.0639
  24   2.0000      -0.542872       -14.7723
  25   2.0000      -0.533100       -14.5064
  26   2.0000      -0.522182       -14.2093
  27   2.0000      -0.508378       -13.8337
  28   2.0000      -0.492686       -13.4067
  29   2.0000      -0.469294       -12.7701
  30   2.0000      -0.450188       -12.2502
  31   2.0000      -0.399028       -10.8581
  32   2.0000      -0.380511       -10.3542
  33   2.0000      -0.330080        -8.9819
  34   0.0000       0.133315         3.6277
  35   0.0000       0.153020         4.1639
  36   0.0000       0.157827         4.2947
  37   0.0000       0.168030         4.5723
  38   0.0000       0.172454         4.6927

MULLIKEN ATOMIC CHARGES
-----------------------
   0 C :   -0.425869
   1 C :   -0.148745
   2 C :   -0.086579
   3 C :   -0.291868
   4 C :   -0.171846
   5 C :   -0.135650
   6 C :   -0.265023
   7 C :    0.189502
   8 C :   -0.407679
   9 H :    0.145940
  10 H :    0.132628
  11 H :    0.133472
  12 H :    0.109674
  13 H :    0.118441
  14 H :    0.121994
  15 H :    0.127925
  16 H :    0.118374
  17 H :    0.119334
  18 H :    0.120686
  19 H :    0.111403
  20 H :    0.127767
  21 H :    0.124455
  22 H :    0.131665
Sum of atomic charges:   -0.0000000

LOEWDIN ATOMIC CHARGES
----------------------
   0 C :   -0.296634
   1 C :   -0.189292
   2 C :   -0.159343
   3 C :   -0.231933
   4 C :   -0.247801
   5 C :   -0.162780
   6 C :   -0.129915
   7 C :   -0.226003
   8 C :   -0.261976
   9 H :    0.127964
  10 H :    0.124895
  11 H :    0.126433
  12 H :    0.148800
  13 H :    0.147479
  14 H :    0.138544
  15 H :    0.142280
  16 H :    0.145217
  17 H :    0.139239
  18 H :    0.139744
  19 H :    0.145879
  20 H :    0.126076
  21 H :    0.126410
  22 H :    0.126717

  Mayer bond orders larger than 0.1
B(  0-C ,  1-C ) :   0.8953 B(  0-C ,  9-H ) :   0.9378 B(  0-C , 10-H ) :   0.9383
B(  0-C , 11-H ) :   0.9366 B(  1-C ,  2-C ) :   0.8928 B(  1-C ,  7-C ) :   0.8629
B(  1-C , 12-H ) :   0.9307 B(  2-C ,  3-C ) :   0.8894 B(  2-C ,  7-C ) :   0.8478
B(  2-C , 13-H ) :   0.9307 B(  3-C ,  4-C ) :   0.9392 B(  3-C , 14-H ) :   0.9349
B(  3-C , 15-H ) :   0.9343 B(  4-C ,  5-C ) :   0.9291 B(  4-C , 16-H ) :   0.9111
B(  4-C , 17-H ) :   0.9362 B(  5-C ,  6-C ) :   1.8008 B(  5-C , 18-H ) :   0.9290
B(  6-C ,  7-C ) :   0.9271 B(  6-C , 19-H ) :   0.9332 B(  7-C ,  8-C ) :   0.8879
B(  8-C , 20-H ) :   0.9404 B(  8-C , 21-H ) :   0.9298 B(  8-C , 22-H ) :   0.9392

MP2 TOTAL ENERGY:     -350.512114346 Eh
FINAL SINGLE POINT ENERGY      -350.512114346039

DIPOLE MOMENT
-------------
                                X             Y             Z
Electronic contribution:      1.35998      -0.42567       1.06621
Nuclear contribution   :     -1.32387       0.39622      -1.15886
                        -----------------------------------------
Total Dipole Moment    :      0.03611      -0.02944      -0.09265
                        -----------------------------------------
Magnitude (a.u.)       :      0.10371
Magnitude (Debye)      :      0.26360

                             ****ORCA TERMINATED NORMALLY****
TOTAL RUN TIME: 0 days 0 hours 21 minutes 53 seconds 662 msec
