                         Program Version 3.0.3 - RELEASE   -
|  1> ! RI-MP2 RIJK def2-TZVP def2-TZVP/C def2-TZVP/JK TIGHTSCF
|  2> % maxcore 2000
|  3> % mp2 density relaxed end
|  4> *xyz 0 1
|  5>  O        0.0202459940     1.3889528245    -0.3646491391
|  6>  C        0.0511668062     0.1276885859     0.2751798060
|  7>  C       -1.3267919530    -0.4891840588     0.2943442428
|  8>  O       -1.7737216157    -1.0782647113    -0.9270454949
|  9>  C       -1.5490249681    -1.9608297735     0.1853994274
| 10>  C       -0.4581394858    -2.8974237207     0.0843607044
| 11>  C        0.4315133627    -3.7009940864     0.0181027333
| 12>  C       -2.7634203206    -2.5026462454     0.7775704169
| 13>  N       -3.7212823233    -2.9279419681     1.2631342788
| 14>  H       -0.2090949055     1.2409037504    -1.2889493395
| 15>  H        0.7599867963    -0.5639659152    -0.1973424520
| 16>  H        0.3822495111     0.3082661806     1.3030865925
| 17>  H       -2.0940760463     0.0835937278     0.8154294796
| 18>  H        1.2204184181    -4.4105008698    -0.0453476462
| 19> *
| 20>
| 21>                          ****END OF INPUT****

CARTESIAN COORDINATES (ANGSTROEM)
---------------------------------
  O      0.020246    1.388953   -0.364649
  C      0.051167    0.127689    0.275180
  C     -1.326792   -0.489184    0.294344
  O     -1.773722   -1.078265   -0.927045
  C     -1.549025   -1.960830    0.185399
  C     -0.458139   -2.897424    0.084361
  C      0.431513   -3.700994    0.018103
  C     -2.763420   -2.502646    0.777570
  N     -3.721282   -2.927942    1.263134
  H     -0.209095    1.240904   -1.288949
  H      0.759987   -0.563966   -0.197342
  H      0.382250    0.308266    1.303087
  H     -2.094076    0.083594    0.815429
  H      1.220418   -4.410501   -0.045348

 Total Charge           Charge          ....    0
 Multiplicity           Mult            ....    1
 Number of Electrons    NEL             ....   64
 Basis Dimension        Dim             ....  309

ORBITAL ENERGIES
----------------

  NO   OCC          E(Eh)            E(eV)
   0   2.0000     -20.626642      -561.2795
   1   2.0000     -20.582917      -560.0896
   2   2.0000     -15.596564      -424.4041
   3   2.0000     -11.389246      -309.9171
   4   2.0000     -11.340195      -308.5824
   5   2.0000     -11.310591      -307.7768
   6   2.0000     -11.296435      -307.3916
   7   2.0000     -11.275844      -306.8313
   8   2.0000     -11.271297      -306.7076
   9   2.0000      -1.473848       -40.1054
  10   2.0000      -1.387667       -37.7603
  11   2.0000      -1.239615       -33.7317
  12   2.0000      -1.098999       -29.9053
  13   2.0000      -1.029438       -28.0124
  14   2.0000      -1.000481       -27.2245
  15   2.0000      -0.877814       -23.8865
  16   2.0000      -0.821188       -22.3456
  17   2.0000      -0.756064       -20.5735
  18   2.0000      -0.729787       -19.8585
  19   2.0000      -0.714525       -19.4432
  20   2.0000      -0.654594       -17.8124
  21   2.0000      -0.635542       -17.2940
  22   2.0000      -0.617507       -16.8032
  23   2.0000      -0.580162       -15.7870
  24   2.0000      -0.557658       -15.1746
  25   2.0000      -0.542814       -14.7707
  26   2.0000      -0.521071       -14.1791
  27   2.0000      -0.492377       -13.3983
  28   2.0000      -0.486512       -13.2387
  29   2.0000      -0.466293       -12.6885
  30   2.0000      -0.435713       -11.8564
  31   2.0000      -0.415913       -11.3176
  32   0.0000       0.104953         2.8559
  33   0.0000       0.123442         3.3590
  34   0.0000       0.137526         3.7423
  35   0.0000       0.140740         3.8297
  36   0.0000       0.146374         3.9830

MULLIKEN ATOMIC CHARGES
-----------------------
   0 O :   -0.464620
   1 C :   -0.004788
   2 C :   -0.006820
   3 O :   -0.293237
   4 C :    0.090871
   5 C :    0.004739
   6 C :   -0.047111
   7 C :   -0.185563
   8 N :   -0.041017
   9 H :    0.329852
  10 H :    0.137148
  11 H :    0.124153
  12 H :    0.147069
  13 H :    0.209326
Sum of atomic charges:   -0.0000000

LOEWDIN ATOMIC CHARGES
----------------------
   0 O :   -0.031159
   1 C :   -0.322588
   2 C :   -0.217534
   3 O :    0.225097
   4 C :   -0.283870
   5 C :   -0.053299
   6 C :   -0.036350
   7 C :   -0.120945
   8 N :    0.095797
   9 H :    0.182462
  10 H :    0.133341
  11 H :    0.141442
  12 H :    0.152415
  13 H :    0.135191

  Mayer bond orders larger than 0.1
B(  0-O ,  1-C ) :   0.8981 B(  0-O ,  9-H ) :   0.8383 B(  1-C ,  2-C ) :   0.9237
B(  1-C , 10-H ) :   0.9245 B(  1-C , 11-H ) :   0.9135 B(  2-C ,  3-O ) :   0.8682
B(  2-C ,  4-C ) :   0.9238 B(  2-C , 12-H ) :   0.9067 B(  3-O ,  4-C ) :   0.9104
B(  4-C ,  5-C ) :   1.1854 B(  4-C ,  6-C ) :  -0.1426 B(  4-C ,  7-C ) :   0.9169
B(  5-C ,  6-C ) :   2.5675 B(  6-C , 13-H ) :   0.8795 B(  7-C ,  8-N ) :   2.8210

MP2 TOTAL ENERGY:     -435.895775524 Eh
FINAL SINGLE POINT ENERGY      -435.895775524226

DIPOLE MOMENT
-------------
                                X             Y             Z
Electronic contribution:     -4.30671      -3.61179      -0.08567
Nuclear contribution   :      5.67374       3.63326      -0.12397
                        -----------------------------------------
Total Dipole Moment    :      1.36703       0.02148      -0.20964
                        -----------------------------------------
Magnitude (a.u.)       :      1.38318
Magnitude (Debye)      :      3.51577

                             ****ORCA TERMINATED NORMALLY****
TOTAL RUN TIME: 0 days 0 hours 18 minutes 48 seconds 998 msec
