                         Program Version 3.0.3 - RELEASE   -
|  1> ! RI-MP2 RIJK def2-TZVP def2-TZVP/C def2-TZVP/JK TIGHTSCF
|  2> % maxcore 2000
|  3> % mp2 density relaxed end
|  4> *xyz 0 1
|  5>  C       -1.3183360848    -0.5294274142     0.0609374085
|  6>  O        0.0799122293    -0.7187440481    -0.0269363440
|  7>  C        0.7803955307    -0.4349768730     1.1709794536
|  8>  C        0.4113514517    -1.3465397358     2.2660874059
|  9>  C        0.1144795920    -2.0967380974     3.1570845387
| 10>  C        2.2614628964    -0.5263244937     0.8516038500
| 11>  C        2.9794023716     0.6843600257     0.3929282677
| 12>  N        3.2403147559     0.1217572294     1.7306635963
| 13>  H       -1.5678792877     0.5108059720     0.3225135556
| 14>  H       -1.7288332045    -0.7549384772    -0.9255502313
| 15>  H       -1.7751893413    -1.1960834841     0.8039993271
| 16>  H        0.5580389805     0.5990290622     1.4955023276
| 17>  H       -0.1411836203    -2.7588653523     3.9474796755
| 18>  H        2.5648839815    -1.5025754549     0.4834541128
| 19>  H        3.8020475230     0.5941514248    -0.3100143624
| 20>  H        2.4130374114     1.6088660520     0.3117889086
| 21>  H        2.7628654347     0.6701759647     2.4430979596
| 22> *
| 23>
| 24>                          ****END OF INPUT****

CARTESIAN COORDINATES (ANGSTROEM)
---------------------------------
  C     -1.318336   -0.529427    0.060937
  O      0.079912   -0.718744   -0.026936
  C      0.780396   -0.434977    1.170979
  C      0.411351   -1.346540    2.266087
  C      0.114480   -2.096738    3.157085
  C      2.261463   -0.526324    0.851604
  C      2.979402    0.684360    0.392928
  N      3.240315    0.121757    1.730664
  H     -1.567879    0.510806    0.322514
  H     -1.728833   -0.754938   -0.925550
  H     -1.775189   -1.196083    0.803999
  H      0.558039    0.599029    1.495502
  H     -0.141184   -2.758865    3.947480
  H      2.564884   -1.502575    0.483454
  H      3.802048    0.594151   -0.310014
  H      2.413037    1.608866    0.311789
  H      2.762865    0.670176    2.443098

 Total Charge           Charge          ....    0
 Multiplicity           Mult            ....    1
 Number of Electrons    NEL             ....   60
 Basis Dimension        Dim             ....  302

ORBITAL ENERGIES
----------------

  NO   OCC          E(Eh)            E(eV)
   0   2.0000     -20.570697      -559.7571
   1   2.0000     -15.562076      -423.4656
   2   2.0000     -11.321552      -308.0751
   3   2.0000     -11.276461      -306.8481
   4   2.0000     -11.266061      -306.5651
   5   2.0000     -11.258169      -306.3504
   6   2.0000     -11.240208      -305.8616
   7   2.0000     -11.234607      -305.7092
   8   2.0000      -1.392076       -37.8803
   9   2.0000      -1.266440       -34.4616
  10   2.0000      -1.065131       -28.9837
  11   2.0000      -0.993698       -27.0399
  12   2.0000      -0.906364       -24.6634
  13   2.0000      -0.892099       -24.2752
  14   2.0000      -0.823055       -22.3965
  15   2.0000      -0.745240       -20.2790
  16   2.0000      -0.699548       -19.0357
  17   2.0000      -0.689207       -18.7543
  18   2.0000      -0.674747       -18.3608
  19   2.0000      -0.637485       -17.3468
  20   2.0000      -0.608515       -16.5585
  21   2.0000      -0.579882       -15.7794
  22   2.0000      -0.526421       -14.3246
  23   2.0000      -0.502184       -13.6651
  24   2.0000      -0.486130       -13.2283
  25   2.0000      -0.481916       -13.1136
  26   2.0000      -0.447524       -12.1778
  27   2.0000      -0.406911       -11.0726
  28   2.0000      -0.397164       -10.8074
  29   2.0000      -0.394182       -10.7262
  30   0.0000       0.127961         3.4820
  31   0.0000       0.152832         4.1588
  32   0.0000       0.161295         4.3891
  33   0.0000       0.165545         4.5047
  34   0.0000       0.173491         4.7209

MULLIKEN ATOMIC CHARGES
-----------------------
   0 C :   -0.228247
   1 O :   -0.288613
   2 C :   -0.067086
   3 C :   -0.021501
   4 C :   -0.162013
   5 C :    0.015067
   6 C :   -0.173048
   7 N :   -0.361329
   8 H :    0.109391
   9 H :    0.142837
  10 H :    0.134500
  11 H :    0.100650
  12 H :    0.194317
  13 H :    0.133071
  14 H :    0.126697
  15 H :    0.124927
  16 H :    0.220381
Sum of atomic charges:    0.0000000

LOEWDIN ATOMIC CHARGES
----------------------
   0 C :   -0.346526
   1 O :    0.172297
   2 C :   -0.321534
   3 C :   -0.085638
   4 C :   -0.082305
   5 C :   -0.245077
   6 C :   -0.258369
   7 N :   -0.008269
   8 H :    0.102470
   9 H :    0.115439
  10 H :    0.109307
  11 H :    0.154523
  12 H :    0.128891
  13 H :    0.150050
  14 H :    0.126542
  15 H :    0.122454
  16 H :    0.165746

  Mayer bond orders larger than 0.1
B(  0-C ,  1-O ) :   0.9097 B(  0-C ,  8-H ) :   0.9302 B(  0-C ,  9-H ) :   0.9379
B(  0-C , 10-H ) :   0.9356 B(  1-O ,  2-C ) :   1.0008 B(  2-C ,  3-C ) :   0.9849
B(  2-C ,  5-C ) :   0.9364 B(  2-C , 11-H ) :   0.9831 B(  3-C ,  4-C ) :   2.6481
B(  4-C , 12-H ) :   0.9017 B(  5-C ,  6-C ) :   0.9386 B(  5-C ,  7-N ) :   0.9455
B(  5-C , 13-H ) :   0.9063 B(  6-C ,  7-N ) :   0.9209 B(  6-C , 14-H ) :   0.9218
B(  6-C , 15-H ) :   0.9124 B(  7-N , 16-H ) :   0.8707

MP2 TOTAL ENERGY:     -363.150609048 Eh
FINAL SINGLE POINT ENERGY      -363.150609047551

DIPOLE MOMENT
-------------
                                X             Y             Z
Electronic contribution:      1.58219      -2.27983       1.76425
Nuclear contribution   :     -2.38400       2.70240      -1.64533
                        -----------------------------------------
Total Dipole Moment    :     -0.80181       0.42257       0.11892
                        -----------------------------------------
Magnitude (a.u.)       :      0.91411
Magnitude (Debye)      :      2.32349

                             ****ORCA TERMINATED NORMALLY****
TOTAL RUN TIME: 0 days 0 hours 12 minutes 5 seconds 345 msec
