                         Program Version 3.0.3 - RELEASE   -
|  1> ! RI-MP2 RIJK def2-TZVP def2-TZVP/C def2-TZVP/JK TIGHTSCF
|  2> % maxcore 2000
|  3> % mp2 density relaxed end
|  4> *xyz 0 1
|  5>  C       -0.2192025483     1.5435344859    -0.7448403220
|  6>  N       -0.8400449474     0.2836438746    -0.3219932241
|  7>  C       -0.0108633140    -0.8817513683    -0.0466233283
|  8>  C       -0.7173278882    -0.1686579375     1.0566542535
|  9>  C        1.1036477610     1.9723283724    -0.1538880460
| 10>  C        1.2258547774     2.7059873103     1.1591367351
| 11>  C        1.6642309572     3.4043181333    -0.0947015073
| 12>  C        3.0503286042     2.9120978676    -0.5231454878
| 13>  C        2.4943590212     1.4533331443    -0.5729946253
| 14>  H       -0.1147086984     1.4796658056    -1.8361401711
| 15>  H       -0.9552891137     2.3341798469    -0.5485548132
| 16>  H       -0.3898510413    -1.8266273697    -0.4279968900
| 17>  H        1.0709612595    -0.7817169402    -0.0807096350
| 18>  H       -0.0992987679     0.4015317598     1.7450337880
| 19>  H       -1.6217263904    -0.5854628594     1.4926210411
| 20>  H        0.2891835898     3.0562562591     1.5821743347
| 21>  H        1.9596837747     2.3964666756     1.9015235280
| 22>  H        1.1906380114     4.3223252398    -0.4239694982
| 23>  H        3.3506353063     3.2731524244    -1.5091781524
| 24>  H        3.8656622573     3.1087307154     0.1812239519
| 25>  H        2.9614269306     0.7258302562     0.0998882866
| 26>  H        2.5016649289     1.0407656938    -1.5852552782
| 27> *
| 28>
| 29>                          ****END OF INPUT****

CARTESIAN COORDINATES (ANGSTROEM)
---------------------------------
  C     -0.219203    1.543534   -0.744840
  N     -0.840045    0.283644   -0.321993
  C     -0.010863   -0.881751   -0.046623
  C     -0.717328   -0.168658    1.056654
  C      1.103648    1.972328   -0.153888
  C      1.225855    2.705987    1.159137
  C      1.664231    3.404318   -0.094702
  C      3.050329    2.912098   -0.523145
  C      2.494359    1.453333   -0.572995
  H     -0.114709    1.479666   -1.836140
  H     -0.955289    2.334180   -0.548555
  H     -0.389851   -1.826627   -0.427997
  H      1.070961   -0.781717   -0.080710
  H     -0.099299    0.401532    1.745034
  H     -1.621726   -0.585463    1.492621
  H      0.289184    3.056256    1.582174
  H      1.959684    2.396467    1.901524
  H      1.190638    4.322325   -0.423969
  H      3.350635    3.273152   -1.509178
  H      3.865662    3.108731    0.181224
  H      2.961427    0.725830    0.099888
  H      2.501665    1.040766   -1.585255

 Total Charge           Charge          ....    0
 Multiplicity           Mult            ....    1
 Number of Electrons    NEL             ....   68
 Basis Dimension        Dim             ....  357

ORBITAL ENERGIES
----------------

  NO   OCC          E(Eh)            E(eV)
   0   2.0000     -15.551196      -423.1696
   1   2.0000     -11.250616      -306.1448
   2   2.0000     -11.246059      -306.0208
   3   2.0000     -11.244896      -305.9892
   4   2.0000     -11.235217      -305.7258
   5   2.0000     -11.231335      -305.6202
   6   2.0000     -11.227046      -305.5035
   7   2.0000     -11.226643      -305.4925
   8   2.0000     -11.225459      -305.4603
   9   2.0000      -1.263495       -34.3814
  10   2.0000      -1.189601       -32.3707
  11   2.0000      -1.006859       -27.3980
  12   2.0000      -0.979961       -26.6661
  13   2.0000      -0.889943       -24.2166
  14   2.0000      -0.835354       -22.7311
  15   2.0000      -0.827243       -22.5104
  16   2.0000      -0.784763       -21.3545
  17   2.0000      -0.717983       -19.5373
  18   2.0000      -0.674113       -18.3436
  19   2.0000      -0.673127       -18.3167
  20   2.0000      -0.626891       -17.0586
  21   2.0000      -0.614244       -16.7144
  22   2.0000      -0.593953       -16.1623
  23   2.0000      -0.574321       -15.6281
  24   2.0000      -0.536993       -14.6123
  25   2.0000      -0.522174       -14.2091
  26   2.0000      -0.519570       -14.1382
  27   2.0000      -0.474667       -12.9163
  28   2.0000      -0.467889       -12.7319
  29   2.0000      -0.458091       -12.4653
  30   2.0000      -0.445821       -12.1314
  31   2.0000      -0.403612       -10.9829
  32   2.0000      -0.379436       -10.3250
  33   2.0000      -0.355128        -9.6635
  34   0.0000       0.139824         3.8048
  35   0.0000       0.157686         4.2909
  36   0.0000       0.165283         4.4976
  37   0.0000       0.166881         4.5411
  38   0.0000       0.186369         5.0714

MULLIKEN ATOMIC CHARGES
-----------------------
   0 C :   -0.162983
   1 N :   -0.211868
   2 C :   -0.182210
   3 C :   -0.176787
   4 C :    0.025717
   5 C :   -0.286950
   6 C :   -0.135720
   7 C :   -0.220146
   8 C :   -0.248307
   9 H :    0.120022
  10 H :    0.119440
  11 H :    0.125421
  12 H :    0.122106
  13 H :    0.128781
  14 H :    0.125330
  15 H :    0.135602
  16 H :    0.127340
  17 H :    0.129495
  18 H :    0.118425
  19 H :    0.110838
  20 H :    0.114705
  21 H :    0.121751
Sum of atomic charges:   -0.0000000

LOEWDIN ATOMIC CHARGES
----------------------
   0 C :   -0.263804
   1 N :    0.092151
   2 C :   -0.268992
   3 C :   -0.269490
   4 C :   -0.213649
   5 C :   -0.198012
   6 C :   -0.168303
   7 C :   -0.216524
   8 C :   -0.203631
   9 H :    0.142666
  10 H :    0.144729
  11 H :    0.121735
  12 H :    0.123826
  13 H :    0.124907
  14 H :    0.121767
  15 H :    0.141690
  16 H :    0.132661
  17 H :    0.135224
  18 H :    0.133831
  19 H :    0.126134
  20 H :    0.125378
  21 H :    0.135707

  Mayer bond orders larger than 0.1
B(  0-C ,  1-N ) :   0.9580 B(  0-C ,  4-C ) :   0.9125 B(  0-C ,  9-H ) :   0.9316
B(  0-C , 10-H ) :   0.9295 B(  1-N ,  2-C ) :   0.8936 B(  1-N ,  3-C ) :   0.8894
B(  2-C ,  3-C ) :   0.9355 B(  2-C , 11-H ) :   0.9295 B(  2-C , 12-H ) :   0.9219
B(  3-C , 13-H ) :   0.9214 B(  3-C , 14-H ) :   0.9298 B(  4-C ,  5-C ) :   0.8750
B(  4-C ,  6-C ) :   0.8038 B(  4-C ,  8-C ) :   0.9109 B(  5-C ,  6-C ) :   0.8914
B(  5-C , 15-H ) :   0.9305 B(  5-C , 16-H ) :   0.9145 B(  6-C ,  7-C ) :   0.9327
B(  6-C , 17-H ) :   0.9197 B(  7-C ,  8-C ) :   0.9747 B(  7-C , 18-H ) :   0.9288
B(  7-C , 19-H ) :   0.9211 B(  8-C , 20-H ) :   0.9178 B(  8-C , 21-H ) :   0.9254

MP2 TOTAL ENERGY:     -366.478089530 Eh
FINAL SINGLE POINT ENERGY      -366.478089530432

DIPOLE MOMENT
-------------
                                X             Y             Z
Electronic contribution:     -2.23184       0.08535      -0.70603
Nuclear contribution   :      2.68531       0.09589       0.84541
                        -----------------------------------------
Total Dipole Moment    :      0.45346       0.18124       0.13937
                        -----------------------------------------
Magnitude (a.u.)       :      0.50784
Magnitude (Debye)      :      1.29083

                             ****ORCA TERMINATED NORMALLY****
TOTAL RUN TIME: 0 days 0 hours 19 minutes 15 seconds 303 msec
