                         Program Version 3.0.3 - RELEASE   -
|  1> ! RI-MP2 RIJK def2-TZVP def2-TZVP/C def2-TZVP/JK TIGHTSCF
|  2> % maxcore 2000
|  3> % mp2 density relaxed end
|  4> *xyz 0 1
|  5>  O        0.2151339485     1.0842346263    -0.7521021812
|  6>  C        0.0216615550    -0.2893547460    -0.4461384798
|  7>  C       -1.3631570574    -0.5564119978     0.1357186262
|  8>  C       -2.5342878574    -0.5126606718    -0.8948185776
|  9>  C       -2.6836198635    -2.0596291923    -0.8007884036
| 10>  C       -2.2083419360    -2.8236230462    -2.0267536723
| 11>  O       -3.1229218710    -2.5292731909    -3.0764445410
| 12>  C       -1.7077566316    -2.0582546494     0.4055675703
| 13>  O       -0.6722170883    -3.0173584201     0.3007484618
| 14>  H       -0.4574364342     1.3354756712    -1.3937072076
| 15>  H        0.2023132334    -0.9225542121    -1.3269639435
| 16>  H        0.7958005854    -0.5392317757     0.2874446086
| 17>  H       -1.4960951730     0.0988064382     1.0021860012
| 18>  H       -3.4105002991     0.0355935888    -0.5435470620
| 19>  H       -2.2860084533    -0.1456547137    -1.8961850282
| 20>  H       -3.6932476333    -2.4048036455    -0.5617255362
| 21>  H       -1.1852821612    -2.5250957685    -2.2978780761
| 22>  H       -2.1819732680    -3.8999454023    -1.8035477522
| 23>  H       -2.8254393524    -2.9883735695    -3.8671326772
| 24>  H       -2.2467495478    -2.1782831914     1.3547938170
| 25>  H       -0.1571876549    -3.0010992611     1.1129540632
| 26> *
| 27>
| 28>                          ****END OF INPUT****

CARTESIAN COORDINATES (ANGSTROEM)
---------------------------------
  O      0.215134    1.084235   -0.752102
  C      0.021662   -0.289355   -0.446138
  C     -1.363157   -0.556412    0.135719
  C     -2.534288   -0.512661   -0.894819
  C     -2.683620   -2.059629   -0.800788
  C     -2.208342   -2.823623   -2.026754
  O     -3.122922   -2.529273   -3.076445
  C     -1.707757   -2.058255    0.405568
  O     -0.672217   -3.017358    0.300748
  H     -0.457436    1.335476   -1.393707
  H      0.202313   -0.922554   -1.326964
  H      0.795801   -0.539232    0.287445
  H     -1.496095    0.098806    1.002186
  H     -3.410500    0.035594   -0.543547
  H     -2.286008   -0.145655   -1.896185
  H     -3.693248   -2.404804   -0.561726
  H     -1.185282   -2.525096   -2.297878
  H     -2.181973   -3.899945   -1.803548
  H     -2.825439   -2.988374   -3.867133
  H     -2.246750   -2.178283    1.354794
  H     -0.157188   -3.001099    1.112954

 Total Charge           Charge          ....    0
 Multiplicity           Mult            ....    1
 Number of Electrons    NEL             ....   72
 Basis Dimension        Dim             ....  351

ORBITAL ENERGIES
----------------

  NO   OCC          E(Eh)            E(eV)
   0   2.0000     -20.565045      -559.6033
   1   2.0000     -20.554211      -559.3085
   2   2.0000     -20.551688      -559.2399
   3   2.0000     -11.285408      -307.0916
   4   2.0000     -11.272177      -306.7315
   5   2.0000     -11.271749      -306.7199
   6   2.0000     -11.226656      -305.4928
   7   2.0000     -11.226533      -305.4895
   8   2.0000     -11.222784      -305.3875
   9   2.0000      -1.371971       -37.3332
  10   2.0000      -1.357501       -36.9395
  11   2.0000      -1.355550       -36.8864
  12   2.0000      -1.129821       -30.7440
  13   2.0000      -0.991420       -26.9779
  14   2.0000      -0.920663       -25.0525
  15   2.0000      -0.893765       -24.3206
  16   2.0000      -0.815899       -22.2017
  17   2.0000      -0.744094       -20.2478
  18   2.0000      -0.714118       -19.4321
  19   2.0000      -0.694635       -18.9020
  20   2.0000      -0.682963       -18.5844
  21   2.0000      -0.665819       -18.1179
  22   2.0000      -0.624392       -16.9906
  23   2.0000      -0.613980       -16.7073
  24   2.0000      -0.596713       -16.2374
  25   2.0000      -0.568696       -15.4750
  26   2.0000      -0.564413       -15.3585
  27   2.0000      -0.534398       -14.5417
  28   2.0000      -0.521899       -14.2016
  29   2.0000      -0.510021       -13.8784
  30   2.0000      -0.471346       -12.8260
  31   2.0000      -0.468137       -12.7386
  32   2.0000      -0.451753       -12.2928
  33   2.0000      -0.440060       -11.9746
  34   2.0000      -0.427060       -11.6209
  35   2.0000      -0.405591       -11.0367
  36   0.0000       0.123753         3.3675
  37   0.0000       0.134490         3.6597
  38   0.0000       0.147570         4.0156
  39   0.0000       0.155223         4.2238
  40   0.0000       0.187424         5.1001

MULLIKEN ATOMIC CHARGES
-----------------------
   0 O :   -0.473237
   1 C :   -0.044721
   2 C :   -0.078476
   3 C :   -0.261174
   4 C :   -0.023064
   5 C :   -0.114176
   6 O :   -0.469455
   7 C :    0.005082
   8 O :   -0.456490
   9 H :    0.314504
  10 H :    0.114928
  11 H :    0.092655
  12 H :    0.105825
  13 H :    0.129097
  14 H :    0.111947
  15 H :    0.104289
  16 H :    0.099784
  17 H :    0.111015
  18 H :    0.316931
  19 H :    0.097971
  20 H :    0.316765
Sum of atomic charges:    0.0000000

LOEWDIN ATOMIC CHARGES
----------------------
   0 O :   -0.048296
   1 C :   -0.329740
   2 C :   -0.231660
   3 C :   -0.199529
   4 C :   -0.212413
   5 C :   -0.327987
   6 O :   -0.048581
   7 C :   -0.279723
   8 O :   -0.013042
   9 H :    0.172273
  10 H :    0.118491
  11 H :    0.126705
  12 H :    0.143031
  13 H :    0.132920
  14 H :    0.131974
  15 H :    0.147033
  16 H :    0.117235
  17 H :    0.121631
  18 H :    0.171724
  19 H :    0.131078
  20 H :    0.176877

  Mayer bond orders larger than 0.1
B(  0-O ,  1-C ) :   0.9155 B(  0-O ,  9-H ) :   0.8469 B(  1-C ,  2-C ) :   0.9219
B(  1-C , 10-H ) :   0.9283 B(  1-C , 11-H ) :   0.9261 B(  2-C ,  3-C ) :   0.9022
B(  2-C ,  7-C ) :   0.8817 B(  2-C ,  8-O ) :  -0.1014 B(  2-C , 12-H ) :   0.9216
B(  3-C ,  4-C ) :   0.9068 B(  3-C , 13-H ) :   0.9208 B(  3-C , 14-H ) :   0.9186
B(  4-C ,  5-C ) :   0.9464 B(  4-C ,  7-C ) :   0.8857 B(  4-C , 15-H ) :   0.9177
B(  5-C ,  6-O ) :   1.0133 B(  5-C , 16-H ) :   0.9158 B(  5-C , 17-H ) :   0.9301
B(  6-O , 18-H ) :   0.8486 B(  7-C ,  8-O ) :   1.1142 B(  7-C , 19-H ) :   0.9582
B(  8-O , 20-H ) :   0.8444

MP2 TOTAL ENERGY:     -460.610148043 Eh
FINAL SINGLE POINT ENERGY      -460.610148042768

DIPOLE MOMENT
-------------
                                X             Y             Z
Electronic contribution:      0.45025      -0.46517       0.16782
Nuclear contribution   :     -0.53194      -0.03319       0.03779
                        -----------------------------------------
Total Dipole Moment    :     -0.08169      -0.49837       0.20561
                        -----------------------------------------
Magnitude (a.u.)       :      0.54527
Magnitude (Debye)      :      1.38596

                             ****ORCA TERMINATED NORMALLY****
TOTAL RUN TIME: 0 days 0 hours 27 minutes 41 seconds 355 msec
