                         Program Version 3.0.3 - RELEASE   -
|  1> ! RI-MP2 RIJK def2-TZVP def2-TZVP/C def2-TZVP/JK TIGHTSCF
|  2> % maxcore 2000
|  3> % mp2 density relaxed end
|  4> *xyz 0 1
|  5>  N        0.0588241144     1.1407343608     0.7324663497
|  6>  C       -0.0330700120     0.0596158961     0.1074041418
|  7>  C       -1.1678463571    -0.8498590291    -0.3071246765
|  8>  C       -0.0467895390    -1.7068616034    -0.9261604290
|  9>  C        0.3106592871    -3.1720462586    -0.6071747430
| 10>  N        0.5175412174    -3.4970871031    -2.0659822489
| 11>  C       -0.7838943699    -3.2390272385    -2.7015048974
| 12>  C        0.0765146518    -2.0774067893    -2.3912054225
| 13>  O        0.9457808831    -0.7384422715    -0.4580611570
| 14>  H        1.0311336047     1.4435276717     0.8119183510
| 15>  H       -1.7140303033    -1.3062783436     0.5205264907
| 16>  H       -1.8747576129    -0.4146443756    -1.0159956595
| 17>  H        1.2546159852    -3.2419172735    -0.0639992689
| 18>  H       -0.4504543016    -3.7877328692    -0.1164041575
| 19>  H       -0.8267785481    -3.5629324837    -3.7367120116
| 20>  H       -1.6969993275    -3.4118234244    -2.1341061228
| 21>  H        0.5676028675    -1.4717462952    -3.1452067487
| 22> *
| 23>
| 24>                          ****END OF INPUT****

CARTESIAN COORDINATES (ANGSTROEM)
---------------------------------
  N      0.058824    1.140734    0.732466
  C     -0.033070    0.059616    0.107404
  C     -1.167846   -0.849859   -0.307125
  C     -0.046790   -1.706862   -0.926160
  C      0.310659   -3.172046   -0.607175
  N      0.517541   -3.497087   -2.065982
  C     -0.783894   -3.239027   -2.701505
  C      0.076515   -2.077407   -2.391205
  O      0.945781   -0.738442   -0.458061
  H      1.031134    1.443528    0.811918
  H     -1.714030   -1.306278    0.520526
  H     -1.874758   -0.414644   -1.015996
  H      1.254616   -3.241917   -0.063999
  H     -0.450454   -3.787733   -0.116404
  H     -0.826779   -3.562932   -3.736712
  H     -1.696999   -3.411823   -2.134106
  H      0.567603   -1.471746   -3.145207

 Total Charge           Charge          ....    0
 Multiplicity           Mult            ....    1
 Number of Electrons    NEL             ....   66
 Basis Dimension        Dim             ....  327

ORBITAL ENERGIES
----------------

  NO   OCC          E(Eh)            E(eV)
   0   2.0000     -20.597181      -560.4778
   1   2.0000     -15.578849      -423.9220
   2   2.0000     -15.541225      -422.8982
   3   2.0000     -11.345443      -308.7252
   4   2.0000     -11.322014      -308.0877
   5   2.0000     -11.278488      -306.9033
   6   2.0000     -11.275470      -306.8211
   7   2.0000     -11.272379      -306.7370
   8   2.0000     -11.258246      -306.3524
   9   2.0000      -1.442078       -39.2409
  10   2.0000      -1.308024       -35.5931
  11   2.0000      -1.201270       -32.6882
  12   2.0000      -1.050492       -28.5853
  13   2.0000      -1.000285       -27.2191
  14   2.0000      -0.932528       -25.3754
  15   2.0000      -0.850133       -23.1333
  16   2.0000      -0.772382       -21.0176
  17   2.0000      -0.746438       -20.3116
  18   2.0000      -0.718943       -19.5634
  19   2.0000      -0.707947       -19.2642
  20   2.0000      -0.683934       -18.6108
  21   2.0000      -0.628341       -17.0980
  22   2.0000      -0.612868       -16.6770
  23   2.0000      -0.602263       -16.3884
  24   2.0000      -0.561885       -15.2897
  25   2.0000      -0.544644       -14.8205
  26   2.0000      -0.516639       -14.0585
  27   2.0000      -0.498893       -13.5756
  28   2.0000      -0.480854       -13.0847
  29   2.0000      -0.447642       -12.1809
  30   2.0000      -0.441496       -12.0137
  31   2.0000      -0.408622       -11.1192
  32   2.0000      -0.385461       -10.4889
  33   0.0000       0.127483         3.4690
  34   0.0000       0.150495         4.0952
  35   0.0000       0.161941         4.4066
  36   0.0000       0.168609         4.5881
  37   0.0000       0.174663         4.7528

MULLIKEN ATOMIC CHARGES
-----------------------
   0 N :   -0.353353
   1 C :    0.097438
   2 C :   -0.196942
   3 C :    0.215681
   4 C :   -0.160869
   5 N :   -0.222971
   6 C :   -0.146465
   7 C :   -0.142868
   8 O :   -0.277617
   9 H :    0.231184
  10 H :    0.139497
  11 H :    0.142394
  12 H :    0.138082
  13 H :    0.125780
  14 H :    0.138174
  15 H :    0.126992
  16 H :    0.145862
Sum of atomic charges:    0.0000000

LOEWDIN ATOMIC CHARGES
----------------------
   0 N :   -0.053308
   1 C :   -0.394685
   2 C :   -0.163330
   3 C :   -0.263848
   4 C :   -0.202333
   5 N :    0.103830
   6 C :   -0.244319
   7 C :   -0.180235
   8 O :    0.251462
   9 H :    0.174255
  10 H :    0.149001
  11 H :    0.150579
  12 H :    0.141319
  13 H :    0.126759
  14 H :    0.136375
  15 H :    0.127966
  16 H :    0.140514

  Mayer bond orders larger than 0.1
B(  0-N ,  1-C ) :   2.1130 B(  0-N ,  9-H ) :   0.8452 B(  1-C ,  2-C ) :   0.9446
B(  1-C ,  8-O ) :   1.0505 B(  2-C ,  3-C ) :   0.9046 B(  2-C , 10-H ) :   0.9017
B(  2-C , 11-H ) :   0.9010 B(  3-C ,  4-C ) :   0.9599 B(  3-C ,  7-C ) :   0.9444
B(  3-C ,  8-O ) :   0.8969 B(  4-C ,  5-N ) :   0.9330 B(  4-C , 12-H ) :   0.9040
B(  4-C , 13-H ) :   0.9273 B(  5-N ,  6-C ) :   0.8883 B(  5-N ,  7-C ) :   0.9118
B(  6-C ,  7-C ) :   0.9240 B(  6-C , 14-H ) :   0.9262 B(  6-C , 15-H ) :   0.9089
B(  7-C , 16-H ) :   0.8912

MP2 TOTAL ENERGY:     -417.244343406 Eh
FINAL SINGLE POINT ENERGY      -417.244343406281

DIPOLE MOMENT
-------------
                                X             Y             Z
Electronic contribution:      2.79883       2.58925       0.93308
Nuclear contribution   :     -3.44582      -3.11644      -1.25072
                        -----------------------------------------
Total Dipole Moment    :     -0.64699      -0.52719      -0.31764
                        -----------------------------------------
Magnitude (a.u.)       :      0.89298
Magnitude (Debye)      :      2.26978

                             ****ORCA TERMINATED NORMALLY****
TOTAL RUN TIME: 0 days 0 hours 15 minutes 25 seconds 568 msec
