                         Program Version 3.0.3 - RELEASE   -
|  1> ! RI-MP2 RIJK def2-TZVP def2-TZVP/C def2-TZVP/JK TIGHTSCF
|  2> % maxcore 2000
|  3> % mp2 density relaxed end
|  4> *xyz 0 1
|  5>  C        0.0426516599     1.5101778587    -0.1547469611
|  6>  C        0.0111624136     0.0237584331     0.0966241666
|  7>  O        1.2589012811    -0.6858507582     0.0339712650
|  8>  C        0.5625331879    -0.6265419760     1.2902109716
|  9>  C        1.2823805236     0.0851838548     2.4359796754
| 10>  C        1.9128804396    -1.0639085827     3.2420874316
| 11>  C        0.9932893737    -2.2707376851     3.0148816219
| 12>  O        0.9982262277    -3.2912566319     3.6507427077
| 13>  C        0.0581007557    -1.9499609570     1.8400506939
| 14>  H        0.8498520805     1.9963693858     0.3966629239
| 15>  H        0.1889901898     1.7101839858    -1.2211698016
| 16>  H       -0.9080934315     1.9658635736     0.1428485831
| 17>  H       -0.8040752652    -0.4994297497    -0.4094130725
| 18>  H        2.0140962152     0.8035089813     2.0649607129
| 19>  H        0.5540675709     0.6279288778     3.0507859453
| 20>  H        2.8970051474    -1.3298870531     2.8353278823
| 21>  H        2.0460047826    -0.8679442685     4.3080105815
| 22>  H       -0.9622317802    -1.8609118831     2.2349498465
| 23>  H        0.0574281679    -2.7494774956     1.0958458760
| 24> *
| 25>
| 26>                          ****END OF INPUT****

CARTESIAN COORDINATES (ANGSTROEM)
---------------------------------
  C      0.042652    1.510178   -0.154747
  C      0.011162    0.023758    0.096624
  O      1.258901   -0.685851    0.033971
  C      0.562533   -0.626542    1.290211
  C      1.282381    0.085184    2.435980
  C      1.912880   -1.063909    3.242087
  C      0.993289   -2.270738    3.014882
  O      0.998226   -3.291257    3.650743
  C      0.058101   -1.949961    1.840051
  H      0.849852    1.996369    0.396663
  H      0.188990    1.710184   -1.221170
  H     -0.908093    1.965864    0.142849
  H     -0.804075   -0.499430   -0.409413
  H      2.014096    0.803509    2.064961
  H      0.554068    0.627929    3.050786
  H      2.897005   -1.329887    2.835328
  H      2.046005   -0.867944    4.308011
  H     -0.962232   -1.860912    2.234950
  H      0.057428   -2.749477    1.095846

 Total Charge           Charge          ....    0
 Multiplicity           Mult            ....    1
 Number of Electrons    NEL             ....   68
 Basis Dimension        Dim             ....  339

ORBITAL ENERGIES
----------------

  NO   OCC          E(Eh)            E(eV)
   0   2.0000     -20.568949      -559.7095
   1   2.0000     -20.547487      -559.1255
   2   2.0000     -11.333985      -308.4134
   3   2.0000     -11.301419      -307.5272
   4   2.0000     -11.295733      -307.3725
   5   2.0000     -11.245460      -306.0045
   6   2.0000     -11.243631      -305.9547
   7   2.0000     -11.242747      -305.9307
   8   2.0000     -11.234338      -305.7019
   9   2.0000      -1.415755       -38.5246
  10   2.0000      -1.392399       -37.8891
  11   2.0000      -1.123230       -30.5646
  12   2.0000      -1.020873       -27.7794
  13   2.0000      -0.998279       -27.1646
  14   2.0000      -0.932649       -25.3787
  15   2.0000      -0.856980       -23.3196
  16   2.0000      -0.772309       -21.0156
  17   2.0000      -0.746576       -20.3154
  18   2.0000      -0.693803       -18.8793
  19   2.0000      -0.660335       -17.9686
  20   2.0000      -0.658395       -17.9158
  21   2.0000      -0.619921       -16.8689
  22   2.0000      -0.602880       -16.4052
  23   2.0000      -0.589976       -16.0541
  24   2.0000      -0.581582       -15.8256
  25   2.0000      -0.569096       -15.4859
  26   2.0000      -0.551206       -14.9991
  27   2.0000      -0.536782       -14.6066
  28   2.0000      -0.506047       -13.7702
  29   2.0000      -0.499656       -13.5963
  30   2.0000      -0.487780       -13.2732
  31   2.0000      -0.445398       -12.1199
  32   2.0000      -0.437970       -11.9178
  33   2.0000      -0.397102       -10.8057
  34   0.0000       0.124091         3.3767
  35   0.0000       0.127209         3.4615
  36   0.0000       0.148665         4.0454
  37   0.0000       0.158452         4.3117
  38   0.0000       0.179280         4.8784

MULLIKEN ATOMIC CHARGES
-----------------------
   0 C :   -0.387195
   1 C :    0.068461
   2 O :   -0.345343
   3 C :    0.081511
   4 C :   -0.235661
   5 C :   -0.200657
   6 C :    0.121971
   7 O :   -0.265869
   8 C :   -0.198754
   9 H :    0.135652
  10 H :    0.144304
  11 H :    0.130891
  12 H :    0.112124
  13 H :    0.134410
  14 H :    0.123906
  15 H :    0.140057
  16 H :    0.146033
  17 H :    0.141095
  18 H :    0.153064
Sum of atomic charges:    0.0000000

LOEWDIN ATOMIC CHARGES
----------------------
   0 C :   -0.290986
   1 C :   -0.270948
   2 O :    0.172374
   3 C :   -0.296063
   4 C :   -0.209994
   5 C :   -0.218638
   6 C :   -0.306375
   7 O :    0.154622
   8 C :   -0.182983
   9 H :    0.128261
  10 H :    0.131244
  11 H :    0.130992
  12 H :    0.139686
  13 H :    0.143616
  14 H :    0.147002
  15 H :    0.160149
  16 H :    0.146457
  17 H :    0.161897
  18 H :    0.159688

  Mayer bond orders larger than 0.1
B(  0-C ,  1-C ) :   0.8825 B(  0-C ,  9-H ) :   0.9413 B(  0-C , 10-H ) :   0.9367
B(  0-C , 11-H ) :   0.9246 B(  1-C ,  2-O ) :   0.8669 B(  1-C ,  3-C ) :   0.9499
B(  1-C , 12-H ) :   0.9165 B(  2-O ,  3-C ) :   0.9031 B(  3-C ,  4-C ) :   0.8784
B(  3-C ,  8-C ) :   0.9025 B(  4-C ,  5-C ) :   0.9496 B(  4-C , 13-H ) :   0.9228
B(  4-C , 14-H ) :   0.9189 B(  5-C ,  6-C ) :   0.9192 B(  5-C ,  8-C ) :  -0.1065
B(  5-C , 15-H ) :   0.9012 B(  5-C , 16-H ) :   0.9175 B(  6-C ,  7-O ) :   2.0428
B(  6-C ,  8-C ) :   0.8933 B(  8-C , 17-H ) :   0.9000 B(  8-C , 18-H ) :   0.8960

MP2 TOTAL ENERGY:     -422.336776320 Eh
FINAL SINGLE POINT ENERGY      -422.336776320353

DIPOLE MOMENT
-------------
                                X             Y             Z
Electronic contribution:      1.34875      -7.12108       2.18644
Nuclear contribution   :     -1.89795       8.35800      -2.37320
                        -----------------------------------------
Total Dipole Moment    :     -0.54921       1.23692      -0.18675
                        -----------------------------------------
Magnitude (a.u.)       :      1.36619
Magnitude (Debye)      :      3.47258

                             ****ORCA TERMINATED NORMALLY****
TOTAL RUN TIME: 0 days 0 hours 17 minutes 3 seconds 24 msec
