                         Program Version 3.0.3 - RELEASE   -
|  1> ! RI-MP2 RIJK def2-TZVP def2-TZVP/C def2-TZVP/JK TIGHTSCF
|  2> % maxcore 2000
|  3> % mp2 density relaxed end
|  4> *xyz 0 1
|  5>  C       -0.0079840483     1.6300627008     0.0990007542
|  6>  C       -0.0039701753     0.1024450644     0.0373262398
|  7>  O        0.7111585725    -0.3261409597     1.1847265959
|  8>  C       -1.4278217411    -0.5121803503    -0.0423994782
|  9>  C       -2.1985401371     0.0533106299    -1.2482382106
| 10>  C       -1.4341947344    -2.0764887195    -0.0160932984
| 11>  C       -2.8607595397    -2.6433745167    -0.0707010396
| 12>  C       -0.5709852799    -2.7097639123    -1.1106158674
| 13>  O       -0.8348485250    -2.5403802209     1.2223315249
| 14>  H        1.0064360682     1.9687190022     0.3255782920
| 15>  H       -0.3174180570     2.0864712018    -0.8441711873
| 16>  H       -0.6670818569     1.9857339483     0.8986960298
| 17>  H        0.5379795555    -0.1950765984    -0.8787047109
| 18>  H        0.4844007402    -1.2565108608     1.3315427474
| 19>  H       -1.9550708621    -0.1976455386     0.8727883251
| 20>  H       -1.6783822794    -0.1551986339    -2.1897017950
| 21>  H       -3.2048712599    -0.3640040009    -1.3227287381
| 22>  H       -2.3066712868     1.1366825095    -1.1662801627
| 23>  H       -3.3129580314    -2.5379367685    -1.0596173216
| 24>  H       -2.8283075376    -3.7080829860     0.1766558806
| 25>  H       -3.5148760763    -2.1421424144     0.6531004754
| 26>  H        0.4802508459    -2.4384855893    -0.9899578280
| 27>  H       -0.6451647722    -3.7992635911    -1.0548547629
| 28>  H       -0.9000597948    -2.3935323329    -2.1036303288
| 29>  H       -1.3887860871    -2.2306616624     1.9488606445
| 30> *
| 31>
| 32>                          ****END OF INPUT****

CARTESIAN COORDINATES (ANGSTROEM)
---------------------------------
  C     -0.007984    1.630063    0.099001
  C     -0.003970    0.102445    0.037326
  O      0.711159   -0.326141    1.184727
  C     -1.427822   -0.512180   -0.042399
  C     -2.198540    0.053311   -1.248238
  C     -1.434195   -2.076489   -0.016093
  C     -2.860760   -2.643375   -0.070701
  C     -0.570985   -2.709764   -1.110616
  O     -0.834849   -2.540380    1.222332
  H      1.006436    1.968719    0.325578
  H     -0.317418    2.086471   -0.844171
  H     -0.667082    1.985734    0.898696
  H      0.537980   -0.195077   -0.878705
  H      0.484401   -1.256511    1.331543
  H     -1.955071   -0.197646    0.872788
  H     -1.678382   -0.155199   -2.189702
  H     -3.204871   -0.364004   -1.322729
  H     -2.306671    1.136683   -1.166280
  H     -3.312958   -2.537937   -1.059617
  H     -2.828308   -3.708083    0.176656
  H     -3.514876   -2.142142    0.653100
  H      0.480251   -2.438486   -0.989958
  H     -0.645165   -3.799264   -1.054855
  H     -0.900060   -2.393532   -2.103630
  H     -1.388786   -2.230662    1.948861

 Total Charge           Charge          ....    0
 Multiplicity           Mult            ....    1
 Number of Electrons    NEL             ....   74
 Basis Dimension        Dim             ....  375

ORBITAL ENERGIES
----------------

  NO   OCC          E(Eh)            E(eV)
   0   2.0000     -20.567621      -559.6734
   1   2.0000     -20.527287      -558.5759
   2   2.0000     -11.298879      -307.4581
   3   2.0000     -11.271612      -306.7162
   4   2.0000     -11.235846      -305.7429
   5   2.0000     -11.224489      -305.4339
   6   2.0000     -11.222455      -305.3785
   7   2.0000     -11.218954      -305.2833
   8   2.0000     -11.205548      -304.9185
   9   2.0000      -1.376896       -37.4672
  10   2.0000      -1.337037       -36.3826
  11   2.0000      -1.096128       -29.8272
  12   2.0000      -1.025513       -27.9056
  13   2.0000      -0.971939       -26.4478
  14   2.0000      -0.948518       -25.8105
  15   2.0000      -0.886723       -24.1290
  16   2.0000      -0.807969       -21.9860
  17   2.0000      -0.763945       -20.7880
  18   2.0000      -0.700512       -19.0619
  19   2.0000      -0.683177       -18.5902
  20   2.0000      -0.636615       -17.3232
  21   2.0000      -0.623751       -16.9731
  22   2.0000      -0.607707       -16.5366
  23   2.0000      -0.585338       -15.9279
  24   2.0000      -0.559576       -15.2268
  25   2.0000      -0.556310       -15.1380
  26   2.0000      -0.547426       -14.8962
  27   2.0000      -0.540932       -14.7195
  28   2.0000      -0.534098       -14.5335
  29   2.0000      -0.526117       -14.3164
  30   2.0000      -0.517709       -14.0876
  31   2.0000      -0.507627       -13.8132
  32   2.0000      -0.496045       -13.4981
  33   2.0000      -0.482729       -13.1357
  34   2.0000      -0.463880       -12.6228
  35   2.0000      -0.425343       -11.5742
  36   2.0000      -0.411267       -11.1911
  37   0.0000       0.123565         3.3624
  38   0.0000       0.146297         3.9809
  39   0.0000       0.161077         4.3831
  40   0.0000       0.171297         4.6612
  41   0.0000       0.184647         5.0245

MULLIKEN ATOMIC CHARGES
-----------------------
   0 C :   -0.415044
   1 C :    0.127650
   2 O :   -0.489234
   3 C :   -0.109503
   4 C :   -0.475649
   5 C :    0.235608
   6 C :   -0.437158
   7 C :   -0.430058
   8 O :   -0.495550
   9 H :    0.147536
  10 H :    0.126578
  11 H :    0.119944
  12 H :    0.078598
  13 H :    0.332390
  14 H :    0.084182
  15 H :    0.134493
  16 H :    0.143628
  17 H :    0.150952
  18 H :    0.137708
  19 H :    0.152067
  20 H :    0.130078
  21 H :    0.153948
  22 H :    0.141509
  23 H :    0.134289
  24 H :    0.321038
Sum of atomic charges:   -0.0000000

LOEWDIN ATOMIC CHARGES
----------------------
   0 C :   -0.295731
   1 C :   -0.360136
   2 O :   -0.026799
   3 C :   -0.239449
   4 C :   -0.284421
   5 C :   -0.386575
   6 C :   -0.282817
   7 C :   -0.267219
   8 O :   -0.003645
   9 H :    0.130076
  10 H :    0.119640
  11 H :    0.123454
  12 H :    0.133296
  13 H :    0.158944
  14 H :    0.154278
  15 H :    0.125666
  16 H :    0.124836
  17 H :    0.127506
  18 H :    0.127392
  19 H :    0.130500
  20 H :    0.124853
  21 H :    0.130980
  22 H :    0.131195
  23 H :    0.128673
  24 H :    0.175502

  Mayer bond orders larger than 0.1
B(  0-C ,  1-C ) :   0.8950 B(  0-C ,  9-H ) :   0.9383 B(  0-C , 10-H ) :   0.9394
B(  0-C , 11-H ) :   0.9374 B(  1-C ,  2-O ) :   0.9528 B(  1-C ,  3-C ) :   0.9089
B(  1-C , 12-H ) :   0.9345 B(  2-O , 13-H ) :   0.7990 B(  3-C ,  4-C ) :   0.8838
B(  3-C ,  5-C ) :   0.9196 B(  3-C , 14-H ) :   0.9106 B(  4-C , 15-H ) :   0.9301
B(  4-C , 16-H ) :   0.9397 B(  4-C , 17-H ) :   0.9403 B(  5-C ,  6-C ) :   0.9185
B(  5-C ,  7-C ) :   0.8950 B(  5-C ,  8-O ) :   0.8150 B(  6-C , 18-H ) :   0.9342
B(  6-C , 19-H ) :   0.9396 B(  6-C , 20-H ) :   0.9245 B(  7-C , 21-H ) :   0.9314
B(  7-C , 22-H ) :   0.9349 B(  7-C , 23-H ) :   0.9360 B(  8-O , 24-H ) :   0.8368

MP2 TOTAL ENERGY:     -425.947299667 Eh
FINAL SINGLE POINT ENERGY      -425.947299666902

DIPOLE MOMENT
-------------
                                X             Y             Z
Electronic contribution:      3.74248      -2.04099       5.12527
Nuclear contribution   :     -4.79935       1.85968      -5.58100
                        -----------------------------------------
Total Dipole Moment    :     -1.05687      -0.18131      -0.45573
                        -----------------------------------------
Magnitude (a.u.)       :      1.16514
Magnitude (Debye)      :      2.96154

                             ****ORCA TERMINATED NORMALLY****
TOTAL RUN TIME: 0 days 0 hours 23 minutes 41 seconds 689 msec
