                         Program Version 3.0.3 - RELEASE   -
|  1> ! RI-MP2 RIJK def2-TZVP def2-TZVP/C def2-TZVP/JK TIGHTSCF
|  2> % maxcore 2000
|  3> % mp2 density relaxed end
|  4> *xyz 0 1
|  5>  O       -0.0339503980     1.4879401949     0.0210916103
|  6>  C        0.0360193955     0.0926134925     0.0969750280
|  7>  C        0.6643650161    -0.4821685870    -1.1566456536
|  8>  O        1.0230587414     0.2371632368    -2.0597504767
|  9>  C        0.8414262806    -0.3330059446     1.3348738656
| 10>  C        0.1615853519    -0.1320325562     2.7039997616
| 11>  C        0.2356794006    -1.6706424365     2.8027411987
| 12>  O        0.8471105946    -1.7676854759     1.4938152261
| 13>  H        0.3493509541     1.7178465666    -0.8414707595
| 14>  H       -0.9709197348    -0.3535106201     0.1870232016
| 15>  H        0.7812551092    -1.5805626801    -1.1910778519
| 16>  H        1.8573769535     0.0754751826     1.2581272614
| 17>  H        0.7470880413     0.4181528534     3.4404734966
| 18>  H       -0.8428230416     0.2908611183     2.6542657686
| 19>  H        0.8950011500    -2.0639777286     3.5849319248
| 20>  H       -0.7216231145    -2.2024678662     2.8441118883
| 21> *
| 22>
| 23>                          ****END OF INPUT****

CARTESIAN COORDINATES (ANGSTROEM)
---------------------------------
  O     -0.033950    1.487940    0.021092
  C      0.036019    0.092613    0.096975
  C      0.664365   -0.482169   -1.156646
  O      1.023059    0.237163   -2.059750
  C      0.841426   -0.333006    1.334874
  C      0.161585   -0.132033    2.704000
  C      0.235679   -1.670642    2.802741
  O      0.847111   -1.767685    1.493815
  H      0.349351    1.717847   -0.841471
  H     -0.970920   -0.353511    0.187023
  H      0.781255   -1.580563   -1.191078
  H      1.857377    0.075475    1.258127
  H      0.747088    0.418153    3.440473
  H     -0.842823    0.290861    2.654266
  H      0.895001   -2.063978    3.584932
  H     -0.721623   -2.202468    2.844112

 Total Charge           Charge          ....    0
 Multiplicity           Mult            ....    1
 Number of Electrons    NEL             ....   62
 Basis Dimension        Dim             ....  296

ORBITAL ENERGIES
----------------

  NO   OCC          E(Eh)            E(eV)
   0   2.0000     -20.577019      -559.9291
   1   2.0000     -20.566487      -559.6426
   2   2.0000     -20.564592      -559.5910
   3   2.0000     -11.344680      -308.7044
   4   2.0000     -11.302040      -307.5442
   5   2.0000     -11.301184      -307.5208
   6   2.0000     -11.292615      -307.2877
   7   2.0000     -11.242269      -305.9177
   8   2.0000      -1.424224       -38.7551
   9   2.0000      -1.395852       -37.9831
  10   2.0000      -1.370514       -37.2936
  11   2.0000      -1.045631       -28.4531
  12   2.0000      -1.014686       -27.6110
  13   2.0000      -0.915188       -24.9035
  14   2.0000      -0.815302       -22.1855
  15   2.0000      -0.777049       -21.1446
  16   2.0000      -0.735095       -20.0030
  17   2.0000      -0.704919       -19.1818
  18   2.0000      -0.688635       -18.7387
  19   2.0000      -0.671876       -18.2827
  20   2.0000      -0.626559       -17.0495
  21   2.0000      -0.601689       -16.3728
  22   2.0000      -0.588816       -16.0225
  23   2.0000      -0.555329       -15.1113
  24   2.0000      -0.551589       -15.0095
  25   2.0000      -0.537205       -14.6181
  26   2.0000      -0.498401       -13.5622
  27   2.0000      -0.481279       -13.0963
  28   2.0000      -0.469349       -12.7716
  29   2.0000      -0.435155       -11.8412
  30   2.0000      -0.420681       -11.4473
  31   0.0000       0.114686         3.1208
  32   0.0000       0.139850         3.8055
  33   0.0000       0.155736         4.2378
  34   0.0000       0.165731         4.5098
  35   0.0000       0.174600         4.7511

MULLIKEN ATOMIC CHARGES
-----------------------
   0 O :   -0.480066
   1 C :    0.045588
   2 C :    0.104637
   3 O :   -0.297925
   4 C :    0.159193
   5 C :   -0.301810
   6 C :   -0.019512
   7 O :   -0.350423
   8 H :    0.337383
   9 H :    0.098824
  10 H :    0.125664
  11 H :    0.093676
  12 H :    0.135891
  13 H :    0.141080
  14 H :    0.104631
  15 H :    0.103169
Sum of atomic charges:   -0.0000000

LOEWDIN ATOMIC CHARGES
----------------------
   0 O :    0.003737
   1 C :   -0.358185
   2 C :   -0.260944
   3 O :    0.125008
   4 C :   -0.264154
   5 C :   -0.221015
   6 C :   -0.264440
   7 O :    0.128753
   8 H :    0.185023
   9 H :    0.153927
  10 H :    0.127302
  11 H :    0.139092
  12 H :    0.133545
  13 H :    0.137684
  14 H :    0.117913
  15 H :    0.116754

  Mayer bond orders larger than 0.1
B(  0-O ,  1-C ) :   1.0837 B(  0-O ,  8-H ) :   0.8001 B(  1-C ,  2-C ) :   0.8969
B(  1-C ,  4-C ) :   0.8774 B(  1-C ,  9-H ) :   0.9152 B(  2-C ,  3-O ) :   1.9000
B(  2-C , 10-H ) :   0.9267 B(  4-C ,  5-C ) :   0.9052 B(  4-C ,  7-O ) :   0.9096
B(  4-C , 11-H ) :   0.8958 B(  5-C ,  6-C ) :   0.9757 B(  5-C , 12-H ) :   0.9314
B(  5-C , 13-H ) :   0.9302 B(  6-C ,  7-O ) :   0.9327 B(  6-C , 14-H ) :   0.9206
B(  6-C , 15-H ) :   0.9173

MP2 TOTAL ENERGY:     -420.195321682 Eh
FINAL SINGLE POINT ENERGY      -420.195321681733

DIPOLE MOMENT
-------------
                                X             Y             Z
Electronic contribution:      1.29486       0.84885      -5.62612
Nuclear contribution   :     -1.56935      -1.21143       6.45945
                        -----------------------------------------
Total Dipole Moment    :     -0.27449      -0.36258       0.83334
                        -----------------------------------------
Magnitude (a.u.)       :      0.94935
Magnitude (Debye)      :      2.41305

                             ****ORCA TERMINATED NORMALLY****
TOTAL RUN TIME: 0 days 0 hours 11 minutes 58 seconds 316 msec
