                         Program Version 3.0.3 - RELEASE   -
|  1> ! RI-MP2 RIJK def2-TZVP def2-TZVP/C def2-TZVP/JK TIGHTSCF
|  2> % maxcore 2000
|  3> % mp2 density relaxed end
|  4> *xyz 0 1
|  5>  C        0.0009012397     1.3057238026     0.0095205282
|  6>  C        1.2788195169     1.8147593502    -0.0001238955
|  7>  N        2.0966892993     0.7085314883    -0.0140680546
|  8>  C        3.4402934190     0.5149530761    -0.0281672717
|  9>  N        3.9610401735    -0.6754391950    -0.0396785414
| 10>  C        3.0829136874    -1.7247885269    -0.0368374417
| 11>  N        1.7747905353    -1.6613579452    -0.0237889934
| 12>  C        1.2399464189    -0.4295785398    -0.0119154660
| 13>  N       -0.0238508289    -0.0614658047     0.0023457941
| 14>  H       -0.9168606318     1.8756062898     0.0215208484
| 15>  H        1.6678484341     2.8190734621     0.0015449473
| 16>  H        4.0717994166     1.3995760904    -0.0295051340
| 17>  H        3.5357169199    -2.7115459481    -0.0465862932
| 18> *
| 19>
| 20>                          ****END OF INPUT****

CARTESIAN COORDINATES (ANGSTROEM)
---------------------------------
  C      0.000901    1.305724    0.009521
  C      1.278820    1.814759   -0.000124
  N      2.096689    0.708531   -0.014068
  C      3.440293    0.514953   -0.028167
  N      3.961040   -0.675439   -0.039679
  C      3.082914   -1.724789   -0.036837
  N      1.774791   -1.661358   -0.023789
  C      1.239946   -0.429579   -0.011915
  N     -0.023851   -0.061466    0.002346
  H     -0.916861    1.875606    0.021521
  H      1.667848    2.819073    0.001545
  H      4.071799    1.399576   -0.029505
  H      3.535717   -2.711546   -0.046586

 Total Charge           Charge          ....    0
 Multiplicity           Mult            ....    1
 Number of Electrons    NEL             ....   62
 Basis Dimension        Dim             ....  303

ORBITAL ENERGIES
----------------

  NO   OCC          E(Eh)            E(eV)
   0   2.0000     -15.669378      -426.3855
   1   2.0000     -15.591540      -424.2674
   2   2.0000     -15.585063      -424.0911
   3   2.0000     -15.555424      -423.2846
   4   2.0000     -11.373509      -309.4889
   5   2.0000     -11.353143      -308.9347
   6   2.0000     -11.338514      -308.5367
   7   2.0000     -11.278150      -306.8941
   8   2.0000     -11.276461      -306.8481
   9   2.0000      -1.408789       -38.3351
  10   2.0000      -1.299716       -35.3671
  11   2.0000      -1.252102       -34.0714
  12   2.0000      -1.184476       -32.2312
  13   2.0000      -1.040662       -28.3179
  14   2.0000      -0.939349       -25.5610
  15   2.0000      -0.904043       -24.6002
  16   2.0000      -0.845791       -23.0151
  17   2.0000      -0.784277       -21.3413
  18   2.0000      -0.720208       -19.5979
  19   2.0000      -0.698351       -19.0031
  20   2.0000      -0.670448       -18.2438
  21   2.0000      -0.641981       -17.4692
  22   2.0000      -0.633232       -17.2311
  23   2.0000      -0.592535       -16.1237
  24   2.0000      -0.537269       -14.6198
  25   2.0000      -0.507640       -13.8136
  26   2.0000      -0.503522       -13.7015
  27   2.0000      -0.461005       -12.5446
  28   2.0000      -0.436438       -11.8761
  29   2.0000      -0.391446       -10.6518
  30   2.0000      -0.321893        -8.7591
  31   0.0000       0.065762         1.7895
  32   0.0000       0.111236         3.0269
  33   0.0000       0.134893         3.6706
  34   0.0000       0.163814         4.4576
  35   0.0000       0.176547         4.8041

MULLIKEN ATOMIC CHARGES
-----------------------
   0 C :   -0.079649
   1 C :   -0.126933
   2 N :   -0.001425
   3 C :    0.047114
   4 N :   -0.252700
   5 C :    0.053095
   6 N :   -0.200600
   7 C :    0.179394
   8 N :   -0.236165
   9 H :    0.147165
  10 H :    0.164121
  11 H :    0.159634
  12 H :    0.146949
Sum of atomic charges:   -0.0000000

LOEWDIN ATOMIC CHARGES
----------------------
   0 C :   -0.228107
   1 C :   -0.203641
   2 N :    0.300047
   3 C :   -0.226129
   4 N :    0.114356
   5 C :   -0.283125
   6 N :    0.172193
   7 C :   -0.339761
   8 N :    0.130351
   9 H :    0.139495
  10 H :    0.141418
  11 H :    0.144926
  12 H :    0.137978

  Mayer bond orders larger than 0.1
B(  0-C ,  1-C ) :   1.4566 B(  0-C ,  8-N ) :   1.2814 B(  0-C ,  9-H ) :   0.9375
B(  1-C ,  2-N ) :   1.1142 B(  1-C , 10-H ) :   0.9027 B(  2-N ,  3-C ) :   1.1216
B(  2-N ,  7-C ) :   0.9764 B(  3-C ,  4-N ) :   1.5979 B(  3-C , 11-H ) :   0.9218
B(  4-N ,  5-C ) :   1.1759 B(  5-C ,  6-N ) :   1.5172 B(  5-C , 12-H ) :   0.9387
B(  6-N ,  7-C ) :   1.2819 B(  7-C ,  8-N ) :   1.5626

MP2 TOTAL ENERGY:     -411.137502606 Eh
FINAL SINGLE POINT ENERGY      -411.137502606034

DIPOLE MOMENT
-------------
                                X             Y             Z
Electronic contribution:     -0.00938      -1.77593      -0.00953
Nuclear contribution   :      0.76943       3.24187       0.01010
                        -----------------------------------------
Total Dipole Moment    :      0.76005       1.46594       0.00057
                        -----------------------------------------
Magnitude (a.u.)       :      1.65126
Magnitude (Debye)      :      4.19717

                             ****ORCA TERMINATED NORMALLY****
TOTAL RUN TIME: 0 days 0 hours 15 minutes 32 seconds 287 msec
