                         Program Version 3.0.3 - RELEASE   -
|  1> ! RI-MP2 RIJK def2-TZVP def2-TZVP/C def2-TZVP/JK TIGHTSCF
|  2> % maxcore 2000
|  3> % mp2 density relaxed end
|  4> *xyz 0 1
|  5>  C        0.0976669588     1.4513824204     0.0431611513
|  6>  N        0.0110010010    -0.0115760756     0.0075635420
|  7>  C       -0.0994175137    -0.6267549333    -1.2124012270
|  8>  O       -0.1344935943    -0.0939568983    -2.2825099192
|  9>  O       -0.1763662695    -2.0182643070    -1.1588562589
| 10>  C       -0.1391307315    -2.6411923402     0.0381033066
| 11>  N       -0.0378633604    -2.1023974173     1.1805628168
| 12>  C        0.0466914206    -0.7037959571     1.2356959311
| 13>  N        0.1516887699    -0.0349087419     2.3103859006
| 14>  H        1.0312301526     1.7494746155     0.5239680491
| 15>  H        0.0557639093     1.8142762728    -0.9808032484
| 16>  H       -0.7299549348     1.8511970046     0.6320410767
| 17>  H       -0.2091348472    -3.7181769595    -0.0842486424
| 18>  H        0.1626081389    -0.6819097930     3.0972463916
| 19> *
| 20>
| 21>                          ****END OF INPUT****

CARTESIAN COORDINATES (ANGSTROEM)
---------------------------------
  C      0.097667    1.451382    0.043161
  N      0.011001   -0.011576    0.007564
  C     -0.099418   -0.626755   -1.212401
  O     -0.134494   -0.093957   -2.282510
  O     -0.176366   -2.018264   -1.158856
  C     -0.139131   -2.641192    0.038103
  N     -0.037863   -2.102397    1.180563
  C      0.046691   -0.703796    1.235696
  N      0.151689   -0.034909    2.310386
  H      1.031230    1.749475    0.523968
  H      0.055764    1.814276   -0.980803
  H     -0.729955    1.851197    0.632041
  H     -0.209135   -3.718177   -0.084249
  H      0.162608   -0.681910    3.097246

 Total Charge           Charge          ....    0
 Multiplicity           Mult            ....    1
 Number of Electrons    NEL             ....   66
 Basis Dimension        Dim             ....  309

ORBITAL ENERGIES
----------------

  NO   OCC          E(Eh)            E(eV)
   0   2.0000     -20.666421      -562.3619
   1   2.0000     -20.561043      -559.4944
   2   2.0000     -15.639323      -425.5676
   3   2.0000     -15.601056      -424.5263
   4   2.0000     -15.550504      -423.1507
   5   2.0000     -11.445547      -311.4492
   6   2.0000     -11.399792      -310.2041
   7   2.0000     -11.374213      -309.5081
   8   2.0000     -11.271649      -306.7172
   9   2.0000      -1.527213       -41.5576
  10   2.0000      -1.416432       -38.5431
  11   2.0000      -1.342748       -36.5380
  12   2.0000      -1.258445       -34.2440
  13   2.0000      -1.193889       -32.4874
  14   2.0000      -1.008150       -27.4332
  15   2.0000      -0.931209       -25.3395
  16   2.0000      -0.908007       -24.7081
  17   2.0000      -0.821427       -22.3522
  18   2.0000      -0.747942       -20.3525
  19   2.0000      -0.720722       -19.6118
  20   2.0000      -0.700257       -19.0549
  21   2.0000      -0.678968       -18.4756
  22   2.0000      -0.661732       -18.0066
  23   2.0000      -0.633934       -17.2502
  24   2.0000      -0.609341       -16.5810
  25   2.0000      -0.577524       -15.7152
  26   2.0000      -0.572372       -15.5750
  27   2.0000      -0.540572       -14.7097
  28   2.0000      -0.500115       -13.6088
  29   2.0000      -0.483320       -13.1518
  30   2.0000      -0.464273       -12.6335
  31   2.0000      -0.442602       -12.0438
  32   2.0000      -0.390932       -10.6378
  33   0.0000       0.088962         2.4208
  34   0.0000       0.139795         3.8040
  35   0.0000       0.156883         4.2690
  36   0.0000       0.159324         4.3354
  37   0.0000       0.175359         4.7718

MULLIKEN ATOMIC CHARGES
-----------------------
   0 C :   -0.296318
   1 N :   -0.094195
   2 C :    0.322816
   3 O :   -0.300643
   4 O :   -0.190787
   5 C :    0.124498
   6 N :   -0.267314
   7 C :    0.193842
   8 N :   -0.387690
   9 H :    0.155997
  10 H :    0.182783
  11 H :    0.155965
  12 H :    0.164335
  13 H :    0.236710
Sum of atomic charges:   -0.0000000

LOEWDIN ATOMIC CHARGES
----------------------
   0 C :   -0.253236
   1 N :    0.216630
   2 C :   -0.505270
   3 O :    0.137316
   4 O :    0.307677
   5 C :   -0.289071
   6 N :    0.120276
   7 C :   -0.402039
   8 N :   -0.042717
   9 H :    0.128814
  10 H :    0.134060
  11 H :    0.128810
  12 H :    0.143925
  13 H :    0.174825

  Mayer bond orders larger than 0.1
B(  0-C ,  1-N ) :   0.8399 B(  0-C ,  9-H ) :   0.9299 B(  0-C , 10-H ) :   0.9150
B(  0-C , 11-H ) :   0.9299 B(  1-N ,  2-C ) :   1.1449 B(  1-N ,  7-C ) :   1.0142
B(  2-C ,  3-O ) :   1.9943 B(  2-C ,  4-O ) :   0.9694 B(  4-O ,  5-C ) :   1.0499
B(  5-C ,  6-N ) :   1.7520 B(  5-C , 12-H ) :   0.9230 B(  6-N ,  7-C ) :   1.0518
B(  7-C ,  8-N ) :   1.9279 B(  8-N , 13-H ) :   0.8537

MP2 TOTAL ENERGY:     -469.313476404 Eh
FINAL SINGLE POINT ENERGY      -469.313476404478

DIPOLE MOMENT
-------------
                                X             Y             Z
Electronic contribution:     -0.44003      -4.82271      -2.63134
Nuclear contribution   :      0.43810       4.38034       3.01855
                        -----------------------------------------
Total Dipole Moment    :     -0.00194      -0.44237       0.38720
                        -----------------------------------------
Magnitude (a.u.)       :      0.58790
Magnitude (Debye)      :      1.49432

                             ****ORCA TERMINATED NORMALLY****
TOTAL RUN TIME: 0 days 0 hours 14 minutes 3 seconds 668 msec
