                         Program Version 3.0.3 - RELEASE   -
|  1> ! RI-MP2 RIJK def2-TZVP def2-TZVP/C def2-TZVP/JK TIGHTSCF
|  2> % maxcore 2000
|  3> % mp2 density relaxed end
|  4> *xyz 0 1
|  5>  C        0.2528339270     1.5568300260     0.0804518230
|  6>  C       -0.2454583997     0.1346108110    -0.1537777536
|  7>  N        0.5432489605    -0.4897977646    -1.2246187480
|  8>  C        1.7400841036    -1.2062813738    -0.8698992820
|  9>  C        0.5154325413    -1.9581781544    -1.3551957638
| 10>  C       -0.1955828367    -2.7642650970    -0.3839985994
| 11>  N       -0.7781679110    -3.3897541178     0.3940256018
| 12>  C        0.4669427052    -2.4616399321    -2.7125664738
| 13>  N        0.4497551017    -2.8638560769    -3.7950684292
| 14>  H        1.2932103258     1.5605317228     0.4210175273
| 15>  H        0.1916697227     2.1449331847    -0.8387572612
| 16>  H       -0.3546767606     2.0434731129     0.8483976227
| 17>  H       -0.2019241722    -0.4475341057     0.7790376471
| 18>  H       -1.2881045846     0.1429031131    -0.4861645253
| 19>  H        2.5836138879    -1.1142052343    -1.5471482102
| 20>  H        1.9833806690    -1.3411698639     0.1833548045
| 21> *
| 22>
| 23>                          ****END OF INPUT****

CARTESIAN COORDINATES (ANGSTROEM)
---------------------------------
  C      0.252834    1.556830    0.080452
  C     -0.245458    0.134611   -0.153778
  N      0.543249   -0.489798   -1.224619
  C      1.740084   -1.206281   -0.869899
  C      0.515433   -1.958178   -1.355196
  C     -0.195583   -2.764265   -0.383999
  N     -0.778168   -3.389754    0.394026
  C      0.466943   -2.461640   -2.712566
  N      0.449755   -2.863856   -3.795068
  H      1.293210    1.560532    0.421018
  H      0.191670    2.144933   -0.838757
  H     -0.354677    2.043473    0.848398
  H     -0.201924   -0.447534    0.779038
  H     -1.288105    0.142903   -0.486165
  H      2.583614   -1.114205   -1.547148
  H      1.983381   -1.341170    0.183355

 Total Charge           Charge          ....    0
 Multiplicity           Mult            ....    1
 Number of Electrons    NEL             ....   64
 Basis Dimension        Dim             ....  321

ORBITAL ENERGIES
----------------

  NO   OCC          E(Eh)            E(eV)
   0   2.0000     -15.628519      -425.2736
   1   2.0000     -15.603918      -424.6042
   2   2.0000     -15.596109      -424.3917
   3   2.0000     -11.375275      -309.5370
   4   2.0000     -11.325280      -308.1765
   5   2.0000     -11.306464      -307.6645
   6   2.0000     -11.298522      -307.4484
   7   2.0000     -11.290803      -307.2384
   8   2.0000     -11.242556      -305.9255
   9   2.0000      -1.352501       -36.8034
  10   2.0000      -1.246209       -33.9111
  11   2.0000      -1.237879       -33.6844
  12   2.0000      -1.092695       -29.7338
  13   2.0000      -1.003584       -27.3089
  14   2.0000      -0.941367       -25.6159
  15   2.0000      -0.861286       -23.4368
  16   2.0000      -0.813868       -22.1465
  17   2.0000      -0.732376       -19.9290
  18   2.0000      -0.674288       -18.3483
  19   2.0000      -0.641940       -17.4681
  20   2.0000      -0.620194       -16.8763
  21   2.0000      -0.592666       -16.1273
  22   2.0000      -0.580224       -15.7887
  23   2.0000      -0.577897       -15.7254
  24   2.0000      -0.556184       -15.1345
  25   2.0000      -0.543331       -14.7848
  26   2.0000      -0.525971       -14.3124
  27   2.0000      -0.504278       -13.7221
  28   2.0000      -0.494319       -13.4511
  29   2.0000      -0.485122       -13.2008
  30   2.0000      -0.468342       -12.7442
  31   2.0000      -0.421382       -11.4664
  32   0.0000       0.110397         3.0041
  33   0.0000       0.117731         3.2036
  34   0.0000       0.128195         3.4884
  35   0.0000       0.138393         3.7659
  36   0.0000       0.159367         4.3366

MULLIKEN ATOMIC CHARGES
-----------------------
   0 C :   -0.388727
   1 C :   -0.143295
   2 N :   -0.197890
   3 C :   -0.162716
   4 C :    0.324291
   5 C :   -0.152167
   6 N :   -0.031354
   7 C :   -0.211788
   8 N :   -0.038288
   9 H :    0.129353
  10 H :    0.145286
  11 H :    0.142980
  12 H :    0.123532
  13 H :    0.141462
  14 H :    0.166203
  15 H :    0.153118
Sum of atomic charges:   -0.0000000

LOEWDIN ATOMIC CHARGES
----------------------
   0 C :   -0.307322
   1 C :   -0.296431
   2 N :    0.171712
   3 C :   -0.166995
   4 C :   -0.262574
   5 C :   -0.142863
   6 N :    0.096238
   7 C :   -0.126379
   8 N :    0.096857
   9 H :    0.123368
  10 H :    0.128839
  11 H :    0.129387
  12 H :    0.132053
  13 H :    0.141669
  14 H :    0.141887
  15 H :    0.140553

  Mayer bond orders larger than 0.1
B(  0-C ,  1-C ) :   0.9267 B(  0-C ,  9-H ) :   0.9343 B(  0-C , 10-H ) :   0.9335
B(  0-C , 11-H ) :   0.9355 B(  1-C ,  2-N ) :   0.8493 B(  1-C , 12-H ) :   0.9230
B(  1-C , 13-H ) :   0.9258 B(  2-N ,  3-C ) :   0.9312 B(  2-N ,  4-C ) :   0.7967
B(  3-C ,  4-C ) :   0.8563 B(  3-C , 14-H ) :   0.9066 B(  3-C , 15-H ) :   0.9103
B(  4-C ,  5-C ) :   0.9721 B(  4-C ,  7-C ) :   0.9216 B(  5-C ,  6-N ) :   2.8063
B(  7-C ,  8-N ) :   2.8286

MP2 TOTAL ENERGY:     -396.222085885 Eh
FINAL SINGLE POINT ENERGY      -396.222085884592

DIPOLE MOMENT
-------------
                                X             Y             Z
Electronic contribution:     -1.11772     -10.67557      -5.45551
Nuclear contribution   :      1.89997      12.10941       6.45179
                        -----------------------------------------
Total Dipole Moment    :      0.78225       1.43384       0.99628
                        -----------------------------------------
Magnitude (a.u.)       :      1.91322
Magnitude (Debye)      :      4.86301

                             ****ORCA TERMINATED NORMALLY****
TOTAL RUN TIME: 0 days 0 hours 22 minutes 55 seconds 17 msec
