                         Program Version 3.0.3 - RELEASE   -
|  1> ! RI-MP2 RIJK def2-TZVP def2-TZVP/C def2-TZVP/JK TIGHTSCF
|  2> % maxcore 2000
|  3> % mp2 density relaxed end
|  4> *xyz 0 1
|  5>  C       -0.1536698980     1.4009868323     0.0392879234
|  6>  O        0.0148124633    -0.0031452936     0.0448838317
|  7>  C        0.6983381543    -0.5574631686     1.1799869563
|  8>  C        2.0852151279     0.0353394485     1.3698372060
|  9>  C       -0.2729176875    -0.6427965615     2.3986755090
| 10>  C       -0.7637341440    -2.0157103278     1.8544928419
| 11>  O       -1.9279287355    -1.9369331125     1.0621467343
| 12>  C        0.5692951929    -2.1080447594     1.0446710935
| 13>  C        0.5873023881    -2.7695093595    -0.3231575209
| 14>  H        0.7943407741     1.9296528916    -0.1231834224
| 15>  H       -0.8265217123     1.6338576544    -0.7898484714
| 16>  H       -0.6035953237     1.7709262240     0.9712949568
| 17>  H        2.0490261145     1.0911039979     1.6569102217
| 18>  H        2.6144405154    -0.5007834617     2.1628568403
| 19>  H        2.6711506133    -0.0491198441     0.4482179227
| 20>  H        0.2655509962    -0.7348566511     3.3462853237
| 21>  H       -1.0333569614     0.1364953450     2.4927450015
| 22>  H       -0.9479242469    -2.8042148774     2.5881908259
| 23>  H       -1.7641219242    -1.2430631414     0.4099925064
| 24>  H        1.3313775931    -2.5576850611     1.6917589560
| 25>  H       -0.1877677815    -2.3628857093    -0.9747948589
| 26>  H        1.5532567323    -2.6256203059    -0.8187904352
| 27>  H        0.4163650397    -3.8468066888    -0.2274908123
| 28> *
| 29>
| 30>                          ****END OF INPUT****

CARTESIAN COORDINATES (ANGSTROEM)
---------------------------------
  C     -0.153670    1.400987    0.039288
  O      0.014812   -0.003145    0.044884
  C      0.698338   -0.557463    1.179987
  C      2.085215    0.035339    1.369837
  C     -0.272918   -0.642797    2.398676
  C     -0.763734   -2.015710    1.854493
  O     -1.927929   -1.936933    1.062147
  C      0.569295   -2.108045    1.044671
  C      0.587302   -2.769509   -0.323158
  H      0.794341    1.929653   -0.123183
  H     -0.826522    1.633858   -0.789848
  H     -0.603595    1.770926    0.971295
  H      2.049026    1.091104    1.656910
  H      2.614441   -0.500783    2.162857
  H      2.671151   -0.049120    0.448218
  H      0.265551   -0.734857    3.346285
  H     -1.033357    0.136495    2.492745
  H     -0.947924   -2.804215    2.588191
  H     -1.764122   -1.243063    0.409993
  H      1.331378   -2.557685    1.691759
  H     -0.187768   -2.362886   -0.974795
  H      1.553257   -2.625620   -0.818790
  H      0.416365   -3.846807   -0.227491

 Total Charge           Charge          ....    0
 Multiplicity           Mult            ....    1
 Number of Electrons    NEL             ....   72
 Basis Dimension        Dim             ....  363

ORBITAL ENERGIES
----------------

  NO   OCC          E(Eh)            E(eV)
   0   2.0000     -20.562171      -559.5251
   1   2.0000     -20.540265      -558.9290
   2   2.0000     -11.289030      -307.1901
   3   2.0000     -11.276025      -306.8362
   4   2.0000     -11.272254      -306.7336
   5   2.0000     -11.223561      -305.4086
   6   2.0000     -11.221562      -305.3542
   7   2.0000     -11.219535      -305.2991
   8   2.0000     -11.206200      -304.9362
   9   2.0000      -1.382736       -37.6261
  10   2.0000      -1.348531       -36.6954
  11   2.0000      -1.120935       -30.5022
  12   2.0000      -0.993455       -27.0333
  13   2.0000      -0.976111       -26.5613
  14   2.0000      -0.937565       -25.5125
  15   2.0000      -0.853473       -23.2242
  16   2.0000      -0.825840       -22.4723
  17   2.0000      -0.741648       -20.1813
  18   2.0000      -0.687811       -18.7163
  19   2.0000      -0.650146       -17.6914
  20   2.0000      -0.643575       -17.5126
  21   2.0000      -0.634211       -17.2577
  22   2.0000      -0.606869       -16.5137
  23   2.0000      -0.598707       -16.2916
  24   2.0000      -0.569484       -15.4964
  25   2.0000      -0.561552       -15.2806
  26   2.0000      -0.550920       -14.9913
  27   2.0000      -0.547707       -14.9039
  28   2.0000      -0.528500       -14.3812
  29   2.0000      -0.515897       -14.0383
  30   2.0000      -0.499875       -13.6023
  31   2.0000      -0.477808       -13.0018
  32   2.0000      -0.472924       -12.8689
  33   2.0000      -0.419751       -11.4220
  34   2.0000      -0.408124       -11.1056
  35   2.0000      -0.398667       -10.8483
  36   0.0000       0.129353         3.5199
  37   0.0000       0.148839         4.0501
  38   0.0000       0.163169         4.4400
  39   0.0000       0.171684         4.6718
  40   0.0000       0.191834         5.2201

MULLIKEN ATOMIC CHARGES
-----------------------
   0 C :   -0.242787
   1 O :   -0.333264
   2 C :    0.175462
   3 C :   -0.442039
   4 C :   -0.246893
   5 C :    0.065768
   6 O :   -0.468018
   7 C :   -0.071664
   8 C :   -0.389936
   9 H :    0.128421
  10 H :    0.145088
  11 H :    0.115899
  12 H :    0.140029
  13 H :    0.133445
  14 H :    0.143793
  15 H :    0.115566
  16 H :    0.117715
  17 H :    0.108576
  18 H :    0.325369
  19 H :    0.096843
  20 H :    0.123596
  21 H :    0.125631
  22 H :    0.133400
Sum of atomic charges:   -0.0000000

LOEWDIN ATOMIC CHARGES
----------------------
   0 C :   -0.355817
   1 O :    0.166047
   2 C :   -0.335043
   3 C :   -0.280526
   4 C :   -0.195550
   5 C :   -0.298907
   6 O :   -0.012457
   7 C :   -0.210849
   8 C :   -0.296927
   9 H :    0.105568
  10 H :    0.114625
  11 H :    0.104183
  12 H :    0.126427
  13 H :    0.130906
  14 H :    0.131194
  15 H :    0.139559
  16 H :    0.130075
  17 H :    0.129420
  18 H :    0.174280
  19 H :    0.157594
  20 H :    0.124338
  21 H :    0.124528
  22 H :    0.127333

  Mayer bond orders larger than 0.1
B(  0-C ,  1-O ) :   0.8987 B(  0-C ,  9-H ) :   0.9377 B(  0-C , 10-H ) :   0.9403
B(  0-C , 11-H ) :   0.9286 B(  1-O ,  2-C ) :   0.9486 B(  2-C ,  3-C ) :   0.8793
B(  2-C ,  4-C ) :   0.9548 B(  2-C ,  7-C ) :   0.8879 B(  3-C , 12-H ) :   0.9348
B(  3-C , 13-H ) :   0.9293 B(  3-C , 14-H ) :   0.9410 B(  4-C ,  5-C ) :   0.9053
B(  4-C , 15-H ) :   0.9067 B(  4-C , 16-H ) :   0.9125 B(  5-C ,  6-O ) :   0.9624
B(  5-C ,  7-C ) :   0.9208 B(  5-C , 17-H ) :   0.9387 B(  6-O , 18-H ) :   0.8211
B(  7-C ,  8-C ) :   0.9268 B(  7-C , 19-H ) :   0.9076 B(  8-C , 20-H ) :   0.9262
B(  8-C , 21-H ) :   0.9393 B(  8-C , 22-H ) :   0.9373

MP2 TOTAL ENERGY:     -424.709952164 Eh
FINAL SINGLE POINT ENERGY      -424.709952163636

DIPOLE MOMENT
-------------
                                X             Y             Z
Electronic contribution:     -4.23715      -1.97947       0.44530
Nuclear contribution   :      5.02231       2.69631      -0.22828
                        -----------------------------------------
Total Dipole Moment    :      0.78516       0.71684       0.21702
                        -----------------------------------------
Magnitude (a.u.)       :      1.08509
Magnitude (Debye)      :      2.75809

                             ****ORCA TERMINATED NORMALLY****
TOTAL RUN TIME: 0 days 0 hours 20 minutes 55 seconds 312 msec
