                         Program Version 3.0.3 - RELEASE   -
|  1> ! RI-MP2 RIJK def2-TZVP def2-TZVP/C def2-TZVP/JK TIGHTSCF
|  2> % maxcore 2000
|  3> % mp2 density relaxed end
|  4> *xyz 0 1
|  5>  C       -0.0173879295     1.5217394662    -0.0217190564
|  6>  C       -0.0011459055     0.0658438774    -0.0287304988
|  7>  C        0.0220221900    -1.1377769345    -0.0376114317
|  8>  C        0.0137962020    -2.5955252467    -0.0419870848
|  9>  C       -1.4059726792    -3.1784799176     0.0960630037
| 10>  C       -1.4163567447    -4.7270391685     0.0607064319
| 11>  N       -0.6977123198    -5.4183454065     1.1337320630
| 12>  C       -2.8120496383    -5.1990858264     0.0462245924
| 13>  N       -3.9181468954    -5.5322071126     0.0405364574
| 14>  H        0.5868158605     1.9233605949     0.7991764994
| 15>  H        0.3820676758     1.9287148576    -0.9571388497
| 16>  H       -1.0359930871     1.9068649109     0.0980058703
| 17>  H        0.4686817749    -2.9671430510    -0.9712050197
| 18>  H        0.6453946004    -2.9666221399     0.7759047489
| 19>  H       -1.8574274401    -2.8374823696     1.0342482593
| 20>  H       -2.0346342717    -2.7963734481    -0.7146965897
| 21>  H       -0.9640684477    -5.0536987259    -0.8855271524
| 22>  H        0.2947557208    -5.2195450510     1.0706214871
| 23>  H       -1.0173690652    -5.0905131587     2.0407587299
| 24> *
| 25>
| 26>                          ****END OF INPUT****

CARTESIAN COORDINATES (ANGSTROEM)
---------------------------------
  C     -0.017388    1.521739   -0.021719
  C     -0.001146    0.065844   -0.028730
  C      0.022022   -1.137777   -0.037611
  C      0.013796   -2.595525   -0.041987
  C     -1.405973   -3.178480    0.096063
  C     -1.416357   -4.727039    0.060706
  N     -0.697712   -5.418345    1.133732
  C     -2.812050   -5.199086    0.046225
  N     -3.918147   -5.532207    0.040536
  H      0.586816    1.923361    0.799176
  H      0.382068    1.928715   -0.957139
  H     -1.035993    1.906865    0.098006
  H      0.468682   -2.967143   -0.971205
  H      0.645395   -2.966622    0.775905
  H     -1.857427   -2.837482    1.034248
  H     -2.034634   -2.796373   -0.714697
  H     -0.964068   -5.053699   -0.885527
  H      0.294756   -5.219545    1.070621
  H     -1.017369   -5.090513    2.040759

 Total Charge           Charge          ....    0
 Multiplicity           Mult            ....    1
 Number of Electrons    NEL             ....   66
 Basis Dimension        Dim             ....  339

ORBITAL ENERGIES
----------------

  NO   OCC          E(Eh)            E(eV)
   0   2.0000     -15.574074      -423.7921
   1   2.0000     -15.569468      -423.6668
   2   2.0000     -11.319556      -308.0208
   3   2.0000     -11.270067      -306.6741
   4   2.0000     -11.269775      -306.6662
   5   2.0000     -11.256965      -306.3176
   6   2.0000     -11.252844      -306.2055
   7   2.0000     -11.233099      -305.6682
   8   2.0000     -11.227425      -305.5138
   9   2.0000      -1.238092       -33.6902
  10   2.0000      -1.202557       -32.7232
  11   2.0000      -1.100935       -29.9580
  12   2.0000      -1.052115       -28.6295
  13   2.0000      -0.997436       -27.1416
  14   2.0000      -0.939028       -25.5522
  15   2.0000      -0.859507       -23.3884
  16   2.0000      -0.743388       -20.2286
  17   2.0000      -0.682126       -18.5616
  18   2.0000      -0.666468       -18.1355
  19   2.0000      -0.644098       -17.5268
  20   2.0000      -0.635320       -17.2879
  21   2.0000      -0.598993       -16.2994
  22   2.0000      -0.595230       -16.1970
  23   2.0000      -0.591501       -16.0956
  24   2.0000      -0.585172       -15.9233
  25   2.0000      -0.558479       -15.1970
  26   2.0000      -0.536372       -14.5954
  27   2.0000      -0.523966       -14.2578
  28   2.0000      -0.465436       -12.6652
  29   2.0000      -0.462823       -12.5940
  30   2.0000      -0.427781       -11.6405
  31   2.0000      -0.377730       -10.2786
  32   2.0000      -0.376462       -10.2441
  33   0.0000       0.108301         2.9470
  34   0.0000       0.133442         3.6311
  35   0.0000       0.142917         3.8890
  36   0.0000       0.148812         4.0494
  37   0.0000       0.169624         4.6157

MULLIKEN ATOMIC CHARGES
-----------------------
   0 C :   -0.476767
   1 C :    0.096447
   2 C :   -0.041743
   3 C :   -0.368702
   4 C :   -0.253694
   5 C :    0.152533
   6 N :   -0.524579
   7 C :   -0.165921
   8 N :   -0.051997
   9 H :    0.162167
  10 H :    0.162803
  11 H :    0.163491
  12 H :    0.144680
  13 H :    0.119340
  14 H :    0.133901
  15 H :    0.139707
  16 H :    0.133001
  17 H :    0.237972
  18 H :    0.237361
Sum of atomic charges:    0.0000000

LOEWDIN ATOMIC CHARGES
----------------------
   0 C :   -0.294085
   1 C :   -0.103681
   2 C :   -0.092502
   3 C :   -0.256047
   4 C :   -0.224376
   5 C :   -0.320231
   6 N :   -0.124325
   7 C :   -0.167094
   8 N :    0.065310
   9 H :    0.141074
  10 H :    0.141378
  11 H :    0.141532
  12 H :    0.155945
  13 H :    0.149150
  14 H :    0.146732
  15 H :    0.152729
  16 H :    0.171101
  17 H :    0.155167
  18 H :    0.162222

  Mayer bond orders larger than 0.1
B(  0-C ,  1-C ) :   0.8463 B(  0-C ,  9-H ) :   0.9471 B(  0-C , 10-H ) :   0.9470
B(  0-C , 11-H ) :   0.9455 B(  1-C ,  2-C ) :   2.6782 B(  1-C ,  3-C ) :  -0.1418
B(  2-C ,  3-C ) :   1.1309 B(  3-C ,  4-C ) :   0.9348 B(  3-C , 12-H ) :   0.9209
B(  3-C , 13-H ) :   0.9092 B(  4-C ,  5-C ) :   0.9463 B(  4-C , 14-H ) :   0.9100
B(  4-C , 15-H ) :   0.9225 B(  5-C ,  6-N ) :   0.9008 B(  5-C ,  7-C ) :   0.9346
B(  5-C , 16-H ) :   0.9032 B(  6-N , 17-H ) :   0.8981 B(  6-N , 18-H ) :   0.8867
B(  7-C ,  8-N ) :   2.8784

MP2 TOTAL ENERGY:     -381.370624816 Eh
FINAL SINGLE POINT ENERGY      -381.370624815797

DIPOLE MOMENT
-------------
                                X             Y             Z
Electronic contribution:     -4.71946      -6.40364      -0.53713
Nuclear contribution   :      6.23195       7.59220       0.64563
                        -----------------------------------------
Total Dipole Moment    :      1.51249       1.18856       0.10850
                        -----------------------------------------
Magnitude (a.u.)       :      1.92667
Magnitude (Debye)      :      4.89721

                             ****ORCA TERMINATED NORMALLY****
TOTAL RUN TIME: 0 days 0 hours 15 minutes 18 seconds 878 msec
