                         Program Version 3.0.3 - RELEASE   -
|  1> ! RI-MP2 RIJK def2-TZVP def2-TZVP/C def2-TZVP/JK TIGHTSCF
|  2> % maxcore 2000
|  3> % mp2 density relaxed end
|  4> *xyz 0 1
|  5>  C       -0.0289793971     1.4438373375    -0.3578840856
|  6>  C        0.0430958084    -0.0323941505    -0.0554987697
|  7>  N        1.3579232539    -0.6629352880    -0.1419823451
|  8>  C        0.7006217643    -0.5994575339     1.1662146488
|  9>  C        1.2532008554    -0.0107433051     2.4881204810
| 10>  C        0.8446824973     1.3940395090     2.9133890275
| 11>  C        0.5701342860    -1.1957708350     3.2587190813
| 12>  C        0.1857082802    -1.8064204215     1.9009846060
| 13>  O       -0.2631453611    -2.8582263701     1.5334093319
| 14>  H        0.8780220558     1.9534743338    -0.0270229682
| 15>  H       -0.1263774674     1.5973911138    -1.4380469208
| 16>  H       -0.8934861539     1.9070916285     0.1278111181
| 17>  H       -0.8053993994    -0.6183727656    -0.4095370503
| 18>  H        1.2817854585    -1.6155042379    -0.4979507193
| 19>  H        2.3427788543    -0.1092296737     2.5094978532
| 20>  H       -0.2410451200     1.5275668854     2.8546007967
| 21>  H        1.1479813415     1.5817804290     3.9488506966
| 22>  H        1.3126931501     2.1597806628     2.2882219558
| 23>  H        1.2136264392    -1.8201169972     3.8834502962
| 24>  H       -0.3041402160    -0.8971361914     3.8471263461
| 25> *
| 26>
| 27>                          ****END OF INPUT****

CARTESIAN COORDINATES (ANGSTROEM)
---------------------------------
  C     -0.028979    1.443837   -0.357884
  C      0.043096   -0.032394   -0.055499
  N      1.357923   -0.662935   -0.141982
  C      0.700622   -0.599458    1.166215
  C      1.253201   -0.010743    2.488120
  C      0.844682    1.394040    2.913389
  C      0.570134   -1.195771    3.258719
  C      0.185708   -1.806420    1.900985
  O     -0.263145   -2.858226    1.533409
  H      0.878022    1.953474   -0.027023
  H     -0.126377    1.597391   -1.438047
  H     -0.893486    1.907092    0.127811
  H     -0.805399   -0.618373   -0.409537
  H      1.281785   -1.615504   -0.497951
  H      2.342779   -0.109230    2.509498
  H     -0.241045    1.527567    2.854601
  H      1.147981    1.581780    3.948851
  H      1.312693    2.159781    2.288222
  H      1.213626   -1.820117    3.883450
  H     -0.304140   -0.897136    3.847126

 Total Charge           Charge          ....    0
 Multiplicity           Mult            ....    1
 Number of Electrons    NEL             ....   68
 Basis Dimension        Dim             ....  345

ORBITAL ENERGIES
----------------

  NO   OCC          E(Eh)            E(eV)
   0   2.0000     -20.554288      -559.3106
   1   2.0000     -15.571241      -423.7150
   2   2.0000     -11.331692      -308.3510
   3   2.0000     -11.278944      -306.9157
   4   2.0000     -11.270624      -306.6893
   5   2.0000     -11.249576      -306.1165
   6   2.0000     -11.242163      -305.9148
   7   2.0000     -11.228029      -305.5302
   8   2.0000     -11.227515      -305.5162
   9   2.0000      -1.395857       -37.9832
  10   2.0000      -1.280224       -34.8367
  11   2.0000      -1.127130       -30.6708
  12   2.0000      -1.003257       -27.3000
  13   2.0000      -0.982213       -26.7274
  14   2.0000      -0.892610       -24.2892
  15   2.0000      -0.831587       -22.6286
  16   2.0000      -0.809884       -22.0381
  17   2.0000      -0.735743       -20.0206
  18   2.0000      -0.683369       -18.5954
  19   2.0000      -0.658013       -17.9054
  20   2.0000      -0.637793       -17.3552
  21   2.0000      -0.605347       -16.4723
  22   2.0000      -0.586555       -15.9610
  23   2.0000      -0.580571       -15.7981
  24   2.0000      -0.567445       -15.4410
  25   2.0000      -0.561776       -15.2867
  26   2.0000      -0.525296       -14.2940
  27   2.0000      -0.519321       -14.1314
  28   2.0000      -0.511635       -13.9223
  29   2.0000      -0.486202       -13.2302
  30   2.0000      -0.466447       -12.6927
  31   2.0000      -0.452888       -12.3237
  32   2.0000      -0.398817       -10.8524
  33   2.0000      -0.393303       -10.7023
  34   0.0000       0.117593         3.1999
  35   0.0000       0.128651         3.5008
  36   0.0000       0.155339         4.2270
  37   0.0000       0.160198         4.3592
  38   0.0000       0.168926         4.5967

MULLIKEN ATOMIC CHARGES
-----------------------
   0 C :   -0.383484
   1 C :   -0.044517
   2 N :   -0.384555
   3 C :   -0.006950
   4 C :    0.066996
   5 C :   -0.440498
   6 C :   -0.242763
   7 C :    0.138552
   8 O :   -0.268953
   9 H :    0.136669
  10 H :    0.142141
  11 H :    0.126504
  12 H :    0.140438
  13 H :    0.232141
  14 H :    0.108918
  15 H :    0.127447
  16 H :    0.144323
  17 H :    0.133315
  18 H :    0.138698
  19 H :    0.135577
Sum of atomic charges:    0.0000000

LOEWDIN ATOMIC CHARGES
----------------------
   0 C :   -0.289113
   1 C :   -0.247459
   2 N :    0.046406
   3 C :   -0.223613
   4 C :   -0.201826
   5 C :   -0.294536
   6 C :   -0.178468
   7 C :   -0.293568
   8 O :    0.152425
   9 H :    0.130047
  10 H :    0.129806
  11 H :    0.126737
  12 H :    0.145691
  13 H :    0.176926
  14 H :    0.154180
  15 H :    0.125310
  16 H :    0.127076
  17 H :    0.124298
  18 H :    0.141715
  19 H :    0.147966

  Mayer bond orders larger than 0.1
B(  0-C ,  1-C ) :   0.8817 B(  0-C ,  9-H ) :   0.9445 B(  0-C , 10-H ) :   0.9293
B(  0-C , 11-H ) :   0.9365 B(  1-C ,  2-N ) :   0.9799 B(  1-C ,  3-C ) :   0.8572
B(  1-C , 12-H ) :   0.9181 B(  2-N ,  3-C ) :   0.8722 B(  2-N , 13-H ) :   0.8646
B(  3-C ,  4-C ) :   0.8617 B(  3-C ,  6-C ) :  -0.1037 B(  3-C ,  7-C ) :   0.8729
B(  4-C ,  5-C ) :   0.8806 B(  4-C ,  6-C ) :   0.9327 B(  4-C , 14-H ) :   0.9083
B(  5-C , 15-H ) :   0.9365 B(  5-C , 16-H ) :   0.9362 B(  5-C , 17-H ) :   0.9422
B(  6-C ,  7-C ) :   0.9257 B(  6-C , 18-H ) :   0.9021 B(  6-C , 19-H ) :   0.8854
B(  7-C ,  8-O ) :   2.0240

MP2 TOTAL ENERGY:     -402.442627562 Eh
FINAL SINGLE POINT ENERGY      -402.442627562434

DIPOLE MOMENT
-------------
                                X             Y             Z
Electronic contribution:     -0.27032      -9.31872      -1.23841
Nuclear contribution   :      0.20340      10.14391       1.54136
                        -----------------------------------------
Total Dipole Moment    :     -0.06692       0.82519       0.30295
                        -----------------------------------------
Magnitude (a.u.)       :      0.88159
Magnitude (Debye)      :      2.24082

                             ****ORCA TERMINATED NORMALLY****
TOTAL RUN TIME: 0 days 0 hours 19 minutes 11 seconds 761 msec
