                         Program Version 3.0.3 - RELEASE   -
|  1> ! RI-MP2 RIJK def2-TZVP def2-TZVP/C def2-TZVP/JK TIGHTSCF
|  2> % maxcore 2000
|  3> % mp2 density relaxed end
|  4> *xyz 0 1
|  5>  C       -0.0450178019     1.5335403208     0.1914625938
|  6>  C       -0.0597626521     0.0097349815     0.0157169752
|  7>  C       -1.4970940646    -0.5109277075    -0.0705228466
|  8>  O       -2.1555942251    -0.2098588227     1.1510923196
|  9>  C        0.7276932492    -0.4610623540    -1.2206812147
| 10>  C        2.2277215294    -0.0860305695    -1.2452448095
| 11>  C        3.0163284538    -0.6753916432    -0.0635041075
| 12>  C        2.8160719457    -0.6037838774    -2.5436527659
| 13>  O        3.2169615131     0.0785763721    -3.4503266861
| 14>  H        0.9587262543     1.9111482207     0.4062966977
| 15>  H       -0.4022079931     2.0338573769    -0.7172392795
| 16>  H       -0.7005406970     1.8204013721     1.0163378158
| 17>  H        0.3747968497    -0.4491930784     0.9129429699
| 18>  H       -2.0086873484    -0.0384872791    -0.9258920479
| 19>  H       -1.4862131785    -1.5975976438    -0.2536832388
| 20>  H       -3.0803948782    -0.4577408901     1.0654769935
| 21>  H        0.6398823428    -1.5537636850    -1.3049736791
| 22>  H        0.2538829185    -0.0436471530    -2.1197177810
| 23>  H        2.3382396121     1.0022688754    -1.2660676265
| 24>  H        2.9374284836    -1.7686185045    -0.0423076708
| 25>  H        4.0772529654    -0.4153197679    -0.1300628609
| 26>  H        2.6407613349    -0.2961648858     0.8900017911
| 27>  H        2.8466783362    -1.7193690976    -2.6103727420
| 28> *
| 29>
| 30>                          ****END OF INPUT****

CARTESIAN COORDINATES (ANGSTROEM)
---------------------------------
  C     -0.045018    1.533540    0.191463
  C     -0.059763    0.009735    0.015717
  C     -1.497094   -0.510928   -0.070523
  O     -2.155594   -0.209859    1.151092
  C      0.727693   -0.461062   -1.220681
  C      2.227722   -0.086031   -1.245245
  C      3.016328   -0.675392   -0.063504
  C      2.816072   -0.603784   -2.543653
  O      3.216962    0.078576   -3.450327
  H      0.958726    1.911148    0.406297
  H     -0.402208    2.033857   -0.717239
  H     -0.700541    1.820401    1.016338
  H      0.374797   -0.449193    0.912943
  H     -2.008687   -0.038487   -0.925892
  H     -1.486213   -1.597598   -0.253683
  H     -3.080395   -0.457741    1.065477
  H      0.639882   -1.553764   -1.304974
  H      0.253883   -0.043647   -2.119718
  H      2.338240    1.002269   -1.266068
  H      2.937428   -1.768619   -0.042308
  H      4.077253   -0.415320   -0.130063
  H      2.640761   -0.296165    0.890002
  H      2.846678   -1.719369   -2.610373

 Total Charge           Charge          ....    0
 Multiplicity           Mult            ....    1
 Number of Electrons    NEL             ....   72
 Basis Dimension        Dim             ....  363

ORBITAL ENERGIES
----------------

  NO   OCC          E(Eh)            E(eV)
   0   2.0000     -20.561011      -559.4935
   1   2.0000     -20.554884      -559.3268
   2   2.0000     -11.327268      -308.2306
   3   2.0000     -11.280648      -306.9620
   4   2.0000     -11.245021      -305.9926
   5   2.0000     -11.238483      -305.8147
   6   2.0000     -11.234933      -305.7181
   7   2.0000     -11.232369      -305.6483
   8   2.0000     -11.212710      -305.1134
   9   2.0000      -1.393728       -37.9253
  10   2.0000      -1.365733       -37.1635
  11   2.0000      -1.115686       -30.3594
  12   2.0000      -1.052207       -28.6320
  13   2.0000      -0.941489       -25.6192
  14   2.0000      -0.923639       -25.1335
  15   2.0000      -0.876883       -23.8612
  16   2.0000      -0.787940       -21.4409
  17   2.0000      -0.771560       -20.9952
  18   2.0000      -0.702358       -19.1121
  19   2.0000      -0.668963       -18.2034
  20   2.0000      -0.652412       -17.7530
  21   2.0000      -0.647603       -17.6222
  22   2.0000      -0.616027       -16.7629
  23   2.0000      -0.593891       -16.1606
  24   2.0000      -0.579178       -15.7602
  25   2.0000      -0.575336       -15.6557
  26   2.0000      -0.546369       -14.8675
  27   2.0000      -0.542102       -14.7513
  28   2.0000      -0.525515       -14.3000
  29   2.0000      -0.509357       -13.8603
  30   2.0000      -0.495093       -13.4722
  31   2.0000      -0.482238       -13.1224
  32   2.0000      -0.475418       -12.9368
  33   2.0000      -0.459128       -12.4935
  34   2.0000      -0.447969       -12.1899
  35   2.0000      -0.409770       -11.1504
  36   0.0000       0.124788         3.3956
  37   0.0000       0.134602         3.6627
  38   0.0000       0.142586         3.8800
  39   0.0000       0.155407         4.2288
  40   0.0000       0.166625         4.5341

MULLIKEN ATOMIC CHARGES
-----------------------
   0 C :   -0.432958
   1 C :    0.005302
   2 C :   -0.071489
   3 O :   -0.468872
   4 C :   -0.333962
   5 C :    0.062225
   6 C :   -0.447984
   7 C :    0.081224
   8 O :   -0.259747
   9 H :    0.134160
  10 H :    0.120152
  11 H :    0.162272
  12 H :    0.093002
  13 H :    0.097008
  14 H :    0.098248
  15 H :    0.317053
  16 H :    0.116135
  17 H :    0.133075
  18 H :    0.099928
  19 H :    0.130054
  20 H :    0.149448
  21 H :    0.149512
  22 H :    0.066215
Sum of atomic charges:    0.0000000

LOEWDIN ATOMIC CHARGES
----------------------
   0 C :   -0.291443
   1 C :   -0.288527
   2 C :   -0.330012
   3 O :   -0.046266
   4 C :   -0.219930
   5 C :   -0.278154
   6 C :   -0.286295
   7 C :   -0.276118
   8 O :    0.134226
   9 H :    0.121464
  10 H :    0.124595
  11 H :    0.130878
  12 H :    0.154843
  13 H :    0.117984
  14 H :    0.117024
  15 H :    0.173017
  16 H :    0.143076
  17 H :    0.147424
  18 H :    0.157749
  19 H :    0.126593
  20 H :    0.128648
  21 H :    0.127733
  22 H :    0.111492

  Mayer bond orders larger than 0.1
B(  0-C ,  1-C ) :   0.9106 B(  0-C ,  9-H ) :   0.9382 B(  0-C , 10-H ) :   0.9293
B(  0-C , 11-H ) :   0.9333 B(  1-C ,  2-C ) :   0.9226 B(  1-C ,  4-C ) :   0.9035
B(  1-C , 12-H ) :   0.9244 B(  2-C ,  3-O ) :   1.0248 B(  2-C , 13-H ) :   0.9254
B(  2-C , 14-H ) :   0.9323 B(  3-O , 15-H ) :   0.8475 B(  4-C ,  5-C ) :   0.9109
B(  4-C , 16-H ) :   0.9239 B(  4-C , 17-H ) :   0.9204 B(  5-C ,  6-C ) :   0.8938
B(  5-C ,  7-C ) :   0.8453 B(  5-C , 18-H ) :   0.9022 B(  6-C , 19-H ) :   0.9251
B(  6-C , 20-H ) :   0.9372 B(  6-C , 21-H ) :   0.9345 B(  7-C ,  8-O ) :   2.0197
B(  7-C , 22-H ) :   0.9383

MP2 TOTAL ENERGY:     -424.734919783 Eh
FINAL SINGLE POINT ENERGY      -424.734919783082

DIPOLE MOMENT
-------------
                                X             Y             Z
Electronic contribution:      1.79989      -0.47835      -4.91426
Nuclear contribution   :     -2.57667      -0.14011       5.43341
                        -----------------------------------------
Total Dipole Moment    :     -0.77678      -0.61846       0.51915
                        -----------------------------------------
Magnitude (a.u.)       :      1.12044
Magnitude (Debye)      :      2.84794

                             ****ORCA TERMINATED NORMALLY****
TOTAL RUN TIME: 0 days 0 hours 18 minutes 36 seconds 834 msec
