                         Program Version 3.0.3 - RELEASE   -
|  1> ! RI-MP2 RIJK def2-TZVP def2-TZVP/C def2-TZVP/JK TIGHTSCF
|  2> % maxcore 2000
|  3> % mp2 density relaxed end
|  4> *xyz 0 1
|  5>  C       -0.4530073190     1.6550550695    -0.0687312863
|  6>  O       -0.2722625383     0.3248778809     0.3627338063
|  7>  C       -1.3742388353    -0.5123638407     0.1085830782
|  8>  C       -1.4713056586    -1.2378320003    -1.2803850098
|  9>  C       -0.2206220210    -1.1853873479    -2.1531016331
| 10>  C       -1.6827717251    -2.5787582595    -0.5108163014
| 11>  C       -1.3113692787    -1.8836756385     0.8309303041
| 12>  C        0.0467011493    -2.2617928617     1.4002147095
| 13>  O       -0.0560316840    -3.6043058487     1.8613806403
| 14>  H        0.4455406703     2.2124415336     0.2077637108
| 15>  H       -0.5903422125     1.7266303202    -1.1573659628
| 16>  H       -1.3244718532     2.1202494891     0.4182863640
| 17>  H       -2.3061331969     0.0237434063     0.3433956256
| 18>  H       -2.3374122097    -0.9245112385    -1.8718253345
| 19>  H        0.6813115853    -1.4358154747    -1.5878487587
| 20>  H       -0.3081789991    -1.8992956819    -2.9794881574
| 21>  H       -0.0697018279    -0.1917262230    -2.5875541369
| 22>  H       -2.7111020087    -2.9454218335    -0.5414573304
| 23>  H       -1.0197053381    -3.3985727868    -0.7992743271
| 24>  H       -2.0507998423    -2.0040368366     1.6278368790
| 25>  H        0.8295469587    -2.1658468954     0.6338047945
| 26>  H        0.3083420365    -1.5733778805     2.2169036723
| 27>  H        0.8038305984    -3.8681971116     2.2010625737
| 28> *
| 29>
| 30>                          ****END OF INPUT****

CARTESIAN COORDINATES (ANGSTROEM)
---------------------------------
  C     -0.453007    1.655055   -0.068731
  O     -0.272263    0.324878    0.362734
  C     -1.374239   -0.512364    0.108583
  C     -1.471306   -1.237832   -1.280385
  C     -0.220622   -1.185387   -2.153102
  C     -1.682772   -2.578758   -0.510816
  C     -1.311369   -1.883676    0.830930
  C      0.046701   -2.261793    1.400215
  O     -0.056032   -3.604306    1.861381
  H      0.445541    2.212442    0.207764
  H     -0.590342    1.726630   -1.157366
  H     -1.324472    2.120249    0.418286
  H     -2.306133    0.023743    0.343396
  H     -2.337412   -0.924511   -1.871825
  H      0.681312   -1.435815   -1.587849
  H     -0.308179   -1.899296   -2.979488
  H     -0.069702   -0.191726   -2.587554
  H     -2.711102   -2.945422   -0.541457
  H     -1.019705   -3.398573   -0.799274
  H     -2.050800   -2.004037    1.627837
  H      0.829547   -2.165847    0.633805
  H      0.308342   -1.573378    2.216904
  H      0.803831   -3.868197    2.201063

 Total Charge           Charge          ....    0
 Multiplicity           Mult            ....    1
 Number of Electrons    NEL             ....   72
 Basis Dimension        Dim             ....  363

ORBITAL ENERGIES
----------------

  NO   OCC          E(Eh)            E(eV)
   0   2.0000     -20.554609      -559.3193
   1   2.0000     -20.547759      -559.1330
   2   2.0000     -11.273259      -306.7610
   3   2.0000     -11.271591      -306.7156
   4   2.0000     -11.265169      -306.5408
   5   2.0000     -11.221709      -305.3582
   6   2.0000     -11.217183      -305.2351
   7   2.0000     -11.210923      -305.0647
   8   2.0000     -11.210484      -305.0528
   9   2.0000      -1.376551       -37.4579
  10   2.0000      -1.351055       -36.7641
  11   2.0000      -1.124809       -30.6076
  12   2.0000      -0.996124       -27.1059
  13   2.0000      -0.943305       -25.6686
  14   2.0000      -0.922238       -25.0954
  15   2.0000      -0.861101       -23.4317
  16   2.0000      -0.804904       -21.9026
  17   2.0000      -0.726186       -19.7605
  18   2.0000      -0.702456       -19.1148
  19   2.0000      -0.678142       -18.4532
  20   2.0000      -0.644838       -17.5469
  21   2.0000      -0.635071       -17.2812
  22   2.0000      -0.616337       -16.7714
  23   2.0000      -0.599684       -16.3182
  24   2.0000      -0.570352       -15.5201
  25   2.0000      -0.558807       -15.2059
  26   2.0000      -0.548888       -14.9360
  27   2.0000      -0.538465       -14.6524
  28   2.0000      -0.503648       -13.7050
  29   2.0000      -0.491052       -13.3622
  30   2.0000      -0.478137       -13.0108
  31   2.0000      -0.457522       -12.4498
  32   2.0000      -0.449740       -12.2381
  33   2.0000      -0.432004       -11.7554
  34   2.0000      -0.419640       -11.4190
  35   2.0000      -0.391370       -10.6497
  36   0.0000       0.134979         3.6730
  37   0.0000       0.143629         3.9083
  38   0.0000       0.162453         4.4206
  39   0.0000       0.170190         4.6311
  40   0.0000       0.182983         4.9792

MULLIKEN ATOMIC CHARGES
-----------------------
   0 C :   -0.228955
   1 O :   -0.305151
   2 C :    0.064944
   3 C :   -0.057967
   4 C :   -0.436112
   5 C :   -0.204751
   6 C :   -0.030680
   7 C :   -0.110680
   8 O :   -0.468146
   9 H :    0.139803
  10 H :    0.111192
  11 H :    0.115871
  12 H :    0.077658
  13 H :    0.097506
  14 H :    0.132532
  15 H :    0.134530
  16 H :    0.120053
  17 H :    0.120945
  18 H :    0.109123
  19 H :    0.100713
  20 H :    0.097650
  21 H :    0.105085
  22 H :    0.314836
Sum of atomic charges:   -0.0000000

LOEWDIN ATOMIC CHARGES
----------------------
   0 C :   -0.355864
   1 O :    0.161839
   2 C :   -0.265892
   3 C :   -0.236295
   4 C :   -0.298395
   5 C :   -0.193411
   6 C :   -0.211155
   7 C :   -0.329158
   8 O :   -0.049424
   9 H :    0.113555
  10 H :    0.101309
  11 H :    0.102399
  12 H :    0.132798
  13 H :    0.138596
  14 H :    0.123316
  15 H :    0.125225
  16 H :    0.120174
  17 H :    0.131119
  18 H :    0.135339
  19 H :    0.146203
  20 H :    0.117219
  21 H :    0.119852
  22 H :    0.170650

  Mayer bond orders larger than 0.1
B(  0-C ,  1-O ) :   0.9075 B(  0-C ,  9-H ) :   0.9419 B(  0-C , 10-H ) :   0.9350
B(  0-C , 11-H ) :   0.9360 B(  1-O ,  2-C ) :   1.0020 B(  2-C ,  3-C ) :   0.9299
B(  2-C ,  6-C ) :   0.8986 B(  2-C , 12-H ) :   0.9392 B(  3-C ,  4-C ) :   0.8958
B(  3-C ,  5-C ) :   0.9354 B(  3-C , 13-H ) :   0.9211 B(  4-C , 14-H ) :   0.9308
B(  4-C , 15-H ) :   0.9409 B(  4-C , 16-H ) :   0.9420 B(  5-C ,  6-C ) :   0.9268
B(  5-C , 17-H ) :   0.9218 B(  5-C , 18-H ) :   0.9114 B(  6-C ,  7-C ) :   0.9404
B(  6-C , 19-H ) :   0.9175 B(  7-C ,  8-O ) :   1.0178 B(  7-C , 20-H ) :   0.9168
B(  7-C , 21-H ) :   0.9311 B(  8-O , 22-H ) :   0.8496

MP2 TOTAL ENERGY:     -424.696830710 Eh
FINAL SINGLE POINT ENERGY      -424.696830709952

DIPOLE MOMENT
-------------
                                X             Y             Z
Electronic contribution:     -0.14765      -2.46518       4.58358
Nuclear contribution   :      0.31080       3.00045      -4.77406
                        -----------------------------------------
Total Dipole Moment    :      0.16315       0.53526      -0.19047
                        -----------------------------------------
Magnitude (a.u.)       :      0.59111
Magnitude (Debye)      :      1.50247

                             ****ORCA TERMINATED NORMALLY****
TOTAL RUN TIME: 0 days 0 hours 31 minutes 19 seconds 221 msec
