                         Program Version 3.0.3 - RELEASE   -
|  1> ! RI-MP2 RIJK def2-TZVP def2-TZVP/C def2-TZVP/JK TIGHTSCF
|  2> % maxcore 2000
|  3> % mp2 density relaxed end
|  4> *xyz 0 1
|  5>  C        0.2152324638     1.5057929743    -0.2334335088
|  6>  C       -0.0918837324     0.0379073301     0.0909766539
|  7>  C        0.6440211244    -0.4736331260     1.3127859701
|  8>  C        2.0542785021    -0.9912531318     1.1670391188
|  9>  C        0.9419388010    -1.9450666254     1.5401470502
| 10>  C        0.6513487278    -2.2456418868     2.9914903736
| 11>  C        1.4500061013    -1.6128228988     4.0723447234
| 12>  N        0.1650812767    -1.0234589480     3.6722274221
| 13>  C        0.2371208514     0.0837308631     2.6888392335
| 14>  H        1.2860424630     1.6529123345    -0.4090780565
| 15>  H       -0.3223101869     1.8330631342    -1.1288193353
| 16>  H       -0.0794387700     2.1660253086     0.5892894614
| 17>  H       -1.1730721265    -0.0854150308     0.2405682487
| 18>  H        0.1724344156    -0.5871284894    -0.7710314678
| 19>  H        2.4429958864    -1.0735691852     0.1557843515
| 20>  H        2.8118298969    -0.7293111731     1.8966415714
| 21>  H        0.6419274125    -2.6914757635     0.8128619278
| 22>  H        0.1048730400    -3.1627327463     3.1958168015
| 23>  H        1.4530092801    -2.0452850293     5.0702749996
| 24>  H        2.3729763771    -1.1005157292     3.8156106035
| 25>  H        0.9068962306     0.8711272460     3.0535545386
| 26>  H       -0.7649460449     0.5213290230     2.6147172285
| 27> *
| 28>
| 29>                          ****END OF INPUT****

CARTESIAN COORDINATES (ANGSTROEM)
---------------------------------
  C      0.215232    1.505793   -0.233434
  C     -0.091884    0.037907    0.090977
  C      0.644021   -0.473633    1.312786
  C      2.054279   -0.991253    1.167039
  C      0.941939   -1.945067    1.540147
  C      0.651349   -2.245642    2.991490
  C      1.450006   -1.612823    4.072345
  N      0.165081   -1.023459    3.672227
  C      0.237121    0.083731    2.688839
  H      1.286042    1.652912   -0.409078
  H     -0.322310    1.833063   -1.128819
  H     -0.079439    2.166025    0.589289
  H     -1.173072   -0.085415    0.240568
  H      0.172434   -0.587128   -0.771031
  H      2.442996   -1.073569    0.155784
  H      2.811830   -0.729311    1.896642
  H      0.641927   -2.691476    0.812862
  H      0.104873   -3.162733    3.195817
  H      1.453009   -2.045285    5.070275
  H      2.372976   -1.100516    3.815611
  H      0.906896    0.871127    3.053555
  H     -0.764946    0.521329    2.614717

 Total Charge           Charge          ....    0
 Multiplicity           Mult            ....    1
 Number of Electrons    NEL             ....   68
 Basis Dimension        Dim             ....  357

ORBITAL ENERGIES
----------------

  NO   OCC          E(Eh)            E(eV)
   0   2.0000     -15.549129      -423.1133
   1   2.0000     -11.255019      -306.2646
   2   2.0000     -11.247773      -306.0675
   3   2.0000     -11.247520      -306.0606
   4   2.0000     -11.234438      -305.7046
   5   2.0000     -11.231918      -305.6360
   6   2.0000     -11.226860      -305.4984
   7   2.0000     -11.225331      -305.4568
   8   2.0000     -11.214653      -305.1662
   9   2.0000      -1.276057       -34.7233
  10   2.0000      -1.145355       -31.1667
  11   2.0000      -1.029637       -28.0178
  12   2.0000      -0.988542       -26.8996
  13   2.0000      -0.885017       -24.0825
  14   2.0000      -0.867150       -23.5964
  15   2.0000      -0.822195       -22.3731
  16   2.0000      -0.760305       -20.6889
  17   2.0000      -0.745709       -20.2918
  18   2.0000      -0.692441       -18.8423
  19   2.0000      -0.624653       -16.9977
  20   2.0000      -0.616382       -16.7726
  21   2.0000      -0.612876       -16.6772
  22   2.0000      -0.580980       -15.8093
  23   2.0000      -0.561155       -15.2698
  24   2.0000      -0.556461       -15.1421
  25   2.0000      -0.528979       -14.3942
  26   2.0000      -0.515286       -14.0217
  27   2.0000      -0.493634       -13.4325
  28   2.0000      -0.485649       -13.2152
  29   2.0000      -0.465848       -12.6764
  30   2.0000      -0.438024       -11.9192
  31   2.0000      -0.407324       -11.0839
  32   2.0000      -0.398727       -10.8499
  33   2.0000      -0.350173        -9.5287
  34   0.0000       0.135347         3.6830
  35   0.0000       0.153617         4.1801
  36   0.0000       0.168537         4.5861
  37   0.0000       0.175010         4.7623
  38   0.0000       0.183578         4.9954

MULLIKEN ATOMIC CHARGES
-----------------------
   0 C :   -0.402407
   1 C :   -0.227650
   2 C :    0.094083
   3 C :   -0.302956
   4 C :   -0.088895
   5 C :   -0.107722
   6 C :   -0.171267
   7 N :   -0.218430
   8 C :   -0.166961
   9 H :    0.128640
  10 H :    0.134398
  11 H :    0.128326
  12 H :    0.119283
  13 H :    0.107218
  14 H :    0.125709
  15 H :    0.120610
  16 H :    0.126521
  17 H :    0.122604
  18 H :    0.124160
  19 H :    0.109772
  20 H :    0.124235
  21 H :    0.120729
Sum of atomic charges:    0.0000000

LOEWDIN ATOMIC CHARGES
----------------------
   0 C :   -0.311156
   1 C :   -0.254164
   2 C :   -0.220538
   3 C :   -0.184429
   4 C :   -0.166242
   5 C :   -0.224282
   6 C :   -0.245427
   7 N :    0.107864
   8 C :   -0.223950
   9 H :    0.122186
  10 H :    0.120553
  11 H :    0.121456
  12 H :    0.141301
  13 H :    0.141744
  14 H :    0.137208
  15 H :    0.129530
  16 H :    0.148450
  17 H :    0.141027
  18 H :    0.124471
  19 H :    0.121514
  20 H :    0.133578
  21 H :    0.139306

  Mayer bond orders larger than 0.1
B(  0-C ,  1-C ) :   0.9195 B(  0-C ,  9-H ) :   0.9388 B(  0-C , 10-H ) :   0.9400
B(  0-C , 11-H ) :   0.9367 B(  1-C ,  2-C ) :   0.9009 B(  1-C , 12-H ) :   0.9371
B(  1-C , 13-H ) :   0.9297 B(  2-C ,  3-C ) :   0.8784 B(  2-C ,  4-C ) :   0.8134
B(  2-C ,  8-C ) :   0.9442 B(  3-C ,  4-C ) :   0.9070 B(  3-C , 14-H ) :   0.9209
B(  3-C , 15-H ) :   0.9112 B(  4-C ,  5-C ) :   0.9533 B(  4-C , 16-H ) :   0.9196
B(  5-C ,  6-C ) :   0.9453 B(  5-C ,  7-N ) :   0.9140 B(  5-C , 17-H ) :   0.9124
B(  6-C ,  7-N ) :   0.8887 B(  6-C , 18-H ) :   0.9259 B(  6-C , 19-H ) :   0.9085
B(  7-N ,  8-C ) :   0.9277 B(  8-C , 20-H ) :   0.9334 B(  8-C , 21-H ) :   0.9215

MP2 TOTAL ENERGY:     -366.517411285 Eh
FINAL SINGLE POINT ENERGY      -366.517411284802

DIPOLE MOMENT
-------------
                                X             Y             Z
Electronic contribution:     -0.42505      -4.40349       4.72183
Nuclear contribution   :      0.77334       4.40994      -5.24576
                        -----------------------------------------
Total Dipole Moment    :      0.34829       0.00645      -0.52393
                        -----------------------------------------
Magnitude (a.u.)       :      0.62917
Magnitude (Debye)      :      1.59921

                             ****ORCA TERMINATED NORMALLY****
TOTAL RUN TIME: 0 days 0 hours 20 minutes 8 seconds 754 msec
