                         Program Version 3.0.3 - RELEASE   -
|  1> ! RI-MP2 RIJK def2-TZVP def2-TZVP/C def2-TZVP/JK TIGHTSCF
|  2> % maxcore 2000
|  3> % mp2 density relaxed end
|  4> *xyz 0 1
|  5>  C        0.1247328010     1.6904117061    -0.0041281323
|  6>  C        0.1143689293     0.1596310791    -0.0213200959
|  7>  C        0.6414274021    -0.4596642403     1.2792438339
|  8>  C        0.6431034727    -1.9815755773     1.2699231814
|  9>  C        1.6483230226    -2.7280446525     0.3457576181
| 10>  C        1.9144150710    -3.7530795414     1.4992340239
| 11>  C        1.2522992489    -2.7330471917     2.4856911132
| 12>  C        1.1753305725    -4.9984714514     1.3591283334
| 13>  N        0.5792731011    -5.9833238958     1.2458509520
| 14>  H        1.1390666828     2.0779873369     0.1427111099
| 15>  H       -0.2563763469     2.1033279874    -0.9431420914
| 16>  H       -0.4977744130     2.0809605789     0.8085429586
| 17>  H       -0.9069706233    -0.1998706794    -0.2025905357
| 18>  H        0.7166520971    -0.2013209390    -0.8652783632
| 19>  H        1.6631886255    -0.0991929836     1.4680373087
| 20>  H        0.0335714631    -0.1054765166     2.1235720675
| 21>  H       -0.3707431737    -2.3522929326     1.0800753476
| 22>  H        1.2812146534    -3.1340682890    -0.5976194135
| 23>  H        2.5464411110    -2.1336350146     0.1535743261
| 24>  H        2.9631275818    -3.9906809359     1.6926102776
| 25>  H        2.0210034133    -2.1402104141     2.9895276071
| 26>  H        0.5696716478    -3.1406756133     3.2326002328
| 27> *
| 28>
| 29>                          ****END OF INPUT****

CARTESIAN COORDINATES (ANGSTROEM)
---------------------------------
  C      0.124733    1.690412   -0.004128
  C      0.114369    0.159631   -0.021320
  C      0.641427   -0.459664    1.279244
  C      0.643103   -1.981576    1.269923
  C      1.648323   -2.728045    0.345758
  C      1.914415   -3.753080    1.499234
  C      1.252299   -2.733047    2.485691
  C      1.175331   -4.998471    1.359128
  N      0.579273   -5.983324    1.245851
  H      1.139067    2.077987    0.142711
  H     -0.256376    2.103328   -0.943142
  H     -0.497774    2.080961    0.808543
  H     -0.906971   -0.199871   -0.202591
  H      0.716652   -0.201321   -0.865278
  H      1.663189   -0.099193    1.468037
  H      0.033571   -0.105477    2.123572
  H     -0.370743   -2.352293    1.080075
  H      1.281215   -3.134068   -0.597619
  H      2.546441   -2.133635    0.153574
  H      2.963128   -3.990681    1.692610
  H      2.021003   -2.140210    2.989528
  H      0.569672   -3.140676    3.232600

 Total Charge           Charge          ....    0
 Multiplicity           Mult            ....    1
 Number of Electrons    NEL             ....   68
 Basis Dimension        Dim             ....  357

ORBITAL ENERGIES
----------------

  NO   OCC          E(Eh)            E(eV)
   0   2.0000     -15.562291      -423.4715
   1   2.0000     -11.280275      -306.9519
   2   2.0000     -11.266573      -306.5790
   3   2.0000     -11.247837      -306.0692
   4   2.0000     -11.247629      -306.0636
   5   2.0000     -11.243591      -305.9537
   6   2.0000     -11.229701      -305.5757
   7   2.0000     -11.228383      -305.5398
   8   2.0000     -11.219765      -305.3053
   9   2.0000      -1.215165       -33.0663
  10   2.0000      -1.160016       -31.5656
  11   2.0000      -1.070203       -29.1217
  12   2.0000      -0.984724       -26.7957
  13   2.0000      -0.925057       -25.1721
  14   2.0000      -0.905468       -24.6390
  15   2.0000      -0.817948       -22.2575
  16   2.0000      -0.781681       -21.2706
  17   2.0000      -0.696480       -18.9522
  18   2.0000      -0.665987       -18.1224
  19   2.0000      -0.647246       -17.6125
  20   2.0000      -0.608814       -16.5667
  21   2.0000      -0.581055       -15.8113
  22   2.0000      -0.570714       -15.5299
  23   2.0000      -0.560173       -15.2431
  24   2.0000      -0.545620       -14.8471
  25   2.0000      -0.539403       -14.6779
  26   2.0000      -0.524171       -14.2634
  27   2.0000      -0.497191       -13.5293
  28   2.0000      -0.488023       -13.2798
  29   2.0000      -0.475480       -12.9385
  30   2.0000      -0.471527       -12.8309
  31   2.0000      -0.452017       -12.3000
  32   2.0000      -0.435920       -11.8620
  33   2.0000      -0.428842       -11.6694
  34   0.0000       0.122334         3.3289
  35   0.0000       0.134311         3.6548
  36   0.0000       0.144021         3.9190
  37   0.0000       0.148474         4.0402
  38   0.0000       0.162158         4.4126

MULLIKEN ATOMIC CHARGES
-----------------------
   0 C :   -0.385094
   1 C :   -0.193090
   2 C :   -0.283605
   3 C :   -0.037848
   4 C :   -0.284386
   5 C :    0.119493
   6 C :   -0.250160
   7 C :   -0.260978
   8 N :   -0.058005
   9 H :    0.122362
  10 H :    0.136022
  11 H :    0.123907
  12 H :    0.110987
  13 H :    0.111286
  14 H :    0.105949
  15 H :    0.117383
  16 H :    0.119417
  17 H :    0.145434
  18 H :    0.126149
  19 H :    0.145931
  20 H :    0.126394
  21 H :    0.142452
Sum of atomic charges:   -0.0000000

LOEWDIN ATOMIC CHARGES
----------------------
   0 C :   -0.320227
   1 C :   -0.291874
   2 C :   -0.258367
   3 C :   -0.230891
   4 C :   -0.177170
   5 C :   -0.209411
   6 C :   -0.174180
   7 C :   -0.176974
   8 N :    0.054710
   9 H :    0.120322
  10 H :    0.121373
  11 H :    0.120871
  12 H :    0.136284
  13 H :    0.135851
  14 H :    0.138270
  15 H :    0.142009
  16 H :    0.156571
  17 H :    0.134304
  18 H :    0.140392
  19 H :    0.163531
  20 H :    0.140300
  21 H :    0.134307

  Mayer bond orders larger than 0.1
B(  0-C ,  1-C ) :   0.9219 B(  0-C ,  9-H ) :   0.9391 B(  0-C , 10-H ) :   0.9431
B(  0-C , 11-H ) :   0.9394 B(  1-C ,  2-C ) :   0.9290 B(  1-C , 12-H ) :   0.9329
B(  1-C , 13-H ) :   0.9338 B(  2-C ,  3-C ) :   0.9090 B(  2-C , 14-H ) :   0.9231
B(  2-C , 15-H ) :   0.9316 B(  3-C ,  4-C ) :   0.9376 B(  3-C ,  6-C ) :   0.9427
B(  3-C , 16-H ) :   0.9235 B(  4-C ,  5-C ) :   0.8588 B(  4-C , 17-H ) :   0.9268
B(  4-C , 18-H ) :   0.9196 B(  5-C ,  6-C ) :   0.8549 B(  5-C ,  7-C ) :   0.9523
B(  5-C , 19-H ) :   0.9049 B(  6-C , 20-H ) :   0.9214 B(  6-C , 21-H ) :   0.9283
B(  7-C ,  8-N ) :   2.8721

MP2 TOTAL ENERGY:     -366.562987268 Eh
FINAL SINGLE POINT ENERGY      -366.562987267625

DIPOLE MOMENT
-------------
                                X             Y             Z
Electronic contribution:      1.20628     -14.90082       2.28979
Nuclear contribution   :     -0.59930      16.45909      -2.20114
                        -----------------------------------------
Total Dipole Moment    :      0.60698       1.55827       0.08865
                        -----------------------------------------
Magnitude (a.u.)       :      1.67466
Magnitude (Debye)      :      4.25665

                             ****ORCA TERMINATED NORMALLY****
TOTAL RUN TIME: 0 days 0 hours 17 minutes 50 seconds 72 msec
