                         Program Version 3.0.3 - RELEASE   -
|  1> ! RI-MP2 RIJK def2-TZVP def2-TZVP/C def2-TZVP/JK TIGHTSCF
|  2> % maxcore 2000
|  3> % mp2 density relaxed end
|  4> *xyz 0 1
|  5>  C        0.0109736609     1.5391643524    -0.1275366329
|  6>  C        0.0095283700     0.0222870684    -0.0060820939
|  7>  C        1.3148632270    -0.7553734356    -0.1320204655
|  8>  C        0.6213386848    -0.6955733738     1.1987765924
|  9>  C        1.2060544297     0.0636028486     2.3759145081
| 10>  C        2.1517931183    -0.8170389865     3.1736847968
| 11>  O        3.2820938943    -0.5208065420     3.4566615742
| 12>  C       -1.1657016629    -0.6068886946    -0.5605092649
| 13>  N       -2.1141883208    -1.1023841538    -1.0007694144
| 14>  H        0.9447455379     1.9623139552     0.2475692247
| 15>  H       -0.0936842205     1.8344433798    -1.1753285847
| 16>  H       -0.8182063629     1.9809896994     0.4328244942
| 17>  H        1.3075336225    -1.6868114030    -0.6849693972
| 18>  H        2.2075544664    -0.1533601284    -0.2674384676
| 19>  H        0.0912703825    -1.6004854016     1.4833445115
| 20>  H        1.7558516536     0.9564017730     2.0716486301
| 21>  H        0.3960112880     0.3739457097     3.0521035606
| 22>  H        1.7143333712    -1.7914857170     3.4930050886
| 23> *
| 24>
| 25>                          ****END OF INPUT****

CARTESIAN COORDINATES (ANGSTROEM)
---------------------------------
  C      0.010974    1.539164   -0.127537
  C      0.009528    0.022287   -0.006082
  C      1.314863   -0.755373   -0.132020
  C      0.621339   -0.695573    1.198777
  C      1.206054    0.063603    2.375915
  C      2.151793   -0.817039    3.173685
  O      3.282094   -0.520807    3.456662
  C     -1.165702   -0.606889   -0.560509
  N     -2.114188   -1.102384   -1.000769
  H      0.944746    1.962314    0.247569
  H     -0.093684    1.834443   -1.175329
  H     -0.818206    1.980990    0.432824
  H      1.307534   -1.686811   -0.684969
  H      2.207554   -0.153360   -0.267438
  H      0.091270   -1.600485    1.483345
  H      1.755852    0.956402    2.071649
  H      0.396011    0.373946    3.052104
  H      1.714333   -1.791486    3.493005

 Total Charge           Charge          ....    0
 Multiplicity           Mult            ....    1
 Number of Electrons    NEL             ....   66
 Basis Dimension        Dim             ....  333

ORBITAL ENERGIES
----------------

  NO   OCC          E(Eh)            E(eV)
   0   2.0000     -20.572121      -559.7959
   1   2.0000     -15.572437      -423.7476
   2   2.0000     -11.347524      -308.7818
   3   2.0000     -11.302641      -307.5605
   4   2.0000     -11.282290      -307.0067
   5   2.0000     -11.276992      -306.8626
   6   2.0000     -11.267380      -306.6010
   7   2.0000     -11.266155      -306.5677
   8   2.0000     -11.254183      -306.2419
   9   2.0000      -1.411438       -38.4072
  10   2.0000      -1.232916       -33.5494
  11   2.0000      -1.192841       -32.4589
  12   2.0000      -1.055507       -28.7218
  13   2.0000      -1.000897       -27.2358
  14   2.0000      -0.883070       -24.0296
  15   2.0000      -0.849748       -23.1228
  16   2.0000      -0.805797       -21.9269
  17   2.0000      -0.731013       -19.8919
  18   2.0000      -0.686684       -18.6856
  19   2.0000      -0.657043       -17.8791
  20   2.0000      -0.644183       -17.5291
  21   2.0000      -0.615910       -16.7598
  22   2.0000      -0.605850       -16.4860
  23   2.0000      -0.586473       -15.9587
  24   2.0000      -0.576800       -15.6955
  25   2.0000      -0.553162       -15.0523
  26   2.0000      -0.543759       -14.7964
  27   2.0000      -0.523027       -14.2323
  28   2.0000      -0.506020       -13.7695
  29   2.0000      -0.486735       -13.2447
  30   2.0000      -0.453230       -12.3330
  31   2.0000      -0.435720       -11.8565
  32   2.0000      -0.409134       -11.1331
  33   0.0000       0.114971         3.1285
  34   0.0000       0.121444         3.3047
  35   0.0000       0.137330         3.7370
  36   0.0000       0.152860         4.1595
  37   0.0000       0.155944         4.2434

MULLIKEN ATOMIC CHARGES
-----------------------
   0 C :   -0.393595
   1 C :    0.178152
   2 C :   -0.287447
   3 C :   -0.168696
   4 C :   -0.153858
   5 C :    0.103841
   6 O :   -0.254943
   7 C :   -0.212457
   8 N :   -0.054806
   9 H :    0.136848
  10 H :    0.158313
  11 H :    0.149586
  12 H :    0.161432
  13 H :    0.151166
  14 H :    0.151032
  15 H :    0.113746
  16 H :    0.142683
  17 H :    0.079003
Sum of atomic charges:   -0.0000000

LOEWDIN ATOMIC CHARGES
----------------------
   0 C :   -0.240953
   1 C :   -0.236452
   2 C :   -0.152488
   3 C :   -0.171420
   4 C :   -0.236302
   5 C :   -0.286378
   6 O :    0.139710
   7 C :   -0.154706
   8 N :    0.063123
   9 H :    0.130219
  10 H :    0.137829
  11 H :    0.135225
  12 H :    0.144407
  13 H :    0.145541
  14 H :    0.162481
  15 H :    0.149306
  16 H :    0.158546
  17 H :    0.112310

  Mayer bond orders larger than 0.1
B(  0-C ,  1-C ) :   0.9272 B(  0-C ,  9-H ) :   0.9277 B(  0-C , 10-H ) :   0.9309
B(  0-C , 11-H ) :   0.9326 B(  1-C ,  2-C ) :   0.8452 B(  1-C ,  3-C ) :   0.8172
B(  1-C ,  7-C ) :   0.9280 B(  2-C ,  3-C ) :   0.9163 B(  2-C , 12-H ) :   0.9220
B(  2-C , 13-H ) :   0.9204 B(  3-C ,  4-C ) :   0.8977 B(  3-C , 14-H ) :   0.9124
B(  4-C ,  5-C ) :   0.8716 B(  4-C , 15-H ) :   0.9044 B(  4-C , 16-H ) :   0.9094
B(  5-C ,  6-O ) :   2.0136 B(  5-C , 17-H ) :   0.9368 B(  7-C ,  8-N ) :   2.8664

MP2 TOTAL ENERGY:     -401.265055755 Eh
FINAL SINGLE POINT ENERGY      -401.265055754897

DIPOLE MOMENT
-------------
                                X             Y             Z
Electronic contribution:     -1.16107      -3.72207       0.46347
Nuclear contribution   :      1.56005       4.28177      -0.16192
                        -----------------------------------------
Total Dipole Moment    :      0.39898       0.55969       0.30154
                        -----------------------------------------
Magnitude (a.u.)       :      0.75058
Magnitude (Debye)      :      1.90782

                             ****ORCA TERMINATED NORMALLY****
TOTAL RUN TIME: 0 days 0 hours 16 minutes 22 seconds 395 msec
