                         Program Version 3.0.3 - RELEASE   -
|  1> ! RI-MP2 RIJK def2-TZVP def2-TZVP/C def2-TZVP/JK TIGHTSCF
|  2> % maxcore 2000
|  3> % mp2 density relaxed end
|  4> *xyz 0 1
|  5>  C       -0.0422348143     1.6083136568     0.2322966742
|  6>  N        0.0333946380     0.1672807632     0.1498321655
|  7>  C       -1.1968171068    -0.6043117132     0.4104685677
|  8>  C       -0.3999725805    -1.5930650476     1.2947254338
|  9>  O       -0.9810983583    -2.1382086248     2.4255805414
| 10>  C        0.8042665200    -0.5644753698     1.1829712291
| 11>  C        1.7110888387    -1.6419447478     0.5442161207
| 12>  C        0.4944338392    -2.5915320986     0.5060257964
| 13>  O        0.3063043010    -3.6957245458     0.0934613132
| 14>  H        0.9559837866     2.0392926924     0.1043044219
| 15>  H       -0.6773160123     1.9911141159    -0.5735260179
| 16>  H       -0.4540651234     1.9767858267     1.1920282199
| 17>  H       -1.9254171030    -0.0572517844     1.0371767502
| 18>  H       -1.7153618232    -0.9873457615    -0.4746791287
| 19>  H       -1.5730243114    -1.4862353922     2.8168830989
| 20>  H        1.1811770100     0.0222781843     2.0235575805
| 21>  H        2.1821280279    -1.3968118304    -0.4092974645
| 22>  H        2.4631127320    -2.0390308232     1.2371425677
| 23> *
| 24>
| 25>                          ****END OF INPUT****

CARTESIAN COORDINATES (ANGSTROEM)
---------------------------------
  C     -0.042235    1.608314    0.232297
  N      0.033395    0.167281    0.149832
  C     -1.196817   -0.604312    0.410469
  C     -0.399973   -1.593065    1.294725
  O     -0.981098   -2.138209    2.425581
  C      0.804267   -0.564475    1.182971
  C      1.711089   -1.641945    0.544216
  C      0.494434   -2.591532    0.506026
  O      0.306304   -3.695725    0.093461
  H      0.955984    2.039293    0.104304
  H     -0.677316    1.991114   -0.573526
  H     -0.454065    1.976786    1.192028
  H     -1.925417   -0.057252    1.037177
  H     -1.715362   -0.987346   -0.474679
  H     -1.573024   -1.486235    2.816883
  H      1.181177    0.022278    2.023558
  H      2.182128   -1.396812   -0.409297
  H      2.463113   -2.039031    1.237143

 Total Charge           Charge          ....    0
 Multiplicity           Mult            ....    1
 Number of Electrons    NEL             ....   68
 Basis Dimension        Dim             ....  333

ORBITAL ENERGIES
----------------

  NO   OCC          E(Eh)            E(eV)
   0   2.0000     -20.584726      -560.1389
   1   2.0000     -20.555692      -559.3488
   2   2.0000     -15.562117      -423.4667
   3   2.0000     -11.332617      -308.3762
   4   2.0000     -11.307424      -307.6907
   5   2.0000     -11.273479      -306.7670
   6   2.0000     -11.273363      -306.7638
   7   2.0000     -11.259252      -306.3798
   8   2.0000     -11.240270      -305.8633
   9   2.0000      -1.406816       -38.2814
  10   2.0000      -1.388447       -37.7816
  11   2.0000      -1.269254       -34.5382
  12   2.0000      -1.097018       -29.8514
  13   2.0000      -0.998053       -27.1584
  14   2.0000      -0.910117       -24.7655
  15   2.0000      -0.878056       -23.8931
  16   2.0000      -0.807842       -21.9825
  17   2.0000      -0.742066       -20.1926
  18   2.0000      -0.698151       -18.9976
  19   2.0000      -0.679955       -18.5025
  20   2.0000      -0.666391       -18.1334
  21   2.0000      -0.629743       -17.1362
  22   2.0000      -0.617224       -16.7955
  23   2.0000      -0.612135       -16.6570
  24   2.0000      -0.588837       -16.0231
  25   2.0000      -0.571336       -15.5468
  26   2.0000      -0.563224       -15.3261
  27   2.0000      -0.547881       -14.9086
  28   2.0000      -0.510926       -13.9030
  29   2.0000      -0.499544       -13.5933
  30   2.0000      -0.479452       -13.0466
  31   2.0000      -0.422938       -11.5087
  32   2.0000      -0.397742       -10.8231
  33   2.0000      -0.367349        -9.9961
  34   0.0000       0.120140         3.2692
  35   0.0000       0.124601         3.3906
  36   0.0000       0.144414         3.9297
  37   0.0000       0.158684         4.3180
  38   0.0000       0.175466         4.7747

MULLIKEN ATOMIC CHARGES
-----------------------
   0 C :   -0.324091
   1 N :   -0.170313
   2 C :   -0.204256
   3 C :    0.214271
   4 O :   -0.423378
   5 C :   -0.064009
   6 C :   -0.209822
   7 C :    0.091774
   8 O :   -0.234119
   9 H :    0.140963
  10 H :    0.143039
  11 H :    0.101390
  12 H :    0.096844
  13 H :    0.131267
  14 H :    0.321461
  15 H :    0.121443
  16 H :    0.131752
  17 H :    0.135786
Sum of atomic charges:   -0.0000000

LOEWDIN ATOMIC CHARGES
----------------------
   0 C :   -0.338834
   1 N :    0.084233
   2 C :   -0.218703
   3 C :   -0.306965
   4 O :    0.043940
   5 C :   -0.187614
   6 C :   -0.194003
   7 C :   -0.265557
   8 O :    0.183769
   9 H :    0.120743
  10 H :    0.120897
  11 H :    0.099970
  12 H :    0.124029
  13 H :    0.128522
  14 H :    0.181781
  15 H :    0.130718
  16 H :    0.141178
  17 H :    0.151893

  Mayer bond orders larger than 0.1
B(  0-C ,  1-N ) :   0.9023 B(  0-C ,  9-H ) :   0.9375 B(  0-C , 10-H ) :   0.9380
B(  0-C , 11-H ) :   0.9234 B(  1-N ,  2-C ) :   0.9478 B(  1-N ,  5-C ) :   0.9624
B(  2-C ,  3-C ) :   0.9357 B(  2-C , 12-H ) :   0.9152 B(  2-C , 13-H ) :   0.9108
B(  3-C ,  4-O ) :   1.1092 B(  3-C ,  5-C ) :   0.8400 B(  3-C ,  6-C ) :  -0.1057
B(  3-C ,  7-C ) :   0.7942 B(  4-O , 14-H ) :   0.8313 B(  5-C ,  6-C ) :   0.9131
B(  5-C , 15-H ) :   0.8981 B(  6-C ,  7-C ) :   0.9555 B(  6-C , 16-H ) :   0.8810
B(  6-C , 17-H ) :   0.8946 B(  7-C ,  8-O ) :   2.0625

MP2 TOTAL ENERGY:     -438.325208288 Eh
FINAL SINGLE POINT ENERGY      -438.325208288025

DIPOLE MOMENT
-------------
                                X             Y             Z
Electronic contribution:     -0.09780      -8.72942       0.57923
Nuclear contribution   :     -0.03818      10.35219      -0.07379
                        -----------------------------------------
Total Dipole Moment    :     -0.13598       1.62277       0.50544
                        -----------------------------------------
Magnitude (a.u.)       :      1.70510
Magnitude (Debye)      :      4.33401

                             ****ORCA TERMINATED NORMALLY****
TOTAL RUN TIME: 0 days 0 hours 18 minutes 5 seconds 581 msec
