                         Program Version 3.0.3 - RELEASE   -
|  1> ! RI-MP2 RIJK def2-TZVP def2-TZVP/C def2-TZVP/JK TIGHTSCF
|  2> % maxcore 2000
|  3> % mp2 density relaxed end
|  4> *xyz 0 1
|  5>  C        0.1406487882    -1.2145304298    -0.1380683957
|  6>  C        0.0651824887    -0.0221177570    -0.0061915501
|  7>  C        0.0107302735     1.4086577961     0.1388808087
|  8>  C        0.2437931455     2.2707838705    -1.1064578330
|  9>  C        1.2914676045     2.2135362621    -0.0385618758
| 10>  C        1.4842937995     3.3471778992     0.9399472910
| 11>  O        0.2496891708     3.8868725701     1.4387762580
| 12>  C       -0.7788412483     3.0211590576     1.6109953536
| 13>  N       -0.9641408613     1.8854325456     1.0847429808
| 14>  H        0.1927903907    -2.2691085297    -0.2492624542
| 15>  H        0.4357861015     1.7534334032    -2.0387589937
| 16>  H       -0.3757065824     3.1576820729    -1.1867202664
| 17>  H        2.1967950001     1.6555815133    -0.2547813281
| 18>  H        2.0725970063     2.9934233950     1.7965340284
| 19>  H        2.0108788913     4.1941907523     0.4899467372
| 20>  H       -1.5189883086     3.4442340186     2.2866444192
| 21> *
| 22>
| 23>                          ****END OF INPUT****

CARTESIAN COORDINATES (ANGSTROEM)
---------------------------------
  C      0.140649   -1.214530   -0.138068
  C      0.065182   -0.022118   -0.006192
  C      0.010730    1.408658    0.138881
  C      0.243793    2.270784   -1.106458
  C      1.291468    2.213536   -0.038562
  C      1.484294    3.347178    0.939947
  O      0.249689    3.886873    1.438776
  C     -0.778841    3.021159    1.610995
  N     -0.964141    1.885433    1.084743
  H      0.192790   -2.269109   -0.249262
  H      0.435786    1.753433   -2.038759
  H     -0.375707    3.157682   -1.186720
  H      2.196795    1.655582   -0.254781
  H      2.072597    2.993423    1.796534
  H      2.010879    4.194191    0.489947
  H     -1.518988    3.444234    2.286644

 Total Charge           Charge          ....    0
 Multiplicity           Mult            ....    1
 Number of Electrons    NEL             ....   64
 Basis Dimension        Dim             ....  321

ORBITAL ENERGIES
----------------

  NO   OCC          E(Eh)            E(eV)
   0   2.0000     -20.603583      -560.6520
   1   2.0000     -15.557271      -423.3349
   2   2.0000     -11.338805      -308.5446
   3   2.0000     -11.306276      -307.6594
   4   2.0000     -11.298311      -307.4427
   5   2.0000     -11.257467      -306.3312
   6   2.0000     -11.247136      -306.0501
   7   2.0000     -11.233199      -305.6709
   8   2.0000     -11.221433      -305.3507
   9   2.0000      -1.435647       -39.0659
  10   2.0000      -1.247156       -33.9369
  11   2.0000      -1.150972       -31.3195
  12   2.0000      -1.029768       -28.0214
  13   2.0000      -0.984366       -26.7860
  14   2.0000      -0.907608       -24.6973
  15   2.0000      -0.845091       -22.9961
  16   2.0000      -0.775181       -21.0937
  17   2.0000      -0.720939       -19.6177
  18   2.0000      -0.705324       -19.1928
  19   2.0000      -0.692055       -18.8318
  20   2.0000      -0.679037       -18.4775
  21   2.0000      -0.649938       -17.6857
  22   2.0000      -0.607231       -16.5236
  23   2.0000      -0.565584       -15.3903
  24   2.0000      -0.551668       -15.0116
  25   2.0000      -0.522730       -14.2242
  26   2.0000      -0.506209       -13.7747
  27   2.0000      -0.472670       -12.8620
  28   2.0000      -0.420199       -11.4342
  29   2.0000      -0.406368       -11.0578
  30   2.0000      -0.387432       -10.5426
  31   2.0000      -0.346253        -9.4220
  32   0.0000       0.134797         3.6680
  33   0.0000       0.154494         4.2040
  34   0.0000       0.165122         4.4932
  35   0.0000       0.168103         4.5743
  36   0.0000       0.176227         4.7954

MULLIKEN ATOMIC CHARGES
-----------------------
   0 C :   -0.093217
   1 C :    0.012473
   2 C :   -0.028634
   3 C :   -0.269934
   4 C :   -0.164344
   5 C :   -0.026867
   6 O :   -0.270835
   7 C :    0.073744
   8 N :   -0.256900
   9 H :    0.191535
  10 H :    0.148282
  11 H :    0.150041
  12 H :    0.143577
  13 H :    0.122816
  14 H :    0.129792
  15 H :    0.138471
Sum of atomic charges:   -0.0000000

LOEWDIN ATOMIC CHARGES
----------------------
   0 C :   -0.086861
   1 C :   -0.061636
   2 C :   -0.261507
   3 C :   -0.148101
   4 C :   -0.184484
   5 C :   -0.253000
   6 O :    0.222127
   7 C :   -0.346964
   8 N :    0.136872
   9 H :    0.127212
  10 H :    0.143482
  11 H :    0.145257
  12 H :    0.160772
  13 H :    0.135662
  14 H :    0.135878
  15 H :    0.135291

  Mayer bond orders larger than 0.1
B(  0-C ,  1-C ) :   2.5690 B(  0-C ,  2-C ) :  -0.1736 B(  0-C ,  9-H ) :   0.8870
B(  1-C ,  2-C ) :   1.2120 B(  2-C ,  3-C ) :   0.7970 B(  2-C ,  4-C ) :   0.8404
B(  2-C ,  8-N ) :   1.0301 B(  3-C ,  4-C ) :   0.9190 B(  3-C , 10-H ) :   0.9212
B(  3-C , 11-H ) :   0.9111 B(  4-C ,  5-C ) :   0.9307 B(  4-C , 12-H ) :   0.9066
B(  5-C ,  6-O ) :   0.8695 B(  5-C , 13-H ) :   0.9318 B(  5-C , 14-H ) :   0.9268
B(  6-O ,  7-C ) :   1.0597 B(  7-C ,  8-N ) :   1.8257 B(  7-C , 15-H ) :   0.9265

MP2 TOTAL ENERGY:     -400.003113640 Eh
FINAL SINGLE POINT ENERGY      -400.003113640174

DIPOLE MOMENT
-------------
                                X             Y             Z
Electronic contribution:     -2.46701      -0.88217       1.92384
Nuclear contribution   :      3.33986       1.23730      -2.22034
                        -----------------------------------------
Total Dipole Moment    :      0.87285       0.35513      -0.29650
                        -----------------------------------------
Magnitude (a.u.)       :      0.98787
Magnitude (Debye)      :      2.51098

                             ****ORCA TERMINATED NORMALLY****
TOTAL RUN TIME: 0 days 0 hours 16 minutes 30 seconds 165 msec
