                         Program Version 3.0.3 - RELEASE   -
|  1> ! RI-MP2 RIJK def2-TZVP def2-TZVP/C def2-TZVP/JK TIGHTSCF
|  2> % maxcore 2000
|  3> % mp2 density relaxed end
|  4> *xyz 0 1
|  5>  C       -0.1205815153     1.5558842993    -0.2323972451
|  6>  C        0.0241201695     0.0487981837    -0.0165190204
|  7>  O        0.5755868784    -0.5693889362    -1.1899639116
|  8>  C        1.9671461005    -0.7439652884    -0.9862167236
|  9>  C        2.1212916963    -1.1535524168     0.4851520928
| 10>  C        3.4055573101    -0.6968796166     1.2152940530
| 11>  C        2.9051458320    -0.0286151913     2.5126106633
| 12>  C        1.5928184768     0.6469665896     2.0816005443
| 13>  C        0.9306321313    -0.4046195887     1.1667516112
| 14>  H        0.8418241179     2.0328060838    -0.4413168223
| 15>  H       -0.7757281465     1.7374673500    -1.0888288531
| 16>  H       -0.5586258067     2.0426751254     0.6453250783
| 17>  H       -0.9791101052    -0.3774444357     0.0955572267
| 18>  H        2.3138863252    -1.4966821060    -1.7001719245
| 19>  H        2.5210425104     0.1900518993    -1.1851763372
| 20>  H        1.9852371193    -2.2350241536     0.5692092814
| 21>  H        4.1017008622    -1.5183781262     1.4045777650
| 22>  H        3.9429982180     0.0401460774     0.6053986364
| 23>  H        2.6990386032    -0.7933032272     3.2720754357
| 24>  H        3.6292649938     0.6691205395     2.9444495183
| 25>  H        0.9593137205     0.9358614268     2.9255939725
| 26>  H        1.8241163592     1.5617515867     1.5256171187
| 27>  H        0.3678684890    -1.1010751049     1.7948494504
| 28> *
| 29>
| 30>                          ****END OF INPUT****

CARTESIAN COORDINATES (ANGSTROEM)
---------------------------------
  C     -0.120582    1.555884   -0.232397
  C      0.024120    0.048798   -0.016519
  O      0.575587   -0.569389   -1.189964
  C      1.967146   -0.743965   -0.986217
  C      2.121292   -1.153552    0.485152
  C      3.405557   -0.696880    1.215294
  C      2.905146   -0.028615    2.512611
  C      1.592818    0.646967    2.081601
  C      0.930632   -0.404620    1.166752
  H      0.841824    2.032806   -0.441317
  H     -0.775728    1.737467   -1.088829
  H     -0.558626    2.042675    0.645325
  H     -0.979110   -0.377444    0.095557
  H      2.313886   -1.496682   -1.700172
  H      2.521043    0.190052   -1.185176
  H      1.985237   -2.235024    0.569209
  H      4.101701   -1.518378    1.404578
  H      3.942998    0.040146    0.605399
  H      2.699039   -0.793303    3.272075
  H      3.629265    0.669121    2.944450
  H      0.959314    0.935861    2.925594
  H      1.824116    1.561752    1.525617
  H      0.367868   -1.101075    1.794849

 Total Charge           Charge          ....    0
 Multiplicity           Mult            ....    1
 Number of Electrons    NEL             ....   70
 Basis Dimension        Dim             ....  363

ORBITAL ENERGIES
----------------

  NO   OCC          E(Eh)            E(eV)
   0   2.0000     -20.540540      -558.9365
   1   2.0000     -11.272153      -306.7309
   2   2.0000     -11.264081      -306.5112
   3   2.0000     -11.223324      -305.4022
   4   2.0000     -11.221445      -305.3510
   5   2.0000     -11.220296      -305.3198
   6   2.0000     -11.219597      -305.3008
   7   2.0000     -11.218701      -305.2764
   8   2.0000     -11.210457      -305.0521
   9   2.0000      -1.366197       -37.1761
  10   2.0000      -1.123866       -30.5820
  11   2.0000      -1.031874       -28.0787
  12   2.0000      -0.987823       -26.8800
  13   2.0000      -0.950862       -25.8743
  14   2.0000      -0.900024       -24.4909
  15   2.0000      -0.800036       -21.7701
  16   2.0000      -0.772883       -21.0312
  17   2.0000      -0.744323       -20.2541
  18   2.0000      -0.694053       -18.8861
  19   2.0000      -0.657628       -17.8950
  20   2.0000      -0.628777       -17.1099
  21   2.0000      -0.605351       -16.4724
  22   2.0000      -0.585366       -15.9286
  23   2.0000      -0.567069       -15.4307
  24   2.0000      -0.552260       -15.0278
  25   2.0000      -0.540815       -14.7163
  26   2.0000      -0.525324       -14.2948
  27   2.0000      -0.508254       -13.8303
  28   2.0000      -0.476299       -12.9608
  29   2.0000      -0.469548       -12.7771
  30   2.0000      -0.463681       -12.6174
  31   2.0000      -0.453581       -12.3426
  32   2.0000      -0.442843       -12.0504
  33   2.0000      -0.429766       -11.6945
  34   2.0000      -0.406471       -11.0606
  35   0.0000       0.129724         3.5300
  36   0.0000       0.145991         3.9726
  37   0.0000       0.157840         4.2951
  38   0.0000       0.168740         4.5916
  39   0.0000       0.191221         5.2034

MULLIKEN ATOMIC CHARGES
-----------------------
   0 C :   -0.441051
   1 C :    0.120959
   2 O :   -0.318156
   3 C :   -0.052457
   4 C :   -0.068395
   5 C :   -0.278279
   6 C :   -0.178200
   7 C :   -0.273212
   8 C :   -0.089831
   9 H :    0.127645
  10 H :    0.142838
  11 H :    0.127605
  12 H :    0.092128
  13 H :    0.116686
  14 H :    0.070826
  15 H :    0.100533
  16 H :    0.123280
  17 H :    0.108429
  18 H :    0.107768
  19 H :    0.120517
  20 H :    0.123669
  21 H :    0.110835
  22 H :    0.105862
Sum of atomic charges:   -0.0000000

LOEWDIN ATOMIC CHARGES
----------------------
   0 C :   -0.300589
   1 C :   -0.301954
   2 O :    0.163242
   3 C :   -0.295236
   4 C :   -0.211715
   5 C :   -0.234900
   6 C :   -0.256334
   7 C :   -0.238137
   8 C :   -0.190348
   9 H :    0.121192
  10 H :    0.126289
  11 H :    0.125088
  12 H :    0.140040
  13 H :    0.126372
  14 H :    0.116618
  15 H :    0.148946
  16 H :    0.132533
  17 H :    0.136790
  18 H :    0.136501
  19 H :    0.130738
  20 H :    0.133304
  21 H :    0.140073
  22 H :    0.151486

  Mayer bond orders larger than 0.1
B(  0-C ,  1-C ) :   0.8991 B(  0-C ,  9-H ) :   0.9396 B(  0-C , 10-H ) :   0.9388
B(  0-C , 11-H ) :   0.9351 B(  1-C ,  2-O ) :   0.8997 B(  1-C ,  8-C ) :   0.9338
B(  1-C , 12-H ) :   0.9155 B(  2-O ,  3-C ) :   0.9359 B(  3-C ,  4-C ) :   0.9737
B(  3-C , 13-H ) :   0.9317 B(  3-C , 14-H ) :   0.8920 B(  4-C ,  5-C ) :   0.9105
B(  4-C ,  8-C ) :   0.9278 B(  4-C , 15-H ) :   0.9193 B(  5-C ,  6-C ) :   0.9251
B(  5-C , 16-H ) :   0.9334 B(  5-C , 17-H ) :   0.9239 B(  6-C ,  7-C ) :   0.9290
B(  6-C , 18-H ) :   0.9302 B(  6-C , 19-H ) :   0.9327 B(  7-C ,  8-C ) :   0.9291
B(  7-C , 20-H ) :   0.9310 B(  7-C , 21-H ) :   0.9269 B(  8-C , 22-H ) :   0.9206

MP2 TOTAL ENERGY:     -387.643855474 Eh
FINAL SINGLE POINT ENERGY      -387.643855474167

DIPOLE MOMENT
-------------
                                X             Y             Z
Electronic contribution:     -1.76154      -3.21233      -3.05289
Nuclear contribution   :      2.05379       3.31822       3.64454
                        -----------------------------------------
Total Dipole Moment    :      0.29225       0.10589       0.59165
                        -----------------------------------------
Magnitude (a.u.)       :      0.66833
Magnitude (Debye)      :      1.69876

                             ****ORCA TERMINATED NORMALLY****
TOTAL RUN TIME: 0 days 0 hours 23 minutes 1 seconds 38 msec
