                         Program Version 3.0.3 - RELEASE   -
|  1> ! RI-MP2 RIJK def2-TZVP def2-TZVP/C def2-TZVP/JK TIGHTSCF
|  2> % maxcore 2000
|  3> % mp2 density relaxed end
|  4> *xyz 0 1
|  5>  C        0.6181302498     1.0553565640     0.3884672434
|  6>  O        0.5088952910    -0.3263362424     0.1019003888
|  7>  C        0.5173353505    -0.6165050876    -1.2740793286
|  8>  O        1.7433969946    -0.2706786498    -1.8824521206
|  9>  C        2.6841935610    -1.3335644717    -1.6688915894
| 10>  C        1.8487273090    -2.6138926370    -1.5150223272
| 11>  C        1.6458606194    -3.2439595449    -0.1031379810
| 12>  C        0.1123979623    -3.0215537644    -0.2357097545
| 13>  C        0.3687706340    -2.1337208980    -1.4824527313
| 14>  H        1.5528055654     1.4748623093    -0.0008793130
| 15>  H       -0.2236666505     1.6183402478    -0.0432288708
| 16>  H        0.5946332394     1.1604610416     1.4753937334
| 17>  H       -0.2489850914    -0.0143919948    -1.7828905344
| 18>  H        3.3486450752    -1.3473092097    -2.5376370941
| 19>  H        3.2901452486    -1.1357898206    -0.7745128052
| 20>  H        2.0730760330    -3.3514341548    -2.2873905102
| 21>  H        1.9792174845    -4.2775940526     0.0142036997
| 22>  H        2.0915308876    -2.6384997545     0.6900003766
| 23>  H       -0.4231382497    -3.9376136362    -0.4969708230
| 24>  H       -0.3893404302    -2.5382378634     0.6020208538
| 25>  H       -0.2437348036    -2.3253938004    -2.3654075820
| 26> *
| 27>
| 28>                          ****END OF INPUT****

CARTESIAN COORDINATES (ANGSTROEM)
---------------------------------
  C      0.618130    1.055357    0.388467
  O      0.508895   -0.326336    0.101900
  C      0.517335   -0.616505   -1.274079
  O      1.743397   -0.270679   -1.882452
  C      2.684194   -1.333564   -1.668892
  C      1.848727   -2.613893   -1.515022
  C      1.645861   -3.243960   -0.103138
  C      0.112398   -3.021554   -0.235710
  C      0.368771   -2.133721   -1.482453
  H      1.552806    1.474862   -0.000879
  H     -0.223667    1.618340   -0.043229
  H      0.594633    1.160461    1.475394
  H     -0.248985   -0.014392   -1.782891
  H      3.348645   -1.347309   -2.537637
  H      3.290145   -1.135790   -0.774513
  H      2.073076   -3.351434   -2.287391
  H      1.979217   -4.277594    0.014204
  H      2.091531   -2.638500    0.690000
  H     -0.423138   -3.937614   -0.496971
  H     -0.389340   -2.538238    0.602021
  H     -0.243735   -2.325394   -2.365408

 Total Charge           Charge          ....    0
 Multiplicity           Mult            ....    1
 Number of Electrons    NEL             ....   70
 Basis Dimension        Dim             ....  351

ORBITAL ENERGIES
----------------

  NO   OCC          E(Eh)            E(eV)
   0   2.0000     -20.555641      -559.3474
   1   2.0000     -20.551523      -559.2354
   2   2.0000     -11.324524      -308.1560
   3   2.0000     -11.268898      -306.6423
   4   2.0000     -11.266305      -306.5718
   5   2.0000     -11.225336      -305.4569
   6   2.0000     -11.224555      -305.4357
   7   2.0000     -11.217018      -305.2306
   8   2.0000     -11.215491      -305.1890
   9   2.0000      -1.413242       -38.4563
  10   2.0000      -1.341288       -36.4983
  11   2.0000      -1.128594       -30.7106
  12   2.0000      -0.996038       -27.1036
  13   2.0000      -0.945886       -25.7389
  14   2.0000      -0.907323       -24.6895
  15   2.0000      -0.865400       -23.5487
  16   2.0000      -0.791514       -21.5382
  17   2.0000      -0.738021       -20.0826
  18   2.0000      -0.709390       -19.3035
  19   2.0000      -0.674162       -18.3449
  20   2.0000      -0.653679       -17.7875
  21   2.0000      -0.633690       -17.2436
  22   2.0000      -0.610078       -16.6011
  23   2.0000      -0.595186       -16.1958
  24   2.0000      -0.585532       -15.9331
  25   2.0000      -0.551574       -15.0091
  26   2.0000      -0.523205       -14.2371
  27   2.0000      -0.513784       -13.9808
  28   2.0000      -0.487090       -13.2544
  29   2.0000      -0.466598       -12.6968
  30   2.0000      -0.456565       -12.4238
  31   2.0000      -0.441196       -12.0056
  32   2.0000      -0.435007       -11.8371
  33   2.0000      -0.422158       -11.4875
  34   2.0000      -0.418284       -11.3821
  35   0.0000       0.143794         3.9128
  36   0.0000       0.154982         4.2173
  37   0.0000       0.166741         4.5372
  38   0.0000       0.169416         4.6100
  39   0.0000       0.189520         5.1571

MULLIKEN ATOMIC CHARGES
-----------------------
   0 C :   -0.243565
   1 O :   -0.299479
   2 C :    0.161492
   3 O :   -0.317115
   4 C :   -0.061386
   5 C :   -0.119344
   6 C :   -0.233615
   7 C :   -0.225559
   8 C :   -0.014802
   9 H :    0.137346
  10 H :    0.110747
  11 H :    0.136674
  12 H :    0.079597
  13 H :    0.114941
  14 H :    0.089683
  15 H :    0.110948
  16 H :    0.113674
  17 H :    0.106682
  18 H :    0.115675
  19 H :    0.118538
  20 H :    0.118869
Sum of atomic charges:   -0.0000000

LOEWDIN ATOMIC CHARGES
----------------------
   0 C :   -0.351849
   1 O :    0.161457
   2 C :   -0.389755
   3 O :    0.168991
   4 C :   -0.275160
   5 C :   -0.198790
   6 C :   -0.219403
   7 C :   -0.220061
   8 C :   -0.178717
   9 H :    0.107043
  10 H :    0.103113
  11 H :    0.112087
  12 H :    0.129642
  13 H :    0.124425
  14 H :    0.121971
  15 H :    0.144569
  16 H :    0.122828
  17 H :    0.134111
  18 H :    0.131067
  19 H :    0.129776
  20 H :    0.142654

  Mayer bond orders larger than 0.1
B(  0-C ,  1-O ) :   0.8988 B(  0-C ,  9-H ) :   0.9348 B(  0-C , 10-H ) :   0.9363
B(  0-C , 11-H ) :   0.9384 B(  1-O ,  2-C ) :   1.0263 B(  2-C ,  3-O ) :   0.9672
B(  2-C ,  8-C ) :   0.9523 B(  2-C , 12-H ) :   0.9194 B(  3-O ,  4-C ) :   0.9155
B(  4-C ,  5-C ) :   0.9688 B(  4-C , 13-H ) :   0.9284 B(  4-C , 14-H ) :   0.9091
B(  5-C ,  6-C ) :   0.9576 B(  5-C ,  8-C ) :   0.9299 B(  5-C , 15-H ) :   0.9148
B(  6-C ,  7-C ) :   0.9782 B(  6-C , 16-H ) :   0.9272 B(  6-C , 17-H ) :   0.8998
B(  7-C ,  8-C ) :   0.9230 B(  7-C , 18-H ) :   0.9232 B(  7-C , 19-H ) :   0.9060
B(  8-C , 20-H ) :   0.9104

MP2 TOTAL ENERGY:     -423.510555496 Eh
FINAL SINGLE POINT ENERGY      -423.510555496234

DIPOLE MOMENT
-------------
                                X             Y             Z
Electronic contribution:     -0.03187       1.08851      -2.34012
Nuclear contribution   :     -0.00294      -1.27718       2.33691
                        -----------------------------------------
Total Dipole Moment    :     -0.03481      -0.18868      -0.00322
                        -----------------------------------------
Magnitude (a.u.)       :      0.19189
Magnitude (Debye)      :      0.48775

                             ****ORCA TERMINATED NORMALLY****
TOTAL RUN TIME: 0 days 0 hours 18 minutes 59 seconds 296 msec
