                         Program Version 3.0.3 - RELEASE   -
|  1> ! RI-MP2 RIJK def2-TZVP def2-TZVP/C def2-TZVP/JK TIGHTSCF
|  2> % maxcore 2000
|  3> % mp2 density relaxed end
|  4> *xyz 0 1
|  5>  C       -0.0107669094     1.5700559348     0.0418061605
|  6>  C        0.0972613123     0.0599095078     0.0919488382
|  7>  C        1.3446310601    -0.7393357713    -0.1960037203
|  8>  C        2.6036740819    -0.0546278103     0.3560912068
|  9>  C        1.9485884217    -0.0587436994     1.7515756374
| 10>  C        2.6495598389    -0.3955973888     3.0334787433
| 11>  C        2.0410915665     0.9760928481     2.8378277299
| 12>  C        0.7068029342    -0.7578890603     1.2076890648
| 13>  C       -0.0352009852    -1.8524348386     1.9215039557
| 14>  H        0.8685912927     2.0642801308     0.4603246211
| 15>  H       -0.1302276730     1.9165509314    -0.9910766518
| 16>  H       -0.8816914975     1.9168037735     0.6094334519
| 17>  H       -0.7849189998    -0.4361194828    -0.3126490130
| 18>  H        1.3528151676    -1.5283458718    -0.9398069138
| 19>  H        3.4853160803    -0.7000057289     0.3113009677
| 20>  H        2.8620782377     0.9192681664    -0.0748126272
| 21>  H        2.1602289295    -1.0728471773     3.7265391489
| 22>  H        3.7315282983    -0.4847419773     3.0165743997
| 23>  H        2.7135109309     1.8153853724     2.6886243506
| 24>  H        1.1436426313     1.2207474133     3.3974188737
| 25>  H       -0.6137417618    -1.4630145477     2.7691717458
| 26>  H       -0.7416016450    -2.3492030405     1.2484242521
| 27>  H        0.6492050676    -2.6146748734     2.3109044079
| 28> *
| 29>
| 30>                          ****END OF INPUT****

CARTESIAN COORDINATES (ANGSTROEM)
---------------------------------
  C     -0.010767    1.570056    0.041806
  C      0.097261    0.059910    0.091949
  C      1.344631   -0.739336   -0.196004
  C      2.603674   -0.054628    0.356091
  C      1.948588   -0.058744    1.751576
  C      2.649560   -0.395597    3.033479
  C      2.041092    0.976093    2.837828
  C      0.706803   -0.757889    1.207689
  C     -0.035201   -1.852435    1.921504
  H      0.868591    2.064280    0.460325
  H     -0.130228    1.916551   -0.991077
  H     -0.881691    1.916804    0.609433
  H     -0.784919   -0.436119   -0.312649
  H      1.352815   -1.528346   -0.939807
  H      3.485316   -0.700006    0.311301
  H      2.862078    0.919268   -0.074813
  H      2.160229   -1.072847    3.726539
  H      3.731528   -0.484742    3.016574
  H      2.713511    1.815385    2.688624
  H      1.143643    1.220747    3.397419
  H     -0.613742   -1.463015    2.769172
  H     -0.741602   -2.349203    1.248424
  H      0.649205   -2.614675    2.310904

 Total Charge           Charge          ....    0
 Multiplicity           Mult            ....    1
 Number of Electrons    NEL             ....   68
 Basis Dimension        Dim             ....  363

ORBITAL ENERGIES
----------------

  NO   OCC          E(Eh)            E(eV)
   0   2.0000     -11.231775      -305.6321
   1   2.0000     -11.230184      -305.5888
   2   2.0000     -11.225200      -305.4532
   3   2.0000     -11.221423      -305.3504
   4   2.0000     -11.219712      -305.3039
   5   2.0000     -11.218486      -305.2705
   6   2.0000     -11.216684      -305.2215
   7   2.0000     -11.215069      -305.1775
   8   2.0000     -11.208252      -304.9921
   9   2.0000      -1.196916       -32.5697
  10   2.0000      -1.109471       -30.1902
  11   2.0000      -0.984390       -26.7866
  12   2.0000      -0.981815       -26.7165
  13   2.0000      -0.903758       -24.5925
  14   2.0000      -0.821672       -22.3588
  15   2.0000      -0.817625       -22.2487
  16   2.0000      -0.746605       -20.3161
  17   2.0000      -0.690958       -18.8019
  18   2.0000      -0.651654       -17.7324
  19   2.0000      -0.643074       -17.4989
  20   2.0000      -0.615130       -16.7385
  21   2.0000      -0.573887       -15.6163
  22   2.0000      -0.568578       -15.4718
  23   2.0000      -0.549719       -14.9586
  24   2.0000      -0.544059       -14.8046
  25   2.0000      -0.533973       -14.5302
  26   2.0000      -0.529466       -14.4075
  27   2.0000      -0.506877       -13.7928
  28   2.0000      -0.479561       -13.0495
  29   2.0000      -0.445530       -12.1235
  30   2.0000      -0.427438       -11.6312
  31   2.0000      -0.413254       -11.2452
  32   2.0000      -0.371949       -10.1212
  33   2.0000      -0.346809        -9.4371
  34   0.0000       0.135958         3.6996
  35   0.0000       0.154877         4.2144
  36   0.0000       0.162281         4.4159
  37   0.0000       0.166712         4.5365
  38   0.0000       0.187772         5.1095

MULLIKEN ATOMIC CHARGES
-----------------------
   0 C :   -0.399006
   1 C :   -0.132122
   2 C :   -0.116001
   3 C :   -0.226933
   4 C :   -0.046877
   5 C :   -0.289217
   6 C :   -0.281448
   7 C :    0.155899
   8 C :   -0.427969
   9 H :    0.139887
  10 H :    0.130377
  11 H :    0.127412
  12 H :    0.106622
  13 H :    0.125001
  14 H :    0.114128
  15 H :    0.114696
  16 H :    0.126517
  17 H :    0.125123
  18 H :    0.123866
  19 H :    0.127046
  20 H :    0.135148
  21 H :    0.131259
  22 H :    0.136593
Sum of atomic charges:   -0.0000000

LOEWDIN ATOMIC CHARGES
----------------------
   0 C :   -0.289586
   1 C :   -0.195654
   2 C :   -0.140672
   3 C :   -0.173361
   4 C :   -0.189782
   5 C :   -0.205525
   6 C :   -0.213278
   7 C :   -0.170564
   8 C :   -0.273454
   9 H :    0.128535
  10 H :    0.124573
  11 H :    0.125037
  12 H :    0.156380
  13 H :    0.133305
  14 H :    0.137978
  15 H :    0.128226
  16 H :    0.133468
  17 H :    0.132255
  18 H :    0.132729
  19 H :    0.133525
  20 H :    0.128293
  21 H :    0.130195
  22 H :    0.127379

  Mayer bond orders larger than 0.1
B(  0-C ,  1-C ) :   0.9075 B(  0-C ,  9-H ) :   0.9382 B(  0-C , 10-H ) :   0.9364
B(  0-C , 11-H ) :   0.9389 B(  1-C ,  2-C ) :   0.8753 B(  1-C ,  7-C ) :   0.8677
B(  1-C , 12-H ) :   0.9354 B(  2-C ,  3-C ) :   0.9389 B(  2-C ,  7-C ) :   0.8282
B(  2-C , 13-H ) :   0.9190 B(  3-C ,  4-C ) :   0.9327 B(  3-C , 14-H ) :   0.9127
B(  3-C , 15-H ) :   0.9149 B(  4-C ,  5-C ) :   0.8754 B(  4-C ,  6-C ) :   0.8707
B(  4-C ,  7-C ) :   0.8623 B(  5-C ,  6-C ) :   0.9437 B(  5-C , 16-H ) :   0.9198
B(  5-C , 17-H ) :   0.9218 B(  6-C , 18-H ) :   0.9237 B(  6-C , 19-H ) :   0.9205
B(  7-C ,  8-C ) :   0.8575 B(  8-C , 20-H ) :   0.9405 B(  8-C , 21-H ) :   0.9360
B(  8-C , 22-H ) :   0.9467

MP2 TOTAL ENERGY:     -350.466246772 Eh
FINAL SINGLE POINT ENERGY      -350.466246771604

DIPOLE MOMENT
-------------
                                X             Y             Z
Electronic contribution:      1.46751      -1.05918      -0.86124
Nuclear contribution   :     -1.52197       0.95642       0.86124
                        -----------------------------------------
Total Dipole Moment    :     -0.05446      -0.10276      -0.00001
                        -----------------------------------------
Magnitude (a.u.)       :      0.11630
Magnitude (Debye)      :      0.29561

                             ****ORCA TERMINATED NORMALLY****
TOTAL RUN TIME: 0 days 0 hours 21 minutes 18 seconds 768 msec
