                         Program Version 3.0.3 - RELEASE   -
|  1> ! RI-MP2 RIJK def2-TZVP def2-TZVP/C def2-TZVP/JK TIGHTSCF
|  2> % maxcore 2000
|  3> % mp2 density relaxed end
|  4> *xyz 0 1
|  5>  C       -0.0128618371     1.5019951835    -0.1604966255
|  6>  C       -0.2331929511     0.0378447703    -0.4989111941
|  7>  O        1.0336760176    -0.5729347603    -0.6885385499
|  8>  C        0.9551823401    -1.9263330704    -0.9984308980
|  9>  C        0.7024310649    -2.3469316784    -2.4273719764
| 10>  C        2.0778713120    -2.5131595158    -1.7991865695
| 11>  C        3.2395839557    -1.6565709170    -2.2546129623
| 12>  C        3.8947074336    -2.1907993648    -3.5230622439
| 13>  O        4.9847935498    -1.3381124668    -3.8420342697
| 14>  H        0.5851416642     1.6002645388     0.7499072771
| 15>  H        0.5163545691     2.0083270972    -0.9728568911
| 16>  H       -0.9716514406     2.0051065731    -0.0033904523
| 17>  H       -0.7765696623    -0.4708498768     0.3144804889
| 18>  H       -0.8430166887    -0.0678947959    -1.4096432947
| 19>  H        0.5185297369    -2.5380299788    -0.2065852313
| 20>  H        0.0947638195    -3.2233065742    -2.6252673966
| 21>  H        0.5940063341    -1.5449764028    -3.1508328616
| 22>  H        2.3478823928    -3.5311374791    -1.5269813700
| 23>  H        2.9031760139    -0.6306775411    -2.4276721383
| 24>  H        4.0001321440    -1.6050360454    -1.4661143997
| 25>  H        4.2350156777    -3.2271872629    -3.3595523041
| 26>  H        3.1549601794    -2.2185244458    -4.3392058397
| 27>  H        5.3964352945    -1.6652071364    -4.6469353372
| 28> *
| 29>
| 30>                          ****END OF INPUT****

CARTESIAN COORDINATES (ANGSTROEM)
---------------------------------
  C     -0.012862    1.501995   -0.160497
  C     -0.233193    0.037845   -0.498911
  O      1.033676   -0.572935   -0.688539
  C      0.955182   -1.926333   -0.998431
  C      0.702431   -2.346932   -2.427372
  C      2.077871   -2.513160   -1.799187
  C      3.239584   -1.656571   -2.254613
  C      3.894707   -2.190799   -3.523062
  O      4.984794   -1.338112   -3.842034
  H      0.585142    1.600265    0.749907
  H      0.516355    2.008327   -0.972857
  H     -0.971651    2.005107   -0.003390
  H     -0.776570   -0.470850    0.314480
  H     -0.843017   -0.067895   -1.409643
  H      0.518530   -2.538030   -0.206585
  H      0.094764   -3.223307   -2.625267
  H      0.594006   -1.544976   -3.150833
  H      2.347882   -3.531137   -1.526981
  H      2.903176   -0.630678   -2.427672
  H      4.000132   -1.605036   -1.466114
  H      4.235016   -3.227187   -3.359552
  H      3.154960   -2.218524   -4.339206
  H      5.396435   -1.665207   -4.646935

 Total Charge           Charge          ....    0
 Multiplicity           Mult            ....    1
 Number of Electrons    NEL             ....   72
 Basis Dimension        Dim             ....  363

ORBITAL ENERGIES
----------------

  NO   OCC          E(Eh)            E(eV)
   0   2.0000     -20.555019      -559.3305
   1   2.0000     -20.549310      -559.1752
   2   2.0000     -11.277677      -306.8812
   3   2.0000     -11.273194      -306.7592
   4   2.0000     -11.268614      -306.6346
   5   2.0000     -11.229058      -305.5582
   6   2.0000     -11.221249      -305.3457
   7   2.0000     -11.212940      -305.1196
   8   2.0000     -11.212430      -305.1057
   9   2.0000      -1.380635       -37.5690
  10   2.0000      -1.353032       -36.8179
  11   2.0000      -1.137700       -30.9584
  12   2.0000      -1.017137       -27.6777
  13   2.0000      -1.001063       -27.2403
  14   2.0000      -0.858297       -23.3555
  15   2.0000      -0.845246       -23.0003
  16   2.0000      -0.803493       -21.8642
  17   2.0000      -0.769319       -20.9342
  18   2.0000      -0.698533       -19.0080
  19   2.0000      -0.688547       -18.7363
  20   2.0000      -0.650334       -17.6965
  21   2.0000      -0.644543       -17.5389
  22   2.0000      -0.624466       -16.9926
  23   2.0000      -0.595534       -16.2053
  24   2.0000      -0.566727       -15.4214
  25   2.0000      -0.560953       -15.2643
  26   2.0000      -0.535626       -14.5751
  27   2.0000      -0.527751       -14.3608
  28   2.0000      -0.515393       -14.0246
  29   2.0000      -0.495216       -13.4755
  30   2.0000      -0.491772       -13.3818
  31   2.0000      -0.477039       -12.9809
  32   2.0000      -0.452762       -12.3203
  33   2.0000      -0.437518       -11.9055
  34   2.0000      -0.400695       -10.9035
  35   2.0000      -0.386584       -10.5195
  36   0.0000       0.137763         3.7487
  37   0.0000       0.145258         3.9527
  38   0.0000       0.155106         4.2207
  39   0.0000       0.167031         4.5451
  40   0.0000       0.172107         4.6833

MULLIKEN ATOMIC CHARGES
-----------------------
   0 C :   -0.361304
   1 C :   -0.046120
   2 O :   -0.296307
   3 C :    0.030519
   4 C :   -0.302106
   5 C :   -0.101381
   6 C :   -0.181950
   7 C :   -0.067101
   8 O :   -0.464860
   9 H :    0.130335
  10 H :    0.130511
  11 H :    0.121385
  12 H :    0.089904
  13 H :    0.096004
  14 H :    0.102569
  15 H :    0.129365
  16 H :    0.135877
  17 H :    0.116410
  18 H :    0.124584
  19 H :    0.118935
  20 H :    0.085243
  21 H :    0.095871
  22 H :    0.313614
Sum of atomic charges:    0.0000000

LOEWDIN ATOMIC CHARGES
----------------------
   0 C :   -0.317268
   1 C :   -0.341882
   2 O :    0.193936
   3 C :   -0.303761
   4 C :   -0.218859
   5 C :   -0.208640
   6 C :   -0.247949
   7 C :   -0.348869
   8 O :   -0.053329
   9 H :    0.124358
  10 H :    0.124047
  11 H :    0.124186
  12 H :    0.116999
  13 H :    0.117513
  14 H :    0.132449
  15 H :    0.128876
  16 H :    0.138940
  17 H :    0.148888
  18 H :    0.147441
  19 H :    0.145219
  20 H :    0.112739
  21 H :    0.114223
  22 H :    0.170745

  Mayer bond orders larger than 0.1
B(  0-C ,  1-C ) :   0.9501 B(  0-C ,  9-H ) :   0.9353 B(  0-C , 10-H ) :   0.9370
B(  0-C , 11-H ) :   0.9323 B(  1-C ,  2-O ) :   0.9021 B(  1-C , 12-H ) :   0.9252
B(  1-C , 13-H ) :   0.9255 B(  2-O ,  3-C ) :   0.9777 B(  3-C ,  4-C ) :   0.8994
B(  3-C ,  5-C ) :   0.8955 B(  3-C , 14-H ) :   0.9342 B(  4-C ,  5-C ) :   0.8777
B(  4-C , 15-H ) :   0.9194 B(  4-C , 16-H ) :   0.9222 B(  5-C ,  6-C ) :   0.9026
B(  5-C , 17-H ) :   0.9184 B(  6-C ,  7-C ) :   0.9352 B(  6-C , 18-H ) :   0.9208
B(  6-C , 19-H ) :   0.9256 B(  7-C ,  8-O ) :   1.0172 B(  7-C , 20-H ) :   0.9276
B(  7-C , 21-H ) :   0.9323 B(  8-O , 22-H ) :   0.8502

MP2 TOTAL ENERGY:     -424.692567457 Eh
FINAL SINGLE POINT ENERGY      -424.692567457001

DIPOLE MOMENT
-------------
                                X             Y             Z
Electronic contribution:      3.78326      -2.05687      -0.79400
Nuclear contribution   :     -4.35728       1.47303       0.46073
                        -----------------------------------------
Total Dipole Moment    :     -0.57402      -0.58384      -0.33327
                        -----------------------------------------
Magnitude (a.u.)       :      0.88399
Magnitude (Debye)      :      2.24693

                             ****ORCA TERMINATED NORMALLY****
TOTAL RUN TIME: 0 days 0 hours 15 minutes 52 seconds 591 msec
