                         Program Version 3.0.3 - RELEASE   -
|  1> ! RI-MP2 RIJK def2-TZVP def2-TZVP/C def2-TZVP/JK TIGHTSCF
|  2> % maxcore 2000
|  3> % mp2 density relaxed end
|  4> *xyz 0 1
|  5>  C       -0.2031130145     1.3811074271    -0.0107456407
|  6>  O        0.0198347499    -0.0065195491     0.0479876056
|  7>  C        0.5858998587    -0.5242264329    -1.1346917997
|  8>  C        0.7905651348    -2.0267859348    -0.9526752785
|  9>  C        1.3948247861    -2.6781039146    -2.1630941573
| 10>  C        0.6016121219    -3.1262203538    -3.3822890392
| 11>  C        1.4421780859    -4.1139128057    -2.6348820819
| 12>  O        2.8083667576    -4.0257630278    -3.0464771284
| 13>  C        2.8763114965    -2.6629457591    -2.5476999896
| 14>  H        0.7338314185     1.9404375682    -0.1641490665
| 15>  H       -0.8976194168     1.6509905069    -0.8225199436
| 16>  H       -0.6417282770     1.6838754144     0.9432522983
| 17>  H       -0.0731000956    -0.3319437687    -1.9987284590
| 18>  H        1.5487703650    -0.0275350159    -1.3500004617
| 19>  H        1.4268805253    -2.1886289483    -0.0739472206
| 20>  H       -0.1800053953    -2.4828232493    -0.7260449149
| 21>  H       -0.4693419415    -3.1994571907    -3.2156464010
| 22>  H        0.8949355176    -2.8319776375    -4.3867439355
| 23>  H        1.0989178882    -5.0463102693    -2.2005418132
| 24>  H        3.2046272528    -1.9527872646    -3.3164037780
| 25>  H        3.5460322520    -2.6052906843    -1.6806810546
| 26> *
| 27>
| 28>                          ****END OF INPUT****

CARTESIAN COORDINATES (ANGSTROEM)
---------------------------------
  C     -0.203113    1.381107   -0.010746
  O      0.019835   -0.006520    0.047988
  C      0.585900   -0.524226   -1.134692
  C      0.790565   -2.026786   -0.952675
  C      1.394825   -2.678104   -2.163094
  C      0.601612   -3.126220   -3.382289
  C      1.442178   -4.113913   -2.634882
  O      2.808367   -4.025763   -3.046477
  C      2.876311   -2.662946   -2.547700
  H      0.733831    1.940438   -0.164149
  H     -0.897619    1.650991   -0.822520
  H     -0.641728    1.683875    0.943252
  H     -0.073100   -0.331944   -1.998728
  H      1.548770   -0.027535   -1.350000
  H      1.426881   -2.188629   -0.073947
  H     -0.180005   -2.482823   -0.726045
  H     -0.469342   -3.199457   -3.215646
  H      0.894936   -2.831978   -4.386744
  H      1.098918   -5.046310   -2.200542
  H      3.204627   -1.952787   -3.316404
  H      3.546032   -2.605291   -1.680681

 Total Charge           Charge          ....    0
 Multiplicity           Mult            ....    1
 Number of Electrons    NEL             ....   70
 Basis Dimension        Dim             ....  351

ORBITAL ENERGIES
----------------

  NO   OCC          E(Eh)            E(eV)
   0   2.0000     -20.558474      -559.4245
   1   2.0000     -20.552173      -559.2530
   2   2.0000     -11.286589      -307.1237
   3   2.0000     -11.283255      -307.0330
   4   2.0000     -11.278927      -306.9152
   5   2.0000     -11.273401      -306.7648
   6   2.0000     -11.244584      -305.9807
   7   2.0000     -11.232605      -305.6547
   8   2.0000     -11.231346      -305.6205
   9   2.0000      -1.390642       -37.8413
  10   2.0000      -1.380037       -37.5527
  11   2.0000      -1.129375       -30.7318
  12   2.0000      -1.033191       -28.1146
  13   2.0000      -0.951470       -25.8908
  14   2.0000      -0.916559       -24.9408
  15   2.0000      -0.850032       -23.1306
  16   2.0000      -0.817844       -22.2547
  17   2.0000      -0.740583       -20.1523
  18   2.0000      -0.687626       -18.7112
  19   2.0000      -0.678023       -18.4499
  20   2.0000      -0.658579       -17.9208
  21   2.0000      -0.642869       -17.4934
  22   2.0000      -0.629512       -17.1299
  23   2.0000      -0.613619       -16.6974
  24   2.0000      -0.587990       -16.0000
  25   2.0000      -0.561162       -15.2700
  26   2.0000      -0.541230       -14.7276
  27   2.0000      -0.523383       -14.2420
  28   2.0000      -0.518387       -14.1060
  29   2.0000      -0.493561       -13.4305
  30   2.0000      -0.484012       -13.1706
  31   2.0000      -0.462107       -12.5746
  32   2.0000      -0.427047       -11.6205
  33   2.0000      -0.398295       -10.8381
  34   2.0000      -0.374652       -10.1948
  35   0.0000       0.132524         3.6062
  36   0.0000       0.152227         4.1423
  37   0.0000       0.165610         4.5065
  38   0.0000       0.169778         4.6199
  39   0.0000       0.183151         4.9838

MULLIKEN ATOMIC CHARGES
-----------------------
   0 C :   -0.212899
   1 O :   -0.298751
   2 C :   -0.072247
   3 C :   -0.167568
   4 C :   -0.080339
   5 C :   -0.271951
   6 C :    0.044655
   7 O :   -0.332049
   8 C :   -0.000008
   9 H :    0.110675
  10 H :    0.110717
  11 H :    0.139705
  12 H :    0.099345
  13 H :    0.092220
  14 H :    0.120996
  15 H :    0.115435
  16 H :    0.129094
  17 H :    0.135454
  18 H :    0.131390
  19 H :    0.104434
  20 H :    0.101692
Sum of atomic charges:    0.0000000

LOEWDIN ATOMIC CHARGES
----------------------
   0 C :   -0.362291
   1 O :    0.134504
   2 C :   -0.323198
   3 C :   -0.231380
   4 C :   -0.222015
   5 C :   -0.191289
   6 C :   -0.232244
   7 O :    0.141512
   8 C :   -0.219378
   9 H :    0.100957
  10 H :    0.101050
  11 H :    0.113566
  12 H :    0.120462
  13 H :    0.118834
  14 H :    0.147178
  15 H :    0.148952
  16 H :    0.143183
  17 H :    0.135611
  18 H :    0.131116
  19 H :    0.118917
  20 H :    0.125954

  Mayer bond orders larger than 0.1
B(  0-C ,  1-O ) :   0.9172 B(  0-C ,  9-H ) :   0.9369 B(  0-C , 10-H ) :   0.9366
B(  0-C , 11-H ) :   0.9396 B(  1-O ,  2-C ) :   0.9640 B(  2-C ,  3-C ) :   0.9391
B(  2-C , 12-H ) :   0.9268 B(  2-C , 13-H ) :   0.9268 B(  3-C ,  4-C ) :   0.9124
B(  3-C , 14-H ) :   0.9224 B(  3-C , 15-H ) :   0.9203 B(  4-C ,  5-C ) :   0.8713
B(  4-C ,  6-C ) :   0.9107 B(  4-C ,  8-C ) :   0.9647 B(  5-C ,  6-C ) :   0.8819
B(  5-C , 16-H ) :   0.9216 B(  5-C , 17-H ) :   0.9074 B(  6-C ,  7-O ) :   0.9643
B(  6-C , 18-H ) :   0.9168 B(  7-O ,  8-C ) :   0.9363 B(  8-C , 19-H ) :   0.9090
B(  8-C , 20-H ) :   0.9130

MP2 TOTAL ENERGY:     -423.454227719 Eh
FINAL SINGLE POINT ENERGY      -423.454227718542

DIPOLE MOMENT
-------------
                                X             Y             Z
Electronic contribution:      2.80527      -6.36928      -1.56612
Nuclear contribution   :     -3.20672       7.09385       1.61563
                        -----------------------------------------
Total Dipole Moment    :     -0.40146       0.72457       0.04951
                        -----------------------------------------
Magnitude (a.u.)       :      0.82983
Magnitude (Debye)      :      2.10927

                             ****ORCA TERMINATED NORMALLY****
TOTAL RUN TIME: 0 days 0 hours 15 minutes 43 seconds 387 msec
