                         Program Version 3.0.3 - RELEASE   -
|  1> ! RI-MP2 RIJK def2-TZVP def2-TZVP/C def2-TZVP/JK TIGHTSCF
|  2> % maxcore 2000
|  3> % mp2 density relaxed end
|  4> *xyz 0 1
|  5>  N        0.0585156378     0.9792042428    -0.7984019709
|  6>  C       -0.0177263301    -0.1813898132    -0.2930152568
|  7>  C       -1.0715231279    -0.6722349528     0.6996448526
|  8>  N       -0.6841819241    -2.0368191062     1.0819787580
|  9>  C        0.3552844816    -2.3081547521     0.3896410762
| 10>  N        0.7900419227    -1.3093083460    -0.4770971470
| 11>  C        1.0876542476    -3.5937204099     0.4333078777
| 12>  C        1.4438057297    -4.3075787212    -0.8065703171
| 13>  O        2.4226141103    -3.5582418785    -0.0884914747
| 14>  H        0.8473849688     1.0655564827    -1.4410952187
| 15>  H       -1.1246789099    -0.0207543441     1.5777183089
| 16>  H       -2.0675429969    -0.6703654838     0.2422856311
| 17>  H        1.7120372577    -1.3087461550    -0.8841892282
| 18>  H        0.9465342502    -4.1630764683     1.3480918684
| 19>  H        1.5641899750    -5.3885820240    -0.7741981211
| 20>  H        1.1461727075    -3.8925157706    -1.7674120482
| 21> *
| 22>
| 23>                          ****END OF INPUT****

CARTESIAN COORDINATES (ANGSTROEM)
---------------------------------
  N      0.058516    0.979204   -0.798402
  C     -0.017726   -0.181390   -0.293015
  C     -1.071523   -0.672235    0.699645
  N     -0.684182   -2.036819    1.081979
  C      0.355284   -2.308155    0.389641
  N      0.790042   -1.309308   -0.477097
  C      1.087654   -3.593720    0.433308
  C      1.443806   -4.307579   -0.806570
  O      2.422614   -3.558242   -0.088491
  H      0.847385    1.065556   -1.441095
  H     -1.124679   -0.020754    1.577718
  H     -2.067543   -0.670365    0.242286
  H      1.712037   -1.308746   -0.884189
  H      0.946534   -4.163076    1.348092
  H      1.564190   -5.388582   -0.774198
  H      1.146173   -3.892516   -1.767412

 Total Charge           Charge          ....    0
 Multiplicity           Mult            ....    1
 Number of Electrons    NEL             ....   66
 Basis Dimension        Dim             ....  321

ORBITAL ENERGIES
----------------

  NO   OCC          E(Eh)            E(eV)
   0   2.0000     -20.603464      -560.6488
   1   2.0000     -15.608251      -424.7221
   2   2.0000     -15.555488      -423.2863
   3   2.0000     -15.535909      -422.7536
   4   2.0000     -11.333714      -308.4060
   5   2.0000     -11.328044      -308.2518
   6   2.0000     -11.321268      -308.0674
   7   2.0000     -11.315195      -307.9021
   8   2.0000     -11.266229      -306.5697
   9   2.0000      -1.447020       -39.3754
  10   2.0000      -1.343062       -36.5466
  11   2.0000      -1.213515       -33.0214
  12   2.0000      -1.159567       -31.5534
  13   2.0000      -1.022425       -27.8216
  14   2.0000      -0.949994       -25.8507
  15   2.0000      -0.900503       -24.5039
  16   2.0000      -0.822898       -22.3922
  17   2.0000      -0.804789       -21.8994
  18   2.0000      -0.735673       -20.0187
  19   2.0000      -0.710225       -19.3262
  20   2.0000      -0.682388       -18.5687
  21   2.0000      -0.648965       -17.6592
  22   2.0000      -0.623344       -16.9621
  23   2.0000      -0.592743       -16.1294
  24   2.0000      -0.577203       -15.7065
  25   2.0000      -0.552799       -15.0424
  26   2.0000      -0.540969       -14.7205
  27   2.0000      -0.499103       -13.5813
  28   2.0000      -0.487700       -13.2710
  29   2.0000      -0.470374       -12.7995
  30   2.0000      -0.438509       -11.9324
  31   2.0000      -0.415493       -11.3061
  32   2.0000      -0.353162        -9.6100
  33   0.0000       0.125633         3.4186
  34   0.0000       0.128210         3.4888
  35   0.0000       0.158334         4.3085
  36   0.0000       0.165231         4.4962
  37   0.0000       0.174054         4.7363

MULLIKEN ATOMIC CHARGES
-----------------------
   0 N :   -0.365222
   1 C :    0.042161
   2 C :   -0.044213
   3 N :   -0.245894
   4 C :    0.176436
   5 N :   -0.332947
   6 C :   -0.014811
   7 C :   -0.065238
   8 O :   -0.333366
   9 H :    0.206933
  10 H :    0.145713
  11 H :    0.143674
  12 H :    0.260861
  13 H :    0.155010
  14 H :    0.135699
  15 H :    0.135205
Sum of atomic charges:   -0.0000000

LOEWDIN ATOMIC CHARGES
----------------------
   0 N :   -0.072508
   1 C :   -0.350895
   2 C :   -0.227009
   3 N :    0.099327
   4 C :   -0.320089
   5 N :    0.153449
   6 C :   -0.239953
   7 C :   -0.248688
   8 O :    0.150244
   9 H :    0.160087
  10 H :    0.149618
  11 H :    0.150231
  12 H :    0.192485
  13 H :    0.153950
  14 H :    0.125438
  15 H :    0.124314

  Mayer bond orders larger than 0.1
B(  0-N ,  1-C ) :   2.0565 B(  0-N ,  9-H ) :   0.8565 B(  1-C ,  2-C ) :   0.9225
B(  1-C ,  5-N ) :   1.0475 B(  2-C ,  3-N ) :   0.9394 B(  2-C , 10-H ) :   0.9119
B(  2-C , 11-H ) :   0.9072 B(  3-N ,  4-C ) :   1.8419 B(  4-C ,  5-N ) :   1.0515
B(  4-C ,  6-C ) :   0.9219 B(  5-N , 12-H ) :   0.8487 B(  6-C ,  7-C ) :   0.9502
B(  6-C ,  8-O ) :   0.9257 B(  6-C , 13-H ) :   0.9236 B(  7-C ,  8-O ) :   0.8757
B(  7-C , 14-H ) :   0.9250 B(  7-C , 15-H ) :   0.9121

MP2 TOTAL ENERGY:     -433.338986047 Eh
FINAL SINGLE POINT ENERGY      -433.338986047351

DIPOLE MOMENT
-------------
                                X             Y             Z
Electronic contribution:      1.12098       0.14361       0.90669
Nuclear contribution   :     -0.59068      -1.03353      -1.55617
                        -----------------------------------------
Total Dipole Moment    :      0.53030      -0.88993      -0.64948
                        -----------------------------------------
Magnitude (a.u.)       :      1.22271
Magnitude (Debye)      :      3.10787

                             ****ORCA TERMINATED NORMALLY****
TOTAL RUN TIME: 0 days 0 hours 15 minutes 23 seconds 245 msec
