                         Program Version 3.0.3 - RELEASE   -
|  1> ! RI-MP2 RIJK def2-TZVP def2-TZVP/C def2-TZVP/JK TIGHTSCF
|  2> % maxcore 2000
|  3> % mp2 density relaxed end
|  4> *xyz 0 1
|  5>  C        0.0085278606     1.4611018483    -0.0088284322
|  6>  N        0.0315773818     0.0124683046    -0.0174141531
|  7>  C       -1.1084155271    -0.7763721765    -0.1221025939
|  8>  O       -2.2392749400    -0.3617376286    -0.2168592812
|  9>  C       -0.6221292048    -2.2331131905    -0.0911242721
| 10>  C        0.8664351515    -2.1113901609     0.0383871692
| 11>  C        1.1761263474    -0.8031084958     0.0750207067
| 12>  C        2.4680380299    -0.2219347273     0.1907577405
| 13>  N        3.5139903597     0.2652386152     0.2845204736
| 14>  H        0.5760791130     1.8718977327    -0.8497102344
| 15>  H       -1.0379005222     1.7567037299    -0.0975903676
| 16>  H        0.4217071206     1.8588822508     0.9233671074
| 17>  H       -1.0912238044    -2.7627274402     0.7461300196
| 18>  H       -0.9399719345    -2.7495116076    -1.0042676360
| 19>  H        1.5730482184    -2.9240556640     0.0934050034
| 20> *
| 21>
| 22>                          ****END OF INPUT****

CARTESIAN COORDINATES (ANGSTROEM)
---------------------------------
  C      0.008528    1.461102   -0.008828
  N      0.031577    0.012468   -0.017414
  C     -1.108416   -0.776372   -0.122103
  O     -2.239275   -0.361738   -0.216859
  C     -0.622129   -2.233113   -0.091124
  C      0.866435   -2.111390    0.038387
  C      1.176126   -0.803108    0.075021
  C      2.468038   -0.221935    0.190758
  N      3.513990    0.265239    0.284520
  H      0.576079    1.871898   -0.849710
  H     -1.037901    1.756704   -0.097590
  H      0.421707    1.858882    0.923367
  H     -1.091224   -2.762727    0.746130
  H     -0.939972   -2.749512   -1.004268
  H      1.573048   -2.924056    0.093405

 Total Charge           Charge          ....    0
 Multiplicity           Mult            ....    1
 Number of Electrons    NEL             ....   64
 Basis Dimension        Dim             ....  315

ORBITAL ENERGIES
----------------

  NO   OCC          E(Eh)            E(eV)
   0   2.0000     -20.543220      -559.0094
   1   2.0000     -15.622689      -425.1150
   2   2.0000     -15.600130      -424.5011
   3   2.0000     -11.374319      -309.5110
   4   2.0000     -11.337242      -308.5020
   5   2.0000     -11.300126      -307.4921
   6   2.0000     -11.279243      -306.9238
   7   2.0000     -11.278753      -306.9105
   8   2.0000     -11.273916      -306.7788
   9   2.0000      -1.410641       -38.3855
  10   2.0000      -1.309675       -35.6381
  11   2.0000      -1.239812       -33.7370
  12   2.0000      -1.121039       -30.5050
  13   2.0000      -1.029834       -28.0232
  14   2.0000      -0.966186       -26.2913
  15   2.0000      -0.870135       -23.6776
  16   2.0000      -0.791596       -21.5404
  17   2.0000      -0.756184       -20.5768
  18   2.0000      -0.680744       -18.5240
  19   2.0000      -0.672000       -18.2861
  20   2.0000      -0.634871       -17.2757
  21   2.0000      -0.616672       -16.7805
  22   2.0000      -0.612102       -16.6561
  23   2.0000      -0.596083       -16.2202
  24   2.0000      -0.574971       -15.6458
  25   2.0000      -0.564980       -15.3739
  26   2.0000      -0.542250       -14.7554
  27   2.0000      -0.538301       -14.6479
  28   2.0000      -0.493135       -13.4189
  29   2.0000      -0.463649       -12.6165
  30   2.0000      -0.443094       -12.0572
  31   2.0000      -0.345054        -9.3894
  32   0.0000       0.071116         1.9352
  33   0.0000       0.123751         3.3674
  34   0.0000       0.142005         3.8641
  35   0.0000       0.149540         4.0692
  36   0.0000       0.158130         4.3029

MULLIKEN ATOMIC CHARGES
-----------------------
   0 C :   -0.343325
   1 N :   -0.073769
   2 C :    0.150193
   3 O :   -0.332346
   4 C :   -0.122515
   5 C :   -0.272770
   6 C :    0.239249
   7 C :   -0.192577
   8 N :   -0.031788
   9 H :    0.155473
  10 H :    0.185090
  11 H :    0.155460
  12 H :    0.158204
  13 H :    0.158204
  14 H :    0.167216
Sum of atomic charges:    0.0000000

LOEWDIN ATOMIC CHARGES
----------------------
   0 C :   -0.270728
   1 N :    0.228248
   2 C :   -0.388518
   3 O :    0.105147
   4 C :   -0.193983
   5 C :   -0.107227
   6 C :   -0.197846
   7 C :   -0.143269
   8 N :    0.094060
   9 H :    0.126318
  10 H :    0.140191
  11 H :    0.126305
  12 H :    0.165801
  13 H :    0.165800
  14 H :    0.149701

  Mayer bond orders larger than 0.1
B(  0-C ,  1-N ) :   0.8549 B(  0-C ,  9-H ) :   0.9286 B(  0-C , 10-H ) :   0.9189
B(  0-C , 11-H ) :   0.9286 B(  1-N ,  2-C ) :   1.0824 B(  1-N ,  6-C ) :   1.0194
B(  2-C ,  3-O ) :   1.9806 B(  2-C ,  4-C ) :   0.9470 B(  4-C ,  5-C ) :   0.9526
B(  4-C , 12-H ) :   0.8903 B(  4-C , 13-H ) :   0.8903 B(  5-C ,  6-C ) :   1.6039
B(  5-C , 14-H ) :   0.9192 B(  6-C ,  7-C ) :   0.8926 B(  7-C ,  8-N ) :   2.8308

MP2 TOTAL ENERGY:     -416.149684020 Eh
FINAL SINGLE POINT ENERGY      -416.149684020409

DIPOLE MOMENT
-------------
                                X             Y             Z
Electronic contribution:      2.48618      -0.67764       0.20967
Nuclear contribution   :     -2.64933       0.06062      -0.22818
                        -----------------------------------------
Total Dipole Moment    :     -0.16315      -0.61703      -0.01851
                        -----------------------------------------
Magnitude (a.u.)       :      0.63850
Magnitude (Debye)      :      1.62294

                             ****ORCA TERMINATED NORMALLY****
TOTAL RUN TIME: 0 days 0 hours 15 minutes 43 seconds 525 msec
