                         Program Version 3.0.3 - RELEASE   -
|  1> ! RI-MP2 RIJK def2-TZVP def2-TZVP/C def2-TZVP/JK TIGHTSCF
|  2> % maxcore 2000
|  3> % mp2 density relaxed end
|  4> *xyz 0 1
|  5>  O       -0.0630638910     1.4071833446    -0.0233047599
|  6>  C        0.0213165345     0.0193980787     0.0133556243
|  7>  C        0.3298770286    -0.8235979411     1.2773037230
|  8>  N       -0.4406374447    -1.9206416112     0.5908772102
|  9>  C       -1.3200772626    -0.8356632084    -0.0094041894
| 10>  C       -1.7950551818    -1.4148499045    -1.3059992455
| 11>  C       -0.8529596153    -2.2731202455    -1.7044429484
| 12>  C        0.2946471118    -2.1461869342    -0.7243884090
| 13>  C        0.9127782770    -0.7227166359    -0.9966323031
| 14>  H        0.8038893380     1.7690413202    -0.2327549964
| 15>  H        1.3697007045    -1.0581434068     1.5250951351
| 16>  H       -0.2118697645    -0.4991139872     2.1685997583
| 17>  H       -2.0688734677    -0.4598608204     0.6891755148
| 18>  H       -2.7219106381    -1.1599512719    -1.8019111448
| 19>  H       -0.8251504006    -2.8658365967    -2.6094384773
| 20>  H        1.0038850738    -2.9718694022    -0.6746322498
| 21>  H        0.7854092697    -0.3977676488    -2.0311628386
| 22>  H        1.9702090983    -0.6477221187    -0.7222913135
| 23> *
| 24>
| 25>                          ****END OF INPUT****

CARTESIAN COORDINATES (ANGSTROEM)
---------------------------------
  O     -0.063064    1.407183   -0.023305
  C      0.021317    0.019398    0.013356
  C      0.329877   -0.823598    1.277304
  N     -0.440637   -1.920642    0.590877
  C     -1.320077   -0.835663   -0.009404
  C     -1.795055   -1.414850   -1.305999
  C     -0.852960   -2.273120   -1.704443
  C      0.294647   -2.146187   -0.724388
  C      0.912778   -0.722717   -0.996632
  H      0.803889    1.769041   -0.232755
  H      1.369701   -1.058143    1.525095
  H     -0.211870   -0.499114    2.168600
  H     -2.068873   -0.459861    0.689176
  H     -2.721911   -1.159951   -1.801911
  H     -0.825150   -2.865837   -2.609438
  H      1.003885   -2.971869   -0.674632
  H      0.785409   -0.397768   -2.031163
  H      1.970209   -0.647722   -0.722291

 Total Charge           Charge          ....    0
 Multiplicity           Mult            ....    1
 Number of Electrons    NEL             ....   66
 Basis Dimension        Dim             ....  333

ORBITAL ENERGIES
----------------

  NO   OCC          E(Eh)            E(eV)
   0   2.0000     -20.568296      -559.6918
   1   2.0000     -15.555996      -423.3002
   2   2.0000     -11.295652      -307.3703
   3   2.0000     -11.266092      -306.5659
   4   2.0000     -11.259449      -306.3852
   5   2.0000     -11.247112      -306.0495
   6   2.0000     -11.231417      -305.6224
   7   2.0000     -11.229965      -305.5829
   8   2.0000     -11.226041      -305.4761
   9   2.0000      -1.380599       -37.5680
  10   2.0000      -1.282720       -34.9046
  11   2.0000      -1.076948       -29.3052
  12   2.0000      -1.009551       -27.4713
  13   2.0000      -0.972794       -26.4711
  14   2.0000      -0.893057       -24.3013
  15   2.0000      -0.811972       -22.0949
  16   2.0000      -0.760146       -20.6846
  17   2.0000      -0.737849       -20.0779
  18   2.0000      -0.709535       -19.3074
  19   2.0000      -0.677342       -18.4314
  20   2.0000      -0.644096       -17.5267
  21   2.0000      -0.612983       -16.6801
  22   2.0000      -0.602627       -16.3983
  23   2.0000      -0.556410       -15.1407
  24   2.0000      -0.534163       -14.5353
  25   2.0000      -0.518841       -14.1184
  26   2.0000      -0.509557       -13.8658
  27   2.0000      -0.491546       -13.3756
  28   2.0000      -0.474581       -12.9140
  29   2.0000      -0.467985       -12.7345
  30   2.0000      -0.425815       -11.5870
  31   2.0000      -0.379688       -10.3318
  32   2.0000      -0.339998        -9.2518
  33   0.0000       0.128278         3.4906
  34   0.0000       0.142861         3.8875
  35   0.0000       0.153896         4.1877
  36   0.0000       0.173912         4.7324
  37   0.0000       0.176979         4.8158

MULLIKEN ATOMIC CHARGES
-----------------------
   0 O :   -0.447474
   1 C :    0.154958
   2 C :   -0.175731
   3 N :   -0.185027
   4 C :   -0.031007
   5 C :   -0.200656
   6 C :   -0.248136
   7 C :    0.085504
   8 C :   -0.290749
   9 H :    0.325232
  10 H :    0.114896
  11 H :    0.119379
  12 H :    0.126622
  13 H :    0.135510
  14 H :    0.133389
  15 H :    0.130799
  16 H :    0.126477
  17 H :    0.126014
Sum of atomic charges:    0.0000000

LOEWDIN ATOMIC CHARGES
----------------------
   0 O :    0.021545
   1 C :   -0.348754
   2 C :   -0.227427
   3 N :    0.136809
   4 C :   -0.179379
   5 C :   -0.133185
   6 C :   -0.126071
   7 C :   -0.211277
   8 C :   -0.207067
   9 H :    0.182491
  10 H :    0.121683
  11 H :    0.134891
  12 H :    0.149040
  13 H :    0.138067
  14 H :    0.137442
  15 H :    0.137491
  16 H :    0.139127
  17 H :    0.134575

  Mayer bond orders larger than 0.1
B(  0-O ,  1-C ) :   1.0630 B(  0-O ,  9-H ) :   0.8356 B(  1-C ,  2-C ) :   0.9201
B(  1-C ,  4-C ) :   0.8848 B(  1-C ,  8-C ) :   0.9468 B(  2-C ,  3-N ) :   0.9133
B(  2-C , 10-H ) :   0.9200 B(  2-C , 11-H ) :   0.9205 B(  3-N ,  4-C ) :   0.9551
B(  3-N ,  7-C ) :   0.9136 B(  4-C ,  5-C ) :   0.9657 B(  4-C , 12-H ) :   0.9058
B(  5-C ,  6-C ) :   1.7629 B(  5-C , 13-H ) :   0.9267 B(  6-C ,  7-C ) :   0.9434
B(  6-C , 14-H ) :   0.9286 B(  7-C ,  8-C ) :   0.8952 B(  7-C , 15-H ) :   0.9108
B(  8-C , 16-H ) :   0.9108 B(  8-C , 17-H ) :   0.9146

MP2 TOTAL ENERGY:     -401.228629318 Eh
FINAL SINGLE POINT ENERGY      -401.228629318476

DIPOLE MOMENT
-------------
                                X             Y             Z
Electronic contribution:     -1.81628       0.42687       0.41353
Nuclear contribution   :      2.57057      -0.12630      -0.89791
                        -----------------------------------------
Total Dipole Moment    :      0.75429       0.30057      -0.48437
                        -----------------------------------------
Magnitude (a.u.)       :      0.94547
Magnitude (Debye)      :      2.40319

                             ****ORCA TERMINATED NORMALLY****
TOTAL RUN TIME: 0 days 0 hours 25 minutes 28 seconds 452 msec
