                         Program Version 3.0.3 - RELEASE   -
|  1> ! RI-MP2 RIJK def2-TZVP def2-TZVP/C def2-TZVP/JK TIGHTSCF
|  2> % maxcore 2000
|  3> % mp2 density relaxed end
|  4> *xyz 0 1
|  5>  C       -0.2180714679     1.4984611604    -0.0123111198
|  6>  C       -0.0910150973    -0.0070424675    -0.0106894665
|  7>  C        0.4170504672    -0.8148023858    -1.2482930919
|  8>  C       -0.2776450784    -2.0052044540    -0.5301765185
|  9>  C        0.5910367151    -2.1643457808     0.7334645212
| 10>  C        0.7487316673    -0.6579697461     1.1166004150
| 11>  C       -1.3426670251    -0.9408676230    -0.0790146854
| 12>  C       -2.2289044255    -1.2152197299     1.0998263417
| 13>  O       -2.1323948166    -0.7070475856     2.1910300191
| 14>  H        0.7677474850     1.9743456275    -0.0693499609
| 15>  H       -0.8088494005     1.8523963733    -0.8642346460
| 16>  H       -0.7047240825     1.8466216417     0.9047713355
| 17>  H       -0.0821611509    -0.5267410522    -2.1771575623
| 18>  H        1.4987142834    -0.8800604703    -1.4027366422
| 19>  H       -0.5753419619    -2.9080037412    -1.0636816656
| 20>  H        0.0966368487    -2.7474999378     1.5155913416
| 21>  H        1.5447681644    -2.6500153466     0.5085344492
| 22>  H        1.7889672769    -0.3206825648     1.0710261704
| 23>  H        0.3527388524    -0.4290548512     2.1062241778
| 24>  H       -1.9868887436    -0.6934166827    -0.9329370386
| 25>  H       -3.0348079703    -1.9611533733     0.8963210463
| 26> *
| 27>
| 28>                          ****END OF INPUT****

CARTESIAN COORDINATES (ANGSTROEM)
---------------------------------
  C     -0.218071    1.498461   -0.012311
  C     -0.091015   -0.007042   -0.010689
  C      0.417050   -0.814802   -1.248293
  C     -0.277645   -2.005204   -0.530177
  C      0.591037   -2.164346    0.733465
  C      0.748732   -0.657970    1.116600
  C     -1.342667   -0.940868   -0.079015
  C     -2.228904   -1.215220    1.099826
  O     -2.132395   -0.707048    2.191030
  H      0.767747    1.974346   -0.069350
  H     -0.808849    1.852396   -0.864235
  H     -0.704724    1.846622    0.904771
  H     -0.082161   -0.526741   -2.177158
  H      1.498714   -0.880060   -1.402737
  H     -0.575342   -2.908004   -1.063682
  H      0.096637   -2.747500    1.515591
  H      1.544768   -2.650015    0.508534
  H      1.788967   -0.320683    1.071026
  H      0.352739   -0.429055    2.106224
  H     -1.986889   -0.693417   -0.932937
  H     -3.034808   -1.961153    0.896321

 Total Charge           Charge          ....    0
 Multiplicity           Mult            ....    1
 Number of Electrons    NEL             ....   68
 Basis Dimension        Dim             ....  351

ORBITAL ENERGIES
----------------

  NO   OCC          E(Eh)            E(eV)
   0   2.0000     -20.553979      -559.3022
   1   2.0000     -11.328004      -308.2507
   2   2.0000     -11.245967      -306.0183
   3   2.0000     -11.243590      -305.9537
   4   2.0000     -11.240928      -305.8812
   5   2.0000     -11.227546      -305.5171
   6   2.0000     -11.223557      -305.4085
   7   2.0000     -11.215301      -305.1838
   8   2.0000     -11.213481      -305.1343
   9   2.0000      -1.391825       -37.8735
  10   2.0000      -1.194893       -32.5147
  11   2.0000      -1.003050       -27.2944
  12   2.0000      -0.993827       -27.0434
  13   2.0000      -0.949327       -25.8325
  14   2.0000      -0.890131       -24.2217
  15   2.0000      -0.812127       -22.0991
  16   2.0000      -0.759164       -20.6579
  17   2.0000      -0.726125       -19.7589
  18   2.0000      -0.676492       -18.4083
  19   2.0000      -0.650033       -17.6883
  20   2.0000      -0.641452       -17.4548
  21   2.0000      -0.629650       -17.1336
  22   2.0000      -0.580511       -15.7965
  23   2.0000      -0.560408       -15.2495
  24   2.0000      -0.544311       -14.8115
  25   2.0000      -0.530460       -14.4345
  26   2.0000      -0.513614       -13.9762
  27   2.0000      -0.499911       -13.6033
  28   2.0000      -0.480444       -13.0735
  29   2.0000      -0.475954       -12.9514
  30   2.0000      -0.451876       -12.2962
  31   2.0000      -0.431463       -11.7407
  32   2.0000      -0.427250       -11.6261
  33   2.0000      -0.401103       -10.9146
  34   0.0000       0.127759         3.4765
  35   0.0000       0.134827         3.6688
  36   0.0000       0.154148         4.1946
  37   0.0000       0.161381         4.3914
  38   0.0000       0.178462         4.8562

MULLIKEN ATOMIC CHARGES
-----------------------
   0 C :   -0.398398
   1 C :    0.101090
   2 C :   -0.263480
   3 C :   -0.069566
   4 C :   -0.269952
   5 C :   -0.274824
   6 C :   -0.090833
   7 C :    0.058594
   8 O :   -0.273673
   9 H :    0.130923
  10 H :    0.125305
  11 H :    0.150544
  12 H :    0.116549
  13 H :    0.118481
  14 H :    0.128993
  15 H :    0.127983
  16 H :    0.121729
  17 H :    0.115097
  18 H :    0.145824
  19 H :    0.117875
  20 H :    0.081738
Sum of atomic charges:   -0.0000000

LOEWDIN ATOMIC CHARGES
----------------------
   0 C :   -0.272699
   1 C :   -0.240065
   2 C :   -0.174452
   3 C :   -0.178581
   4 C :   -0.223333
   5 C :   -0.199529
   6 C :   -0.179463
   7 C :   -0.275372
   8 O :    0.133320
   9 H :    0.128804
  10 H :    0.125490
  11 H :    0.133754
  12 H :    0.137076
  13 H :    0.129617
  14 H :    0.132993
  15 H :    0.134663
  16 H :    0.134036
  17 H :    0.133741
  18 H :    0.139872
  19 H :    0.167073
  20 H :    0.113053

  Mayer bond orders larger than 0.1
B(  0-C ,  1-C ) :   0.8518 B(  0-C ,  9-H ) :   0.9370 B(  0-C , 10-H ) :   0.9375
B(  0-C , 11-H ) :   0.9452 B(  1-C ,  2-C ) :   0.9056 B(  1-C ,  5-C ) :   0.9285
B(  1-C ,  6-C ) :   0.8805 B(  2-C ,  3-C ) :   0.9137 B(  2-C , 12-H ) :   0.9220
B(  2-C , 13-H ) :   0.9200 B(  3-C ,  4-C ) :   0.9104 B(  3-C ,  6-C ) :   0.9142
B(  3-C , 14-H ) :   0.9166 B(  4-C ,  5-C ) :   0.9694 B(  4-C , 15-H ) :   0.9246
B(  4-C , 16-H ) :   0.9280 B(  5-C , 17-H ) :   0.9254 B(  5-C , 18-H ) :   0.9223
B(  6-C ,  7-C ) :   0.8528 B(  6-C , 19-H ) :   0.8902 B(  7-C ,  8-O ) :   1.9900
B(  7-C , 20-H ) :   0.9560

MP2 TOTAL ENERGY:     -386.425360893 Eh
FINAL SINGLE POINT ENERGY      -386.425360892988

DIPOLE MOMENT
-------------
                                X             Y             Z
Electronic contribution:     -4.52259      -1.84929       2.99867
Nuclear contribution   :      4.71588       1.59102      -3.89882
                        -----------------------------------------
Total Dipole Moment    :      0.19328      -0.25828      -0.90015
                        -----------------------------------------
Magnitude (a.u.)       :      0.95621
Magnitude (Debye)      :      2.43050

                             ****ORCA TERMINATED NORMALLY****
TOTAL RUN TIME: 0 days 0 hours 24 minutes 17 seconds 698 msec
