                         Program Version 3.0.3 - RELEASE   -
|  1> ! RI-MP2 RIJK def2-TZVP def2-TZVP/C def2-TZVP/JK TIGHTSCF
|  2> % maxcore 2000
|  3> % mp2 density relaxed end
|  4> *xyz 0 1
|  5>  N       -0.0663957410    -1.1450759835     0.0759328869
|  6>  C       -0.0435318543     0.0126881810     0.0370693881
|  7>  C        0.0032453994     1.4292755161    -0.0062445884
|  8>  C       -0.7226404871     2.4888171765     0.8333235596
|  9>  C        0.5900474067     3.2370825957     1.0649915690
| 10>  C        1.2547329423     2.3654106939    -0.0501330311
| 11>  C        1.1795245043     3.0563903913    -1.4160526358
| 12>  C       -0.3409561380     3.3014188502    -1.6302595130
| 13>  C       -1.0185450133     2.3517970136    -0.6427750826
| 14>  H       -1.4946717984     2.3108554535     1.5723994825
| 15>  H        0.5909904922     4.3216538758     0.9118619561
| 16>  H        1.0030755881     3.0158328336     2.0515054560
| 17>  H        2.2188675121     1.9239473629     0.1964469084
| 18>  H        1.7636902659     3.9814478382    -1.4403057183
| 19>  H        1.5741680510     2.3937129504    -2.1935572661
| 20>  H       -0.6195713395     4.3415354119    -1.4317950851
| 21>  H       -0.6463398526     3.0793059538    -2.6561070235
| 22>  H       -1.9881742278     1.9300238550    -0.8812324828
| 23> *
| 24>
| 25>                          ****END OF INPUT****

CARTESIAN COORDINATES (ANGSTROEM)
---------------------------------
  N     -0.066396   -1.145076    0.075933
  C     -0.043532    0.012688    0.037069
  C      0.003245    1.429276   -0.006245
  C     -0.722640    2.488817    0.833324
  C      0.590047    3.237083    1.064992
  C      1.254733    2.365411   -0.050133
  C      1.179525    3.056390   -1.416053
  C     -0.340956    3.301419   -1.630260
  C     -1.018545    2.351797   -0.642775
  H     -1.494672    2.310855    1.572399
  H      0.590990    4.321654    0.911862
  H      1.003076    3.015833    2.051505
  H      2.218868    1.923947    0.196447
  H      1.763690    3.981448   -1.440306
  H      1.574168    2.393713   -2.193557
  H     -0.619571    4.341535   -1.431795
  H     -0.646340    3.079306   -2.656107
  H     -1.988174    1.930024   -0.881232

 Total Charge           Charge          ....    0
 Multiplicity           Mult            ....    1
 Number of Electrons    NEL             ....   64
 Basis Dimension        Dim             ....  333

ORBITAL ENERGIES
----------------

  NO   OCC          E(Eh)            E(eV)
   0   2.0000     -15.560951      -423.4350
   1   2.0000     -11.275175      -306.8131
   2   2.0000     -11.268840      -306.6407
   3   2.0000     -11.264323      -306.5178
   4   2.0000     -11.262007      -306.4548
   5   2.0000     -11.257921      -306.3436
   6   2.0000     -11.245054      -305.9935
   7   2.0000     -11.240316      -305.8646
   8   2.0000     -11.237337      -305.7835
   9   2.0000      -1.245246       -33.8849
  10   2.0000      -1.202561       -32.7234
  11   2.0000      -1.047551       -28.5053
  12   2.0000      -1.020141       -27.7594
  13   2.0000      -0.948489       -25.8097
  14   2.0000      -0.849774       -23.1235
  15   2.0000      -0.822246       -22.3745
  16   2.0000      -0.763137       -20.7660
  17   2.0000      -0.728812       -19.8320
  18   2.0000      -0.654969       -17.8226
  19   2.0000      -0.639013       -17.3884
  20   2.0000      -0.587719       -15.9927
  21   2.0000      -0.570093       -15.5130
  22   2.0000      -0.564102       -15.3500
  23   2.0000      -0.555740       -15.1225
  24   2.0000      -0.520285       -14.1577
  25   2.0000      -0.509746       -13.8709
  26   2.0000      -0.501276       -13.6404
  27   2.0000      -0.489585       -13.3223
  28   2.0000      -0.464338       -12.6353
  29   2.0000      -0.455699       -12.4002
  30   2.0000      -0.409562       -11.1447
  31   2.0000      -0.381562       -10.3828
  32   0.0000       0.125188         3.4065
  33   0.0000       0.144299         3.9266
  34   0.0000       0.147992         4.0271
  35   0.0000       0.157319         4.2809
  36   0.0000       0.178274         4.8511

MULLIKEN ATOMIC CHARGES
-----------------------
   0 N :   -0.043098
   1 C :   -0.269870
   2 C :    0.191074
   3 C :   -0.101673
   4 C :   -0.279974
   5 C :   -0.010572
   6 C :   -0.274552
   7 C :   -0.214653
   8 C :   -0.189240
   9 H :    0.147858
  10 H :    0.118356
  11 H :    0.133013
  12 H :    0.138881
  13 H :    0.127055
  14 H :    0.126748
  15 H :    0.122591
  16 H :    0.131187
  17 H :    0.146869
Sum of atomic charges:   -0.0000000

LOEWDIN ATOMIC CHARGES
----------------------
   0 N :    0.059666
   1 C :   -0.166667
   2 C :   -0.150055
   3 C :   -0.117394
   4 C :   -0.183415
   5 C :   -0.147188
   6 C :   -0.222678
   7 C :   -0.220283
   8 C :   -0.134254
   9 H :    0.143538
  10 H :    0.129923
  11 H :    0.142527
  12 H :    0.148346
  13 H :    0.137556
  14 H :    0.141828
  15 H :    0.139585
  16 H :    0.140539
  17 H :    0.158425

  Mayer bond orders larger than 0.1
B(  0-N ,  1-C ) :   2.8962 B(  1-C ,  2-C ) :   0.8670 B(  2-C ,  3-C ) :   0.7576
B(  2-C ,  5-C ) :   0.8181 B(  2-C ,  8-C ) :   0.8331 B(  3-C ,  4-C ) :   0.9762
B(  3-C ,  8-C ) :   0.8814 B(  3-C ,  9-H ) :   0.9158 B(  4-C ,  5-C ) :   0.9568
B(  4-C , 10-H ) :   0.9258 B(  4-C , 11-H ) :   0.9267 B(  5-C ,  6-C ) :   0.9319
B(  5-C , 12-H ) :   0.9185 B(  6-C ,  7-C ) :   0.9730 B(  6-C , 13-H ) :   0.9287
B(  6-C , 14-H ) :   0.9225 B(  7-C ,  8-C ) :   0.9333 B(  7-C , 15-H ) :   0.9231
B(  7-C , 16-H ) :   0.9276 B(  8-C , 17-H ) :   0.9237

MP2 TOTAL ENERGY:     -364.155870128 Eh
FINAL SINGLE POINT ENERGY      -364.155870127854

DIPOLE MOMENT
-------------
                                X             Y             Z
Electronic contribution:     -1.33535      -7.49089       1.79666
Nuclear contribution   :      1.37940       9.25500      -1.88837
                        -----------------------------------------
Total Dipole Moment    :      0.04405       1.76411      -0.09171
                        -----------------------------------------
Magnitude (a.u.)       :      1.76704
Magnitude (Debye)      :      4.49147

                             ****ORCA TERMINATED NORMALLY****
TOTAL RUN TIME: 0 days 0 hours 19 minutes 43 seconds 773 msec
