                         Program Version 3.0.3 - RELEASE   -
|  1> ! RI-MP2 RIJK def2-TZVP def2-TZVP/C def2-TZVP/JK TIGHTSCF
|  2> % maxcore 2000
|  3> % mp2 density relaxed end
|  4> *xyz 0 1
|  5>  O       -0.1798206755     1.3389851105     0.0530181618
|  6>  C       -0.0981405978    -0.0344668075     0.0359178052
|  7>  C        1.0238868657    -0.5550288215    -0.7888961561
|  8>  O        1.7553320142     0.1971077961    -1.3908458052
|  9>  C       -0.4742485733    -0.8496131207     1.2553859041
| 10>  N       -1.5496252505    -0.2030900305     2.0033114626
| 11>  C       -2.3992172982    -0.1860096562     0.8714121927
| 12>  O       -3.4989869403     0.2433536482     0.7037258903
| 13>  C       -1.3622111952    -0.9230700755     0.0229933489
| 14>  H        0.5110736494     1.6449374798    -0.5571693412
| 15>  H        1.1514689055    -1.6548555785    -0.8188329624
| 16>  H        0.1402290249    -1.6155809955     1.7114107511
| 17>  H       -1.3901698593     0.6361684355     2.5505396795
| 18>  H       -1.5264667397    -1.7179985840    -0.6915607114
| 19> *
| 20>
| 21>                          ****END OF INPUT****

CARTESIAN COORDINATES (ANGSTROEM)
---------------------------------
  O     -0.179821    1.338985    0.053018
  C     -0.098141   -0.034467    0.035918
  C      1.023887   -0.555029   -0.788896
  O      1.755332    0.197108   -1.390846
  C     -0.474249   -0.849613    1.255386
  N     -1.549625   -0.203090    2.003311
  C     -2.399217   -0.186010    0.871412
  O     -3.498987    0.243354    0.703726
  C     -1.362211   -0.923070    0.022993
  H      0.511074    1.644937   -0.557169
  H      1.151469   -1.654856   -0.818833
  H      0.140229   -1.615581    1.711411
  H     -1.390170    0.636168    2.550540
  H     -1.526467   -1.717999   -0.691561

 Total Charge           Charge          ....    0
 Multiplicity           Mult            ....    1
 Number of Electrons    NEL             ....   66
 Basis Dimension        Dim             ....  309

ORBITAL ENERGIES
----------------

  NO   OCC          E(Eh)            E(eV)
   0   2.0000     -20.596065      -560.4474
   1   2.0000     -20.592066      -560.3386
   2   2.0000     -20.554590      -559.3188
   3   2.0000     -15.599241      -424.4769
   4   2.0000     -11.376945      -309.5824
   5   2.0000     -11.371776      -309.4418
   6   2.0000     -11.345138      -308.7169
   7   2.0000     -11.316297      -307.9321
   8   2.0000     -11.284439      -307.0652
   9   2.0000      -1.447592       -39.3910
  10   2.0000      -1.417817       -38.5808
  11   2.0000      -1.401203       -38.1287
  12   2.0000      -1.304173       -35.4883
  13   2.0000      -1.123401       -30.5693
  14   2.0000      -0.958247       -26.0752
  15   2.0000      -0.894549       -24.3419
  16   2.0000      -0.826096       -22.4792
  17   2.0000      -0.784834       -21.3564
  18   2.0000      -0.764734       -20.8095
  19   2.0000      -0.719785       -19.5863
  20   2.0000      -0.701364       -19.0851
  21   2.0000      -0.673720       -18.3328
  22   2.0000      -0.661881       -18.0107
  23   2.0000      -0.629486       -17.1292
  24   2.0000      -0.594612       -16.1802
  25   2.0000      -0.583235       -15.8706
  26   2.0000      -0.569194       -15.4886
  27   2.0000      -0.554322       -15.0839
  28   2.0000      -0.489392       -13.3170
  29   2.0000      -0.483400       -13.1540
  30   2.0000      -0.448706       -12.2099
  31   2.0000      -0.442847       -12.0505
  32   2.0000      -0.399411       -10.8685
  33   0.0000       0.083141         2.2624
  34   0.0000       0.130114         3.5406
  35   0.0000       0.137596         3.7442
  36   0.0000       0.152914         4.1610
  37   0.0000       0.178602         4.8600

MULLIKEN ATOMIC CHARGES
-----------------------
   0 O :   -0.441376
   1 C :    0.200826
   2 C :    0.070411
   3 O :   -0.291468
   4 C :   -0.022951
   5 N :   -0.304304
   6 C :    0.244873
   7 O :   -0.260799
   8 C :   -0.229233
   9 H :    0.342054
  10 H :    0.113324
  11 H :    0.161137
  12 H :    0.247533
  13 H :    0.169973
Sum of atomic charges:    0.0000000

LOEWDIN ATOMIC CHARGES
----------------------
   0 O :    0.057364
   1 C :   -0.341990
   2 C :   -0.253395
   3 O :    0.133618
   4 C :   -0.175800
   5 N :    0.115703
   6 C :   -0.390550
   7 O :    0.157991
   8 C :   -0.100670
   9 H :    0.197278
  10 H :    0.129923
  11 H :    0.142060
  12 H :    0.180644
  13 H :    0.147823

  Mayer bond orders larger than 0.1
B(  0-O ,  1-C ) :   1.1583 B(  0-O ,  9-H ) :   0.7935 B(  1-C ,  2-C ) :   0.8741
B(  1-C ,  4-C ) :   0.8343 B(  1-C ,  8-C ) :   0.7986 B(  2-C ,  3-O ) :   1.8957
B(  2-C , 10-H ) :   0.9414 B(  4-C ,  5-N ) :   0.9741 B(  4-C ,  8-C ) :   0.7969
B(  4-C , 11-H ) :   0.9074 B(  5-N ,  6-C ) :   1.0904 B(  5-N , 12-H ) :   0.8532
B(  6-C ,  7-O ) :   2.0461 B(  6-C ,  8-C ) :   0.8640 B(  8-C , 13-H ) :   0.8952

MP2 TOTAL ENERGY:     -473.061115213 Eh
FINAL SINGLE POINT ENERGY      -473.061115212885

DIPOLE MOMENT
-------------
                                X             Y             Z
Electronic contribution:     -1.32146       1.35187      -0.43136
Nuclear contribution   :      2.40023      -2.22715       0.68385
                        -----------------------------------------
Total Dipole Moment    :      1.07877      -0.87528       0.25249
                        -----------------------------------------
Magnitude (a.u.)       :      1.41195
Magnitude (Debye)      :      3.58890

                             ****ORCA TERMINATED NORMALLY****
TOTAL RUN TIME: 0 days 0 hours 13 minutes 51 seconds 311 msec
