                         Program Version 3.0.3 - RELEASE   -
|  1> ! RI-MP2 RIJK def2-TZVP def2-TZVP/C def2-TZVP/JK TIGHTSCF
|  2> % maxcore 2000
|  3> % mp2 density relaxed end
|  4> *xyz 0 1
|  5>  C       -0.0421020691    -1.1333130561     0.0850057291
|  6>  C        0.0175478192     0.0616708559    -0.0112265672
|  7>  C        0.0518254995     1.5082781150    -0.1427041250
|  8>  O        1.3190265484     1.9915604825     0.3418014503
|  9>  C        1.5405816315     3.3013458045     0.1751069483
| 10>  C        2.6819326967     3.9788527008    -0.1146033122
| 11>  C        2.3224750588     5.3693958537    -0.0641065465
| 12>  C        1.0026476800     5.4220008633     0.2364124522
| 13>  O        0.5043602030     4.1521076528     0.3941711457
| 14>  H       -0.0901940153    -2.1907264090     0.1726324536
| 15>  H       -0.0739504145     1.8035739347    -1.1931641900
| 16>  H       -0.7618461219     1.9659640950     0.4313301656
| 17>  H        3.6423046359     3.5430723801    -0.3324987403
| 18>  H        2.9710401209     6.2131942842    -0.2405734359
| 19>  H        0.2881875170     6.2176402827     0.3588354822
| 20> *
| 21>
| 22>                          ****END OF INPUT****

CARTESIAN COORDINATES (ANGSTROEM)
---------------------------------
  C     -0.042102   -1.133313    0.085006
  C      0.017548    0.061671   -0.011227
  C      0.051825    1.508278   -0.142704
  O      1.319027    1.991560    0.341801
  C      1.540582    3.301346    0.175107
  C      2.681933    3.978853   -0.114603
  C      2.322475    5.369396   -0.064107
  C      1.002648    5.422001    0.236412
  O      0.504360    4.152108    0.394171
  H     -0.090194   -2.190726    0.172632
  H     -0.073950    1.803574   -1.193164
  H     -0.761846    1.965964    0.431330
  H      3.642305    3.543072   -0.332499
  H      2.971040    6.213194   -0.240573
  H      0.288188    6.217640    0.358835

 Total Charge           Charge          ....    0
 Multiplicity           Mult            ....    1
 Number of Electrons    NEL             ....   64
 Basis Dimension        Dim             ....  315

ORBITAL ENERGIES
----------------

  NO   OCC          E(Eh)            E(eV)
   0   2.0000     -20.627641      -561.3066
   1   2.0000     -20.605030      -560.6914
   2   2.0000     -11.352515      -308.9176
   3   2.0000     -11.326286      -308.2039
   4   2.0000     -11.283597      -307.0423
   5   2.0000     -11.244773      -305.9858
   6   2.0000     -11.237844      -305.7973
   7   2.0000     -11.234628      -305.7098
   8   2.0000     -11.222182      -305.3711
   9   2.0000      -1.485576       -40.4246
  10   2.0000      -1.411543       -38.4100
  11   2.0000      -1.092283       -29.7225
  12   2.0000      -1.071302       -29.1516
  13   2.0000      -1.001601       -27.2550
  14   2.0000      -0.952920       -25.9303
  15   2.0000      -0.823619       -22.4118
  16   2.0000      -0.782117       -21.2825
  17   2.0000      -0.751914       -20.4606
  18   2.0000      -0.739193       -20.1145
  19   2.0000      -0.693272       -18.8649
  20   2.0000      -0.672620       -18.3029
  21   2.0000      -0.657993       -17.9049
  22   2.0000      -0.630898       -17.1676
  23   2.0000      -0.587222       -15.9791
  24   2.0000      -0.570400       -15.5214
  25   2.0000      -0.561722       -15.2852
  26   2.0000      -0.553044       -15.0491
  27   2.0000      -0.504315       -13.7231
  28   2.0000      -0.410968       -11.1830
  29   2.0000      -0.402872       -10.9627
  30   2.0000      -0.398685       -10.8488
  31   2.0000      -0.305883        -8.3235
  32   0.0000       0.140620         3.8265
  33   0.0000       0.149789         4.0760
  34   0.0000       0.164053         4.4641
  35   0.0000       0.165664         4.5079
  36   0.0000       0.175492         4.7754

MULLIKEN ATOMIC CHARGES
-----------------------
   0 C :   -0.062300
   1 C :   -0.044263
   2 C :   -0.211091
   3 O :   -0.258606
   4 C :    0.320245
   5 C :   -0.268290
   6 C :   -0.144458
   7 C :   -0.040055
   8 O :   -0.221501
   9 H :    0.198869
  10 H :    0.139621
  11 H :    0.155390
  12 H :    0.145226
  13 H :    0.141399
  14 H :    0.149814
Sum of atomic charges:    0.0000000

LOEWDIN ATOMIC CHARGES
----------------------
   0 C :   -0.075562
   1 C :   -0.104745
   2 C :   -0.265031
   3 O :    0.257375
   4 C :   -0.384641
   5 C :   -0.173971
   6 C :   -0.190730
   7 C :   -0.245409
   8 O :    0.338676
   9 H :    0.129597
  10 H :    0.146101
  11 H :    0.146948
  12 H :    0.146251
  13 H :    0.143771
  14 H :    0.131372

  Mayer bond orders larger than 0.1
B(  0-C ,  1-C ) :   2.6087 B(  0-C ,  2-C ) :  -0.1168 B(  0-C ,  9-H ) :   0.8902
B(  1-C ,  2-C ) :   1.1176 B(  2-C ,  3-O ) :   0.8710 B(  2-C , 10-H ) :   0.9119
B(  2-C , 11-H ) :   0.9250 B(  3-O ,  4-C ) :   1.0998 B(  4-C ,  5-C ) :   1.5338
B(  4-C ,  8-O ) :   1.0208 B(  5-C ,  6-C ) :   1.1636 B(  5-C , 12-H ) :   0.9267
B(  6-C ,  7-C ) :   1.5807 B(  6-C , 13-H ) :   0.9248 B(  7-C ,  8-O ) :   1.0033
B(  7-C , 14-H ) :   0.9322

MP2 TOTAL ENERGY:     -419.872759162 Eh
FINAL SINGLE POINT ENERGY      -419.872759162492

DIPOLE MOMENT
-------------
                                X             Y             Z
Electronic contribution:     -0.08553      -0.76842       1.05247
Nuclear contribution   :     -0.21345       0.88364      -1.34216
                        -----------------------------------------
Total Dipole Moment    :     -0.29897       0.11522      -0.28968
                        -----------------------------------------
Magnitude (a.u.)       :      0.43195
Magnitude (Debye)      :      1.09792

                             ****ORCA TERMINATED NORMALLY****
TOTAL RUN TIME: 0 days 0 hours 13 minutes 10 seconds 177 msec
