                         Program Version 3.0.3 - RELEASE   -
|  1> ! RI-MP2 RIJK def2-TZVP def2-TZVP/C def2-TZVP/JK TIGHTSCF
|  2> % maxcore 2000
|  3> % mp2 density relaxed end
|  4> *xyz 0 1
|  5>  O       -0.2491904418     1.5093340546     0.0233013631
|  6>  C       -0.1023047856     0.1165425620     0.0958676879
|  7>  C        0.1058878756    -0.6008213338     1.4248864281
|  8>  C       -1.2264036592    -0.8331231627     2.0578392625
|  9>  N       -0.7381172031    -1.7639026324     0.9727124906
| 10>  C       -1.3918108022    -0.7164374453     0.0009499068
| 11>  C       -2.2805991540    -0.2647393285     1.1503566088
| 12>  C       -3.7366090369    -0.4313282396     1.3189447876
| 13>  N       -3.1198045729     0.9124881931     1.2237221236
| 14>  H        0.6173839787     1.9037714724    -0.1124393186
| 15>  H        0.6307947362    -0.2599678325    -0.6296335130
| 16>  H        1.0332682966    -0.7633033119     1.9636656293
| 17>  H       -1.3299634329    -1.1701186175     3.0836187680
| 18>  H       -1.8005205592    -1.0344774952    -0.9552092333
| 19>  H       -4.3654788109    -0.7036972449     0.4753225137
| 20>  H       -4.0986002866    -0.7794953462     2.2839275898
| 21>  H       -3.0517053417     1.3544028383     2.1370073450
| 22> *
| 23>
| 24>                          ****END OF INPUT****

CARTESIAN COORDINATES (ANGSTROEM)
---------------------------------
  O     -0.249190    1.509334    0.023301
  C     -0.102305    0.116543    0.095868
  C      0.105888   -0.600821    1.424886
  C     -1.226404   -0.833123    2.057839
  N     -0.738117   -1.763903    0.972712
  C     -1.391811   -0.716437    0.000950
  C     -2.280599   -0.264739    1.150357
  C     -3.736609   -0.431328    1.318945
  N     -3.119805    0.912488    1.223722
  H      0.617384    1.903771   -0.112439
  H      0.630795   -0.259968   -0.629634
  H      1.033268   -0.763303    1.963666
  H     -1.329963   -1.170119    3.083619
  H     -1.800521   -1.034477   -0.955209
  H     -4.365479   -0.703697    0.475323
  H     -4.098600   -0.779495    2.283928
  H     -3.051705    1.354403    2.137007

 Total Charge           Charge          ....    0
 Multiplicity           Mult            ....    1
 Number of Electrons    NEL             ....   66
 Basis Dimension        Dim             ....  327

ORBITAL ENERGIES
----------------

  NO   OCC          E(Eh)            E(eV)
   0   2.0000     -20.563598      -559.5639
   1   2.0000     -15.572783      -423.7570
   2   2.0000     -15.555684      -423.2917
   3   2.0000     -11.296816      -307.4020
   4   2.0000     -11.273983      -306.7807
   5   2.0000     -11.271620      -306.7164
   6   2.0000     -11.268930      -306.6432
   7   2.0000     -11.267331      -306.5997
   8   2.0000     -11.255411      -306.2753
   9   2.0000      -1.378363       -37.5072
  10   2.0000      -1.322798       -35.9952
  11   2.0000      -1.253551       -34.1108
  12   2.0000      -0.991971       -26.9929
  13   2.0000      -0.959853       -26.1189
  14   2.0000      -0.899068       -24.4649
  15   2.0000      -0.877683       -23.8830
  16   2.0000      -0.770059       -20.9544
  17   2.0000      -0.733347       -19.9554
  18   2.0000      -0.721534       -19.6339
  19   2.0000      -0.713273       -19.4092
  20   2.0000      -0.655033       -17.8244
  21   2.0000      -0.634434       -17.2638
  22   2.0000      -0.599762       -16.3203
  23   2.0000      -0.579201       -15.7609
  24   2.0000      -0.526424       -14.3247
  25   2.0000      -0.518474       -14.1084
  26   2.0000      -0.500367       -13.6157
  27   2.0000      -0.480990       -13.0884
  28   2.0000      -0.452885       -12.3236
  29   2.0000      -0.434393       -11.8204
  30   2.0000      -0.420768       -11.4497
  31   2.0000      -0.401479       -10.9248
  32   2.0000      -0.371577       -10.1111
  33   0.0000       0.127683         3.4744
  34   0.0000       0.145197         3.9510
  35   0.0000       0.160713         4.3732
  36   0.0000       0.176108         4.7922
  37   0.0000       0.184587         5.0229

MULLIKEN ATOMIC CHARGES
-----------------------
   0 O :   -0.434204
   1 C :   -0.030670
   2 C :   -0.023953
   3 C :   -0.158071
   4 N :   -0.228181
   5 C :    0.071258
   6 C :    0.075343
   7 C :   -0.218410
   8 N :   -0.362511
   9 H :    0.316219
  10 H :    0.097623
  11 H :    0.142349
  12 H :    0.142229
  13 H :    0.141294
  14 H :    0.122029
  15 H :    0.126795
  16 H :    0.220861
Sum of atomic charges:    0.0000000

LOEWDIN ATOMIC CHARGES
----------------------
   0 O :    0.002152
   1 C :   -0.317721
   2 C :   -0.197287
   3 C :   -0.174877
   4 N :    0.156692
   5 C :   -0.121094
   6 C :   -0.285952
   7 C :   -0.228263
   8 N :    0.017650
   9 H :    0.176084
  10 H :    0.142314
  11 H :    0.134875
  12 H :    0.140000
  13 H :    0.136073
  14 H :    0.127193
  15 H :    0.123435
  16 H :    0.168725

  Mayer bond orders larger than 0.1
B(  0-O ,  1-C ) :   1.2421 B(  0-O ,  2-C ) :  -0.1611 B(  0-O ,  9-H ) :   0.8420
B(  1-C ,  2-C ) :   0.8909 B(  1-C ,  5-C ) :   0.9365 B(  1-C , 10-H ) :   0.9557
B(  2-C ,  3-C ) :   0.8683 B(  2-C ,  4-N ) :   0.8491 B(  2-C , 11-H ) :   0.9121
B(  3-C ,  4-N ) :   0.9355 B(  3-C ,  6-C ) :   0.9462 B(  3-C , 12-H ) :   0.8954
B(  4-N ,  5-C ) :   0.9298 B(  5-C ,  6-C ) :   0.8963 B(  5-C , 13-H ) :   0.9005
B(  6-C ,  7-C ) :   0.9442 B(  6-C ,  8-N ) :   0.9313 B(  7-C ,  8-N ) :   0.9600
B(  7-C , 14-H ) :   0.9113 B(  7-C , 15-H ) :   0.9227 B(  8-N , 16-H ) :   0.8618

MP2 TOTAL ENERGY:     -417.206846150 Eh
FINAL SINGLE POINT ENERGY      -417.206846150057

DIPOLE MOMENT
-------------
                                X             Y             Z
Electronic contribution:      1.61416       0.12856      -0.49498
Nuclear contribution   :     -1.05945      -0.00888       0.94808
                        -----------------------------------------
Total Dipole Moment    :      0.55471       0.11968       0.45310
                        -----------------------------------------
Magnitude (a.u.)       :      0.72617
Magnitude (Debye)      :      1.84578

                             ****ORCA TERMINATED NORMALLY****
TOTAL RUN TIME: 0 days 0 hours 16 minutes 53 seconds 505 msec
