                         Program Version 3.0.3 - RELEASE   -
|  1> ! RI-MP2 RIJK def2-TZVP def2-TZVP/C def2-TZVP/JK TIGHTSCF
|  2> % maxcore 2000
|  3> % mp2 density relaxed end
|  4> *xyz 0 1
|  5>  C       -1.3392193329     2.6399710660     1.1729614039
|  6>  C       -0.8417227938     1.3984168908     0.4224835118
|  7>  C        0.3360645548     0.7041480677     1.1533186517
|  8>  C        1.5169203711     1.5480075903     1.2853788979
|  9>  C        2.4846839030     2.2555487980     1.3752098141
| 10>  C       -1.9714970663     0.4043843469     0.2478960173
| 11>  O       -3.0102470468     0.7425579755    -0.6748655996
| 12>  C       -2.2128215848    -0.4164564684    -0.9528827475
| 13>  C       -1.3728833428    -0.3989531180    -2.2045902271
| 14>  H       -0.5343626043     3.3690884716     1.2958866825
| 15>  H       -2.1592846450     3.1099556917     0.6236732020
| 16>  H       -1.7094347785     2.3731332286     2.1702388148
| 17>  H       -0.4886727663     1.7105048025    -0.5649297943
| 18>  H        0.0030653660     0.3844951257     2.1505540167
| 19>  H        0.6061991477    -0.2130439455     0.6144317251
| 20>  H        3.3440286375     2.8728371871     1.4630959018
| 21>  H       -2.3480961966     0.0052955626     1.1954705625
| 22>  H       -2.7507342745    -1.3540655779    -0.7932756846
| 23>  H       -0.8515258027     0.5509810435    -2.3346956262
| 24>  H       -0.6324064645    -1.2060389805    -2.1791866979
| 25>  H       -2.0073409103    -0.5573620582    -3.0829400851
| 26> *
| 27>
| 28>                          ****END OF INPUT****

CARTESIAN COORDINATES (ANGSTROEM)
---------------------------------
  C     -1.339219    2.639971    1.172961
  C     -0.841723    1.398417    0.422484
  C      0.336065    0.704148    1.153319
  C      1.516920    1.548008    1.285379
  C      2.484684    2.255549    1.375210
  C     -1.971497    0.404384    0.247896
  O     -3.010247    0.742558   -0.674866
  C     -2.212822   -0.416456   -0.952883
  C     -1.372883   -0.398953   -2.204590
  H     -0.534363    3.369088    1.295887
  H     -2.159285    3.109956    0.623673
  H     -1.709435    2.373133    2.170239
  H     -0.488673    1.710505   -0.564930
  H      0.003065    0.384495    2.150554
  H      0.606199   -0.213044    0.614432
  H      3.344029    2.872837    1.463096
  H     -2.348096    0.005296    1.195471
  H     -2.750734   -1.354066   -0.793276
  H     -0.851526    0.550981   -2.334696
  H     -0.632406   -1.206039   -2.179187
  H     -2.007341   -0.557362   -3.082940

 Total Charge           Charge          ....    0
 Multiplicity           Mult            ....    1
 Number of Electrons    NEL             ....   68
 Basis Dimension        Dim             ....  351

ORBITAL ENERGIES
----------------

  NO   OCC          E(Eh)            E(eV)
   0   2.0000     -20.563663      -559.5657
   1   2.0000     -11.288848      -307.1852
   2   2.0000     -11.285518      -307.0946
   3   2.0000     -11.258107      -306.3487
   4   2.0000     -11.244193      -305.9700
   5   2.0000     -11.236238      -305.7536
   6   2.0000     -11.228185      -305.5344
   7   2.0000     -11.222276      -305.3737
   8   2.0000     -11.214467      -305.1611
   9   2.0000      -1.408814       -38.3358
  10   2.0000      -1.108742       -30.1704
  11   2.0000      -1.029099       -28.0032
  12   2.0000      -1.013109       -27.5681
  13   2.0000      -0.947417       -25.7805
  14   2.0000      -0.911461       -24.8021
  15   2.0000      -0.838743       -22.8234
  16   2.0000      -0.772745       -21.0275
  17   2.0000      -0.723753       -19.6943
  18   2.0000      -0.696642       -18.9566
  19   2.0000      -0.656940       -17.8763
  20   2.0000      -0.628281       -17.0964
  21   2.0000      -0.618289       -16.8245
  22   2.0000      -0.586429       -15.9576
  23   2.0000      -0.580203       -15.7881
  24   2.0000      -0.562752       -15.3132
  25   2.0000      -0.551082       -14.9957
  26   2.0000      -0.519559       -14.1379
  27   2.0000      -0.509789       -13.8721
  28   2.0000      -0.498412       -13.5625
  29   2.0000      -0.482344       -13.1253
  30   2.0000      -0.443442       -12.0667
  31   2.0000      -0.422344       -11.4926
  32   2.0000      -0.387719       -10.5504
  33   2.0000      -0.386133       -10.5072
  34   0.0000       0.130860         3.5609
  35   0.0000       0.149983         4.0813
  36   0.0000       0.159835         4.3493
  37   0.0000       0.167788         4.5657
  38   0.0000       0.174122         4.7381

MULLIKEN ATOMIC CHARGES
-----------------------
   0 C :   -0.415638
   1 C :    0.012379
   2 C :   -0.415966
   3 C :   -0.010187
   4 C :   -0.132970
   5 C :    0.000313
   6 O :   -0.339185
   7 C :    0.056952
   8 C :   -0.393067
   9 H :    0.152858
  10 H :    0.150866
  11 H :    0.118383
  12 H :    0.094115
  13 H :    0.145194
  14 H :    0.151474
  15 H :    0.189857
  16 H :    0.116872
  17 H :    0.106450
  18 H :    0.137646
  19 H :    0.129425
  20 H :    0.144228
Sum of atomic charges:   -0.0000000

LOEWDIN ATOMIC CHARGES
----------------------
   0 C :   -0.279849
   1 C :   -0.255688
   2 C :   -0.222879
   3 C :   -0.110896
   4 C :   -0.107218
   5 C :   -0.256108
   6 O :    0.162052
   7 C :   -0.289653
   8 C :   -0.295956
   9 H :    0.130004
  10 H :    0.130720
  11 H :    0.124954
  12 H :    0.158839
  13 H :    0.159574
  14 H :    0.160269
  15 H :    0.126261
  16 H :    0.141079
  17 H :    0.136150
  18 H :    0.126948
  19 H :    0.130128
  20 H :    0.131268

  Mayer bond orders larger than 0.1
B(  0-C ,  1-C ) :   0.9217 B(  0-C ,  9-H ) :   0.9369 B(  0-C , 10-H ) :   0.9363
B(  0-C , 11-H ) :   0.9294 B(  1-C ,  2-C ) :   0.8985 B(  1-C ,  5-C ) :   0.8790
B(  1-C , 12-H ) :   0.9296 B(  2-C ,  3-C ) :   1.1061 B(  2-C ,  4-C ) :  -0.1139
B(  2-C , 13-H ) :   0.9171 B(  2-C , 14-H ) :   0.9257 B(  3-C ,  4-C ) :   2.6154
B(  4-C , 15-H ) :   0.8967 B(  5-C ,  6-O ) :   0.8868 B(  5-C ,  7-C ) :   1.0012
B(  5-C , 16-H ) :   0.9022 B(  6-O ,  7-C ) :   0.9054 B(  7-C ,  8-C ) :   0.8879
B(  7-C , 17-H ) :   0.9168 B(  8-C , 18-H ) :   0.9426 B(  8-C , 19-H ) :   0.9252
B(  8-C , 20-H ) :   0.9346

MP2 TOTAL ENERGY:     -386.359116899 Eh
FINAL SINGLE POINT ENERGY      -386.359116899274

DIPOLE MOMENT
-------------
                                X             Y             Z
Electronic contribution:      0.41923       0.10858       1.31208
Nuclear contribution   :     -0.03262      -0.58509      -1.28268
                        -----------------------------------------
Total Dipole Moment    :      0.38661      -0.47651       0.02939
                        -----------------------------------------
Magnitude (a.u.)       :      0.61433
Magnitude (Debye)      :      1.56149

                             ****ORCA TERMINATED NORMALLY****
TOTAL RUN TIME: 0 days 0 hours 19 minutes 45 seconds 951 msec
