                         Program Version 3.0.3 - RELEASE   -
|  1> ! RI-MP2 RIJK def2-TZVP def2-TZVP/C def2-TZVP/JK TIGHTSCF
|  2> % maxcore 2000
|  3> % mp2 density relaxed end
|  4> *xyz 0 1
|  5>  O       -0.6296880892     1.2931719052     0.3649217451
|  6>  C       -0.1971177907     0.0343430085     0.1140302299
|  7>  C        0.2666598601    -0.4336505810    -1.0924196606
|  8>  C        0.4212321889     0.2395865222    -2.4131512552
|  9>  C        1.1298587846    -0.5240281194    -3.5031529757
| 10>  O        1.5257110700    -1.6642494411    -3.4358529626
| 11>  N        0.5719217250    -1.7634913461    -0.8333515707
| 12>  C        0.2929099498    -2.0052390913     0.4660975525
| 13>  N       -0.1823888972    -0.9302204407     1.0734650560
| 14>  H       -0.8787445433     1.3106922324     1.2969003689
| 15>  H       -0.5524401986     0.5255078100    -2.8486690922
| 16>  H        0.9467682113     1.2012296349    -2.3086310497
| 17>  H        1.2602455802     0.0595873628    -4.4398816325
| 18>  H        0.9818950892    -2.3741161746    -1.5236755272
| 19>  H        0.4501959800    -2.9682309717     0.9264495837
| 20> *
| 21>
| 22>                          ****END OF INPUT****

CARTESIAN COORDINATES (ANGSTROEM)
---------------------------------
  O     -0.629688    1.293172    0.364922
  C     -0.197118    0.034343    0.114030
  C      0.266660   -0.433651   -1.092420
  C      0.421232    0.239587   -2.413151
  C      1.129859   -0.524028   -3.503153
  O      1.525711   -1.664249   -3.435853
  N      0.571922   -1.763491   -0.833352
  C      0.292910   -2.005239    0.466098
  N     -0.182389   -0.930220    1.073465
  H     -0.878745    1.310692    1.296900
  H     -0.552440    0.525508   -2.848669
  H      0.946768    1.201230   -2.308631
  H      1.260246    0.059587   -4.439882
  H      0.981895   -2.374116   -1.523676
  H      0.450196   -2.968231    0.926450

 Total Charge           Charge          ....    0
 Multiplicity           Mult            ....    1
 Number of Electrons    NEL             ....   66
 Basis Dimension        Dim             ....  315

ORBITAL ENERGIES
----------------

  NO   OCC          E(Eh)            E(eV)
   0   2.0000     -20.583049      -560.0932
   1   2.0000     -20.577589      -559.9447
   2   2.0000     -15.612738      -424.8442
   3   2.0000     -15.545271      -423.0083
   4   2.0000     -11.356884      -309.0365
   5   2.0000     -11.303314      -307.5788
   6   2.0000     -11.299079      -307.4636
   7   2.0000     -11.267231      -306.5969
   8   2.0000     -11.255298      -306.2722
   9   2.0000      -1.418151       -38.5899
  10   2.0000      -1.409331       -38.3499
  11   2.0000      -1.333245       -36.2794
  12   2.0000      -1.166672       -31.7468
  13   2.0000      -1.072408       -29.1817
  14   2.0000      -0.975920       -26.5561
  15   2.0000      -0.844347       -22.9759
  16   2.0000      -0.829355       -22.5679
  17   2.0000      -0.795907       -21.6577
  18   2.0000      -0.735862       -20.0238
  19   2.0000      -0.691441       -18.8151
  20   2.0000      -0.673960       -18.3394
  21   2.0000      -0.647162       -17.6102
  22   2.0000      -0.643227       -17.5031
  23   2.0000      -0.626929       -17.0596
  24   2.0000      -0.602540       -16.3959
  25   2.0000      -0.569659       -15.5012
  26   2.0000      -0.553606       -15.0644
  27   2.0000      -0.548045       -14.9131
  28   2.0000      -0.526564       -14.3285
  29   2.0000      -0.453313       -12.3353
  30   2.0000      -0.442201       -12.0329
  31   2.0000      -0.392920       -10.6919
  32   2.0000      -0.297022        -8.0824
  33   0.0000       0.120569         3.2809
  34   0.0000       0.130736         3.5575
  35   0.0000       0.159383         4.3370
  36   0.0000       0.161545         4.3959
  37   0.0000       0.163600         4.4518

MULLIKEN ATOMIC CHARGES
-----------------------
   0 O :   -0.453035
   1 C :    0.153658
   2 C :    0.015602
   3 C :   -0.184554
   4 C :    0.129199
   5 O :   -0.314912
   6 N :   -0.255179
   7 C :    0.039197
   8 N :   -0.319719
   9 H :    0.341294
  10 H :    0.155593
  11 H :    0.162673
  12 H :    0.109226
  13 H :    0.271639
  14 H :    0.149318
Sum of atomic charges:    0.0000000

LOEWDIN ATOMIC CHARGES
----------------------
   0 O :    0.057330
   1 C :   -0.391921
   2 C :   -0.224580
   3 C :   -0.236552
   4 C :   -0.276588
   5 O :    0.116804
   6 N :    0.203569
   7 C :   -0.320299
   8 N :    0.082694
   9 H :    0.199061
  10 H :    0.171243
  11 H :    0.171626
  12 H :    0.120202
  13 H :    0.197101
  14 H :    0.130311

  Mayer bond orders larger than 0.1
B(  0-O ,  1-C ) :   1.1244 B(  0-O ,  9-H ) :   0.8203 B(  1-C ,  2-C ) :   1.4979
B(  1-C ,  8-N ) :   1.3355 B(  2-C ,  3-C ) :   0.8826 B(  2-C ,  6-N ) :   1.0847
B(  3-C ,  4-C ) :   0.8976 B(  3-C , 10-H ) :   0.8876 B(  3-C , 11-H ) :   0.9065
B(  4-C ,  5-O ) :   1.9044 B(  4-C , 12-H ) :   0.9449 B(  6-N ,  7-C ) :   1.2213
B(  6-N , 13-H ) :   0.8388 B(  7-C ,  8-N ) :   1.4809 B(  7-C , 14-H ) :   0.9272

MP2 TOTAL ENERGY:     -453.258076579 Eh
FINAL SINGLE POINT ENERGY      -453.258076579222

DIPOLE MOMENT
-------------
                                X             Y             Z
Electronic contribution:      0.03791      -1.20181       1.67489
Nuclear contribution   :      0.06375       1.39002      -2.45951
                        -----------------------------------------
Total Dipole Moment    :      0.10166       0.18821      -0.78462
                        -----------------------------------------
Magnitude (a.u.)       :      0.81325
Magnitude (Debye)      :      2.06713

                             ****ORCA TERMINATED NORMALLY****
TOTAL RUN TIME: 0 days 0 hours 14 minutes 59 seconds 95 msec
