                         Program Version 3.0.3 - RELEASE   -
|  1> ! RI-MP2 RIJK def2-TZVP def2-TZVP/C def2-TZVP/JK TIGHTSCF
|  2> % maxcore 2000
|  3> % mp2 density relaxed end
|  4> *xyz 0 1
|  5>  O       -0.1873162591     1.3300212112    -0.0620550895
|  6>  N       -0.0278059859    -0.0736728741    -0.0924713807
|  7>  C       -1.1485230095    -0.6577769059    -0.0356246524
|  8>  C       -1.4970620732    -2.0941627664     0.1045319856
|  9>  C       -2.7522210942    -1.7118259389     0.8273475843
| 10>  C       -2.6117685158    -0.2794218880     0.1563665834
| 11>  C       -3.2497899294    -0.9559588219    -1.0736592214
| 12>  N       -2.8616435680    -2.3043628854    -0.5187176694
| 13>  H        0.7259357688     1.6335003656    -0.0980073062
| 14>  H       -0.8621965419    -2.9612882126     0.2094489211
| 15>  H       -3.2065494544    -2.0890308016     1.7333316332
| 16>  H       -2.8987300932     0.6935142318     0.5422923278
| 17>  H       -4.3407348389    -0.9013148596    -1.0877511606
| 18>  H       -2.8425518753    -0.7186192443    -2.0619159851
| 19> *
| 20>
| 21>                          ****END OF INPUT****

CARTESIAN COORDINATES (ANGSTROEM)
---------------------------------
  O     -0.187316    1.330021   -0.062055
  N     -0.027806   -0.073673   -0.092471
  C     -1.148523   -0.657777   -0.035625
  C     -1.497062   -2.094163    0.104532
  C     -2.752221   -1.711826    0.827348
  C     -2.611769   -0.279422    0.156367
  C     -3.249790   -0.955959   -1.073659
  N     -2.861644   -2.304363   -0.518718
  H      0.725936    1.633500   -0.098007
  H     -0.862197   -2.961288    0.209449
  H     -3.206549   -2.089031    1.733332
  H     -2.898730    0.693514    0.542292
  H     -4.340735   -0.901315   -1.087751
  H     -2.842552   -0.718619   -2.061916

 Total Charge           Charge          ....    0
 Multiplicity           Mult            ....    1
 Number of Electrons    NEL             ....   58
 Basis Dimension        Dim             ....  284

ORBITAL ENERGIES
----------------

  NO   OCC          E(Eh)            E(eV)
   0   2.0000     -20.591135      -560.3133
   1   2.0000     -15.614067      -424.8804
   2   2.0000     -15.585213      -424.0952
   3   2.0000     -11.291027      -307.2445
   4   2.0000     -11.288290      -307.1700
   5   2.0000     -11.281564      -306.9870
   6   2.0000     -11.274581      -306.7969
   7   2.0000     -11.266811      -306.5855
   8   2.0000      -1.415042       -38.5052
   9   2.0000      -1.340342       -36.4726
  10   2.0000      -1.156350       -31.4659
  11   2.0000      -1.012485       -27.5511
  12   2.0000      -0.994996       -27.0752
  13   2.0000      -0.870555       -23.6890
  14   2.0000      -0.782830       -21.3019
  15   2.0000      -0.737332       -20.0638
  16   2.0000      -0.701181       -19.0801
  17   2.0000      -0.691044       -18.8043
  18   2.0000      -0.640027       -17.4160
  19   2.0000      -0.618358       -16.8264
  20   2.0000      -0.610355       -16.6086
  21   2.0000      -0.575596       -15.6628
  22   2.0000      -0.546938       -14.8829
  23   2.0000      -0.517708       -14.0875
  24   2.0000      -0.467461       -12.7203
  25   2.0000      -0.449299       -12.2260
  26   2.0000      -0.430874       -11.7247
  27   2.0000      -0.406632       -11.0650
  28   2.0000      -0.367083        -9.9888
  29   0.0000       0.145441         3.9577
  30   0.0000       0.151740         4.1290
  31   0.0000       0.161702         4.4001
  32   0.0000       0.176424         4.8008
  33   0.0000       0.177541         4.8311

MULLIKEN ATOMIC CHARGES
-----------------------
   0 O :   -0.364118
   1 N :   -0.086054
   2 C :   -0.012018
   3 C :   -0.074191
   4 C :   -0.119498
   5 C :   -0.061771
   6 C :   -0.118206
   7 N :   -0.217556
   8 H :    0.338248
   9 H :    0.145661
  10 H :    0.161436
  11 H :    0.155287
  12 H :    0.129345
  13 H :    0.123434
Sum of atomic charges:    0.0000000

LOEWDIN ATOMIC CHARGES
----------------------
   0 O :   -0.083362
   1 N :    0.024252
   2 C :   -0.264112
   3 C :   -0.156207
   4 C :   -0.148141
   5 C :   -0.141811
   6 C :   -0.214287
   7 N :    0.132653
   8 H :    0.169067
   9 H :    0.144107
  10 H :    0.135083
  11 H :    0.141925
  12 H :    0.134420
  13 H :    0.126414

  Mayer bond orders larger than 0.1
B(  0-O ,  1-N ) :   0.7887 B(  0-O ,  8-H ) :   0.8432 B(  1-N ,  2-C ) :   1.9102
B(  2-C ,  3-C ) :   0.9573 B(  2-C ,  5-C ) :   0.8970 B(  3-C ,  4-C ) :   0.8833
B(  3-C ,  7-N ) :   0.8673 B(  3-C ,  9-H ) :   0.9272 B(  4-C ,  5-C ) :   0.8946
B(  4-C ,  7-N ) :   0.9204 B(  4-C , 10-H ) :   0.8837 B(  5-C ,  6-C ) :   0.9127
B(  5-C , 11-H ) :   0.8983 B(  6-C ,  7-N ) :   0.9004 B(  6-C , 12-H ) :   0.9290
B(  6-C , 13-H ) :   0.9211

MP2 TOTAL ENERGY:     -377.957465996 Eh
FINAL SINGLE POINT ENERGY      -377.957465995610

DIPOLE MOMENT
-------------
                                X             Y             Z
Electronic contribution:      2.53788       0.11327       0.50524
Nuclear contribution   :     -2.74142       0.28975      -0.17667
                        -----------------------------------------
Total Dipole Moment    :     -0.20354       0.40302       0.32858
                        -----------------------------------------
Magnitude (a.u.)       :      0.55841
Magnitude (Debye)      :      1.41935

                             ****ORCA TERMINATED NORMALLY****
TOTAL RUN TIME: 0 days 0 hours 10 minutes 14 seconds 688 msec
