                         Program Version 3.0.3 - RELEASE   -
|  1> ! RI-MP2 RIJK def2-TZVP def2-TZVP/C def2-TZVP/JK TIGHTSCF
|  2> % maxcore 2000
|  3> % mp2 density relaxed end
|  4> *xyz 0 1
|  5>  C       -0.1365236229     1.4452368071    -0.1488372210
|  6>  C        1.2765358593     0.9805078649     0.0508634406
|  7>  C        0.1430408485    -0.0314926255     0.0684802164
|  8>  C       -0.2655472520    -0.7247725751     1.3054070632
|  9>  C       -0.6466281569    -2.0040399748     1.3936099955
| 10>  C       -1.0557610224    -2.4013201459     2.7900659253
| 11>  C       -0.5321696605    -1.2218912061     3.6473775276
| 12>  C       -0.3685081771    -0.0415372654     2.6586519605
| 13>  H       -0.6082185809     1.9939442587     0.6585192332
| 14>  H       -0.4476432493     1.7579462987    -1.1393665788
| 15>  H        1.9444072506     0.9648761502    -0.8032228033
| 16>  H        1.7635304872     1.2170119795     0.9900753495
| 17>  H        0.0718337607    -0.6498871953    -0.8216515255
| 18>  H       -0.7034081430    -2.6851968751     0.5505316840
| 19>  H       -2.1486596532    -2.5052169138     2.8638722812
| 20>  H       -0.6378694365    -3.3645368473     3.1055484172
| 21>  H       -1.1855534674    -0.9811546024     4.4899975344
| 22>  H        0.4468713582    -1.4832105861     4.0618231839
| 23>  H        0.4994038568     0.5830577316     2.8992782920
| 24>  H       -1.2414193392     0.6268140020     2.6788771738
| 25> *
| 26>
| 27>                          ****END OF INPUT****

CARTESIAN COORDINATES (ANGSTROEM)
---------------------------------
  C     -0.136524    1.445237   -0.148837
  C      1.276536    0.980508    0.050863
  C      0.143041   -0.031493    0.068480
  C     -0.265547   -0.724773    1.305407
  C     -0.646628   -2.004040    1.393610
  C     -1.055761   -2.401320    2.790066
  C     -0.532170   -1.221891    3.647378
  C     -0.368508   -0.041537    2.658652
  H     -0.608219    1.993944    0.658519
  H     -0.447643    1.757946   -1.139367
  H      1.944407    0.964876   -0.803223
  H      1.763530    1.217012    0.990075
  H      0.071834   -0.649887   -0.821652
  H     -0.703408   -2.685197    0.550532
  H     -2.148660   -2.505217    2.863872
  H     -0.637869   -3.364537    3.105548
  H     -1.185553   -0.981155    4.489998
  H      0.446871   -1.483211    4.061823
  H      0.499404    0.583058    2.899278
  H     -1.241419    0.626814    2.678877

 Total Charge           Charge          ....    0
 Multiplicity           Mult            ....    1
 Number of Electrons    NEL             ....   60
 Basis Dimension        Dim             ....  320

ORBITAL ENERGIES
----------------

  NO   OCC          E(Eh)            E(eV)
   0   2.0000     -11.232556      -305.6534
   1   2.0000     -11.225641      -305.4652
   2   2.0000     -11.224874      -305.4444
   3   2.0000     -11.224597      -305.4368
   4   2.0000     -11.220292      -305.3197
   5   2.0000     -11.216660      -305.2208
   6   2.0000     -11.216089      -305.2053
   7   2.0000     -11.207496      -304.9715
   8   2.0000      -1.153650       -31.3924
   9   2.0000      -1.110348       -30.2141
  10   2.0000      -0.968920       -26.3657
  11   2.0000      -0.951085       -25.8803
  12   2.0000      -0.827947       -22.5296
  13   2.0000      -0.821281       -22.3482
  14   2.0000      -0.778611       -21.1871
  15   2.0000      -0.707182       -19.2434
  16   2.0000      -0.673517       -18.3273
  17   2.0000      -0.644737       -17.5442
  18   2.0000      -0.628717       -17.1082
  19   2.0000      -0.571998       -15.5649
  20   2.0000      -0.548665       -14.9299
  21   2.0000      -0.530962       -14.4482
  22   2.0000      -0.513644       -13.9770
  23   2.0000      -0.487449       -13.2642
  24   2.0000      -0.484713       -13.1897
  25   2.0000      -0.473294       -12.8790
  26   2.0000      -0.466122       -12.6838
  27   2.0000      -0.439211       -11.9515
  28   2.0000      -0.421040       -11.4571
  29   2.0000      -0.313885        -8.5413
  30   0.0000       0.141206         3.8424
  31   0.0000       0.161216         4.3869
  32   0.0000       0.163017         4.4359
  33   0.0000       0.170375         4.6362
  34   0.0000       0.172263         4.6875

MULLIKEN ATOMIC CHARGES
-----------------------
   0 C :   -0.265266
   1 C :   -0.264507
   2 C :   -0.066760
   3 C :    0.019194
   4 C :   -0.253250
   5 C :   -0.154183
   6 C :   -0.234431
   7 C :   -0.223936
   8 H :    0.133129
   9 H :    0.130482
  10 H :    0.130344
  11 H :    0.131219
  12 H :    0.116800
  13 H :    0.117289
  14 H :    0.108673
  15 H :    0.115315
  16 H :    0.120712
  17 H :    0.107618
  18 H :    0.119715
  19 H :    0.111839
Sum of atomic charges:    0.0000000

LOEWDIN ATOMIC CHARGES
----------------------
   0 C :   -0.220864
   1 C :   -0.221331
   2 C :   -0.188713
   3 C :   -0.156582
   4 C :   -0.142895
   5 C :   -0.247345
   6 C :   -0.237990
   7 C :   -0.212491
   8 H :    0.133085
   9 H :    0.130797
  10 H :    0.131027
  11 H :    0.131307
  12 H :    0.154548
  13 H :    0.135804
  14 H :    0.136861
  15 H :    0.133404
  16 H :    0.129325
  17 H :    0.136742
  18 H :    0.135269
  19 H :    0.140042

  Mayer bond orders larger than 0.1
B(  0-C ,  1-C ) :   0.8969 B(  0-C ,  2-C ) :   0.8377 B(  0-C ,  8-H ) :   0.9329
B(  0-C ,  9-H ) :   0.9295 B(  1-C ,  2-C ) :   0.8472 B(  1-C , 10-H ) :   0.9306
B(  1-C , 11-H ) :   0.9346 B(  2-C ,  3-C ) :   0.9436 B(  2-C , 12-H ) :   0.9386
B(  3-C ,  4-C ) :   1.7197 B(  3-C ,  7-C ) :   0.8882 B(  4-C ,  5-C ) :   0.9454
B(  4-C , 13-H ) :   0.9284 B(  5-C ,  6-C ) :   0.9498 B(  5-C , 14-H ) :   0.9073
B(  5-C , 15-H ) :   0.9353 B(  6-C ,  7-C ) :   0.9503 B(  6-C , 16-H ) :   0.9406
B(  6-C , 17-H ) :   0.9299 B(  7-C , 18-H ) :   0.9362 B(  7-C , 19-H ) :   0.9034

MP2 TOTAL ENERGY:     -311.288668538 Eh
FINAL SINGLE POINT ENERGY      -311.288668538451

DIPOLE MOMENT
-------------
                                X             Y             Z
Electronic contribution:     -0.10483      -1.12638      -1.59454
Nuclear contribution   :      0.10967       1.22776       1.57144
                        -----------------------------------------
Total Dipole Moment    :      0.00484       0.10138      -0.02310
                        -----------------------------------------
Magnitude (a.u.)       :      0.10409
Magnitude (Debye)      :      0.26458

                             ****ORCA TERMINATED NORMALLY****
TOTAL RUN TIME: 0 days 0 hours 13 minutes 55 seconds 382 msec
