                         Program Version 3.0.3 - RELEASE   -
|  1> ! RI-MP2 RIJK def2-TZVP def2-TZVP/C def2-TZVP/JK TIGHTSCF
|  2> % maxcore 2000
|  3> % mp2 density relaxed end
|  4> *xyz 0 1
|  5>  C       -0.9687889241     0.8262342384     0.0092152371
|  6>  C        0.2122959296    -0.1357605504    -0.0136608407
|  7>  C        1.1126263544     0.0213446273    -1.2456089261
|  8>  O        0.8052344466     0.6945776798    -2.1956456749
|  9>  C        2.4327327846    -0.7371405285    -1.1554812591
| 10>  C        2.4938122774    -1.5979087079     0.1004515010
| 11>  O        2.1820969695    -0.8283735128     1.2717151438
| 12>  C        1.0523231951    -0.0749211377     1.2654392361
| 13>  O        0.7681273330     0.5850044986     2.2239120968
| 14>  H       -0.6199383938     1.8581781396     0.0876315635
| 15>  H       -1.5462001962     0.7314168011    -0.9119960807
| 16>  H       -1.6107538009     0.6208907241     0.8672343393
| 17>  H       -0.1503230015    -1.1769845014    -0.0721122697
| 18>  H        2.5659949393    -1.3393715711    -2.0595524937
| 19>  H        3.2389439821     0.0060255013    -1.1453898458
| 20>  H        1.8097203139    -2.4535713847     0.0307151680
| 21>  H        3.4981351411    -1.9876125755     0.2734717252
| 22> *
| 23>
| 24>                          ****END OF INPUT****

CARTESIAN COORDINATES (ANGSTROEM)
---------------------------------
  C     -0.968789    0.826234    0.009215
  C      0.212296   -0.135761   -0.013661
  C      1.112626    0.021345   -1.245609
  O      0.805234    0.694578   -2.195646
  C      2.432733   -0.737141   -1.155481
  C      2.493812   -1.597909    0.100452
  O      2.182097   -0.828374    1.271715
  C      1.052323   -0.074921    1.265439
  O      0.768127    0.585004    2.223912
  H     -0.619938    1.858178    0.087632
  H     -1.546200    0.731417   -0.911996
  H     -1.610754    0.620891    0.867234
  H     -0.150323   -1.176985   -0.072112
  H      2.565995   -1.339372   -2.059552
  H      3.238944    0.006026   -1.145390
  H      1.809720   -2.453571    0.030715
  H      3.498135   -1.987613    0.273472

 Total Charge           Charge          ....    0
 Multiplicity           Mult            ....    1
 Number of Electrons    NEL             ....   68
 Basis Dimension        Dim             ....  327

ORBITAL ENERGIES
----------------

  NO   OCC          E(Eh)            E(eV)
   0   2.0000     -20.615954      -560.9886
   1   2.0000     -20.569180      -559.7159
   2   2.0000     -20.551377      -559.2314
   3   2.0000     -11.393937      -310.0448
   4   2.0000     -11.357922      -309.0648
   5   2.0000     -11.322562      -308.1026
   6   2.0000     -11.278674      -306.9083
   7   2.0000     -11.267069      -306.5925
   8   2.0000     -11.229025      -305.5573
   9   2.0000      -1.471194       -40.0332
  10   2.0000      -1.415033       -38.5050
  11   2.0000      -1.377173       -37.4748
  12   2.0000      -1.110725       -30.2244
  13   2.0000      -1.071163       -29.1478
  14   2.0000      -0.957428       -26.0529
  15   2.0000      -0.895048       -24.3555
  16   2.0000      -0.818156       -22.2632
  17   2.0000      -0.743987       -20.2449
  18   2.0000      -0.720585       -19.6081
  19   2.0000      -0.712771       -19.3955
  20   2.0000      -0.698103       -18.9963
  21   2.0000      -0.646776       -17.5997
  22   2.0000      -0.634338       -17.2612
  23   2.0000      -0.618762       -16.8374
  24   2.0000      -0.617180       -16.7943
  25   2.0000      -0.572206       -15.5705
  26   2.0000      -0.564458       -15.3597
  27   2.0000      -0.542779       -14.7698
  28   2.0000      -0.531337       -14.4584
  29   2.0000      -0.521773       -14.1982
  30   2.0000      -0.510994       -13.9048
  31   2.0000      -0.467618       -12.7245
  32   2.0000      -0.452486       -12.3128
  33   2.0000      -0.427976       -11.6458
  34   0.0000       0.103816         2.8250
  35   0.0000       0.120403         3.2763
  36   0.0000       0.147519         4.0142
  37   0.0000       0.152061         4.1378
  38   0.0000       0.169479         4.6118

MULLIKEN ATOMIC CHARGES
-----------------------
   0 C :   -0.365526
   1 C :   -0.077006
   2 C :    0.101152
   3 O :   -0.263298
   4 C :   -0.219846
   5 C :   -0.100549
   6 O :   -0.206626
   7 C :    0.244524
   8 O :   -0.273885
   9 H :    0.140941
  10 H :    0.146343
  11 H :    0.149492
  12 H :    0.136265
  13 H :    0.153801
  14 H :    0.155217
  15 H :    0.126689
  16 H :    0.152312
Sum of atomic charges:   -0.0000000

LOEWDIN ATOMIC CHARGES
----------------------
   0 C :   -0.270834
   1 C :   -0.228106
   2 C :   -0.300769
   3 O :    0.173868
   4 C :   -0.232331
   5 C :   -0.280385
   6 O :    0.258740
   7 C :   -0.450050
   8 O :    0.154887
   9 H :    0.135437
  10 H :    0.131390
  11 H :    0.132360
  12 H :    0.185335
  13 H :    0.159572
  14 H :    0.163358
  15 H :    0.129328
  16 H :    0.138200

  Mayer bond orders larger than 0.1
B(  0-C ,  1-C ) :   0.9336 B(  0-C ,  9-H ) :   0.9310 B(  0-C , 10-H ) :   0.9283
B(  0-C , 11-H ) :   0.9323 B(  1-C ,  2-C ) :   0.8584 B(  1-C ,  7-C ) :   0.9088
B(  1-C , 12-H ) :   0.8764 B(  2-C ,  3-O ) :   2.0041 B(  2-C ,  4-C ) :   0.9032
B(  4-C ,  5-C ) :   0.9329 B(  4-C , 13-H ) :   0.9102 B(  4-C , 14-H ) :   0.9006
B(  5-C ,  6-O ) :   0.8601 B(  5-C , 15-H ) :   0.9310 B(  5-C , 16-H ) :   0.9280
B(  6-O ,  7-C ) :   1.1207 B(  7-C ,  8-O ) :   2.0223

MP2 TOTAL ENERGY:     -458.287932462 Eh
FINAL SINGLE POINT ENERGY      -458.287932461517

DIPOLE MOMENT
-------------
                                X             Y             Z
Electronic contribution:      1.98773       1.21911       2.30734
Nuclear contribution   :     -1.65381      -2.50439      -3.04533
                        -----------------------------------------
Total Dipole Moment    :      0.33392      -1.28528      -0.73800
                        -----------------------------------------
Magnitude (a.u.)       :      1.51924
Magnitude (Debye)      :      3.86159

                             ****ORCA TERMINATED NORMALLY****
TOTAL RUN TIME: 0 days 0 hours 16 minutes 56 seconds 168 msec
