                         Program Version 3.0.3 - RELEASE   -
|  1> ! RI-MP2 RIJK def2-TZVP def2-TZVP/C def2-TZVP/JK TIGHTSCF
|  2> % maxcore 2000
|  3> % mp2 density relaxed end
|  4> *xyz 0 1
|  5>  N        0.0028358821     1.3452253145     0.0095804550
|  6>  C        1.2786519674     1.8862144745     0.0002154806
|  7>  C        2.1191058904     0.7974376691    -0.0136651354
|  8>  N        3.4309099288     0.3601964837    -0.0286039358
|  9>  C        3.3695946902    -1.0240192882    -0.0354177003
| 10>  N        2.1631406075    -1.5199270062    -0.0264304125
| 11>  C        1.3422096377    -0.3990752781    -0.0125622867
| 12>  C        0.0098682657    -0.0296457413     0.0022306590
| 13>  H       -0.8346548476     1.9003462578     0.0206005280
| 14>  H        1.4349118349     2.9509472082     0.0043821944
| 15>  H        4.2696744937     0.9125424754    -0.0337581226
| 16>  H        4.2790081756    -1.6098372897    -0.0472903107
| 17>  H       -0.9061911864    -0.5953144398     0.0080365271
| 18> *
| 19>
| 20>                          ****END OF INPUT****

CARTESIAN COORDINATES (ANGSTROEM)
---------------------------------
  N      0.002836    1.345225    0.009580
  C      1.278652    1.886214    0.000215
  C      2.119106    0.797438   -0.013665
  N      3.430910    0.360196   -0.028604
  C      3.369595   -1.024019   -0.035418
  N      2.163141   -1.519927   -0.026430
  C      1.342210   -0.399075   -0.012562
  C      0.009868   -0.029646    0.002231
  H     -0.834655    1.900346    0.020601
  H      1.434912    2.950947    0.004382
  H      4.269674    0.912542   -0.033758
  H      4.279008   -1.609837   -0.047290
  H     -0.906191   -0.595314    0.008037

 Total Charge           Charge          ....    0
 Multiplicity           Mult            ....    1
 Number of Electrons    NEL             ....   56
 Basis Dimension        Dim             ....  278

ORBITAL ENERGIES
----------------

  NO   OCC          E(Eh)            E(eV)
   0   2.0000     -15.604224      -424.6125
   1   2.0000     -15.603022      -424.5798
   2   2.0000     -15.540391      -422.8755
   3   2.0000     -11.305268      -307.6320
   4   2.0000     -11.250786      -306.1495
   5   2.0000     -11.249408      -306.1120
   6   2.0000     -11.248187      -306.0787
   7   2.0000     -11.228825      -305.5519
   8   2.0000      -1.330486       -36.2044
   9   2.0000      -1.274842       -34.6902
  10   2.0000      -1.162943       -31.6453
  11   2.0000      -1.026772       -27.9399
  12   2.0000      -0.970289       -26.4029
  13   2.0000      -0.855869       -23.2894
  14   2.0000      -0.810123       -22.0446
  15   2.0000      -0.761550       -20.7228
  16   2.0000      -0.723700       -19.6929
  17   2.0000      -0.680424       -18.5153
  18   2.0000      -0.622185       -16.9305
  19   2.0000      -0.608716       -16.5640
  20   2.0000      -0.585803       -15.9405
  21   2.0000      -0.582197       -15.8424
  22   2.0000      -0.538126       -14.6432
  23   2.0000      -0.534055       -14.5324
  24   2.0000      -0.424292       -11.5456
  25   2.0000      -0.418730       -11.3942
  26   2.0000      -0.313625        -8.5342
  27   2.0000      -0.270683        -7.3657
  28   0.0000       0.132998         3.6191
  29   0.0000       0.136489         3.7141
  30   0.0000       0.138220         3.7612
  31   0.0000       0.178898         4.8680
  32   0.0000       0.189359         5.1527

MULLIKEN ATOMIC CHARGES
-----------------------
   0 N :   -0.204476
   1 C :   -0.132299
   2 C :    0.040282
   3 N :   -0.320558
   4 C :    0.075006
   5 N :   -0.275260
   6 C :    0.023756
   7 C :   -0.134541
   8 H :    0.244388
   9 H :    0.147765
  10 H :    0.245819
  11 H :    0.140499
  12 H :    0.149622
Sum of atomic charges:    0.0000000

LOEWDIN ATOMIC CHARGES
----------------------
   0 N :    0.188041
   1 C :   -0.243993
   2 C :   -0.227419
   3 N :    0.162479
   4 C :   -0.296337
   5 N :    0.103474
   6 C :   -0.241811
   7 C :   -0.216613
   8 H :    0.191787
   9 H :    0.129587
  10 H :    0.188120
  11 H :    0.128972
  12 H :    0.133714

  Mayer bond orders larger than 0.1
B(  0-N ,  1-C ) :   1.1510 B(  0-N ,  7-C ) :   1.1721 B(  0-N ,  8-H ) :   0.8752
B(  1-C ,  2-C ) :   1.3749 B(  1-C ,  7-C ) :   0.1517 B(  1-C ,  9-H ) :   0.9018
B(  2-C ,  3-N ) :   1.0585 B(  2-C ,  6-C ) :   1.1930 B(  3-N ,  4-C ) :   1.1160
B(  3-N , 10-H ) :   0.8660 B(  4-C ,  5-N ) :   1.6218 B(  4-C , 11-H ) :   0.9279
B(  5-N ,  6-C ) :   1.2643 B(  6-C ,  7-C ) :   1.3958 B(  7-C , 12-H ) :   0.9069

MP2 TOTAL ENERGY:     -357.058581571 Eh
FINAL SINGLE POINT ENERGY      -357.058581571019

DIPOLE MOMENT
-------------
                                X             Y             Z
Electronic contribution:      0.52566      -0.93986      -0.01005
Nuclear contribution   :     -0.33220       2.41814       0.01605
                        -----------------------------------------
Total Dipole Moment    :      0.19346       1.47828       0.00599
                        -----------------------------------------
Magnitude (a.u.)       :      1.49090
Magnitude (Debye)      :      3.78955

                             ****ORCA TERMINATED NORMALLY****
TOTAL RUN TIME: 0 days 0 hours 11 minutes 1 seconds 385 msec
