                         Program Version 3.0.3 - RELEASE   -
|  1> ! RI-MP2 RIJK def2-TZVP def2-TZVP/C def2-TZVP/JK TIGHTSCF
|  2> % maxcore 2000
|  3> % mp2 density relaxed end
|  4> *xyz 0 1
|  5>  C        0.5695506112     1.5794526819     0.1160220450
|  6>  C       -0.2443603038     0.3017506367    -0.1254647194
|  7>  C        0.2277059347    -0.4348524916    -1.3565010569
|  8>  O        1.4772332658    -1.1337238983    -1.2687573198
|  9>  C        0.2909082263    -1.8990694399    -1.5146437389
| 10>  C       -0.1128804145    -2.9035802459    -0.4732264457
| 11>  C       -1.4468409831    -3.6477198123    -0.7258560417
| 12>  O       -0.7800389715    -4.9201444460    -0.8219847184
| 13>  C        0.5116495662    -4.3147964274    -0.6083331986
| 14>  H        1.6278386873     1.3387555608     0.2530769104
| 15>  H        0.4891767189     2.2672249568    -0.7327504226
| 16>  H        0.2196070811     2.1064681764     1.0082911039
| 17>  H       -0.1760201241    -0.3480373671     0.7517838283
| 18>  H       -1.3052606327     0.5519077055    -0.2570355145
| 19>  H        0.1265731057     0.1425521842    -2.2798242881
| 20>  H        0.2257145195    -2.2831529784    -2.5370680056
| 21>  H       -0.0183937351    -2.4841624281     0.5280033331
| 22>  H       -2.1706435355    -3.6195907445     0.0976520395
| 23>  H       -1.9629754653    -3.3808380786    -1.6582313727
| 24>  H        1.1787363935    -4.4497599884    -1.4694271535
| 25>  H        1.0059719153    -4.7043006960     0.2892791062
| 26> *
| 27>
| 28>                          ****END OF INPUT****

CARTESIAN COORDINATES (ANGSTROEM)
---------------------------------
  C      0.569551    1.579453    0.116022
  C     -0.244360    0.301751   -0.125465
  C      0.227706   -0.434852   -1.356501
  O      1.477233   -1.133724   -1.268757
  C      0.290908   -1.899069   -1.514644
  C     -0.112880   -2.903580   -0.473226
  C     -1.446841   -3.647720   -0.725856
  O     -0.780039   -4.920144   -0.821985
  C      0.511650   -4.314796   -0.608333
  H      1.627839    1.338756    0.253077
  H      0.489177    2.267225   -0.732750
  H      0.219607    2.106468    1.008291
  H     -0.176020   -0.348037    0.751784
  H     -1.305261    0.551908   -0.257036
  H      0.126573    0.142552   -2.279824
  H      0.225715   -2.283153   -2.537068
  H     -0.018394   -2.484162    0.528003
  H     -2.170644   -3.619591    0.097652
  H     -1.962975   -3.380838   -1.658231
  H      1.178736   -4.449760   -1.469427
  H      1.005972   -4.704301    0.289279

 Total Charge           Charge          ....    0
 Multiplicity           Mult            ....    1
 Number of Electrons    NEL             ....   70
 Basis Dimension        Dim             ....  351

ORBITAL ENERGIES
----------------

  NO   OCC          E(Eh)            E(eV)
   0   2.0000     -20.567206      -559.6621
   1   2.0000     -20.550460      -559.2064
   2   2.0000     -11.290955      -307.2425
   3   2.0000     -11.289527      -307.2037
   4   2.0000     -11.285161      -307.0848
   5   2.0000     -11.281480      -306.9847
   6   2.0000     -11.243269      -305.9449
   7   2.0000     -11.235599      -305.7362
   8   2.0000     -11.220965      -305.3380
   9   2.0000      -1.411723       -38.4149
  10   2.0000      -1.380736       -37.5717
  11   2.0000      -1.057165       -28.7669
  12   2.0000      -1.048290       -28.5254
  13   2.0000      -0.939271       -25.5589
  14   2.0000      -0.924092       -25.1458
  15   2.0000      -0.871708       -23.7204
  16   2.0000      -0.812077       -22.0977
  17   2.0000      -0.760307       -20.6890
  18   2.0000      -0.708930       -19.2910
  19   2.0000      -0.682351       -18.5677
  20   2.0000      -0.663707       -18.0604
  21   2.0000      -0.616959       -16.7883
  22   2.0000      -0.611808       -16.6481
  23   2.0000      -0.602525       -16.3955
  24   2.0000      -0.569111       -15.4863
  25   2.0000      -0.557077       -15.1588
  26   2.0000      -0.548329       -14.9208
  27   2.0000      -0.533255       -14.5106
  28   2.0000      -0.502463       -13.6727
  29   2.0000      -0.489729       -13.3262
  30   2.0000      -0.485626       -13.2146
  31   2.0000      -0.466573       -12.6961
  32   2.0000      -0.442506       -12.0412
  33   2.0000      -0.417955       -11.3731
  34   2.0000      -0.416037       -11.3209
  35   0.0000       0.137487         3.7412
  36   0.0000       0.150323         4.0905
  37   0.0000       0.151983         4.1357
  38   0.0000       0.162872         4.4320
  39   0.0000       0.178255         4.8506

MULLIKEN ATOMIC CHARGES
-----------------------
   0 C :   -0.395899
   1 C :   -0.198215
   2 C :    0.040539
   3 O :   -0.342278
   4 C :   -0.051140
   5 C :   -0.048649
   6 C :   -0.038048
   7 O :   -0.328960
   8 C :   -0.021210
   9 H :    0.143750
  10 H :    0.123934
  11 H :    0.135123
  12 H :    0.110793
  13 H :    0.111281
  14 H :    0.115575
  15 H :    0.128342
  16 H :    0.120787
  17 H :    0.098220
  18 H :    0.095841
  19 H :    0.100694
  20 H :    0.099519
Sum of atomic charges:   -0.0000000

LOEWDIN ATOMIC CHARGES
----------------------
   0 C :   -0.311456
   1 C :   -0.277715
   2 C :   -0.266120
   3 O :    0.161001
   4 C :   -0.258032
   5 C :   -0.225126
   6 C :   -0.248265
   7 O :    0.108707
   8 C :   -0.242648
   9 H :    0.127239
  10 H :    0.121625
  11 H :    0.121573
  12 H :    0.139059
  13 H :    0.142904
  14 H :    0.139558
  15 H :    0.143957
  16 H :    0.149696
  17 H :    0.117206
  18 H :    0.118505
  19 H :    0.120647
  20 H :    0.117685

  Mayer bond orders larger than 0.1
B(  0-C ,  1-C ) :   0.9236 B(  0-C ,  9-H ) :   0.9361 B(  0-C , 10-H ) :   0.9379
B(  0-C , 11-H ) :   0.9401 B(  1-C ,  2-C ) :   0.9156 B(  1-C , 12-H ) :   0.9371
B(  1-C , 13-H ) :   0.9248 B(  2-C ,  3-O ) :   0.8654 B(  2-C ,  4-C ) :   1.0044
B(  2-C , 14-H ) :   0.9088 B(  3-O ,  4-C ) :   0.9022 B(  4-C ,  5-C ) :   0.8928
B(  4-C , 15-H ) :   0.9092 B(  5-C ,  6-C ) :   0.9434 B(  5-C ,  8-C ) :   0.9574
B(  5-C , 16-H ) :   0.9191 B(  6-C ,  7-O ) :   0.9624 B(  6-C , 17-H ) :   0.9133
B(  6-C , 18-H ) :   0.9038 B(  7-O ,  8-C ) :   0.9565 B(  8-C , 19-H ) :   0.9080
B(  8-C , 20-H ) :   0.9128

MP2 TOTAL ENERGY:     -423.472979760 Eh
FINAL SINGLE POINT ENERGY      -423.472979759988

DIPOLE MOMENT
-------------
                                X             Y             Z
Electronic contribution:      0.92758      -7.04573      -2.60975
Nuclear contribution   :     -1.40123       7.78847       2.77205
                        -----------------------------------------
Total Dipole Moment    :     -0.47365       0.74275       0.16230
                        -----------------------------------------
Magnitude (a.u.)       :      0.89574
Magnitude (Debye)      :      2.27680

                             ****ORCA TERMINATED NORMALLY****
TOTAL RUN TIME: 0 days 0 hours 25 minutes 21 seconds 968 msec
