                         Program Version 3.0.3 - RELEASE   -
|  1> ! RI-MP2 RIJK def2-TZVP def2-TZVP/C def2-TZVP/JK TIGHTSCF
|  2> % maxcore 2000
|  3> % mp2 density relaxed end
|  4> *xyz 0 1
|  5>  C        0.1090764718     1.5473303575     0.0478194082
|  6>  C       -0.0409931226     0.0381900187     0.1021935910
|  7>  C       -1.3128532698    -0.4823481270    -0.5297548507
|  8>  O       -1.2926767022    -0.1637461347    -1.9160804102
|  9>  C        1.1896171692    -0.8302185864    -0.0315459449
| 10>  C        0.4755215142    -0.7453547680     1.2943094949
| 11>  C        1.1152846538    -0.0797673997     2.4735005677
| 12>  C        2.4285867437    -0.5024841562     2.9835512041
| 13>  O        2.2829400332     0.7136077208     2.2475552733
| 14>  H        1.0630468346     1.8728796988     0.4654667646
| 15>  H        0.0454868138     1.8865293154    -0.9897660080
| 16>  H       -0.6936796425     2.0420083834     0.6089454748
| 17>  H       -1.3853647950    -1.5716625791    -0.3784013367
| 18>  H       -2.1844031499    -0.0218093364    -0.0356093457
| 19>  H       -2.1624235860    -0.3524886267    -2.2798964313
| 20>  H        1.1174383736    -1.7494692353    -0.6024749524
| 21>  H        2.1450050094    -0.3219112962    -0.0994218785
| 22>  H       -0.1210807577    -1.6087331336     1.5843664017
| 23>  H        0.4238147299     0.3646625027     3.1922093511
| 24>  H        2.6689077271    -0.3816112955     4.0387299492
| 25>  H        2.9657601915    -1.2955393425     2.4658847177
| 26> *
| 27>
| 28>                          ****END OF INPUT****

CARTESIAN COORDINATES (ANGSTROEM)
---------------------------------
  C      0.109076    1.547330    0.047819
  C     -0.040993    0.038190    0.102194
  C     -1.312853   -0.482348   -0.529755
  O     -1.292677   -0.163746   -1.916080
  C      1.189617   -0.830219   -0.031546
  C      0.475522   -0.745355    1.294309
  C      1.115285   -0.079767    2.473501
  C      2.428587   -0.502484    2.983551
  O      2.282940    0.713608    2.247555
  H      1.063047    1.872880    0.465467
  H      0.045487    1.886529   -0.989766
  H     -0.693680    2.042008    0.608945
  H     -1.385365   -1.571663   -0.378401
  H     -2.184403   -0.021809   -0.035609
  H     -2.162424   -0.352489   -2.279896
  H      1.117438   -1.749469   -0.602475
  H      2.145005   -0.321911   -0.099422
  H     -0.121081   -1.608733    1.584366
  H      0.423815    0.364663    3.192209
  H      2.668908   -0.381611    4.038730
  H      2.965760   -1.295539    2.465885

 Total Charge           Charge          ....    0
 Multiplicity           Mult            ....    1
 Number of Electrons    NEL             ....   70
 Basis Dimension        Dim             ....  351

ORBITAL ENERGIES
----------------

  NO   OCC          E(Eh)            E(eV)
   0   2.0000     -20.566765      -559.6501
   1   2.0000     -20.553954      -559.3015
   2   2.0000     -11.288336      -307.1712
   3   2.0000     -11.279962      -306.9434
   4   2.0000     -11.276901      -306.8601
   5   2.0000     -11.234908      -305.7174
   6   2.0000     -11.234229      -305.6989
   7   2.0000     -11.218642      -305.2748
   8   2.0000     -11.202567      -304.8374
   9   2.0000      -1.410422       -38.3795
  10   2.0000      -1.358214       -36.9589
  11   2.0000      -1.156215       -31.4622
  12   2.0000      -0.982128       -26.7251
  13   2.0000      -0.933996       -25.4153
  14   2.0000      -0.922182       -25.0938
  15   2.0000      -0.880300       -23.9542
  16   2.0000      -0.781348       -21.2616
  17   2.0000      -0.743152       -20.2222
  18   2.0000      -0.702744       -19.1226
  19   2.0000      -0.690162       -18.7803
  20   2.0000      -0.661567       -18.0021
  21   2.0000      -0.640704       -17.4345
  22   2.0000      -0.620231       -16.8773
  23   2.0000      -0.571149       -15.5418
  24   2.0000      -0.555344       -15.1117
  25   2.0000      -0.549927       -14.9643
  26   2.0000      -0.536117       -14.5885
  27   2.0000      -0.530672       -14.4403
  28   2.0000      -0.507146       -13.8001
  29   2.0000      -0.480697       -13.0804
  30   2.0000      -0.465106       -12.6562
  31   2.0000      -0.447208       -12.1691
  32   2.0000      -0.445325       -12.1179
  33   2.0000      -0.404589       -11.0094
  34   2.0000      -0.384405       -10.4602
  35   0.0000       0.132476         3.6049
  36   0.0000       0.154694         4.2094
  37   0.0000       0.165866         4.5134
  38   0.0000       0.171083         4.6554
  39   0.0000       0.177482         4.8295

MULLIKEN ATOMIC CHARGES
-----------------------
   0 C :   -0.435157
   1 C :    0.156825
   2 C :   -0.104424
   3 O :   -0.461597
   4 C :   -0.314136
   5 C :   -0.168698
   6 C :    0.045128
   7 C :   -0.080547
   8 O :   -0.342156
   9 H :    0.159785
  10 H :    0.153138
  11 H :    0.114967
  12 H :    0.093747
  13 H :    0.103066
  14 H :    0.313405
  15 H :    0.133072
  16 H :    0.150985
  17 H :    0.117691
  18 H :    0.126458
  19 H :    0.117043
  20 H :    0.121404
Sum of atomic charges:    0.0000000

LOEWDIN ATOMIC CHARGES
----------------------
   0 C :   -0.262668
   1 C :   -0.254518
   2 C :   -0.307711
   3 O :   -0.043383
   4 C :   -0.175691
   5 C :   -0.186007
   6 C :   -0.275562
   7 C :   -0.260471
   8 O :    0.144888
   9 H :    0.134063
  10 H :    0.133055
  11 H :    0.124944
  12 H :    0.120833
  13 H :    0.120594
  14 H :    0.171290
  15 H :    0.135279
  16 H :    0.143628
  17 H :    0.155473
  18 H :    0.140620
  19 H :    0.118813
  20 H :    0.122533

  Mayer bond orders larger than 0.1
B(  0-C ,  1-C ) :   0.9103 B(  0-C ,  9-H ) :   0.9290 B(  0-C , 10-H ) :   0.9358
B(  0-C , 11-H ) :   0.9362 B(  1-C ,  2-C ) :   0.9205 B(  1-C ,  3-O ) :  -0.1052
B(  1-C ,  4-C ) :   0.8668 B(  1-C ,  5-C ) :   0.8422 B(  2-C ,  3-O ) :   1.0606
B(  2-C , 12-H ) :   0.9142 B(  2-C , 13-H ) :   0.9350 B(  3-O , 14-H ) :   0.8476
B(  4-C ,  5-C ) :   0.9113 B(  4-C , 15-H ) :   0.9230 B(  4-C , 16-H ) :   0.9177
B(  5-C ,  6-C ) :   0.9348 B(  5-C , 17-H ) :   0.9176 B(  6-C ,  7-C ) :   0.9681
B(  6-C ,  8-O ) :   0.8623 B(  6-C , 18-H ) :   0.9179 B(  7-C ,  8-O ) :   0.9118
B(  7-C , 19-H ) :   0.9240 B(  7-C , 20-H ) :   0.9069

MP2 TOTAL ENERGY:     -423.482443942 Eh
FINAL SINGLE POINT ENERGY      -423.482443941600

DIPOLE MOMENT
-------------
                                X             Y             Z
Electronic contribution:      1.50551      -0.12813       0.84787
Nuclear contribution   :     -2.27610      -0.61693      -0.39875
                        -----------------------------------------
Total Dipole Moment    :     -0.77059      -0.74506       0.44912
                        -----------------------------------------
Magnitude (a.u.)       :      1.16216
Magnitude (Debye)      :      2.95398

                             ****ORCA TERMINATED NORMALLY****
TOTAL RUN TIME: 0 days 0 hours 17 minutes 28 seconds 449 msec
