                         Program Version 3.0.3 - RELEASE   -
|  1> ! RI-MP2 RIJK def2-TZVP def2-TZVP/C def2-TZVP/JK TIGHTSCF
|  2> % maxcore 2000
|  3> % mp2 density relaxed end
|  4> *xyz 0 1
|  5>  C       -0.0479039873     1.5643252215     0.0029681610
|  6>  C        0.0837677061     0.0648383513    -0.0163283875
|  7>  N       -0.7421581341    -0.7745367922     0.8857055602
|  8>  C        0.7352387436    -0.7600678180     1.0697309193
|  9>  C        1.4495696732    -1.9468855292     0.4208063702
| 10>  C        1.1269188779    -1.7658619565    -1.0469665024
| 11>  C        0.4109670113    -0.6670705059    -1.2834245783
| 12>  C        1.2730670586    -0.1535299313     2.2517918594
| 13>  N        1.6995869289     0.3340370824     3.2114376918
| 14>  H        0.8025714518     2.0359345017    -0.4988655050
| 15>  H       -0.9602540615     1.8750083313    -0.5178597585
| 16>  H       -0.0904773181     1.9469879182     1.0267822928
| 17>  H       -1.1565972637    -0.1813411109     1.6054431407
| 18>  H        2.5284787236    -1.9140516076     0.6132064603
| 19>  H        1.0759837649    -2.8983105760     0.8152722287
| 20>  H        1.4390557292    -2.4854540739    -1.7946174477
| 21>  H        0.0648509454    -0.3263857448    -2.2518302549
| 22> *
| 23>
| 24>                          ****END OF INPUT****

CARTESIAN COORDINATES (ANGSTROEM)
---------------------------------
  C     -0.047904    1.564325    0.002968
  C      0.083768    0.064838   -0.016328
  N     -0.742158   -0.774537    0.885706
  C      0.735239   -0.760068    1.069731
  C      1.449570   -1.946886    0.420806
  C      1.126919   -1.765862   -1.046967
  C      0.410967   -0.667071   -1.283425
  C      1.273067   -0.153530    2.251792
  N      1.699587    0.334037    3.211438
  H      0.802571    2.035935   -0.498866
  H     -0.960254    1.875008   -0.517860
  H     -0.090477    1.946988    1.026782
  H     -1.156597   -0.181341    1.605443
  H      2.528479   -1.914052    0.613206
  H      1.075984   -2.898311    0.815272
  H      1.439056   -2.485454   -1.794617
  H      0.064851   -0.326386   -2.251830

 Total Charge           Charge          ....    0
 Multiplicity           Mult            ....    1
 Number of Electrons    NEL             ....   64
 Basis Dimension        Dim             ....  327

ORBITAL ENERGIES
----------------

  NO   OCC          E(Eh)            E(eV)
   0   2.0000     -15.588212      -424.1768
   1   2.0000     -15.577898      -423.8962
   2   2.0000     -11.311845      -307.8109
   3   2.0000     -11.300700      -307.5077
   4   2.0000     -11.280785      -306.9658
   5   2.0000     -11.256094      -306.2939
   6   2.0000     -11.249728      -306.1207
   7   2.0000     -11.244380      -305.9751
   8   2.0000     -11.244118      -305.9680
   9   2.0000      -1.309055       -35.6212
  10   2.0000      -1.220336       -33.2070
  11   2.0000      -1.107038       -30.1240
  12   2.0000      -1.032835       -28.1049
  13   2.0000      -0.985120       -26.8065
  14   2.0000      -0.907971       -24.7071
  15   2.0000      -0.846283       -23.0285
  16   2.0000      -0.767493       -20.8846
  17   2.0000      -0.716242       -19.4899
  18   2.0000      -0.665287       -18.1034
  19   2.0000      -0.623158       -16.9570
  20   2.0000      -0.606230       -16.4964
  21   2.0000      -0.597025       -16.2459
  22   2.0000      -0.580695       -15.8015
  23   2.0000      -0.558898       -15.2084
  24   2.0000      -0.551037       -14.9945
  25   2.0000      -0.545266       -14.8374
  26   2.0000      -0.517219       -14.0743
  27   2.0000      -0.499846       -13.6015
  28   2.0000      -0.475898       -12.9498
  29   2.0000      -0.460405       -12.5282
  30   2.0000      -0.393423       -10.7056
  31   2.0000      -0.364512        -9.9189
  32   0.0000       0.125231         3.4077
  33   0.0000       0.128907         3.5077
  34   0.0000       0.150522         4.0959
  35   0.0000       0.157211         4.2779
  36   0.0000       0.165351         4.4994

MULLIKEN ATOMIC CHARGES
-----------------------
   0 C :   -0.387825
   1 C :    0.196913
   2 N :   -0.364063
   3 C :    0.150641
   4 C :   -0.144841
   5 C :   -0.193027
   6 C :   -0.219530
   7 C :   -0.207062
   8 N :   -0.051166
   9 H :    0.147053
  10 H :    0.148808
  11 H :    0.147500
  12 H :    0.226004
  13 H :    0.137077
  14 H :    0.136687
  15 H :    0.137892
  16 H :    0.138939
Sum of atomic charges:    0.0000000

LOEWDIN ATOMIC CHARGES
----------------------
   0 C :   -0.261471
   1 C :   -0.249706
   2 N :    0.079074
   3 C :   -0.238713
   4 C :   -0.174773
   5 C :   -0.128222
   6 C :   -0.112055
   7 C :   -0.162942
   8 N :    0.070369
   9 H :    0.137913
  10 H :    0.134667
  11 H :    0.136263
  12 H :    0.176676
  13 H :    0.152752
  14 H :    0.154750
  15 H :    0.140639
  16 H :    0.144777

  Mayer bond orders larger than 0.1
B(  0-C ,  1-C ) :   0.9103 B(  0-C ,  9-H ) :   0.9238 B(  0-C , 10-H ) :   0.9356
B(  0-C , 11-H ) :   0.9245 B(  1-C ,  2-N ) :   0.9286 B(  1-C ,  3-C ) :   0.8463
B(  1-C ,  6-C ) :   0.9049 B(  2-N ,  3-C ) :   0.9906 B(  2-N , 12-H ) :   0.8657
B(  3-C ,  4-C ) :   0.9322 B(  3-C ,  7-C ) :   0.8867 B(  4-C ,  5-C ) :   0.9743
B(  4-C , 13-H ) :   0.9159 B(  4-C , 14-H ) :   0.8914 B(  5-C ,  6-C ) :   1.8222
B(  5-C , 15-H ) :   0.9246 B(  6-C , 16-H ) :   0.9246 B(  7-C ,  8-N ) :   2.8523

MP2 TOTAL ENERGY:     -380.194867249 Eh
FINAL SINGLE POINT ENERGY      -380.194867249149

DIPOLE MOMENT
-------------
                                X             Y             Z
Electronic contribution:      1.11935      -1.46741       4.27832
Nuclear contribution   :     -1.37311       1.43233      -5.49557
                        -----------------------------------------
Total Dipole Moment    :     -0.25376      -0.03507      -1.21725
                        -----------------------------------------
Magnitude (a.u.)       :      1.24391
Magnitude (Debye)      :      3.16177

                             ****ORCA TERMINATED NORMALLY****
TOTAL RUN TIME: 0 days 0 hours 18 minutes 5 seconds 92 msec
