                         Program Version 3.0.3 - RELEASE   -
|  1> ! RI-MP2 RIJK def2-TZVP def2-TZVP/C def2-TZVP/JK TIGHTSCF
|  2> % maxcore 2000
|  3> % mp2 density relaxed end
|  4> *xyz 0 1
|  5>  C        0.0709129804     1.5099522092     0.0019703169
|  6>  C        1.2736362406     0.6105701133     0.1803376396
|  7>  C       -0.1020234898     0.0173160268    -0.0119896085
|  8>  C       -0.7685418330    -0.7382244862     1.1340616845
|  9>  C       -0.6100059444    -2.2160070629     0.7206109248
| 10>  C       -0.7891694934    -2.2089522007    -0.8067377062
| 11>  C       -2.2437735167    -2.0091308222    -1.3279613144
| 12>  C       -1.8770572630    -0.5858952145    -1.8357030778
| 13>  C       -0.4281557748    -0.7535532605    -1.2831222405
| 14>  H       -0.2867321697     2.0606667483     0.8662884256
| 15>  H       -0.0282207338     2.0478953347    -0.9356553508
| 16>  H        1.9834630424     0.5418259025    -0.6379622945
| 17>  H        1.7247035252     0.5528688304     1.1661903825
| 18>  H       -0.3259128869    -0.5121672550     2.1088841995
| 19>  H       -1.8325428961    -0.4737447102     1.1955289309
| 20>  H        0.4005747242    -2.5589404658     0.9717754722
| 21>  H       -1.3175820502    -2.8820678548     1.2256316190
| 22>  H       -0.2530554037    -3.0266747465    -1.2928517127
| 23>  H       -2.5443697196    -2.7091980670    -2.1112818152
| 24>  H       -3.0082777691    -2.0355507438    -0.5452602945
| 25>  H       -1.9251199711    -0.4748615374    -2.9218572087
| 26>  H       -2.4428712421     0.2356505751    -1.3872109443
| 27>  H        0.3555404249    -0.6555050328    -2.0379934675
| 28> *
| 29>
| 30>                          ****END OF INPUT****

CARTESIAN COORDINATES (ANGSTROEM)
---------------------------------
  C      0.070913    1.509952    0.001970
  C      1.273636    0.610570    0.180338
  C     -0.102023    0.017316   -0.011990
  C     -0.768542   -0.738224    1.134062
  C     -0.610006   -2.216007    0.720611
  C     -0.789169   -2.208952   -0.806738
  C     -2.243774   -2.009131   -1.327961
  C     -1.877057   -0.585895   -1.835703
  C     -0.428156   -0.753553   -1.283122
  H     -0.286732    2.060667    0.866288
  H     -0.028221    2.047895   -0.935655
  H      1.983463    0.541826   -0.637962
  H      1.724704    0.552869    1.166190
  H     -0.325913   -0.512167    2.108884
  H     -1.832543   -0.473745    1.195529
  H      0.400575   -2.558940    0.971775
  H     -1.317582   -2.882068    1.225632
  H     -0.253055   -3.026675   -1.292852
  H     -2.544370   -2.709198   -2.111282
  H     -3.008278   -2.035551   -0.545260
  H     -1.925120   -0.474862   -2.921857
  H     -2.442871    0.235651   -1.387211
  H      0.355540   -0.655505   -2.037993

 Total Charge           Charge          ....    0
 Multiplicity           Mult            ....    1
 Number of Electrons    NEL             ....   68
 Basis Dimension        Dim             ....  363

ORBITAL ENERGIES
----------------

  NO   OCC          E(Eh)            E(eV)
   0   2.0000     -11.226127      -305.4784
   1   2.0000     -11.217234      -305.2365
   2   2.0000     -11.217114      -305.2332
   3   2.0000     -11.216546      -305.2177
   4   2.0000     -11.216491      -305.2162
   5   2.0000     -11.215137      -305.1794
   6   2.0000     -11.212607      -305.1106
   7   2.0000     -11.211876      -305.0907
   8   2.0000     -11.211122      -305.0701
   9   2.0000      -1.167751       -31.7761
  10   2.0000      -1.104368       -30.0514
  11   2.0000      -1.018585       -27.7171
  12   2.0000      -0.919554       -25.0223
  13   2.0000      -0.892723       -24.2922
  14   2.0000      -0.827120       -22.5071
  15   2.0000      -0.816880       -22.2284
  16   2.0000      -0.743643       -20.2355
  17   2.0000      -0.706409       -19.2224
  18   2.0000      -0.669266       -18.2117
  19   2.0000      -0.636599       -17.3227
  20   2.0000      -0.625194       -17.0124
  21   2.0000      -0.599620       -16.3165
  22   2.0000      -0.573566       -15.6075
  23   2.0000      -0.553791       -15.0694
  24   2.0000      -0.518914       -14.1204
  25   2.0000      -0.507687       -13.8149
  26   2.0000      -0.497187       -13.5291
  27   2.0000      -0.477851       -13.0030
  28   2.0000      -0.464792       -12.6476
  29   2.0000      -0.439785       -11.9672
  30   2.0000      -0.430487       -11.7141
  31   2.0000      -0.415474       -11.3056
  32   2.0000      -0.394046       -10.7225
  33   2.0000      -0.379724       -10.3328
  34   0.0000       0.139210         3.7881
  35   0.0000       0.150594         4.0979
  36   0.0000       0.156343         4.2543
  37   0.0000       0.165233         4.4962
  38   0.0000       0.184930         5.0322

MULLIKEN ATOMIC CHARGES
-----------------------
   0 C :   -0.280800
   1 C :   -0.308375
   2 C :    0.016226
   3 C :   -0.235503
   4 C :   -0.254676
   5 C :   -0.036155
   6 C :   -0.256134
   7 C :   -0.272884
   8 C :    0.031069
   9 H :    0.123708
  10 H :    0.127252
  11 H :    0.124387
  12 H :    0.120856
  13 H :    0.116757
  14 H :    0.113855
  15 H :    0.106212
  16 H :    0.121755
  17 H :    0.100749
  18 H :    0.113735
  19 H :    0.103586
  20 H :    0.112015
  21 H :    0.112509
  22 H :    0.099857
Sum of atomic charges:   -0.0000000

LOEWDIN ATOMIC CHARGES
----------------------
   0 C :   -0.209803
   1 C :   -0.207015
   2 C :   -0.229566
   3 C :   -0.208582
   4 C :   -0.234103
   5 C :   -0.189646
   6 C :   -0.221863
   7 C :   -0.215713
   8 C :   -0.154496
   9 H :    0.132941
  10 H :    0.134326
  11 H :    0.130622
  12 H :    0.130888
  13 H :    0.136715
  14 H :    0.139842
  15 H :    0.138827
  16 H :    0.133476
  17 H :    0.138106
  18 H :    0.126684
  19 H :    0.128257
  20 H :    0.127522
  21 H :    0.129850
  22 H :    0.142733

  Mayer bond orders larger than 0.1
B(  0-C ,  1-C ) :   0.9411 B(  0-C ,  2-C ) :   0.8474 B(  0-C ,  9-H ) :   0.9212
B(  0-C , 10-H ) :   0.9242 B(  1-C ,  2-C ) :   0.8501 B(  1-C , 11-H ) :   0.9250
B(  1-C , 12-H ) :   0.9229 B(  2-C ,  3-C ) :   0.9206 B(  2-C ,  8-C ) :   0.9247
B(  3-C ,  4-C ) :   0.9567 B(  3-C , 13-H ) :   0.9178 B(  3-C , 14-H ) :   0.9324
B(  4-C ,  5-C ) :   0.9307 B(  4-C , 15-H ) :   0.9240 B(  4-C , 16-H ) :   0.9320
B(  5-C ,  6-C ) :   0.9447 B(  5-C ,  8-C ) :   0.9175 B(  5-C , 17-H ) :   0.9161
B(  6-C ,  7-C ) :   0.9804 B(  6-C , 18-H ) :   0.9221 B(  6-C , 19-H ) :   0.9134
B(  7-C ,  8-C ) :   0.9041 B(  7-C , 20-H ) :   0.9220 B(  7-C , 21-H ) :   0.9151
B(  8-C , 22-H ) :   0.8995

MP2 TOTAL ENERGY:     -350.500522512 Eh
FINAL SINGLE POINT ENERGY      -350.500522512333

DIPOLE MOMENT
-------------
                                X             Y             Z
Electronic contribution:      0.83768      -0.08528      -0.57643
Nuclear contribution   :     -0.81741       0.02090       0.56960
                        -----------------------------------------
Total Dipole Moment    :      0.02027      -0.06437      -0.00683
                        -----------------------------------------
Magnitude (a.u.)       :      0.06783
Magnitude (Debye)      :      0.17242

                             ****ORCA TERMINATED NORMALLY****
TOTAL RUN TIME: 0 days 0 hours 21 minutes 56 seconds 538 msec
