                         Program Version 3.0.3 - RELEASE   -
|  1> ! RI-MP2 RIJK def2-TZVP def2-TZVP/C def2-TZVP/JK TIGHTSCF
|  2> % maxcore 2000
|  3> % mp2 density relaxed end
|  4> *xyz 0 1
|  5>  N        0.0521684034     1.3712632606     0.0943890084
|  6>  C        0.0031621431    -0.0099171355     0.0336570168
|  7>  N       -1.0729447849    -0.7185899509     0.1177334803
|  8>  N       -0.6208710384    -2.0303838259     0.1331133641
|  9>  C        0.7331289357    -2.1736162515    -0.0130699028
| 10>  O        1.4068749523    -3.1654919407    -0.0828818893
| 11>  N        1.1564700825    -0.7909802287    -0.0462906007
| 12>  C        2.4747798449    -0.3191943981     0.0059938437
| 13>  O        3.4533685987    -1.0033263642    -0.0781872233
| 14>  H        0.5362164901     1.8059537137    -0.6826505894
| 15>  H       -0.8823211225     1.7516095896     0.1865344694
| 16>  H       -1.2817086498    -2.7868659553     0.1312554469
| 17>  H        2.4956543050     0.7760196472     0.1484678160
| 18> *
| 19>
| 20>                          ****END OF INPUT****

CARTESIAN COORDINATES (ANGSTROEM)
---------------------------------
  N      0.052168    1.371263    0.094389
  C      0.003162   -0.009917    0.033657
  N     -1.072945   -0.718590    0.117733
  N     -0.620871   -2.030384    0.133113
  C      0.733129   -2.173616   -0.013070
  O      1.406875   -3.165492   -0.082882
  N      1.156470   -0.790980   -0.046291
  C      2.474780   -0.319194    0.005994
  O      3.453369   -1.003326   -0.078187
  H      0.536216    1.805954   -0.682651
  H     -0.882321    1.751610    0.186534
  H     -1.281709   -2.786866    0.131255
  H      2.495654    0.776020    0.148468

 Total Charge           Charge          ....    0
 Multiplicity           Mult            ....    1
 Number of Electrons    NEL             ....   66
 Basis Dimension        Dim             ....  303

ORBITAL ENERGIES
----------------

  NO   OCC          E(Eh)            E(eV)
   0   2.0000     -20.572072      -559.7945
   1   2.0000     -20.538009      -558.8676
   2   2.0000     -15.654734      -425.9870
   3   2.0000     -15.636328      -425.4861
   4   2.0000     -15.619959      -425.0407
   5   2.0000     -15.614160      -424.8829
   6   2.0000     -11.407469      -310.4130
   7   2.0000     -11.391943      -309.9905
   8   2.0000     -11.384952      -309.8003
   9   2.0000      -1.458281       -39.6819
  10   2.0000      -1.420136       -38.6439
  11   2.0000      -1.380818       -37.5740
  12   2.0000      -1.281246       -34.8645
  13   2.0000      -1.245103       -33.8810
  14   2.0000      -1.113585       -30.3022
  15   2.0000      -0.958939       -26.0941
  16   2.0000      -0.876711       -23.8565
  17   2.0000      -0.815186       -22.1823
  18   2.0000      -0.786514       -21.4021
  19   2.0000      -0.715088       -19.4585
  20   2.0000      -0.703888       -19.1538
  21   2.0000      -0.698688       -19.0123
  22   2.0000      -0.674854       -18.3637
  23   2.0000      -0.668020       -18.1777
  24   2.0000      -0.636661       -17.3244
  25   2.0000      -0.583095       -15.8668
  26   2.0000      -0.561225       -15.2717
  27   2.0000      -0.539154       -14.6711
  28   2.0000      -0.500602       -13.6221
  29   2.0000      -0.476051       -12.9540
  30   2.0000      -0.462698       -12.5907
  31   2.0000      -0.445415       -12.1204
  32   2.0000      -0.353932        -9.6310
  33   0.0000       0.094873         2.5816
  34   0.0000       0.116140         3.1603
  35   0.0000       0.141947         3.8626
  36   0.0000       0.163362         4.4453
  37   0.0000       0.178042         4.8448

MULLIKEN ATOMIC CHARGES
-----------------------
   0 N :   -0.538722
   1 C :    0.262402
   2 N :   -0.195177
   3 N :   -0.211594
   4 C :    0.264588
   5 O :   -0.297726
   6 N :   -0.100124
   7 C :    0.126568
   8 O :   -0.237202
   9 H :    0.267792
  10 H :    0.273381
  11 H :    0.269420
  12 H :    0.116394
Sum of atomic charges:   -0.0000000

LOEWDIN ATOMIC CHARGES
----------------------
   0 N :   -0.067535
   1 C :   -0.422516
   2 N :    0.036466
   3 N :    0.099640
   4 C :   -0.480672
   5 O :    0.113915
   6 N :    0.236157
   7 C :   -0.346730
   8 O :    0.156566
   9 H :    0.176092
  10 H :    0.185932
  11 H :    0.190619
  12 H :    0.122066

  Mayer bond orders larger than 0.1
B(  0-N ,  1-C ) :   1.0598 B(  0-N ,  9-H ) :   0.8595 B(  0-N , 10-H ) :   0.8635
B(  1-C ,  2-N ) :   1.7508 B(  1-C ,  6-N ) :   1.0814 B(  2-N ,  3-N ) :   0.9085
B(  3-N ,  4-C ) :   1.1638 B(  3-N , 11-H ) :   0.8670 B(  4-C ,  5-O ) :   2.0312
B(  4-C ,  6-N ) :   0.9087 B(  6-N ,  7-C ) :   0.9569 B(  7-C ,  8-O ) :   2.0122
B(  7-C , 12-H ) :   0.9242

MP2 TOTAL ENERGY:     -485.347634663 Eh
FINAL SINGLE POINT ENERGY      -485.347634663191

DIPOLE MOMENT
-------------
                                X             Y             Z
Electronic contribution:      1.08638      -3.44202      -0.03732
Nuclear contribution   :     -2.39567       5.10708      -0.25458
                        -----------------------------------------
Total Dipole Moment    :     -1.30929       1.66506      -0.29191
                        -----------------------------------------
Magnitude (a.u.)       :      2.13820
Magnitude (Debye)      :      5.43486

                             ****ORCA TERMINATED NORMALLY****
TOTAL RUN TIME: 0 days 0 hours 13 minutes 47 seconds 998 msec
