                         Program Version 3.0.3 - RELEASE   -
|  1> ! RI-MP2 RIJK def2-TZVP def2-TZVP/C def2-TZVP/JK TIGHTSCF
|  2> % maxcore 2000
|  3> % mp2 density relaxed end
|  4> *xyz 0 1
|  5>  C       -0.2701466378     1.6190201418     0.0206413860
|  6>  C       -0.2084327310     0.1228496764    -0.2106093516
|  7>  C       -0.1339148277    -0.8293122402     0.9576617311
|  8>  C       -1.3873481292    -0.7544312578     0.1188963819
|  9>  C        1.1104942191     2.2337378247     0.1764991616
| 10>  O        1.9637142156     2.0654708636    -1.0018847511
| 11>  C        2.2753325422     3.4599077677    -0.9870120401
| 12>  C        1.0587105366     4.2839520659    -1.2561923331
| 13>  C        1.3158137692     3.7498931679     0.1415486569
| 14>  H       -0.7974334987     2.1063058582    -0.8077287576
| 15>  H       -0.8440424206     1.8321164041     0.9330249023
| 16>  H        0.3674869427    -0.1563858559    -1.0879037911
| 17>  H        0.4941070073    -1.7090470240     0.8717515777
| 18>  H       -0.1719926366    -0.4100104319     1.9584074567
| 19>  H       -2.2617769041    -0.2846169798     0.5581039297
| 20>  H       -1.6162043587    -1.5831594269    -0.5420630528
| 21>  H        1.6242862335     1.7895058016     1.0392868847
| 22>  H        3.3012993282     3.7537953491    -1.1757027780
| 23>  H        1.2294284620     5.3515960623    -1.3567115734
| 24>  H        0.2666709896     3.8850316507    -1.8827411860
| 25>  H        1.4165638884     4.3914726225     1.0062760562
| 26> *
| 27>
| 28>                          ****END OF INPUT****

CARTESIAN COORDINATES (ANGSTROEM)
---------------------------------
  C     -0.270147    1.619020    0.020641
  C     -0.208433    0.122850   -0.210609
  C     -0.133915   -0.829312    0.957662
  C     -1.387348   -0.754431    0.118896
  C      1.110494    2.233738    0.176499
  O      1.963714    2.065471   -1.001885
  C      2.275333    3.459908   -0.987012
  C      1.058711    4.283952   -1.256192
  C      1.315814    3.749893    0.141549
  H     -0.797433    2.106306   -0.807729
  H     -0.844042    1.832116    0.933025
  H      0.367487   -0.156386   -1.087904
  H      0.494107   -1.709047    0.871752
  H     -0.171993   -0.410010    1.958407
  H     -2.261777   -0.284617    0.558104
  H     -1.616204   -1.583159   -0.542063
  H      1.624286    1.789506    1.039287
  H      3.301299    3.753795   -1.175703
  H      1.229428    5.351596   -1.356712
  H      0.266671    3.885032   -1.882741
  H      1.416564    4.391473    1.006276

 Total Charge           Charge          ....    0
 Multiplicity           Mult            ....    1
 Number of Electrons    NEL             ....   68
 Basis Dimension        Dim             ....  351

ORBITAL ENERGIES
----------------

  NO   OCC          E(Eh)            E(eV)
   0   2.0000     -20.548402      -559.1505
   1   2.0000     -11.285697      -307.0994
   2   2.0000     -11.284835      -307.0760
   3   2.0000     -11.236433      -305.7589
   4   2.0000     -11.232537      -305.6529
   5   2.0000     -11.225117      -305.4510
   6   2.0000     -11.222242      -305.3727
   7   2.0000     -11.219826      -305.3070
   8   2.0000     -11.219206      -305.2901
   9   2.0000      -1.387164       -37.7466
  10   2.0000      -1.140446       -31.0331
  11   2.0000      -1.113699       -30.3053
  12   2.0000      -1.018646       -27.7188
  13   2.0000      -0.896026       -24.3821
  14   2.0000      -0.819931       -22.3115
  15   2.0000      -0.815618       -22.1941
  16   2.0000      -0.778241       -21.1770
  17   2.0000      -0.736523       -20.0418
  18   2.0000      -0.711400       -19.3582
  19   2.0000      -0.665695       -18.1145
  20   2.0000      -0.649032       -17.6611
  21   2.0000      -0.612717       -16.6729
  22   2.0000      -0.598054       -16.2739
  23   2.0000      -0.589791       -16.0490
  24   2.0000      -0.539880       -14.6909
  25   2.0000      -0.517444       -14.0804
  26   2.0000      -0.509860       -13.8740
  27   2.0000      -0.506976       -13.7955
  28   2.0000      -0.494304       -13.4507
  29   2.0000      -0.463475       -12.6118
  30   2.0000      -0.420474       -11.4417
  31   2.0000      -0.406980       -11.0745
  32   2.0000      -0.390738       -10.6325
  33   2.0000      -0.376898       -10.2559
  34   0.0000       0.147438         4.0120
  35   0.0000       0.158853         4.3226
  36   0.0000       0.164983         4.4894
  37   0.0000       0.171108         4.6561
  38   0.0000       0.180721         4.9177

MULLIKEN ATOMIC CHARGES
-----------------------
   0 C :   -0.262360
   1 C :   -0.064044
   2 C :   -0.282511
   3 C :   -0.255986
   4 C :    0.090856
   5 O :   -0.334528
   6 C :    0.047443
   7 C :   -0.259103
   8 C :   -0.180905
   9 H :    0.117229
  10 H :    0.118280
  11 H :    0.132543
  12 H :    0.129603
  13 H :    0.121983
  14 H :    0.123611
  15 H :    0.129212
  16 H :    0.098498
  17 H :    0.127635
  18 H :    0.127897
  19 H :    0.137060
  20 H :    0.137587
Sum of atomic charges:    0.0000000

LOEWDIN ATOMIC CHARGES
----------------------
   0 C :   -0.230768
   1 C :   -0.227837
   2 C :   -0.233074
   3 C :   -0.232030
   4 C :   -0.244566
   5 O :    0.160601
   6 C :   -0.250718
   7 C :   -0.212153
   8 C :   -0.181371
   9 H :    0.144336
  10 H :    0.149175
  11 H :    0.152795
  12 H :    0.130239
  13 H :    0.130206
  14 H :    0.130978
  15 H :    0.130254
  16 H :    0.145816
  17 H :    0.129061
  18 H :    0.141650
  19 H :    0.131771
  20 H :    0.135636

  Mayer bond orders larger than 0.1
B(  0-C ,  1-C ) :   0.9126 B(  0-C ,  4-C ) :   0.9530 B(  0-C ,  9-H ) :   0.9271
B(  0-C , 10-H ) :   0.9247 B(  1-C ,  2-C ) :   0.8880 B(  1-C ,  3-C ) :   0.8721
B(  1-C , 11-H ) :   0.9312 B(  2-C ,  3-C ) :   0.9088 B(  2-C , 12-H ) :   0.9293
B(  2-C , 13-H ) :   0.9275 B(  3-C , 14-H ) :   0.9274 B(  3-C , 15-H ) :   0.9331
B(  4-C ,  5-O ) :   0.8971 B(  4-C ,  8-C ) :   0.9142 B(  4-C , 16-H ) :   0.9152
B(  5-O ,  6-C ) :   0.9707 B(  6-C ,  7-C ) :   0.8766 B(  6-C ,  8-C ) :   0.9138
B(  6-C , 17-H ) :   0.9256 B(  7-C ,  8-C ) :   0.8909 B(  7-C , 18-H ) :   0.9215
B(  7-C , 19-H ) :   0.9154 B(  8-C , 20-H ) :   0.9170

MP2 TOTAL ENERGY:     -386.346940531 Eh
FINAL SINGLE POINT ENERGY      -386.346940531313

DIPOLE MOMENT
-------------
                                X             Y             Z
Electronic contribution:      4.22129       2.55244      -1.78326
Nuclear contribution   :     -4.37595      -2.05041       2.16114
                        -----------------------------------------
Total Dipole Moment    :     -0.15466       0.50203       0.37788
                        -----------------------------------------
Magnitude (a.u.)       :      0.64711
Magnitude (Debye)      :      1.64481

                             ****ORCA TERMINATED NORMALLY****
TOTAL RUN TIME: 0 days 0 hours 16 minutes 24 seconds 991 msec
