                         Program Version 3.0.3 - RELEASE   -
|  1> ! RI-MP2 RIJK def2-TZVP def2-TZVP/C def2-TZVP/JK TIGHTSCF
|  2> % maxcore 2000
|  3> % mp2 density relaxed end
|  4> *xyz 0 1
|  5>  O        0.0799207574     1.3683656390    -0.1215542646
|  6>  C        0.0661551139     0.0102224929    -0.0331867055
|  7>  C        0.0438252592    -0.7141011224    -1.2248889539
|  8>  C        0.0290136074    -2.1077792618    -1.1908778837
|  9>  C        0.0053635252    -2.8590780172    -2.4675258493
| 10>  O       -0.0089189603    -4.0641981673    -2.5580093805
| 11>  C        0.0363274250    -2.7917943224     0.0311799473
| 12>  C        0.0585493770    -2.0655385623     1.2122515817
| 13>  C        0.0734728295    -0.6701857379     1.1859821632
| 14>  H        0.0947635187     1.7457432418     0.7642591523
| 15>  H        0.0382267285    -0.1799305304    -2.1697877866
| 16>  H        0.0013781757    -2.2156083212    -3.3763069029
| 17>  H        0.0244105053    -3.8748877857     0.0239494776
| 18>  H        0.0645240514    -2.5777538694     2.1685643950
| 19>  H        0.0908695460    -0.1077412258     2.1161161699
| 20> *
| 21>
| 22>                          ****END OF INPUT****

CARTESIAN COORDINATES (ANGSTROEM)
---------------------------------
  O      0.079921    1.368366   -0.121554
  C      0.066155    0.010222   -0.033187
  C      0.043825   -0.714101   -1.224889
  C      0.029014   -2.107779   -1.190878
  C      0.005364   -2.859078   -2.467526
  O     -0.008919   -4.064198   -2.558009
  C      0.036327   -2.791794    0.031180
  C      0.058549   -2.065539    1.212252
  C      0.073473   -0.670186    1.185982
  H      0.094764    1.745743    0.764259
  H      0.038227   -0.179931   -2.169788
  H      0.001378   -2.215608   -3.376307
  H      0.024411   -3.874888    0.023949
  H      0.064524   -2.577754    2.168564
  H      0.090870   -0.107741    2.116116

 Total Charge           Charge          ....    0
 Multiplicity           Mult            ....    1
 Number of Electrons    NEL             ....   64
 Basis Dimension        Dim             ....  315

ORBITAL ENERGIES
----------------

  NO   OCC          E(Eh)            E(eV)
   0   2.0000     -20.603513      -560.6501
   1   2.0000     -20.555943      -559.3557
   2   2.0000     -11.335538      -308.4557
   3   2.0000     -11.319510      -308.0195
   4   2.0000     -11.257170      -306.3232
   5   2.0000     -11.256167      -306.2959
   6   2.0000     -11.254926      -306.2621
   7   2.0000     -11.253092      -306.2122
   8   2.0000     -11.244101      -305.9675
   9   2.0000      -1.422510       -38.7085
  10   2.0000      -1.393923       -37.9306
  11   2.0000      -1.169530       -31.8245
  12   2.0000      -1.053363       -28.6635
  13   2.0000      -1.025838       -27.9145
  14   2.0000      -0.904825       -24.6215
  15   2.0000      -0.847907       -23.0727
  16   2.0000      -0.812213       -22.1014
  17   2.0000      -0.736221       -20.0336
  18   2.0000      -0.703293       -19.1376
  19   2.0000      -0.675173       -18.3724
  20   2.0000      -0.662466       -18.0266
  21   2.0000      -0.628717       -17.1083
  22   2.0000      -0.612657       -16.6713
  23   2.0000      -0.609097       -16.5744
  24   2.0000      -0.582800       -15.8588
  25   2.0000      -0.550650       -14.9839
  26   2.0000      -0.541111       -14.7244
  27   2.0000      -0.520424       -14.1615
  28   2.0000      -0.489163       -13.3108
  29   2.0000      -0.430578       -11.7166
  30   2.0000      -0.361534        -9.8379
  31   2.0000      -0.331029        -9.0078
  32   0.0000       0.063928         1.7396
  33   0.0000       0.116161         3.1609
  34   0.0000       0.126159         3.4329
  35   0.0000       0.160003         4.3539
  36   0.0000       0.162947         4.4340

MULLIKEN ATOMIC CHARGES
-----------------------
   0 O :   -0.414861
   1 C :    0.277970
   2 C :   -0.262013
   3 C :    0.168505
   4 C :    0.078583
   5 O :   -0.276236
   6 C :   -0.220015
   7 C :   -0.084082
   8 C :   -0.220525
   9 H :    0.331489
  10 H :    0.133969
  11 H :    0.080982
  12 H :    0.150508
  13 H :    0.135219
  14 H :    0.120508
Sum of atomic charges:   -0.0000000

LOEWDIN ATOMIC CHARGES
----------------------
   0 O :    0.078221
   1 C :   -0.268419
   2 C :   -0.079170
   3 C :   -0.162250
   4 C :   -0.258619
   5 O :    0.132531
   6 C :   -0.098580
   7 C :   -0.133832
   8 C :   -0.131554
   9 H :    0.192608
  10 H :    0.157625
  11 H :    0.117267
  12 H :    0.157304
  13 H :    0.150088
  14 H :    0.146781

  Mayer bond orders larger than 0.1
B(  0-O ,  1-C ) :   1.0865 B(  0-O ,  9-H ) :   0.8314 B(  1-C ,  2-C ) :   1.3102
B(  1-C ,  8-C ) :   1.2882 B(  2-C ,  3-C ) :   1.2899 B(  2-C , 10-H ) :   0.9255
B(  3-C ,  4-C ) :   0.8594 B(  3-C ,  5-O ) :  -0.1153 B(  3-C ,  6-C ) :   1.2887
B(  4-C ,  5-O ) :   1.9743 B(  4-C , 11-H ) :   0.9675 B(  6-C ,  7-C ) :   1.3384
B(  6-C , 12-H ) :   0.9218 B(  7-C ,  8-C ) :   1.2906 B(  7-C , 13-H ) :   0.9252
B(  8-C , 14-H ) :   0.9203

MP2 TOTAL ENERGY:     -419.987215091 Eh
FINAL SINGLE POINT ENERGY      -419.987215091106

DIPOLE MOMENT
-------------
                                X             Y             Z
Electronic contribution:     -0.02898      -0.63839      -1.81986
Nuclear contribution   :      0.05446       1.76319       2.90909
                        -----------------------------------------
Total Dipole Moment    :      0.02548       1.12480       1.08923
                        -----------------------------------------
Magnitude (a.u.)       :      1.56596
Magnitude (Debye)      :      3.98035

                             ****ORCA TERMINATED NORMALLY****
TOTAL RUN TIME: 0 days 0 hours 14 minutes 48 seconds 533 msec
