                         Program Version 3.0.3 - RELEASE   -
|  1> ! RI-MP2 RIJK def2-TZVP def2-TZVP/C def2-TZVP/JK TIGHTSCF
|  2> % maxcore 2000
|  3> % mp2 density relaxed end
|  4> *xyz 0 1
|  5>  C       -0.0625147629     1.5559700838    -0.0936279747
|  6>  C        0.0140476716     0.0664035189    -0.0155695767
|  7>  C        0.5757970838    -1.0124246704    -0.9085645718
|  8>  C        1.3338769742    -1.6672783527     0.2434240213
|  9>  C        0.2803881963    -0.9765382971     1.1478129365
| 10>  O       -0.9504090968    -1.6888192484     0.8440136482
| 11>  C       -0.9209273631    -1.0539349171    -0.4190508114
| 12>  C       -2.0476632111    -1.0609439166    -1.3505861019
| 13>  O       -3.0907940360    -1.6428766846    -1.1811879576
| 14>  H        0.9047889521     2.0105733770     0.1484820413
| 15>  H       -0.3343681002     1.8797999305    -1.1032750314
| 16>  H       -0.8080368564     1.9550412441     0.6017616809
| 17>  H        0.8262687575    -0.9574296208    -1.9607409946
| 18>  H        1.3802805798    -2.7578886956     0.3026200437
| 19>  H        2.3268452366    -1.2263582994     0.3620892598
| 20>  H        0.4223124839    -0.7855315136     2.2091895984
| 21>  H       -1.8501528494    -0.4578824881    -2.2678482300
| 22> *
| 23>
| 24>                          ****END OF INPUT****

CARTESIAN COORDINATES (ANGSTROEM)
---------------------------------
  C     -0.062515    1.555970   -0.093628
  C      0.014048    0.066404   -0.015570
  C      0.575797   -1.012425   -0.908565
  C      1.333877   -1.667278    0.243424
  C      0.280388   -0.976538    1.147813
  O     -0.950409   -1.688819    0.844014
  C     -0.920927   -1.053935   -0.419051
  C     -2.047663   -1.060944   -1.350586
  O     -3.090794   -1.642877   -1.181188
  H      0.904789    2.010573    0.148482
  H     -0.334368    1.879800   -1.103275
  H     -0.808037    1.955041    0.601762
  H      0.826269   -0.957430   -1.960741
  H      1.380281   -2.757889    0.302620
  H      2.326845   -1.226358    0.362089
  H      0.422312   -0.785532    2.209190
  H     -1.850153   -0.457882   -2.267848

 Total Charge           Charge          ....    0
 Multiplicity           Mult            ....    1
 Number of Electrons    NEL             ....   66
 Basis Dimension        Dim             ....  327

ORBITAL ENERGIES
----------------

  NO   OCC          E(Eh)            E(eV)
   0   2.0000     -20.567404      -559.6675
   1   2.0000     -20.553260      -559.2826
   2   2.0000     -11.337008      -308.4957
   3   2.0000     -11.309675      -307.7519
   4   2.0000     -11.306802      -307.6737
   5   2.0000     -11.271152      -306.7036
   6   2.0000     -11.265320      -306.5449
   7   2.0000     -11.247323      -306.0552
   8   2.0000     -11.247266      -306.0537
   9   2.0000      -1.424507       -38.7628
  10   2.0000      -1.388394       -37.7801
  11   2.0000      -1.176174       -32.0053
  12   2.0000      -1.028570       -27.9888
  13   2.0000      -1.001001       -27.2386
  14   2.0000      -0.897352       -24.4182
  15   2.0000      -0.871391       -23.7118
  16   2.0000      -0.779239       -21.2042
  17   2.0000      -0.718189       -19.5429
  18   2.0000      -0.708892       -19.2899
  19   2.0000      -0.673041       -18.3144
  20   2.0000      -0.641141       -17.4463
  21   2.0000      -0.631626       -17.1874
  22   2.0000      -0.605097       -16.4655
  23   2.0000      -0.587553       -15.9881
  24   2.0000      -0.579319       -15.7641
  25   2.0000      -0.570061       -15.5122
  26   2.0000      -0.541598       -14.7376
  27   2.0000      -0.531114       -14.4523
  28   2.0000      -0.490510       -13.3475
  29   2.0000      -0.450139       -12.2489
  30   2.0000      -0.432582       -11.7712
  31   2.0000      -0.401860       -10.9352
  32   2.0000      -0.380045       -10.3415
  33   0.0000       0.116995         3.1836
  34   0.0000       0.128743         3.5033
  35   0.0000       0.150535         4.0963
  36   0.0000       0.161188         4.3861
  37   0.0000       0.176087         4.7916

MULLIKEN ATOMIC CHARGES
-----------------------
   0 C :   -0.401948
   1 C :   -0.011938
   2 C :   -0.174820
   3 C :   -0.194383
   4 C :    0.051533
   5 O :   -0.295003
   6 C :    0.231180
   7 C :   -0.004391
   8 O :   -0.256713
   9 H :    0.143847
  10 H :    0.139670
  11 H :    0.155291
  12 H :    0.152851
  13 H :    0.127471
  14 H :    0.124655
  15 H :    0.139675
  16 H :    0.073024
Sum of atomic charges:    0.0000000

LOEWDIN ATOMIC CHARGES
----------------------
   0 C :   -0.272085
   1 C :   -0.142929
   2 C :   -0.119963
   3 C :   -0.195840
   4 C :   -0.167610
   5 O :    0.215223
   6 C :   -0.251381
   7 C :   -0.279590
   8 O :    0.140480
   9 H :    0.133331
  10 H :    0.135362
  11 H :    0.136133
  12 H :    0.141699
  13 H :    0.132126
  14 H :    0.144139
  15 H :    0.131239
  16 H :    0.119665

  Mayer bond orders larger than 0.1
B(  0-C ,  1-C ) :   0.8102 B(  0-C ,  9-H ) :   0.9399 B(  0-C , 10-H ) :   0.9363
B(  0-C , 11-H ) :   0.9459 B(  1-C ,  2-C ) :   0.7990 B(  1-C ,  4-C ) :   0.9021
B(  1-C ,  6-C ) :   0.8171 B(  2-C ,  3-C ) :   0.9368 B(  2-C ,  6-C ) :   0.7755
B(  2-C , 12-H ) :   0.9034 B(  3-C ,  4-C ) :   0.9336 B(  3-C , 13-H ) :   0.9192
B(  3-C , 14-H ) :   0.9229 B(  4-C ,  5-O ) :   0.8923 B(  4-C , 15-H ) :   0.9144
B(  5-O ,  6-C ) :   1.0140 B(  6-C ,  7-C ) :   0.8231 B(  6-C ,  8-O ) :  -0.1022
B(  6-C , 16-H ) :  -0.1108 B(  7-C ,  8-O ) :   2.0485 B(  7-C , 16-H ) :   0.9821

MP2 TOTAL ENERGY:     -421.057294933 Eh
FINAL SINGLE POINT ENERGY      -421.057294933186

DIPOLE MOMENT
-------------
                                X             Y             Z
Electronic contribution:     -5.35035      -4.80731       0.02306
Nuclear contribution   :      6.98275       5.91289      -0.15735
                        -----------------------------------------
Total Dipole Moment    :      1.63240       1.10557      -0.13429
                        -----------------------------------------
Magnitude (a.u.)       :      1.97612
Magnitude (Debye)      :      5.02290

                             ****ORCA TERMINATED NORMALLY****
TOTAL RUN TIME: 0 days 0 hours 16 minutes 23 seconds 904 msec
