                         Program Version 3.0.3 - RELEASE   -
|  1> ! RI-MP2 RIJK def2-TZVP def2-TZVP/C def2-TZVP/JK TIGHTSCF
|  2> % maxcore 2000
|  3> % mp2 density relaxed end
|  4> *xyz 0 1
|  5>  C        0.0009600350     1.7020171512    -0.0594134458
|  6>  C       -0.1577764393     0.1786253548    -0.0259457343
|  7>  C        0.6382895119    -0.5070323434    -1.1441664786
|  8>  C        0.6301750580    -2.0521070091    -1.1532697058
|  9>  C       -0.7949993756    -2.6333427238    -1.1738533725
| 10>  C        1.4291131382    -2.5204000182    -2.4116268449
| 11>  C        1.6540015533    -4.0278614776    -2.5860460741
| 12>  C        1.3665166572    -2.5928498224     0.0695658089
| 13>  O        2.1832188882    -1.9844070959     0.7141636710
| 14>  H        1.0489805222     1.9923965061     0.0719004698
| 15>  H       -0.3396514080     2.1165565385    -1.0151654265
| 16>  H       -0.5794445264     2.1800678613     0.7358319000
| 17>  H        0.1787713782    -0.1983738100     0.9460581804
| 18>  H       -1.2223568818    -0.0708426943    -0.1096481299
| 19>  H        0.2651803997    -0.1584108400    -2.1165391763
| 20>  H        1.6824006487    -0.1817201700    -1.0749915797
| 21>  H       -1.3291500752    -2.3001423440    -2.0698217575
| 22>  H       -0.7855708782    -3.7274964976    -1.1791804424
| 23>  H       -1.3746831264    -2.3179127267    -0.3019809590
| 24>  H        0.8967115649    -2.1331080031    -3.2895782050
| 25>  H        2.4020976858    -2.0153874720    -2.3940519899
| 26>  H        2.2038677707    -4.2155007200    -3.5134028159
| 27>  H        2.2430701328    -4.4558499795    -1.7689088939
| 28>  H        0.7138681814    -4.5837949387    -2.6485847488
| 29>  H        1.1104520647    -3.6447707456     0.3380768307
| 30> *
| 31>
| 32>                          ****END OF INPUT****

CARTESIAN COORDINATES (ANGSTROEM)
---------------------------------
  C      0.000960    1.702017   -0.059413
  C     -0.157776    0.178625   -0.025946
  C      0.638290   -0.507032   -1.144166
  C      0.630175   -2.052107   -1.153270
  C     -0.794999   -2.633343   -1.173853
  C      1.429113   -2.520400   -2.411627
  C      1.654002   -4.027861   -2.586046
  C      1.366517   -2.592850    0.069566
  O      2.183219   -1.984407    0.714164
  H      1.048981    1.992397    0.071900
  H     -0.339651    2.116557   -1.015165
  H     -0.579445    2.180068    0.735832
  H      0.178771   -0.198374    0.946058
  H     -1.222357   -0.070843   -0.109648
  H      0.265180   -0.158411   -2.116539
  H      1.682401   -0.181720   -1.074992
  H     -1.329150   -2.300142   -2.069822
  H     -0.785571   -3.727496   -1.179180
  H     -1.374683   -2.317913   -0.301981
  H      0.896712   -2.133108   -3.289578
  H      2.402098   -2.015387   -2.394052
  H      2.203868   -4.215501   -3.513403
  H      2.243070   -4.455850   -1.768909
  H      0.713868   -4.583795   -2.648585
  H      1.110452   -3.644771    0.338077

 Total Charge           Charge          ....    0
 Multiplicity           Mult            ....    1
 Number of Electrons    NEL             ....   72
 Basis Dimension        Dim             ....  375

ORBITAL ENERGIES
----------------

  NO   OCC          E(Eh)            E(eV)
   0   2.0000     -20.552723      -559.2680
   1   2.0000     -11.324878      -308.1656
   2   2.0000     -11.248845      -306.0966
   3   2.0000     -11.235237      -305.7264
   4   2.0000     -11.227099      -305.5049
   5   2.0000     -11.224307      -305.4289
   6   2.0000     -11.219230      -305.2908
   7   2.0000     -11.215753      -305.1962
   8   2.0000     -11.209486      -305.0256
   9   2.0000      -1.392386       -37.8888
  10   2.0000      -1.121006       -30.5041
  11   2.0000      -1.044915       -28.4336
  12   2.0000      -0.997849       -27.1528
  13   2.0000      -0.933755       -25.4088
  14   2.0000      -0.886203       -24.1148
  15   2.0000      -0.853485       -23.2245
  16   2.0000      -0.800325       -21.7779
  17   2.0000      -0.734875       -19.9970
  18   2.0000      -0.670004       -18.2317
  19   2.0000      -0.650443       -17.6995
  20   2.0000      -0.626325       -17.0432
  21   2.0000      -0.617842       -16.8123
  22   2.0000      -0.603264       -16.4156
  23   2.0000      -0.575600       -15.6629
  24   2.0000      -0.554442       -15.0871
  25   2.0000      -0.544668       -14.8212
  26   2.0000      -0.534296       -14.5389
  27   2.0000      -0.531343       -14.4586
  28   2.0000      -0.519470       -14.1355
  29   2.0000      -0.513779       -13.9806
  30   2.0000      -0.499082       -13.5807
  31   2.0000      -0.483387       -13.1536
  32   2.0000      -0.467637       -12.7251
  33   2.0000      -0.458831       -12.4854
  34   2.0000      -0.441750       -12.0206
  35   2.0000      -0.403586       -10.9821
  36   0.0000       0.126938         3.4542
  37   0.0000       0.131863         3.5882
  38   0.0000       0.151281         4.1166
  39   0.0000       0.162206         4.4139
  40   0.0000       0.173514         4.7216

MULLIKEN ATOMIC CHARGES
-----------------------
   0 C :   -0.393297
   1 C :   -0.222443
   2 C :   -0.251932
   3 C :    0.195626
   4 C :   -0.489697
   5 C :   -0.206958
   6 C :   -0.432592
   7 C :    0.025055
   8 O :   -0.263837
   9 H :    0.129890
  10 H :    0.119051
  11 H :    0.133348
  12 H :    0.127363
  13 H :    0.106162
  14 H :    0.114533
  15 H :    0.124356
  16 H :    0.139967
  17 H :    0.142991
  18 H :    0.152399
  19 H :    0.117398
  20 H :    0.129706
  21 H :    0.142683
  22 H :    0.140907
  23 H :    0.131310
  24 H :    0.088011
Sum of atomic charges:    0.0000000

LOEWDIN ATOMIC CHARGES
----------------------
   0 C :   -0.319119
   1 C :   -0.292305
   2 C :   -0.227528
   3 C :   -0.305214
   4 C :   -0.266692
   5 C :   -0.241645
   6 C :   -0.316486
   7 C :   -0.254692
   8 O :    0.140259
   9 H :    0.122278
  10 H :    0.119326
  11 H :    0.120232
  12 H :    0.139334
  13 H :    0.132285
  14 H :    0.142324
  15 H :    0.149103
  16 H :    0.131451
  17 H :    0.125662
  18 H :    0.128232
  19 H :    0.142445
  20 H :    0.146117
  21 H :    0.125338
  22 H :    0.122882
  23 H :    0.120323
  24 H :    0.116087

  Mayer bond orders larger than 0.1
B(  0-C ,  1-C ) :   0.9214 B(  0-C ,  9-H ) :   0.9424 B(  0-C , 10-H ) :   0.9385
B(  0-C , 11-H ) :   0.9435 B(  1-C ,  2-C ) :   0.9302 B(  1-C , 12-H ) :   0.9303
B(  1-C , 13-H ) :   0.9331 B(  2-C ,  3-C ) :   0.8924 B(  2-C , 14-H ) :   0.9284
B(  2-C , 15-H ) :   0.9140 B(  3-C ,  4-C ) :   0.8924 B(  3-C ,  5-C ) :   0.8650
B(  3-C ,  7-C ) :   0.8190 B(  4-C , 16-H ) :   0.9333 B(  4-C , 17-H ) :   0.9290
B(  4-C , 18-H ) :   0.9381 B(  5-C ,  6-C ) :   0.9107 B(  5-C , 19-H ) :   0.9296
B(  5-C , 20-H ) :   0.9303 B(  6-C , 21-H ) :   0.9404 B(  6-C , 22-H ) :   0.9367
B(  6-C , 23-H ) :   0.9399 B(  7-C ,  8-O ) :   1.9915 B(  7-C , 24-H ) :   0.9493

MP2 TOTAL ENERGY:     -388.835759030 Eh
FINAL SINGLE POINT ENERGY      -388.835759030441

DIPOLE MOMENT
-------------
                                X             Y             Z
Electronic contribution:      4.31161      -2.10416       4.60214
Nuclear contribution   :     -4.93575       1.77293      -5.28621
                        -----------------------------------------
Total Dipole Moment    :     -0.62414      -0.33123      -0.68408
                        -----------------------------------------
Magnitude (a.u.)       :      0.98347
Magnitude (Debye)      :      2.49979

                             ****ORCA TERMINATED NORMALLY****
TOTAL RUN TIME: 0 days 0 hours 22 minutes 39 seconds 345 msec
