                         Program Version 3.0.3 - RELEASE   -
|  1> ! RI-MP2 RIJK def2-TZVP def2-TZVP/C def2-TZVP/JK TIGHTSCF
|  2> % maxcore 2000
|  3> % mp2 density relaxed end
|  4> *xyz 0 1
|  5>  N        0.0479188287    -1.1147511626     0.0372868302
|  6>  C        0.0428617527     0.0394937817     0.0128096441
|  7>  C       -0.0318227383     1.4878436584    -0.0085474865
|  8>  C       -0.6584805350     2.1758564359     1.2667407502
|  9>  O       -0.1103205068     3.4876921460     1.1735968352
| 10>  C        0.7354332990     3.4363773665     0.0004902451
| 11>  O        1.2576106015     2.1241483157     0.0285320395
| 12>  C       -0.2002497751     3.4027837361    -1.2041501239
| 13>  C       -0.7001807289     2.1679180531    -1.2049486166
| 14>  H       -1.7511553460     2.1965339661     1.2378818926
| 15>  H       -0.3072365048     1.6842630676     2.1783141534
| 16>  H        1.5139723856     4.1907811607     0.0754025989
| 17>  H       -0.4819947689     4.2521705143    -1.8092869803
| 18>  H       -1.4906078735     1.7302530406    -1.7963947219
| 19> *
| 20>
| 21>                          ****END OF INPUT****

CARTESIAN COORDINATES (ANGSTROEM)
---------------------------------
  N      0.047919   -1.114751    0.037287
  C      0.042862    0.039494    0.012810
  C     -0.031823    1.487844   -0.008547
  C     -0.658481    2.175856    1.266741
  O     -0.110321    3.487692    1.173597
  C      0.735433    3.436377    0.000490
  O      1.257611    2.124148    0.028532
  C     -0.200250    3.402784   -1.204150
  C     -0.700181    2.167918   -1.204949
  H     -1.751155    2.196534    1.237882
  H     -0.307237    1.684263    2.178314
  H      1.513972    4.190781    0.075403
  H     -0.481995    4.252171   -1.809287
  H     -1.490608    1.730253   -1.796395

 Total Charge           Charge          ....    0
 Multiplicity           Mult            ....    1
 Number of Electrons    NEL             ....   64
 Basis Dimension        Dim             ....  309

ORBITAL ENERGIES
----------------

  NO   OCC          E(Eh)            E(eV)
   0   2.0000     -20.603393      -560.6468
   1   2.0000     -20.587154      -560.2049
   2   2.0000     -15.593905      -424.3317
   3   2.0000     -11.369035      -309.3672
   4   2.0000     -11.362945      -309.2014
   5   2.0000     -11.314186      -307.8747
   6   2.0000     -11.290834      -307.2392
   7   2.0000     -11.272853      -306.7499
   8   2.0000     -11.266465      -306.5761
   9   2.0000      -1.483793       -40.3761
  10   2.0000      -1.360868       -37.0311
  11   2.0000      -1.237895       -33.6848
  12   2.0000      -1.118887       -30.4465
  13   2.0000      -1.071070       -29.1453
  14   2.0000      -0.910028       -24.7631
  15   2.0000      -0.883273       -24.0351
  16   2.0000      -0.808282       -21.9945
  17   2.0000      -0.787324       -21.4242
  18   2.0000      -0.728911       -19.8347
  19   2.0000      -0.671631       -18.2760
  20   2.0000      -0.655033       -17.8244
  21   2.0000      -0.632314       -17.2061
  22   2.0000      -0.602250       -16.3881
  23   2.0000      -0.586582       -15.9617
  24   2.0000      -0.573818       -15.6144
  25   2.0000      -0.555266       -15.1096
  26   2.0000      -0.545084       -14.8325
  27   2.0000      -0.502626       -13.6772
  28   2.0000      -0.483914       -13.1680
  29   2.0000      -0.468678       -12.7534
  30   2.0000      -0.452429       -12.3112
  31   2.0000      -0.399401       -10.8682
  32   0.0000       0.102127         2.7790
  33   0.0000       0.137083         3.7302
  34   0.0000       0.148298         4.0354
  35   0.0000       0.159270         4.3339
  36   0.0000       0.167989         4.5712

MULLIKEN ATOMIC CHARGES
-----------------------
   0 N :   -0.033432
   1 C :   -0.191664
   2 C :    0.342190
   3 C :   -0.026662
   4 O :   -0.308801
   5 C :    0.169688
   6 O :   -0.277133
   7 C :   -0.160854
   8 C :   -0.231150
   9 H :    0.115897
  10 H :    0.131263
  11 H :    0.153892
  12 H :    0.155267
  13 H :    0.161499
Sum of atomic charges:    0.0000000

LOEWDIN ATOMIC CHARGES
----------------------
   0 N :    0.095070
   1 C :   -0.130273
   2 C :   -0.309927
   3 C :   -0.227867
   4 O :    0.164268
   5 C :   -0.332052
   6 O :    0.246731
   7 C :   -0.113421
   8 C :   -0.092716
   9 H :    0.131353
  10 H :    0.134809
  11 H :    0.142237
  12 H :    0.143463
  13 H :    0.148326

  Mayer bond orders larger than 0.1
B(  0-N ,  1-C ) :   2.8509 B(  1-C ,  2-C ) :   0.8543 B(  2-C ,  3-C ) :   0.9223
B(  2-C ,  6-O ) :   0.9185 B(  2-C ,  8-C ) :   0.9240 B(  3-C ,  4-O ) :   0.9547
B(  3-C ,  9-H ) :   0.8978 B(  3-C , 10-H ) :   0.9197 B(  4-O ,  5-C ) :   0.9488
B(  5-C ,  6-O ) :   0.9710 B(  5-C ,  7-C ) :   0.9541 B(  5-C , 11-H ) :   0.9115
B(  7-C ,  8-C ) :   1.7670 B(  7-C , 12-H ) :   0.9210 B(  8-C , 13-H ) :   0.9155

MP2 TOTAL ENERGY:     -435.955357850 Eh
FINAL SINGLE POINT ENERGY      -435.955357849619

DIPOLE MOMENT
-------------
                                X             Y             Z
Electronic contribution:      1.99752      -2.76039      -0.06827
Nuclear contribution   :     -2.60258       4.01055      -0.31847
                        -----------------------------------------
Total Dipole Moment    :     -0.60506       1.25016      -0.38673
                        -----------------------------------------
Magnitude (a.u.)       :      1.44172
Magnitude (Debye)      :      3.66457

                             ****ORCA TERMINATED NORMALLY****
TOTAL RUN TIME: 0 days 0 hours 15 minutes 6 seconds 189 msec
