                         Program Version 3.0.3 - RELEASE   -
|  1> ! RI-MP2 RIJK def2-TZVP def2-TZVP/C def2-TZVP/JK TIGHTSCF
|  2> % maxcore 2000
|  3> % mp2 density relaxed end
|  4> *xyz 0 1
|  5>  O        0.0129786762    -0.0309448722    -0.3189293937
|  6>  C        0.2360847077     1.1136295267    -0.0293711945
|  7>  C        1.3187915401     1.9627138038    -0.6806225430
|  8>  N        0.9685470749     3.3777669419    -0.6076450785
|  9>  C        2.0448133489     4.2998403648    -0.8668031243
| 10>  C        2.4812313264     4.3901660343    -2.3292727606
| 11>  O        1.9195590314     3.8343087182    -3.2378622727
| 12>  C        3.6538804481     5.2573804823    -2.5723177592
| 13>  N        4.5757958212     5.9412536215    -2.7133120045
| 14>  H       -0.3313412776     1.6497963403     0.7645227137
| 15>  H        2.2294739005     1.8051870023    -0.0835375886
| 16>  H        1.5198410381     1.5765323790    -1.6888172768
| 17>  H        0.1965069213     3.5737700190    -1.2369351167
| 18>  H        1.7614543747     5.3189999039    -0.5624054539
| 19>  H        2.9216848981     4.0462840742    -0.2569999969
| 20> *
| 21>
| 22>                          ****END OF INPUT****

CARTESIAN COORDINATES (ANGSTROEM)
---------------------------------
  O      0.012979   -0.030945   -0.318929
  C      0.236085    1.113630   -0.029371
  C      1.318792    1.962714   -0.680623
  N      0.968547    3.377767   -0.607645
  C      2.044813    4.299840   -0.866803
  C      2.481231    4.390166   -2.329273
  O      1.919559    3.834309   -3.237862
  C      3.653880    5.257380   -2.572318
  N      4.575796    5.941254   -2.713312
  H     -0.331341    1.649796    0.764523
  H      2.229474    1.805187   -0.083538
  H      1.519841    1.576532   -1.688817
  H      0.196507    3.573770   -1.236935
  H      1.761454    5.319000   -0.562405
  H      2.921685    4.046284   -0.257000

 Total Charge           Charge          ....    0
 Multiplicity           Mult            ....    1
 Number of Electrons    NEL             ....   66
 Basis Dimension        Dim             ....  315

ORBITAL ENERGIES
----------------

  NO   OCC          E(Eh)            E(eV)
   0   2.0000     -20.617191      -561.0223
   1   2.0000     -20.570220      -559.7441
   2   2.0000     -15.624527      -425.1650
   3   2.0000     -15.593145      -424.3111
   4   2.0000     -11.411027      -310.5098
   5   2.0000     -11.343422      -308.6702
   6   2.0000     -11.317824      -307.9737
   7   2.0000     -11.310913      -307.7856
   8   2.0000     -11.288518      -307.1762
   9   2.0000      -1.460655       -39.7464
  10   2.0000      -1.409893       -38.3651
  11   2.0000      -1.261269       -34.3209
  12   2.0000      -1.258095       -34.2345
  13   2.0000      -1.063003       -28.9258
  14   2.0000      -0.982285       -26.7293
  15   2.0000      -0.890813       -24.2403
  16   2.0000      -0.818121       -22.2622
  17   2.0000      -0.761929       -20.7331
  18   2.0000      -0.727185       -19.7877
  19   2.0000      -0.701285       -19.0829
  20   2.0000      -0.672161       -18.2904
  21   2.0000      -0.648717       -17.6525
  22   2.0000      -0.626126       -17.0378
  23   2.0000      -0.616941       -16.7878
  24   2.0000      -0.607995       -16.5444
  25   2.0000      -0.591953       -16.1079
  26   2.0000      -0.558918       -15.2089
  27   2.0000      -0.524372       -14.2689
  28   2.0000      -0.515735       -14.0339
  29   2.0000      -0.504340       -13.7238
  30   2.0000      -0.502885       -13.6842
  31   2.0000      -0.438682       -11.9371
  32   2.0000      -0.419526       -11.4159
  33   0.0000       0.047297         1.2870
  34   0.0000       0.103611         2.8194
  35   0.0000       0.119397         3.2490
  36   0.0000       0.141401         3.8477
  37   0.0000       0.146460         3.9854

MULLIKEN ATOMIC CHARGES
-----------------------
   0 O :   -0.254056
   1 C :    0.081345
   2 C :   -0.106679
   3 N :   -0.334101
   4 C :   -0.201486
   5 C :    0.303852
   6 O :   -0.233607
   7 C :   -0.151201
   8 N :   -0.036033
   9 H :    0.088932
  10 H :    0.132741
  11 H :    0.146637
  12 H :    0.221241
  13 H :    0.176113
  14 H :    0.166301
Sum of atomic charges:    0.0000000

LOEWDIN ATOMIC CHARGES
----------------------
   0 O :    0.140678
   1 C :   -0.296369
   2 C :   -0.303807
   3 N :   -0.002789
   4 C :   -0.286420
   5 C :   -0.326636
   6 O :    0.207671
   7 C :   -0.136689
   8 N :    0.106832
   9 H :    0.112320
  10 H :    0.150352
  11 H :    0.135741
  12 H :    0.181227
  13 H :    0.160461
  14 H :    0.157430

  Mayer bond orders larger than 0.1
B(  0-O ,  1-C ) :   2.0106 B(  1-C ,  2-C ) :   0.8780 B(  1-C ,  9-H ) :   0.9335
B(  2-C ,  3-N ) :   0.9153 B(  2-C , 10-H ) :   0.9011 B(  2-C , 11-H ) :   0.8928
B(  3-N ,  4-C ) :   1.0019 B(  3-N , 12-H ) :   0.8741 B(  4-C ,  5-C ) :   0.9070
B(  4-C , 13-H ) :   0.8945 B(  4-C , 14-H ) :   0.9238 B(  5-C ,  6-O ) :   1.9758
B(  5-C ,  7-C ) :   0.8716 B(  7-C ,  8-N ) :   2.7739

MP2 TOTAL ENERGY:     -453.206318008 Eh
FINAL SINGLE POINT ENERGY      -453.206318008406

DIPOLE MOMENT
-------------
                                X             Y             Z
Electronic contribution:      2.40752       2.17506      -4.57200
Nuclear contribution   :     -2.67003      -1.64329       5.34081
                        -----------------------------------------
Total Dipole Moment    :     -0.26251       0.53177       0.76881
                        -----------------------------------------
Magnitude (a.u.)       :      0.97095
Magnitude (Debye)      :      2.46797

                             ****ORCA TERMINATED NORMALLY****
TOTAL RUN TIME: 0 days 0 hours 12 minutes 4 seconds 837 msec
