                         Program Version 3.0.3 - RELEASE   -
|  1> ! RI-MP2 RIJK def2-TZVP def2-TZVP/C def2-TZVP/JK TIGHTSCF
|  2> % maxcore 2000
|  3> % mp2 density relaxed end
|  4> *xyz 0 1
|  5>  C        0.2224553237     1.5324501534    -0.0603687591
|  6>  C        0.0539962509     0.0345573258     0.0538349800
|  7>  O       -1.1446101662    -0.4542047126    -0.4987871542
|  8>  C        1.2550747150    -0.8827541577    -0.0109026880
|  9>  C        0.4737225352    -0.7279792819     1.2800048492
| 10>  C        1.0830462597    -0.0667527695     2.4756405162
| 11>  C        2.3802968156    -0.4911194681     3.0224815987
| 12>  O        2.2610397714     0.7202899933     2.2729728331
| 13>  H        1.1375845125     1.8695862835     0.4296901052
| 14>  H        0.2731037219     1.8301805347    -1.1154219984
| 15>  H       -0.6313192794     2.0481962392     0.3913596077
| 16>  H       -1.1150081126    -0.2918744004    -1.4485262522
| 17>  H        1.1455012010    -1.8142104311    -0.5544278737
| 18>  H        2.2379388605    -0.4249626533    -0.0461224855
| 19>  H       -0.1950332840    -1.5471060061     1.5309701169
| 20>  H        0.3735520815     0.3856214154     3.1708913951
| 21>  H        2.5934137541    -0.3625597722     4.0824545867
| 22>  H        2.9267137589    -1.2908748824     2.5254190622
| 23> *
| 24>
| 25>                          ****END OF INPUT****

CARTESIAN COORDINATES (ANGSTROEM)
---------------------------------
  C      0.222455    1.532450   -0.060369
  C      0.053996    0.034557    0.053835
  O     -1.144610   -0.454205   -0.498787
  C      1.255075   -0.882754   -0.010903
  C      0.473723   -0.727979    1.280005
  C      1.083046   -0.066753    2.475641
  C      2.380297   -0.491119    3.022482
  O      2.261040    0.720290    2.272973
  H      1.137585    1.869586    0.429690
  H      0.273104    1.830181   -1.115422
  H     -0.631319    2.048196    0.391360
  H     -1.115008   -0.291874   -1.448526
  H      1.145501   -1.814210   -0.554428
  H      2.237939   -0.424963   -0.046122
  H     -0.195033   -1.547106    1.530970
  H      0.373552    0.385621    3.170891
  H      2.593414   -0.362560    4.082455
  H      2.926714   -1.290875    2.525419

 Total Charge           Charge          ....    0
 Multiplicity           Mult            ....    1
 Number of Electrons    NEL             ....   62
 Basis Dimension        Dim             ....  308

ORBITAL ENERGIES
----------------

  NO   OCC          E(Eh)            E(eV)
   0   2.0000     -20.569581      -559.7267
   1   2.0000     -20.559191      -559.4440
   2   2.0000     -11.290568      -307.2320
   3   2.0000     -11.288215      -307.1680
   4   2.0000     -11.282484      -307.0120
   5   2.0000     -11.233733      -305.6854
   6   2.0000     -11.222198      -305.3715
   7   2.0000     -11.214697      -305.1674
   8   2.0000      -1.412879       -38.4464
   9   2.0000      -1.370218       -37.2855
  10   2.0000      -1.136883       -30.9362
  11   2.0000      -0.975547       -26.5460
  12   2.0000      -0.940346       -25.5881
  13   2.0000      -0.885415       -24.0934
  14   2.0000      -0.806590       -21.9484
  15   2.0000      -0.762176       -20.7399
  16   2.0000      -0.700699       -19.0670
  17   2.0000      -0.684471       -18.6254
  18   2.0000      -0.658920       -17.9301
  19   2.0000      -0.631087       -17.1728
  20   2.0000      -0.602455       -16.3936
  21   2.0000      -0.566784       -15.4230
  22   2.0000      -0.551813       -15.0156
  23   2.0000      -0.543926       -14.8010
  24   2.0000      -0.529570       -14.4103
  25   2.0000      -0.511249       -13.9118
  26   2.0000      -0.488553       -13.2942
  27   2.0000      -0.468930       -12.7602
  28   2.0000      -0.454248       -12.3607
  29   2.0000      -0.402643       -10.9565
  30   2.0000      -0.383709       -10.4412
  31   0.0000       0.137330         3.7369
  32   0.0000       0.161615         4.3978
  33   0.0000       0.168536         4.5861
  34   0.0000       0.178546         4.8585
  35   0.0000       0.184027         5.0076

MULLIKEN ATOMIC CHARGES
-----------------------
   0 C :   -0.424783
   1 C :    0.209725
   2 O :   -0.464735
   3 C :   -0.330646
   4 C :   -0.116987
   5 C :    0.050082
   6 C :   -0.083595
   7 O :   -0.346549
   8 H :    0.158334
   9 H :    0.115562
  10 H :    0.136597
  11 H :    0.317074
  12 H :    0.135678
  13 H :    0.144443
  14 H :    0.126699
  15 H :    0.131192
  16 H :    0.119290
  17 H :    0.122619
Sum of atomic charges:    0.0000000

LOEWDIN ATOMIC CHARGES
----------------------
   0 C :   -0.274135
   1 C :   -0.366044
   2 O :    0.015855
   3 C :   -0.192077
   4 C :   -0.184439
   5 C :   -0.273791
   6 C :   -0.259021
   7 O :    0.141107
   8 H :    0.137350
   9 H :    0.124066
  10 H :    0.129560
  11 H :    0.179502
  12 H :    0.134424
  13 H :    0.140759
  14 H :    0.162661
  15 H :    0.142158
  16 H :    0.119510
  17 H :    0.122555

  Mayer bond orders larger than 0.1
B(  0-C ,  1-C ) :   0.9380 B(  0-C ,  8-H ) :   0.9240 B(  0-C ,  9-H ) :   0.9236
B(  0-C , 10-H ) :   0.9390 B(  1-C ,  2-O ) :   0.9908 B(  1-C ,  3-C ) :   0.8850
B(  1-C ,  4-C ) :   0.8647 B(  2-O , 11-H ) :   0.8417 B(  3-C ,  4-C ) :   0.8994
B(  3-C , 12-H ) :   0.9218 B(  3-C , 13-H ) :   0.9032 B(  4-C ,  5-C ) :   0.9360
B(  4-C , 14-H ) :   0.9173 B(  5-C ,  6-C ) :   0.9641 B(  5-C ,  7-O ) :   0.8559
B(  5-C , 15-H ) :   0.9184 B(  6-C ,  7-O ) :   0.9086 B(  6-C , 16-H ) :   0.9246
B(  6-C , 17-H ) :   0.9073

MP2 TOTAL ENERGY:     -384.267701537 Eh
FINAL SINGLE POINT ENERGY      -384.267701536584

DIPOLE MOMENT
-------------
                                X             Y             Z
Electronic contribution:     -0.47960      -0.87985       1.24618
Nuclear contribution   :      0.60688       0.59244      -1.34268
                        -----------------------------------------
Total Dipole Moment    :      0.12729      -0.28741      -0.09650
                        -----------------------------------------
Magnitude (a.u.)       :      0.32881
Magnitude (Debye)      :      0.83578

                             ****ORCA TERMINATED NORMALLY****
TOTAL RUN TIME: 0 days 0 hours 11 minutes 33 seconds 469 msec
