                         Program Version 3.0.3 - RELEASE   -
|  1> ! RI-MP2 RIJK def2-TZVP def2-TZVP/C def2-TZVP/JK TIGHTSCF
|  2> % maxcore 2000
|  3> % mp2 density relaxed end
|  4> *xyz 0 1
|  5>  C        0.0490874998     1.4758700285    -0.0468276902
|  6>  C        0.0181308325    -0.0328451361     0.0885327005
|  7>  O        0.9875431601    -0.6620461931    -0.8136214580
|  8>  C        1.7493910139    -1.1216883024     0.3027220826
|  9>  C        0.7386792076    -0.6009311236     1.3080887187
| 10>  C        0.9701192440    -2.0899168137     1.1556660255
| 11>  C       -0.0303876923    -3.0708750112     0.5969742491
| 12>  O        1.6975334912    -2.5480337062     2.2703027987
| 13>  H        1.0516867925     1.8626510143     0.1574713913
| 14>  H       -0.2371429467     1.7684700300    -1.0614451343
| 15>  H       -0.6540469435     1.9357777452     0.6565570968
| 16>  H       -0.9919568362    -0.4178760658    -0.1009333909
| 17>  H        2.8322028062    -1.0750793630     0.2529103129
| 18>  H        0.8811478020    -0.1046253690     2.2588797435
| 19>  H       -0.4709021568    -2.6988448203    -0.3299653177
| 20>  H        0.4663302578    -4.0210707773     0.3642161600
| 21>  H       -0.8266715515    -3.2754402557     1.3195585031
| 22>  H        2.2363118893    -3.2933195805     1.9812587885
| 23> *
| 24>
| 25>                          ****END OF INPUT****

CARTESIAN COORDINATES (ANGSTROEM)
---------------------------------
  C      0.049087    1.475870   -0.046828
  C      0.018131   -0.032845    0.088533
  O      0.987543   -0.662046   -0.813621
  C      1.749391   -1.121688    0.302722
  C      0.738679   -0.600931    1.308089
  C      0.970119   -2.089917    1.155666
  C     -0.030388   -3.070875    0.596974
  O      1.697533   -2.548034    2.270303
  H      1.051687    1.862651    0.157471
  H     -0.237143    1.768470   -1.061445
  H     -0.654047    1.935778    0.656557
  H     -0.991957   -0.417876   -0.100933
  H      2.832203   -1.075079    0.252910
  H      0.881148   -0.104625    2.258880
  H     -0.470902   -2.698845   -0.329965
  H      0.466330   -4.021071    0.364216
  H     -0.826672   -3.275440    1.319559
  H      2.236312   -3.293320    1.981259

 Total Charge           Charge          ....    0
 Multiplicity           Mult            ....    1
 Number of Electrons    NEL             ....   62
 Basis Dimension        Dim             ....  308

ORBITAL ENERGIES
----------------

  NO   OCC          E(Eh)            E(eV)
   0   2.0000     -20.568502      -559.6974
   1   2.0000     -20.553790      -559.2971
   2   2.0000     -11.295078      -307.3547
   3   2.0000     -11.290952      -307.2424
   4   2.0000     -11.284685      -307.0719
   5   2.0000     -11.233356      -305.6751
   6   2.0000     -11.220530      -305.3262
   7   2.0000     -11.219856      -305.3078
   8   2.0000      -1.398708       -38.0608
   9   2.0000      -1.371405       -37.3178
  10   2.0000      -1.107336       -30.1321
  11   2.0000      -1.024241       -27.8710
  12   2.0000      -0.974584       -26.5198
  13   2.0000      -0.873271       -23.7629
  14   2.0000      -0.790682       -21.5155
  15   2.0000      -0.753027       -20.4909
  16   2.0000      -0.706229       -19.2175
  17   2.0000      -0.665253       -18.1024
  18   2.0000      -0.649897       -17.6846
  19   2.0000      -0.640678       -17.4337
  20   2.0000      -0.588518       -16.0144
  21   2.0000      -0.568422       -15.4675
  22   2.0000      -0.556395       -15.1403
  23   2.0000      -0.548775       -14.9329
  24   2.0000      -0.533423       -14.5152
  25   2.0000      -0.522993       -14.2314
  26   2.0000      -0.494669       -13.4606
  27   2.0000      -0.485809       -13.2195
  28   2.0000      -0.464826       -12.6486
  29   2.0000      -0.396616       -10.7925
  30   2.0000      -0.367522       -10.0008
  31   0.0000       0.132041         3.5930
  32   0.0000       0.149029         4.0553
  33   0.0000       0.167397         4.5551
  34   0.0000       0.188622         5.1327
  35   0.0000       0.188843         5.1387

MULLIKEN ATOMIC CHARGES
-----------------------
   0 C :   -0.424832
   1 C :    0.158666
   2 O :   -0.345721
   3 C :   -0.007644
   4 C :   -0.237177
   5 C :    0.210397
   6 C :   -0.410936
   7 O :   -0.463969
   8 H :    0.137908
   9 H :    0.142069
  10 H :    0.125979
  11 H :    0.101460
  12 H :    0.139154
  13 H :    0.142505
  14 H :    0.153741
  15 H :    0.115216
  16 H :    0.140992
  17 H :    0.322193
Sum of atomic charges:   -0.0000000

LOEWDIN ATOMIC CHARGES
----------------------
   0 C :   -0.288276
   1 C :   -0.273999
   2 O :    0.162680
   3 C :   -0.225685
   4 C :   -0.145754
   5 C :   -0.358369
   6 C :   -0.273428
   7 O :    0.028672
   8 H :    0.129768
   9 H :    0.129406
  10 H :    0.128268
  11 H :    0.135255
  12 H :    0.131242
  13 H :    0.145518
  14 H :    0.136751
  15 H :    0.126128
  16 H :    0.129725
  17 H :    0.182098

  Mayer bond orders larger than 0.1
B(  0-C ,  1-C ) :   0.9042 B(  0-C ,  8-H ) :   0.9418 B(  0-C ,  9-H ) :   0.9383
B(  0-C , 10-H ) :   0.9306 B(  1-C ,  2-O ) :   0.8568 B(  1-C ,  4-C ) :   0.8995
B(  1-C , 11-H ) :   0.9189 B(  2-O ,  3-C ) :   0.9441 B(  3-C ,  4-C ) :   0.9160
B(  3-C ,  5-C ) :   0.8447 B(  3-C , 12-H ) :   0.9185 B(  4-C ,  5-C ) :   0.8570
B(  4-C , 13-H ) :   0.9160 B(  5-C ,  6-C ) :   0.9339 B(  5-C ,  7-O ) :   0.9694
B(  6-C , 14-H ) :   0.9250 B(  6-C , 15-H ) :   0.9236 B(  6-C , 16-H ) :   0.9393
B(  7-O , 17-H ) :   0.8396

MP2 TOTAL ENERGY:     -384.262940946 Eh
FINAL SINGLE POINT ENERGY      -384.262940946292

DIPOLE MOMENT
-------------
                                X             Y             Z
Electronic contribution:      3.25608      -1.73484       0.67081
Nuclear contribution   :     -3.29786       1.60616      -0.57065
                        -----------------------------------------
Total Dipole Moment    :     -0.04178      -0.12868       0.10016
                        -----------------------------------------
Magnitude (a.u.)       :      0.16833
Magnitude (Debye)      :      0.42786

                             ****ORCA TERMINATED NORMALLY****
TOTAL RUN TIME: 0 days 0 hours 12 minutes 44 seconds 655 msec
