                         Program Version 3.0.3 - RELEASE   -
|  1> ! RI-MP2 RIJK def2-TZVP def2-TZVP/C def2-TZVP/JK TIGHTSCF
|  2> % maxcore 2000
|  3> % mp2 density relaxed end
|  4> *xyz 0 1
|  5>  N       -0.0202622351     1.4945431652     0.1239102301
|  6>  C        0.0460491297     0.0845107238    -0.0363015958
|  7>  C        1.2295129029    -0.6362705461     0.6856791515
|  8>  O        0.9736969327    -2.0361707548     0.6796342170
|  9>  C        1.5312781321    -1.4587771075    -0.5006655631
| 10>  C        0.3620256830    -0.8027384061    -1.2916814372
| 11>  O       -0.9117780717    -1.4805916767    -1.1483115639
| 12>  C       -1.2733551801    -0.7286673149    -0.0433084890
| 13>  O       -2.2979121562    -0.7618269939     0.5507378728
| 14>  H        0.8771468610     1.9409604155    -0.0321441893
| 15>  H       -0.7041404440     1.9224433056    -0.4905101317
| 16>  H        1.8520781240    -0.2274237007     1.4739715123
| 17>  H        2.4608923361    -1.8714693240    -0.8736079809
| 18>  H        0.5415512458    -0.4263515355    -2.2967449128
| 19> *
| 20>
| 21>                          ****END OF INPUT****

CARTESIAN COORDINATES (ANGSTROEM)
---------------------------------
  N     -0.020262    1.494543    0.123910
  C      0.046049    0.084511   -0.036302
  C      1.229513   -0.636271    0.685679
  O      0.973697   -2.036171    0.679634
  C      1.531278   -1.458777   -0.500666
  C      0.362026   -0.802738   -1.291681
  O     -0.911778   -1.480592   -1.148312
  C     -1.273355   -0.728667   -0.043308
  O     -2.297912   -0.761827    0.550738
  H      0.877147    1.940960   -0.032144
  H     -0.704140    1.922443   -0.490510
  H      1.852078   -0.227424    1.473972
  H      2.460892   -1.871469   -0.873608
  H      0.541551   -0.426352   -2.296745

 Total Charge           Charge          ....    0
 Multiplicity           Mult            ....    1
 Number of Electrons    NEL             ....   66
 Basis Dimension        Dim             ....  309

ORBITAL ENERGIES
----------------

  NO   OCC          E(Eh)            E(eV)
   0   2.0000     -20.605720      -560.7102
   1   2.0000     -20.602586      -560.6249
   2   2.0000     -20.558377      -559.4219
   3   2.0000     -15.586313      -424.1251
   4   2.0000     -11.386554      -309.8439
   5   2.0000     -11.323363      -308.1244
   6   2.0000     -11.321178      -308.0649
   7   2.0000     -11.319510      -308.0195
   8   2.0000     -11.314783      -307.8909
   9   2.0000      -1.479963       -40.2718
  10   2.0000      -1.443487       -39.2793
  11   2.0000      -1.383611       -37.6500
  12   2.0000      -1.232246       -33.5311
  13   2.0000      -1.076095       -29.2820
  14   2.0000      -0.952692       -25.9241
  15   2.0000      -0.902806       -24.5666
  16   2.0000      -0.840904       -22.8822
  17   2.0000      -0.762960       -20.7612
  18   2.0000      -0.743341       -20.2273
  19   2.0000      -0.716309       -19.4917
  20   2.0000      -0.688529       -18.7358
  21   2.0000      -0.686242       -18.6736
  22   2.0000      -0.662173       -18.0186
  23   2.0000      -0.600695       -16.3457
  24   2.0000      -0.594673       -16.1819
  25   2.0000      -0.574510       -15.6332
  26   2.0000      -0.557660       -15.1747
  27   2.0000      -0.541579       -14.7371
  28   2.0000      -0.502920       -13.6851
  29   2.0000      -0.477983       -13.0066
  30   2.0000      -0.456445       -12.4205
  31   2.0000      -0.425746       -11.5851
  32   2.0000      -0.398728       -10.8499
  33   0.0000       0.111317         3.0291
  34   0.0000       0.141271         3.8442
  35   0.0000       0.147077         4.0022
  36   0.0000       0.164435         4.4745
  37   0.0000       0.170825         4.6484

MULLIKEN ATOMIC CHARGES
-----------------------
   0 N :   -0.532529
   1 C :    0.135117
   2 C :   -0.052797
   3 O :   -0.294829
   4 C :   -0.054805
   5 C :    0.094421
   6 O :   -0.244171
   7 C :    0.248826
   8 O :   -0.239359
   9 H :    0.242196
  10 H :    0.250040
  11 H :    0.158244
  12 H :    0.153097
  13 H :    0.136550
Sum of atomic charges:   -0.0000000

LOEWDIN ATOMIC CHARGES
----------------------
   0 N :   -0.089270
   1 C :   -0.274785
   2 C :   -0.200461
   3 O :    0.212469
   4 C :   -0.218492
   5 C :   -0.195244
   6 O :    0.256453
   7 C :   -0.409030
   8 O :    0.177248
   9 H :    0.165850
  10 H :    0.169636
  11 H :    0.138012
  12 H :    0.132753
  13 H :    0.134863

  Mayer bond orders larger than 0.1
B(  0-N ,  1-C ) :   0.9509 B(  0-N ,  9-H ) :   0.8744 B(  0-N , 10-H ) :   0.8739
B(  1-C ,  2-C ) :   0.8223 B(  1-C ,  5-C ) :   0.9161 B(  1-C ,  7-C ) :   0.8896
B(  2-C ,  3-O ) :   0.9155 B(  2-C ,  4-C ) :   0.9176 B(  2-C , 11-H ) :   0.9325
B(  3-O ,  4-C ) :   0.9085 B(  4-C ,  5-C ) :   0.8572 B(  4-C , 12-H ) :   0.9201
B(  5-C ,  6-O ) :   0.8887 B(  5-C , 13-H ) :   0.9120 B(  6-O ,  7-C ) :   1.0615
B(  7-C ,  8-O ) :   2.0744

MP2 TOTAL ENERGY:     -473.022307114 Eh
FINAL SINGLE POINT ENERGY      -473.022307114048

DIPOLE MOMENT
-------------
                                X             Y             Z
Electronic contribution:     -3.19843      -3.30948       0.59458
Nuclear contribution   :      4.99023       4.50933      -1.57877
                        -----------------------------------------
Total Dipole Moment    :      1.79181       1.19986      -0.98419
                        -----------------------------------------
Magnitude (a.u.)       :      2.37041
Magnitude (Debye)      :      6.02511

                             ****ORCA TERMINATED NORMALLY****
TOTAL RUN TIME: 0 days 0 hours 15 minutes 3 seconds 833 msec
