                         Program Version 3.0.3 - RELEASE   -
|  1> ! RI-MP2 RIJK def2-TZVP def2-TZVP/C def2-TZVP/JK TIGHTSCF
|  2> % maxcore 2000
|  3> % mp2 density relaxed end
|  4> *xyz 0 1
|  5>  C        0.3169413556     1.4842595904     0.1367660347
|  6>  C       -0.1867734211     0.0508050687     0.0260026259
|  7>  O       -1.6298005295     0.0574174917     0.0427023046
|  8>  C       -2.2659853015    -0.5623584156     1.0529896820
|  9>  O       -3.4558352596    -0.6103676048     1.1367287774
| 10>  C        0.2321545797    -0.5952711541    -1.2778528682
| 11>  O        1.6165562804    -0.9221411172    -1.3992485304
| 12>  C        0.6622214804    -1.9954008521    -1.4244787844
| 13>  C        0.7270794451    -3.0160892931    -0.3181765296
| 14>  H        1.4081771350     1.4943903115     0.0698313055
| 15>  H       -0.0900269536     2.0958848190    -0.6737240593
| 16>  H        0.0160143888     1.9283088037     1.0894180023
| 17>  H        0.1821638044    -0.5392247794     0.8721927774
| 18>  H       -1.5691191984    -1.0128347613     1.7875270664
| 19>  H       -0.1976703197    -0.1030617601    -2.1529298741
| 20>  H        0.5311627074    -2.4254799102    -2.4194245899
| 21>  H        0.8869934647    -2.5570574661     0.6596660393
| 22>  H       -0.1978477494    -3.6017263787    -0.2864252923
| 23>  H        1.5550999411    -3.7090432624    -0.4986333373
| 24> *
| 25>
| 26>                          ****END OF INPUT****

CARTESIAN COORDINATES (ANGSTROEM)
---------------------------------
  C      0.316941    1.484260    0.136766
  C     -0.186773    0.050805    0.026003
  O     -1.629801    0.057417    0.042702
  C     -2.265985   -0.562358    1.052990
  O     -3.455835   -0.610368    1.136729
  C      0.232155   -0.595271   -1.277853
  O      1.616556   -0.922141   -1.399249
  C      0.662221   -1.995401   -1.424479
  C      0.727079   -3.016089   -0.318177
  H      1.408177    1.494390    0.069831
  H     -0.090027    2.095885   -0.673724
  H      0.016014    1.928309    1.089418
  H      0.182164   -0.539225    0.872193
  H     -1.569119   -1.012835    1.787527
  H     -0.197670   -0.103062   -2.152930
  H      0.531163   -2.425480   -2.419425
  H      0.886993   -2.557057    0.659666
  H     -0.197848   -3.601726   -0.286425
  H      1.555100   -3.709043   -0.498633

 Total Charge           Charge          ....    0
 Multiplicity           Mult            ....    1
 Number of Electrons    NEL             ....   70
 Basis Dimension        Dim             ....  339

ORBITAL ENERGIES
----------------

  NO   OCC          E(Eh)            E(eV)
   0   2.0000     -20.613523      -560.9225
   1   2.0000     -20.580980      -560.0369
   2   2.0000     -20.554183      -559.3078
   3   2.0000     -11.388293      -309.8912
   4   2.0000     -11.320190      -308.0380
   5   2.0000     -11.304093      -307.6000
   6   2.0000     -11.300965      -307.5149
   7   2.0000     -11.242132      -305.9140
   8   2.0000     -11.236381      -305.7575
   9   2.0000      -1.467781       -39.9404
  10   2.0000      -1.425957       -38.8023
  11   2.0000      -1.377560       -37.4853
  12   2.0000      -1.072945       -29.1963
  13   2.0000      -1.028287       -27.9811
  14   2.0000      -0.940263       -25.5859
  15   2.0000      -0.874015       -23.7832
  16   2.0000      -0.855364       -23.2756
  17   2.0000      -0.811836       -22.0912
  18   2.0000      -0.743917       -20.2430
  19   2.0000      -0.695041       -18.9130
  20   2.0000      -0.685876       -18.6636
  21   2.0000      -0.665895       -18.1199
  22   2.0000      -0.633660       -17.2428
  23   2.0000      -0.604789       -16.4571
  24   2.0000      -0.590043       -16.0559
  25   2.0000      -0.578146       -15.7322
  26   2.0000      -0.572075       -15.5669
  27   2.0000      -0.559331       -15.2202
  28   2.0000      -0.539203       -14.6724
  29   2.0000      -0.535788       -14.5795
  30   2.0000      -0.507222       -13.8022
  31   2.0000      -0.477492       -12.9932
  32   2.0000      -0.462666       -12.5898
  33   2.0000      -0.451298       -12.2804
  34   2.0000      -0.439703       -11.9649
  35   0.0000       0.126143         3.4325
  36   0.0000       0.135013         3.6739
  37   0.0000       0.148230         4.0335
  38   0.0000       0.162325         4.4171
  39   0.0000       0.185678         5.0526

MULLIKEN ATOMIC CHARGES
-----------------------
   0 C :   -0.386436
   1 C :    0.048385
   2 O :   -0.208544
   3 C :    0.193300
   4 O :   -0.268614
   5 C :    0.034367
   6 O :   -0.338562
   7 C :    0.051102
   8 C :   -0.390206
   9 H :    0.151901
  10 H :    0.141149
  11 H :    0.140712
  12 H :    0.094177
  13 H :    0.070012
  14 H :    0.132677
  15 H :    0.116096
  16 H :    0.126991
  17 H :    0.141594
  18 H :    0.149899
Sum of atomic charges:    0.0000000

LOEWDIN ATOMIC CHARGES
----------------------
   0 C :   -0.279997
   1 C :   -0.309452
   2 O :    0.271569
   3 C :   -0.454185
   4 O :    0.120851
   5 C :   -0.256361
   6 O :    0.165522
   7 C :   -0.281354
   8 C :   -0.294485
   9 H :    0.137117
  10 H :    0.132319
  11 H :    0.127996
  12 H :    0.140861
  13 H :    0.101490
  14 H :    0.145846
  15 H :    0.140612
  16 H :    0.124050
  17 H :    0.134172
  18 H :    0.133428

  Mayer bond orders larger than 0.1
B(  0-C ,  1-C ) :   0.9374 B(  0-C ,  9-H ) :   0.9288 B(  0-C , 10-H ) :   0.9322
B(  0-C , 11-H ) :   0.9311 B(  1-C ,  2-O ) :   0.8286 B(  1-C ,  5-C ) :   0.9112
B(  1-C , 12-H ) :   0.9381 B(  2-O ,  3-C ) :   1.0788 B(  3-C ,  4-O ) :   2.0254
B(  3-C , 13-H ) :   0.9155 B(  5-C ,  6-O ) :   0.8844 B(  5-C ,  7-C ) :   0.9798
B(  5-C , 14-H ) :   0.9031 B(  6-O ,  7-C ) :   0.8991 B(  7-C ,  8-C ) :   0.8911
B(  7-C , 15-H ) :   0.9158 B(  8-C , 16-H ) :   0.9438 B(  8-C , 17-H ) :   0.9241
B(  8-C , 18-H ) :   0.9318

MP2 TOTAL ENERGY:     -459.429574582 Eh
FINAL SINGLE POINT ENERGY      -459.429574582420

DIPOLE MOMENT
-------------
                                X             Y             Z
Electronic contribution:     -5.59081       1.23589      -0.39000
Nuclear contribution   :      6.60061      -1.57435       0.47833
                        -----------------------------------------
Total Dipole Moment    :      1.00979      -0.33845       0.08833
                        -----------------------------------------
Magnitude (a.u.)       :      1.06866
Magnitude (Debye)      :      2.71632

                             ****ORCA TERMINATED NORMALLY****
TOTAL RUN TIME: 0 days 0 hours 16 minutes 20 seconds 235 msec
