                         Program Version 3.0.3 - RELEASE   -
|  1> ! RI-MP2 RIJK def2-TZVP def2-TZVP/C def2-TZVP/JK TIGHTSCF
|  2> % maxcore 2000
|  3> % mp2 density relaxed end
|  4> *xyz 0 1
|  5>  C        0.0406666466     1.4679488147    -0.2114281461
|  6>  C       -0.2238556360    -0.0008093799     0.1378940685
|  7>  C        0.6588871257    -0.5340754557     1.2656695834
|  8>  C        0.9973243013    -1.9997686650     1.2960492885
|  9>  N        2.0364493898    -1.0226974952     1.0351002406
| 10>  C        2.6233665546    -0.9803997264    -0.2955044115
| 11>  C        0.4885822375     0.1574442936     2.5251747139
| 12>  C        0.3063427520     0.7352249284     3.5640247611
| 13>  H        1.0582001600     1.6139027896    -0.5870746091
| 14>  H       -0.6544363990     1.8122927751    -0.9830128115
| 15>  H       -0.0846565138     2.1047578847     0.6687770562
| 16>  H       -1.2668262794    -0.1198992361     0.4542660901
| 17>  H       -0.1024018179    -0.6288500950    -0.7495746942
| 18>  H        1.0589801725    -2.5278554951     2.2435987885
| 19>  H        0.6250970769    -2.5936582299     0.4602572962
| 20>  H        1.9334728430    -1.2256644584    -1.1170885431
| 21>  H        3.0420585148     0.0138918356    -0.4774615301
| 22>  H        3.4457480905    -1.7026074932    -0.3253596425
| 23>  H        0.1638932710     1.2417170582     4.4862704113
| 24> *
| 25>
| 26>                          ****END OF INPUT****

CARTESIAN COORDINATES (ANGSTROEM)
---------------------------------
  C      0.040667    1.467949   -0.211428
  C     -0.223856   -0.000809    0.137894
  C      0.658887   -0.534075    1.265670
  C      0.997324   -1.999769    1.296049
  N      2.036449   -1.022697    1.035100
  C      2.623367   -0.980400   -0.295504
  C      0.488582    0.157444    2.525175
  C      0.306343    0.735225    3.564025
  H      1.058200    1.613903   -0.587075
  H     -0.654436    1.812293   -0.983013
  H     -0.084657    2.104758    0.668777
  H     -1.266826   -0.119899    0.454266
  H     -0.102402   -0.628850   -0.749575
  H      1.058980   -2.527855    2.243599
  H      0.625097   -2.593658    0.460257
  H      1.933473   -1.225664   -1.117089
  H      3.042059    0.013892   -0.477462
  H      3.445748   -1.702607   -0.325360
  H      0.163893    1.241717    4.486270

 Total Charge           Charge          ....    0
 Multiplicity           Mult            ....    1
 Number of Electrons    NEL             ....   60
 Basis Dimension        Dim             ....  314

ORBITAL ENERGIES
----------------

  NO   OCC          E(Eh)            E(eV)
   0   2.0000     -15.565540      -423.5599
   1   2.0000     -11.287717      -307.1544
   2   2.0000     -11.259992      -306.4000
   3   2.0000     -11.250719      -306.1476
   4   2.0000     -11.235586      -305.7358
   5   2.0000     -11.229031      -305.5575
   6   2.0000     -11.218525      -305.2716
   7   2.0000     -11.216020      -305.2034
   8   2.0000      -1.282250       -34.8918
   9   2.0000      -1.066256       -29.0143
  10   2.0000      -1.018826       -27.7237
  11   2.0000      -0.989268       -26.9193
  12   2.0000      -0.888850       -24.1869
  13   2.0000      -0.843760       -22.9599
  14   2.0000      -0.807176       -21.9644
  15   2.0000      -0.710029       -19.3209
  16   2.0000      -0.679178       -18.4814
  17   2.0000      -0.654668       -17.8144
  18   2.0000      -0.617258       -16.7965
  19   2.0000      -0.587846       -15.9961
  20   2.0000      -0.580758       -15.8032
  21   2.0000      -0.568320       -15.4648
  22   2.0000      -0.532471       -14.4893
  23   2.0000      -0.510518       -13.8919
  24   2.0000      -0.503206       -13.6929
  25   2.0000      -0.472190       -12.8489
  26   2.0000      -0.460959       -12.5433
  27   2.0000      -0.395574       -10.7641
  28   2.0000      -0.383936       -10.4474
  29   2.0000      -0.356672        -9.7055
  30   0.0000       0.139551         3.7974
  31   0.0000       0.158234         4.3058
  32   0.0000       0.166622         4.5340
  33   0.0000       0.168016         4.5720
  34   0.0000       0.177284         4.8241

MULLIKEN ATOMIC CHARGES
-----------------------
   0 C :   -0.410697
   1 C :   -0.175144
   2 C :   -0.070079
   3 C :   -0.173668
   4 N :   -0.217284
   5 C :   -0.309162
   6 C :   -0.000337
   7 C :   -0.122746
   8 H :    0.126383
   9 H :    0.133541
  10 H :    0.147546
  11 H :    0.130200
  12 H :    0.108606
  13 H :    0.134514
  14 H :    0.114796
  15 H :    0.108108
  16 H :    0.139719
  17 H :    0.146389
  18 H :    0.189313
Sum of atomic charges:    0.0000000

LOEWDIN ATOMIC CHARGES
----------------------
   0 C :   -0.306358
   1 C :   -0.241931
   2 C :   -0.270936
   3 C :   -0.209075
   4 N :    0.121643
   5 C :   -0.327763
   6 C :   -0.061592
   7 C :   -0.091478
   8 H :    0.121064
   9 H :    0.121967
  10 H :    0.129065
  11 H :    0.149604
  12 H :    0.138187
  13 H :    0.129988
  14 H :    0.125858
  15 H :    0.104406
  16 H :    0.119107
  17 H :    0.121747
  18 H :    0.126495

  Mayer bond orders larger than 0.1
B(  0-C ,  1-C ) :   0.9176 B(  0-C ,  8-H ) :   0.9385 B(  0-C ,  9-H ) :   0.9375
B(  0-C , 10-H ) :   0.9335 B(  1-C ,  2-C ) :   0.9575 B(  1-C , 11-H ) :   0.9291
B(  1-C , 12-H ) :   0.9222 B(  2-C ,  3-C ) :   0.8942 B(  2-C ,  4-N ) :   0.7885
B(  2-C ,  6-C ) :   1.2043 B(  2-C ,  7-C ) :  -0.1509 B(  3-C ,  4-N ) :   0.9440
B(  3-C , 13-H ) :   0.9088 B(  3-C , 14-H ) :   0.9126 B(  4-N ,  5-C ) :   0.8830
B(  5-C , 15-H ) :   0.9261 B(  5-C , 16-H ) :   0.9383 B(  5-C , 17-H ) :   0.9337
B(  6-C ,  7-C ) :   2.5728 B(  7-C , 18-H ) :   0.8882

MP2 TOTAL ENERGY:     -327.261265341 Eh
FINAL SINGLE POINT ENERGY      -327.261265340913

DIPOLE MOMENT
-------------
                                X             Y             Z
Electronic contribution:      0.17063      -1.12388       6.77708
Nuclear contribution   :     -0.47289       0.96488      -7.34037
                        -----------------------------------------
Total Dipole Moment    :     -0.30225      -0.15901      -0.56328
                        -----------------------------------------
Magnitude (a.u.)       :      0.65873
Magnitude (Debye)      :      1.67436

                             ****ORCA TERMINATED NORMALLY****
TOTAL RUN TIME: 0 days 0 hours 14 minutes 23 seconds 321 msec
