                         Program Version 3.0.3 - RELEASE   -
|  1> ! RI-MP2 RIJK def2-TZVP def2-TZVP/C def2-TZVP/JK TIGHTSCF
|  2> % maxcore 2000
|  3> % mp2 density relaxed end
|  4> *xyz 0 1
|  5>  C       -0.6390678137     1.2779136405    -0.1690193353
|  6>  C       -0.0418947412    -0.1287412184    -0.0229731636
|  7>  C        0.5661974646    -0.6941157907    -1.3010100436
|  8>  C        1.7989909696     0.0546746719    -1.7968194745
|  9>  C        2.3769608469    -0.4817800568    -3.1206199211
| 10>  C        3.4284022364     0.3826768750    -3.6487448095
| 11>  N        4.2601717983     1.0753535598    -4.0539122057
| 12>  C        0.3913254676    -2.1498361906    -1.5506641444
| 13>  N       -0.3525111461    -1.1609420592    -2.3552727640
| 14>  H        0.1236893884     2.0270515213    -0.4000414235
| 15>  H       -1.3892534882     1.3110367212    -0.9663043605
| 16>  H       -1.1270596500     1.5848638746     0.7606579819
| 17>  H        0.7225693146    -0.1226702768     0.7648356490
| 18>  H       -0.8248821587    -0.8171784614     0.3191263505
| 19>  H        1.5388811835     1.1086222015    -1.9404959933
| 20>  H        2.5724197266     0.0280856125    -1.0203903605
| 21>  H        2.7972709304    -1.4843085804    -2.9883494563
| 22>  H        1.5711989591    -0.5661081685    -3.8568196146
| 23>  H        1.1287353102    -2.7248555026    -2.1029966067
| 24>  H       -0.1474227137    -2.7265185745    -0.8032019017
| 25>  H       -1.3171130245    -1.1012231784    -2.0382875725
| 26> *
| 27>
| 28>                          ****END OF INPUT****

CARTESIAN COORDINATES (ANGSTROEM)
---------------------------------
  C     -0.639068    1.277914   -0.169019
  C     -0.041895   -0.128741   -0.022973
  C      0.566197   -0.694116   -1.301010
  C      1.798991    0.054675   -1.796819
  C      2.376961   -0.481780   -3.120620
  C      3.428402    0.382677   -3.648745
  N      4.260172    1.075354   -4.053912
  C      0.391325   -2.149836   -1.550664
  N     -0.352511   -1.160942   -2.355273
  H      0.123689    2.027052   -0.400041
  H     -1.389253    1.311037   -0.966304
  H     -1.127060    1.584864    0.760658
  H      0.722569   -0.122670    0.764836
  H     -0.824882   -0.817178    0.319126
  H      1.538881    1.108622   -1.940496
  H      2.572420    0.028086   -1.020390
  H      2.797271   -1.484309   -2.988349
  H      1.571199   -0.566108   -3.856820
  H      1.128735   -2.724856   -2.102997
  H     -0.147423   -2.726519   -0.803202
  H     -1.317113   -1.101223   -2.038288

 Total Charge           Charge          ....    0
 Multiplicity           Mult            ....    1
 Number of Electrons    NEL             ....   68
 Basis Dimension        Dim             ....  351

ORBITAL ENERGIES
----------------

  NO   OCC          E(Eh)            E(eV)
   0   2.0000     -15.568977      -423.6534
   1   2.0000     -15.561100      -423.4391
   2   2.0000     -11.282608      -307.0154
   3   2.0000     -11.273762      -306.7747
   4   2.0000     -11.266804      -306.5853
   5   2.0000     -11.266552      -306.5785
   6   2.0000     -11.251523      -306.1695
   7   2.0000     -11.244420      -305.9762
   8   2.0000     -11.229697      -305.5756
   9   2.0000      -1.279128       -34.8068
  10   2.0000      -1.211614       -32.9697
  11   2.0000      -1.085151       -29.5285
  12   2.0000      -1.051370       -28.6092
  13   2.0000      -0.947619       -25.7860
  14   2.0000      -0.897550       -24.4236
  15   2.0000      -0.871384       -23.7116
  16   2.0000      -0.773978       -21.0610
  17   2.0000      -0.706276       -19.2188
  18   2.0000      -0.671225       -18.2650
  19   2.0000      -0.658759       -17.9257
  20   2.0000      -0.650910       -17.7122
  21   2.0000      -0.611292       -16.6341
  22   2.0000      -0.583926       -15.8894
  23   2.0000      -0.559107       -15.2141
  24   2.0000      -0.553040       -15.0490
  25   2.0000      -0.546523       -14.8716
  26   2.0000      -0.530547       -14.4369
  27   2.0000      -0.514401       -13.9976
  28   2.0000      -0.498730       -13.5711
  29   2.0000      -0.472996       -12.8709
  30   2.0000      -0.471270       -12.8239
  31   2.0000      -0.450098       -12.2478
  32   2.0000      -0.445103       -12.1119
  33   2.0000      -0.398255       -10.8371
  34   0.0000       0.120383         3.2758
  35   0.0000       0.136857         3.7241
  36   0.0000       0.149897         4.0789
  37   0.0000       0.154643         4.2081
  38   0.0000       0.177218         4.8223

MULLIKEN ATOMIC CHARGES
-----------------------
   0 C :   -0.416130
   1 C :   -0.203909
   2 C :    0.147266
   3 C :   -0.263970
   4 C :   -0.139215
   5 C :   -0.182211
   6 N :   -0.059263
   7 C :   -0.197639
   8 N :   -0.392683
   9 H :    0.137173
  10 H :    0.130668
  11 H :    0.141686
  12 H :    0.119665
  13 H :    0.112448
  14 H :    0.135876
  15 H :    0.131525
  16 H :    0.141040
  17 H :    0.186917
  18 H :    0.122483
  19 H :    0.130825
  20 H :    0.217451
Sum of atomic charges:   -0.0000000

LOEWDIN ATOMIC CHARGES
----------------------
   0 C :   -0.312149
   1 C :   -0.256407
   2 C :   -0.311693
   3 C :   -0.202488
   4 C :   -0.239322
   5 C :   -0.194862
   6 N :    0.050299
   7 C :   -0.243823
   8 N :    0.004298
   9 H :    0.121951
  10 H :    0.122687
  11 H :    0.124160
  12 H :    0.144933
  13 H :    0.142173
  14 H :    0.152407
  15 H :    0.150321
  16 H :    0.161317
  17 H :    0.172462
  18 H :    0.123732
  19 H :    0.123639
  20 H :    0.166363

  Mayer bond orders larger than 0.1
B(  0-C ,  1-C ) :   0.9162 B(  0-C ,  9-H ) :   0.9382 B(  0-C , 10-H ) :   0.9358
B(  0-C , 11-H ) :   0.9383 B(  1-C ,  2-C ) :   0.9371 B(  1-C , 12-H ) :   0.9265
B(  1-C , 13-H ) :   0.9261 B(  2-C ,  3-C ) :   0.8955 B(  2-C ,  7-C ) :   0.9348
B(  2-C ,  8-N ) :   0.8670 B(  3-C ,  4-C ) :   0.9411 B(  3-C , 14-H ) :   0.9318
B(  3-C , 15-H ) :   0.9224 B(  4-C ,  5-C ) :   0.9339 B(  4-C , 16-H ) :   0.9008
B(  4-C , 17-H ) :   0.9040 B(  5-C ,  6-N ) :   2.8951 B(  7-C ,  8-N ) :   0.9148
B(  7-C , 18-H ) :   0.9174 B(  7-C , 19-H ) :   0.9141 B(  8-N , 20-H ) :   0.8682

MP2 TOTAL ENERGY:     -382.592609467 Eh
FINAL SINGLE POINT ENERGY      -382.592609467184

DIPOLE MOMENT
-------------
                                X             Y             Z
Electronic contribution:      7.37507       0.03829      -7.29547
Nuclear contribution   :     -8.75174      -0.94535       8.68038
                        -----------------------------------------
Total Dipole Moment    :     -1.37667      -0.90705       1.38491
                        -----------------------------------------
Magnitude (a.u.)       :      2.15313
Magnitude (Debye)      :      5.47281

                             ****ORCA TERMINATED NORMALLY****
TOTAL RUN TIME: 0 days 0 hours 17 minutes 20 seconds 460 msec
