                         Program Version 3.0.3 - RELEASE   -
|  1> ! RI-MP2 RIJK def2-TZVP def2-TZVP/C def2-TZVP/JK TIGHTSCF
|  2> % maxcore 2000
|  3> % mp2 density relaxed end
|  4> *xyz 0 1
|  5>  C       -0.0090797705     1.5216623916     0.0015626906
|  6>  C        0.0585670043     0.0180539387     0.0246664176
|  7>  C       -0.8268865338    -0.8074895005     0.9338943036
|  8>  C        0.6688973742    -0.8348996542     1.1399099944
|  9>  N        1.3809898073    -1.8584299442     0.4133444936
| 10>  C        2.1820956876    -2.8470740447     0.9361658136
| 11>  O        2.7588200121    -3.6784878540     0.2752921598
| 12>  C        1.1331266814    -1.6473889675    -0.9484855426
| 13>  N        0.4241385660    -0.6229178580    -1.2275612478
| 14>  H        0.9399300702     1.9505854043    -0.3343281368
| 15>  H       -0.7915580750     1.8526320386    -0.6883892794
| 16>  H       -0.2371324637     1.9197276969     0.9945426308
| 17>  H       -1.3976552542    -0.2627992231     1.6781811700
| 18>  H       -1.3149611354    -1.6876430094     0.5286910095
| 19>  H        1.1372004702    -0.4559265534     2.0398988143
| 20>  H        2.2371801413    -2.7916234107     2.0393278332
| 21>  H        1.5416205279    -2.3491873502    -1.6633534544
| 22> *
| 23>
| 24>                          ****END OF INPUT****

CARTESIAN COORDINATES (ANGSTROEM)
---------------------------------
  C     -0.009080    1.521662    0.001563
  C      0.058567    0.018054    0.024666
  C     -0.826887   -0.807490    0.933894
  C      0.668897   -0.834900    1.139910
  N      1.380990   -1.858430    0.413344
  C      2.182096   -2.847074    0.936166
  O      2.758820   -3.678488    0.275292
  C      1.133127   -1.647389   -0.948486
  N      0.424139   -0.622918   -1.227561
  H      0.939930    1.950585   -0.334328
  H     -0.791558    1.852632   -0.688389
  H     -0.237132    1.919728    0.994543
  H     -1.397655   -0.262799    1.678181
  H     -1.314961   -1.687643    0.528691
  H      1.137200   -0.455927    2.039899
  H      2.237180   -2.791623    2.039328
  H      1.541621   -2.349187   -1.663353

 Total Charge           Charge          ....    0
 Multiplicity           Mult            ....    1
 Number of Electrons    NEL             ....   66
 Basis Dimension        Dim             ....  327

ORBITAL ENERGIES
----------------

  NO   OCC          E(Eh)            E(eV)
   0   2.0000     -20.547928      -559.1376
   1   2.0000     -15.621145      -425.0730
   2   2.0000     -15.561934      -423.4617
   3   2.0000     -11.373147      -309.4791
   4   2.0000     -11.322001      -308.0873
   5   2.0000     -11.291675      -307.2621
   6   2.0000     -11.284644      -307.0708
   7   2.0000     -11.245205      -305.9976
   8   2.0000     -11.229606      -305.5731
   9   2.0000      -1.411483       -38.4084
  10   2.0000      -1.340470       -36.4761
  11   2.0000      -1.200722       -32.6733
  12   2.0000      -1.131866       -30.7996
  13   2.0000      -0.987358       -26.8674
  14   2.0000      -0.908198       -24.7133
  15   2.0000      -0.882557       -24.0156
  16   2.0000      -0.814986       -22.1769
  17   2.0000      -0.760091       -20.6831
  18   2.0000      -0.731244       -19.8982
  19   2.0000      -0.666658       -18.1407
  20   2.0000      -0.663949       -18.0670
  21   2.0000      -0.643051       -17.4983
  22   2.0000      -0.604192       -16.4409
  23   2.0000      -0.594003       -16.1636
  24   2.0000      -0.580825       -15.8051
  25   2.0000      -0.559948       -15.2370
  26   2.0000      -0.539138       -14.6707
  27   2.0000      -0.515054       -14.0153
  28   2.0000      -0.491376       -13.3710
  29   2.0000      -0.475404       -12.9364
  30   2.0000      -0.440647       -11.9906
  31   2.0000      -0.393880       -10.7180
  32   2.0000      -0.357292        -9.7224
  33   0.0000       0.112052         3.0491
  34   0.0000       0.134932         3.6717
  35   0.0000       0.153857         4.1867
  36   0.0000       0.169479         4.6118
  37   0.0000       0.176795         4.8108

MULLIKEN ATOMIC CHARGES
-----------------------
   0 C :   -0.408186
   1 C :    0.152733
   2 C :   -0.248740
   3 C :   -0.136205
   4 N :   -0.057850
   5 C :    0.145410
   6 O :   -0.325737
   7 C :   -0.008654
   8 N :   -0.234165
   9 H :    0.137806
  10 H :    0.147609
  11 H :    0.120382
  12 H :    0.139942
  13 H :    0.149868
  14 H :    0.153953
  15 H :    0.097656
  16 H :    0.174180
Sum of atomic charges:    0.0000000

LOEWDIN ATOMIC CHARGES
----------------------
   0 C :   -0.263521
   1 C :   -0.284627
   2 C :   -0.181480
   3 C :   -0.187800
   4 N :    0.214580
   5 C :   -0.377213
   6 O :    0.090145
   7 C :   -0.234621
   8 N :    0.134859
   9 H :    0.130983
  10 H :    0.135226
  11 H :    0.128880
  12 H :    0.142780
  13 H :    0.142372
  14 H :    0.145681
  15 H :    0.117858
  16 H :    0.145897

  Mayer bond orders larger than 0.1
B(  0-C ,  1-C ) :   0.9144 B(  0-C ,  9-H ) :   0.9383 B(  0-C , 10-H ) :   0.9397
B(  0-C , 11-H ) :   0.9295 B(  1-C ,  2-C ) :   0.8425 B(  1-C ,  3-C ) :   0.8794
B(  1-C ,  8-N ) :   0.9469 B(  2-C ,  3-C ) :   0.8698 B(  2-C , 12-H ) :   0.9253
B(  2-C , 13-H ) :   0.9158 B(  3-C ,  4-N ) :   0.9238 B(  3-C , 14-H ) :   0.9056
B(  4-N ,  5-C ) :   1.0494 B(  4-N ,  7-C ) :   1.0222 B(  5-C ,  6-O ) :   1.9218
B(  5-C , 15-H ) :   0.9295 B(  7-C ,  8-N ) :   1.7962 B(  7-C , 16-H ) :   0.9123

MP2 TOTAL ENERGY:     -417.319162485 Eh
FINAL SINGLE POINT ENERGY      -417.319162485144

DIPOLE MOMENT
-------------
                                X             Y             Z
Electronic contribution:      4.10715      -6.55784      -1.82241
Nuclear contribution   :     -4.64285       7.36057       2.93260
                        -----------------------------------------
Total Dipole Moment    :     -0.53570       0.80273       1.11019
                        -----------------------------------------
Magnitude (a.u.)       :      1.47101
Magnitude (Debye)      :      3.73901

                             ****ORCA TERMINATED NORMALLY****
TOTAL RUN TIME: 0 days 0 hours 16 minutes 47 seconds 498 msec
