                         Program Version 3.0.3 - RELEASE   -
|  1> ! RI-MP2 RIJK def2-TZVP def2-TZVP/C def2-TZVP/JK TIGHTSCF
|  2> % maxcore 2000
|  3> % mp2 density relaxed end
|  4> *xyz 0 1
|  5>  C       -0.7661932051     0.2455845657    -0.2661600471
|  6>  O        0.0728223086     0.1217959853    -1.3988768877
|  7>  C        1.3645248994    -0.3463983234    -1.0934283866
|  8>  C        1.3889455099    -1.8290616424    -0.7891654418
|  9>  N        1.8260391642    -2.2986632364     0.2970649320
| 10>  O        0.9137145163    -2.5616219852    -1.8698732065
| 11>  C        0.0875577596    -3.6244947890    -1.6438474260
| 12>  O       -0.2271138332    -4.3755408162    -2.5104913125
| 13>  H       -0.9421356743    -0.7187467162     0.2322983737
| 14>  H       -0.3421985747     0.9401191626     0.4739739476
| 15>  H       -1.7205799548     0.6389121812    -0.6218744055
| 16>  H        1.9768718735    -0.1650970973    -1.9833773435
| 17>  H        1.8086194198     0.1783721954    -0.2380390019
| 18>  H        1.8358149019    -3.3195624785     0.3163125732
| 19>  H       -0.2559087210    -3.6742964355    -0.5964012273
| 20> *
| 21>
| 22>                          ****END OF INPUT****

CARTESIAN COORDINATES (ANGSTROEM)
---------------------------------
  C     -0.766193    0.245585   -0.266160
  O      0.072822    0.121796   -1.398877
  C      1.364525   -0.346398   -1.093428
  C      1.388946   -1.829062   -0.789165
  N      1.826039   -2.298663    0.297065
  O      0.913715   -2.561622   -1.869873
  C      0.087558   -3.624495   -1.643847
  O     -0.227114   -4.375541   -2.510491
  H     -0.942136   -0.718747    0.232298
  H     -0.342199    0.940119    0.473974
  H     -1.720580    0.638912   -0.621874
  H      1.976872   -0.165097   -1.983377
  H      1.808619    0.178372   -0.238039
  H      1.835815   -3.319562    0.316313
  H     -0.255909   -3.674296   -0.596401

 Total Charge           Charge          ....    0
 Multiplicity           Mult            ....    1
 Number of Electrons    NEL             ....   62
 Basis Dimension        Dim             ....  290

ORBITAL ENERGIES
----------------

  NO   OCC          E(Eh)            E(eV)
   0   2.0000     -20.641134      -561.6738
   1   2.0000     -20.580367      -560.0203
   2   2.0000     -20.577043      -559.9298
   3   2.0000     -15.582001      -424.0078
   4   2.0000     -11.408211      -310.4332
   5   2.0000     -11.372812      -309.4699
   6   2.0000     -11.307601      -307.6955
   7   2.0000     -11.287678      -307.1533
   8   2.0000      -1.497619       -40.7523
   9   2.0000      -1.411373       -38.4054
  10   2.0000      -1.395770       -37.9808
  11   2.0000      -1.237134       -33.6641
  12   2.0000      -1.025915       -27.9166
  13   2.0000      -0.938564       -25.5396
  14   2.0000      -0.890017       -24.2186
  15   2.0000      -0.820565       -22.3287
  16   2.0000      -0.764276       -20.7970
  17   2.0000      -0.706230       -19.2175
  18   2.0000      -0.698833       -19.0162
  19   2.0000      -0.674335       -18.3496
  20   2.0000      -0.666207       -18.1284
  21   2.0000      -0.643914       -17.5218
  22   2.0000      -0.620395       -16.8818
  23   2.0000      -0.584512       -15.9054
  24   2.0000      -0.558337       -15.1931
  25   2.0000      -0.525987       -14.3128
  26   2.0000      -0.506209       -13.7746
  27   2.0000      -0.487482       -13.2651
  28   2.0000      -0.476669       -12.9708
  29   2.0000      -0.454865       -12.3775
  30   2.0000      -0.445207       -12.1147
  31   0.0000       0.115044         3.1305
  32   0.0000       0.127922         3.4809
  33   0.0000       0.136866         3.7243
  34   0.0000       0.162759         4.4289
  35   0.0000       0.173498         4.7211

MULLIKEN ATOMIC CHARGES
-----------------------
   0 C :   -0.225311
   1 O :   -0.305368
   2 C :    0.029728
   3 C :    0.108142
   4 N :   -0.330970
   5 O :   -0.181162
   6 C :    0.167019
   7 O :   -0.240590
   8 H :    0.114631
   9 H :    0.124478
  10 H :    0.146563
  11 H :    0.141678
  12 H :    0.120954
  13 H :    0.227621
  14 H :    0.102584
Sum of atomic charges:    0.0000000

LOEWDIN ATOMIC CHARGES
----------------------
   0 C :   -0.347284
   1 O :    0.142690
   2 C :   -0.290529
   3 C :   -0.390217
   4 N :   -0.016497
   5 O :    0.291669
   6 C :   -0.422651
   7 O :    0.147950
   8 H :    0.101802
   9 H :    0.106320
  10 H :    0.116771
  11 H :    0.146430
  12 H :    0.137008
  13 H :    0.167628
  14 H :    0.108910

  Mayer bond orders larger than 0.1
B(  0-C ,  1-O ) :   0.9023 B(  0-C ,  8-H ) :   0.9299 B(  0-C ,  9-H ) :   0.9380
B(  0-C , 10-H ) :   0.9373 B(  1-O ,  2-C ) :   0.9548 B(  2-C ,  3-C ) :   0.8877
B(  2-C , 11-H ) :   0.9117 B(  2-C , 12-H ) :   0.9387 B(  3-C ,  4-N ) :   2.0126
B(  3-C ,  5-O ) :   0.9890 B(  4-N , 13-H ) :   0.8571 B(  5-O ,  6-C ) :   0.9963
B(  6-C ,  7-O ) :   2.0495 B(  6-C , 14-H ) :   0.9209

MP2 TOTAL ENERGY:     -436.255940286 Eh
FINAL SINGLE POINT ENERGY      -436.255940285754

DIPOLE MOMENT
-------------
                                X             Y             Z
Electronic contribution:      1.46826      -5.84777      -4.39264
Nuclear contribution   :     -1.43863       6.24370       5.34976
                        -----------------------------------------
Total Dipole Moment    :      0.02963       0.39593       0.95712
                        -----------------------------------------
Magnitude (a.u.)       :      1.03620
Magnitude (Debye)      :      2.63382

                             ****ORCA TERMINATED NORMALLY****
TOTAL RUN TIME: 0 days 0 hours 9 minutes 35 seconds 545 msec
