                         Program Version 3.0.3 - RELEASE   -
|  1> ! RI-MP2 RIJK def2-TZVP def2-TZVP/C def2-TZVP/JK TIGHTSCF
|  2> % maxcore 2000
|  3> % mp2 density relaxed end
|  4> *xyz 0 1
|  5>  N        0.7165509659     0.3922605227    -0.3671551566
|  6>  C       -0.3418414828     0.1646565650     0.4675237460
|  7>  O       -0.4541716542     0.6985441224     1.5541066587
|  8>  C       -1.3990027312    -0.8013208009    -0.0756494224
|  9>  C       -0.9073686768    -2.2509017758    -0.1406741084
| 10>  C       -0.7072486333    -2.9823562341     1.1807015030
| 11>  C       -1.8650008733    -3.3509944321     0.3020390475
| 12>  C       -0.0104212424    -2.5562969688    -1.2242427497
| 13>  C        0.7345479922    -2.7811815888    -2.1439812162
| 14>  H        1.4984658913     0.8949979084     0.0231919764
| 15>  H        0.8996622899    -0.2369049430    -1.1339863405
| 16>  H       -2.2466047475    -0.7348361761     0.6085991880
| 17>  H       -1.7322384442    -0.4817490771    -1.0689920631
| 18>  H        0.1247180206    -3.6725265481     1.2494259742
| 19>  H       -0.8970334410    -2.4040106708     2.0781435516
| 20>  H       -2.8617281033    -3.0412512731     0.5960931107
| 21>  H       -1.8212766309    -4.2910098024    -0.2348679252
| 22>  H        1.3822118012    -3.0091348875    -2.9542514841
| 23> *
| 24>
| 25>                          ****END OF INPUT****

CARTESIAN COORDINATES (ANGSTROEM)
---------------------------------
  N      0.716551    0.392261   -0.367155
  C     -0.341841    0.164657    0.467524
  O     -0.454172    0.698544    1.554107
  C     -1.399003   -0.801321   -0.075649
  C     -0.907369   -2.250902   -0.140674
  C     -0.707249   -2.982356    1.180702
  C     -1.865001   -3.350994    0.302039
  C     -0.010421   -2.556297   -1.224243
  C      0.734548   -2.781182   -2.143981
  H      1.498466    0.894998    0.023192
  H      0.899662   -0.236905   -1.133986
  H     -2.246605   -0.734836    0.608599
  H     -1.732238   -0.481749   -1.068992
  H      0.124718   -3.672527    1.249426
  H     -0.897033   -2.404011    2.078144
  H     -2.861728   -3.041251    0.596093
  H     -1.821277   -4.291010   -0.234868
  H      1.382212   -3.009135   -2.954251

 Total Charge           Charge          ....    0
 Multiplicity           Mult            ....    1
 Number of Electrons    NEL             ....   66
 Basis Dimension        Dim             ....  333

ORBITAL ENERGIES
----------------

  NO   OCC          E(Eh)            E(eV)
   0   2.0000     -20.516540      -558.2834
   1   2.0000     -15.575005      -423.8174
   2   2.0000     -11.348014      -308.7952
   3   2.0000     -11.280850      -306.9675
   4   2.0000     -11.251139      -306.1591
   5   2.0000     -11.250067      -306.1299
   6   2.0000     -11.249807      -306.1228
   7   2.0000     -11.246428      -306.0309
   8   2.0000     -11.236936      -305.7726
   9   2.0000      -1.379498       -37.5380
  10   2.0000      -1.207869       -32.8678
  11   2.0000      -1.181434       -32.1484
  12   2.0000      -1.040693       -28.3187
  13   2.0000      -1.009632       -27.4735
  14   2.0000      -0.862463       -23.4688
  15   2.0000      -0.844930       -22.9917
  16   2.0000      -0.792969       -21.5778
  17   2.0000      -0.732427       -19.9304
  18   2.0000      -0.714946       -19.4547
  19   2.0000      -0.687197       -18.6996
  20   2.0000      -0.669526       -18.2187
  21   2.0000      -0.649182       -17.6651
  22   2.0000      -0.596965       -16.2443
  23   2.0000      -0.578968       -15.7545
  24   2.0000      -0.560058       -15.2399
  25   2.0000      -0.535872       -14.5818
  26   2.0000      -0.529201       -14.4003
  27   2.0000      -0.490199       -13.3390
  28   2.0000      -0.463476       -12.6118
  29   2.0000      -0.422413       -11.4944
  30   2.0000      -0.414500       -11.2791
  31   2.0000      -0.397623       -10.8199
  32   2.0000      -0.370937       -10.0937
  33   0.0000       0.132774         3.6130
  34   0.0000       0.151177         4.1137
  35   0.0000       0.158587         4.3154
  36   0.0000       0.163731         4.4554
  37   0.0000       0.165034         4.4908

MULLIKEN ATOMIC CHARGES
-----------------------
   0 N :   -0.471524
   1 C :    0.237829
   2 O :   -0.346247
   3 C :   -0.194171
   4 C :   -0.085232
   5 C :   -0.261259
   6 C :   -0.259970
   7 C :   -0.063673
   8 C :   -0.129102
   9 H :    0.255326
  10 H :    0.269449
  11 H :    0.121943
  12 H :    0.149044
  13 H :    0.143266
  14 H :    0.156378
  15 H :    0.139525
  16 H :    0.143583
  17 H :    0.194835
Sum of atomic charges:   -0.0000000

LOEWDIN ATOMIC CHARGES
----------------------
   0 N :   -0.015488
   1 C :   -0.473135
   2 O :    0.081758
   3 C :   -0.171819
   4 C :   -0.235938
   5 C :   -0.176151
   6 C :   -0.179467
   7 C :   -0.079156
   8 C :   -0.103162
   9 H :    0.173195
  10 H :    0.175089
  11 H :    0.158656
  12 H :    0.155055
  13 H :    0.140204
  14 H :    0.144456
  15 H :    0.137196
  16 H :    0.140200
  17 H :    0.128507

  Mayer bond orders larger than 0.1
B(  0-N ,  1-C ) :   1.1582 B(  0-N ,  9-H ) :   0.8612 B(  0-N , 10-H ) :   0.8568
B(  1-C ,  2-O ) :   2.0001 B(  1-C ,  3-C ) :   0.9099 B(  3-C ,  4-C ) :   0.9159
B(  3-C , 11-H ) :   0.9037 B(  3-C , 12-H ) :   0.9124 B(  4-C ,  5-C ) :   0.8382
B(  4-C ,  6-C ) :   0.8444 B(  4-C ,  7-C ) :   1.2318 B(  4-C ,  8-C ) :  -0.1600
B(  5-C ,  6-C ) :   0.9235 B(  5-C , 13-H ) :   0.9283 B(  5-C , 14-H ) :   0.9196
B(  6-C , 15-H ) :   0.9205 B(  6-C , 16-H ) :   0.9274 B(  7-C ,  8-C ) :   2.5586
B(  8-C , 17-H ) :   0.8839

MP2 TOTAL ENERGY:     -401.241898299 Eh
FINAL SINGLE POINT ENERGY      -401.241898299446

DIPOLE MOMENT
-------------
                                X             Y             Z
Electronic contribution:      1.70568       3.06944      -0.21190
Nuclear contribution   :     -1.39423      -3.86663      -0.71232
                        -----------------------------------------
Total Dipole Moment    :      0.31145      -0.79719      -0.92422
                        -----------------------------------------
Magnitude (a.u.)       :      1.25964
Magnitude (Debye)      :      3.20176

                             ****ORCA TERMINATED NORMALLY****
TOTAL RUN TIME: 0 days 0 hours 19 minutes 39 seconds 968 msec
