                         Program Version 3.0.3 - RELEASE   -
|  1> ! RI-MP2 RIJK def2-TZVP def2-TZVP/C def2-TZVP/JK TIGHTSCF
|  2> % maxcore 2000
|  3> % mp2 density relaxed end
|  4> *xyz 0 1
|  5>  N        0.0954166720     1.3319810923     0.2230553733
|  6>  C        0.0535166363    -0.0242392585     0.0306350573
|  7>  N       -1.0200065125    -0.7680615871     0.0849688090
|  8>  O       -0.5775187060    -2.0718353597    -0.0842676107
|  9>  N        0.7730234102    -2.1227012216    -0.2682676520
| 10>  C        1.1722210747    -0.8891608094    -0.1898859405
| 11>  O        2.4467851457    -0.4570383858    -0.3338546883
| 12>  C        3.4755138912    -1.2913621504     0.0712625949
| 13>  O        4.6061137071    -0.9914746551    -0.1195814874
| 14>  H        0.8644986799     1.8043282676    -0.2281387272
| 15>  H       -0.7900400375     1.8053236592     0.1186399680
| 16>  H        3.0996106188    -2.1982941915     0.5663371736
| 17> *
| 18>
| 19>                          ****END OF INPUT****

CARTESIAN COORDINATES (ANGSTROEM)
---------------------------------
  N      0.095417    1.331981    0.223055
  C      0.053517   -0.024239    0.030635
  N     -1.020007   -0.768062    0.084969
  O     -0.577519   -2.071835   -0.084268
  N      0.773023   -2.122701   -0.268268
  C      1.172221   -0.889161   -0.189886
  O      2.446785   -0.457038   -0.333855
  C      3.475514   -1.291362    0.071263
  O      4.606114   -0.991475   -0.119581
  H      0.864499    1.804328   -0.228139
  H     -0.790040    1.805324    0.118640
  H      3.099611   -2.198294    0.566337

 Total Charge           Charge          ....    0
 Multiplicity           Mult            ....    1
 Number of Electrons    NEL             ....   66
 Basis Dimension        Dim             ....  297

ORBITAL ENERGIES
----------------

  NO   OCC          E(Eh)            E(eV)
   0   2.0000     -20.683425      -562.8246
   1   2.0000     -20.667421      -562.3891
   2   2.0000     -20.592935      -560.3622
   3   2.0000     -15.669925      -426.4003
   4   2.0000     -15.648889      -425.8279
   5   2.0000     -15.613189      -424.8565
   6   2.0000     -11.421346      -310.7906
   7   2.0000     -11.380193      -309.6708
   8   2.0000     -11.354247      -308.9648
   9   2.0000      -1.552373       -42.2422
  10   2.0000      -1.514216       -41.2039
  11   2.0000      -1.426437       -38.8153
  12   2.0000      -1.288786       -35.0696
  13   2.0000      -1.212031       -32.9810
  14   2.0000      -1.150886       -31.3172
  15   2.0000      -0.962976       -26.2039
  16   2.0000      -0.871929       -23.7264
  17   2.0000      -0.850695       -23.1486
  18   2.0000      -0.802791       -21.8451
  19   2.0000      -0.741127       -20.1671
  20   2.0000      -0.723427       -19.6854
  21   2.0000      -0.708755       -19.2862
  22   2.0000      -0.696223       -18.9452
  23   2.0000      -0.669710       -18.2237
  24   2.0000      -0.642666       -17.4878
  25   2.0000      -0.613106       -16.6835
  26   2.0000      -0.561386       -15.2761
  27   2.0000      -0.551057       -14.9950
  28   2.0000      -0.535017       -14.5585
  29   2.0000      -0.503028       -13.6881
  30   2.0000      -0.493815       -13.4374
  31   2.0000      -0.434718       -11.8293
  32   2.0000      -0.392467       -10.6796
  33   0.0000       0.081887         2.2283
  34   0.0000       0.113909         3.0996
  35   0.0000       0.124783         3.3955
  36   0.0000       0.170188         4.6311
  37   0.0000       0.175023         4.7626

MULLIKEN ATOMIC CHARGES
-----------------------
   0 N :   -0.510832
   1 C :    0.145865
   2 N :   -0.122403
   3 O :   -0.024804
   4 N :   -0.124101
   5 C :    0.219322
   6 O :   -0.237171
   7 C :    0.195533
   8 O :   -0.224342
   9 H :    0.274403
  10 H :    0.272009
  11 H :    0.136522
Sum of atomic charges:    0.0000000

LOEWDIN ATOMIC CHARGES
----------------------
   0 N :   -0.040233
   1 C :   -0.385974
   2 N :    0.032538
   3 O :    0.190496
   4 N :    0.026594
   5 C :   -0.390187
   6 O :    0.296711
   7 C :   -0.380789
   8 O :    0.164591
   9 H :    0.182211
  10 H :    0.181861
  11 H :    0.122181

  Mayer bond orders larger than 0.1
B(  0-N ,  1-C ) :   1.1049 B(  0-N ,  9-H ) :   0.8609 B(  0-N , 10-H ) :   0.8635
B(  1-C ,  2-N ) :   1.5783 B(  1-C ,  5-C ) :   1.1596 B(  2-N ,  3-O ) :   0.8943
B(  2-N ,  4-N ) :   0.1161 B(  3-O ,  4-N ) :   0.9401 B(  4-N ,  5-C ) :   1.5478
B(  5-C ,  6-O ) :   1.0287 B(  6-O ,  7-C ) :   0.9412 B(  7-C ,  8-O ) :   2.0648
B(  7-C , 11-H ) :   0.9142

MP2 TOTAL ENERGY:     -505.124619563 Eh
FINAL SINGLE POINT ENERGY      -505.124619563132

DIPOLE MOMENT
-------------
                                X             Y             Z
Electronic contribution:      0.27475      -2.56581      -0.59360
Nuclear contribution   :     -0.51703       3.56278       0.61338
                        -----------------------------------------
Total Dipole Moment    :     -0.24227       0.99697       0.01978
                        -----------------------------------------
Magnitude (a.u.)       :      1.02618
Magnitude (Debye)      :      2.60834

                             ****ORCA TERMINATED NORMALLY****
TOTAL RUN TIME: 0 days 0 hours 12 minutes 33 seconds 516 msec
