                         Program Version 3.0.3 - RELEASE   -
|  1> ! RI-MP2 RIJK def2-TZVP def2-TZVP/C def2-TZVP/JK TIGHTSCF
|  2> % maxcore 2000
|  3> % mp2 density relaxed end
|  4> *xyz 0 1
|  5>  O       -0.0810924679     1.4474028734    -0.1530965713
|  6>  C        0.0297452680     0.0719107147     0.0083261313
|  7>  C        0.2509171696    -0.5721026332     1.4295807340
|  8>  O        1.1318226279    -0.5196649539     2.2289642937
|  9>  C       -1.0590569541    -1.3503892346     1.2988705730
| 10>  O       -2.0427658311    -0.3140009474     1.1311889056
| 11>  C       -1.3024997736    -0.6920789242    -0.0240837093
| 12>  C       -1.9917187142    -1.2124623971    -1.1636205279
| 13>  N       -2.5159139352    -1.6213394809    -2.1090563749
| 14>  H        0.7681974925     1.8503747428     0.0589834690
| 15>  H        0.7548354404    -0.3932620106    -0.6807813566
| 16>  H       -1.3892800926    -2.3156174689     1.6630412336
| 17> *
| 18>
| 19>                          ****END OF INPUT****

CARTESIAN COORDINATES (ANGSTROEM)
---------------------------------
  O     -0.081092    1.447403   -0.153097
  C      0.029745    0.071911    0.008326
  C      0.250917   -0.572103    1.429581
  O      1.131823   -0.519665    2.228964
  C     -1.059057   -1.350389    1.298871
  O     -2.042766   -0.314001    1.131189
  C     -1.302500   -0.692079   -0.024084
  C     -1.991719   -1.212462   -1.163621
  N     -2.515914   -1.621339   -2.109056
  H      0.768197    1.850375    0.058983
  H      0.754835   -0.393262   -0.680781
  H     -1.389280   -2.315617    1.663041

 Total Charge           Charge          ....    0
 Multiplicity           Mult            ....    1
 Number of Electrons    NEL             ....   64
 Basis Dimension        Dim             ....  297

ORBITAL ENERGIES
----------------

  NO   OCC          E(Eh)            E(eV)
   0   2.0000     -20.643159      -561.7289
   1   2.0000     -20.607831      -560.7676
   2   2.0000     -20.604112      -560.6664
   3   2.0000     -15.608372      -424.7254
   4   2.0000     -11.384144      -309.7783
   5   2.0000     -11.378628      -309.6282
   6   2.0000     -11.356651      -309.0302
   7   2.0000     -11.354610      -308.9747
   8   2.0000     -11.306775      -307.6730
   9   2.0000      -1.497672       -40.7537
  10   2.0000      -1.444354       -39.3029
  11   2.0000      -1.416623       -38.5483
  12   2.0000      -1.249448       -33.9992
  13   2.0000      -1.123018       -30.5589
  14   2.0000      -0.988234       -26.8912
  15   2.0000      -0.941436       -25.6178
  16   2.0000      -0.806744       -21.9526
  17   2.0000      -0.782981       -21.3060
  18   2.0000      -0.757262       -20.6061
  19   2.0000      -0.714428       -19.4406
  20   2.0000      -0.678959       -18.4754
  21   2.0000      -0.652227       -17.7480
  22   2.0000      -0.638766       -17.3817
  23   2.0000      -0.610025       -16.5996
  24   2.0000      -0.590807       -16.0767
  25   2.0000      -0.566519       -15.4158
  26   2.0000      -0.556511       -15.1434
  27   2.0000      -0.541655       -14.7392
  28   2.0000      -0.523716       -14.2510
  29   2.0000      -0.495004       -13.4698
  30   2.0000      -0.456759       -12.4290
  31   2.0000      -0.426452       -11.6044
  32   0.0000       0.082354         2.2410
  33   0.0000       0.110367         3.0032
  34   0.0000       0.123835         3.3697
  35   0.0000       0.139021         3.7830
  36   0.0000       0.150287         4.0895

MULLIKEN ATOMIC CHARGES
-----------------------
   0 O :   -0.437199
   1 C :    0.103601
   2 C :    0.105398
   3 O :   -0.219041
   4 C :    0.036897
   5 O :   -0.267563
   6 C :    0.281421
   7 C :   -0.215774
   8 N :   -0.029963
   9 H :    0.339247
  10 H :    0.124764
  11 H :    0.178211
Sum of atomic charges:    0.0000000

LOEWDIN ATOMIC CHARGES
----------------------
   0 O :    0.022169
   1 C :   -0.261420
   2 C :   -0.271196
   3 O :    0.197196
   4 C :   -0.145737
   5 O :    0.254222
   6 C :   -0.255223
   7 C :   -0.137729
   8 N :    0.103516
   9 H :    0.193186
  10 H :    0.155135
  11 H :    0.145881

  Mayer bond orders larger than 0.1
B(  0-O ,  1-C ) :   1.1042 B(  0-O ,  9-H ) :   0.8281 B(  1-C ,  2-C ) :   0.8545
B(  1-C ,  4-C ) :  -0.1009 B(  1-C ,  6-C ) :   0.8766 B(  1-C , 10-H ) :   0.9136
B(  2-C ,  3-O ) :   2.0367 B(  2-C ,  4-C ) :   0.8460 B(  4-C ,  5-O ) :   0.8631
B(  4-C ,  6-C ) :   0.8657 B(  4-C , 11-H ) :   0.8911 B(  5-O ,  6-C ) :   0.9063
B(  6-C ,  7-C ) :   0.9261 B(  7-C ,  8-N ) :   2.8279

MP2 TOTAL ENERGY:     -471.829576375 Eh
FINAL SINGLE POINT ENERGY      -471.829576375088

DIPOLE MOMENT
-------------
                                X             Y             Z
Electronic contribution:     -1.40314      -0.68889       0.31783
Nuclear contribution   :      2.38452       0.54259       0.06408
                        -----------------------------------------
Total Dipole Moment    :      0.98138      -0.14629       0.38192
                        -----------------------------------------
Magnitude (a.u.)       :      1.06319
Magnitude (Debye)      :      2.70240

                             ****ORCA TERMINATED NORMALLY****
TOTAL RUN TIME: 0 days 0 hours 12 minutes 52 seconds 554 msec
