                         Program Version 3.0.3 - RELEASE   -
|  1> ! RI-MP2 RIJK def2-TZVP def2-TZVP/C def2-TZVP/JK TIGHTSCF
|  2> % maxcore 2000
|  3> % mp2 density relaxed end
|  4> *xyz 0 1
|  5>  C       -0.1579574738     1.3877661020    -0.7617525942
|  6>  N        0.2096421705     0.0332131054    -1.1253224782
|  7>  C        0.9230987283    -0.7622015882    -0.2980100196
|  8>  O        1.3331856569    -0.4684514021     0.8066806748
|  9>  C        1.2255378674    -2.1819498372    -0.8543621448
| 10>  O        1.8564071480    -2.9597171302    -0.1849097862
| 11>  C        0.7368013630    -2.6412534332    -2.2625604519
| 12>  N        1.1156043348    -3.9035223958    -2.5236940651
| 13>  O        0.0912680120    -1.9345920745    -3.0246719280
| 14>  H        0.2369103608     1.5893947997     0.2342857798
| 15>  H        0.2624142685     2.1103385579    -1.4696993125
| 16>  H       -1.2467813076     1.5074132385    -0.7493369306
| 17>  H       -0.0605746010    -0.3601980486    -2.0223331087
| 18>  H        1.6478883541    -4.4048426507    -1.8300876472
| 19>  H        0.8681216680    -4.3296152032    -3.4009761676
| 20> *
| 21>
| 22>                          ****END OF INPUT****

CARTESIAN COORDINATES (ANGSTROEM)
---------------------------------
  C     -0.157957    1.387766   -0.761753
  N      0.209642    0.033213   -1.125322
  C      0.923099   -0.762202   -0.298010
  O      1.333186   -0.468451    0.806681
  C      1.225538   -2.181950   -0.854362
  O      1.856407   -2.959717   -0.184910
  C      0.736801   -2.641253   -2.262560
  N      1.115604   -3.903522   -2.523694
  O      0.091268   -1.934592   -3.024672
  H      0.236910    1.589395    0.234286
  H      0.262414    2.110339   -1.469699
  H     -1.246781    1.507413   -0.749337
  H     -0.060575   -0.360198   -2.022333
  H      1.647888   -4.404843   -1.830088
  H      0.868122   -4.329615   -3.400976

 Total Charge           Charge          ....    0
 Multiplicity           Mult            ....    1
 Number of Electrons    NEL             ....   68
 Basis Dimension        Dim             ....  315

ORBITAL ENERGIES
----------------

  NO   OCC          E(Eh)            E(eV)
   0   2.0000     -20.609738      -560.8195
   1   2.0000     -20.567791      -559.6781
   2   2.0000     -20.531444      -558.6890
   3   2.0000     -15.616755      -424.9535
   4   2.0000     -15.593370      -424.3172
   5   2.0000     -11.399485      -310.1958
   6   2.0000     -11.379425      -309.6499
   7   2.0000     -11.370011      -309.3937
   8   2.0000     -11.264860      -306.5324
   9   2.0000      -1.456652       -39.6375
  10   2.0000      -1.422731       -38.7145
  11   2.0000      -1.391125       -37.8544
  12   2.0000      -1.251674       -34.0598
  13   2.0000      -1.242375       -33.8067
  14   2.0000      -1.000457       -27.2238
  15   2.0000      -0.933415       -25.3995
  16   2.0000      -0.849935       -23.1279
  17   2.0000      -0.803855       -21.8740
  18   2.0000      -0.774708       -21.0809
  19   2.0000      -0.714596       -19.4451
  20   2.0000      -0.712552       -19.3895
  21   2.0000      -0.663740       -18.0613
  22   2.0000      -0.646543       -17.5933
  23   2.0000      -0.638752       -17.3813
  24   2.0000      -0.619929       -16.8691
  25   2.0000      -0.616623       -16.7792
  26   2.0000      -0.570825       -15.5329
  27   2.0000      -0.564780       -15.3684
  28   2.0000      -0.534471       -14.5437
  29   2.0000      -0.528322       -14.3764
  30   2.0000      -0.471886       -12.8407
  31   2.0000      -0.452356       -12.3092
  32   2.0000      -0.423913       -11.5353
  33   2.0000      -0.397899       -10.8274
  34   0.0000       0.037587         1.0228
  35   0.0000       0.126478         3.4416
  36   0.0000       0.146229         3.9791
  37   0.0000       0.171723         4.6728
  38   0.0000       0.178418         4.8550

MULLIKEN ATOMIC CHARGES
-----------------------
   0 C :   -0.294390
   1 N :   -0.282624
   2 C :    0.187941
   3 O :   -0.337915
   4 C :    0.235233
   5 O :   -0.251847
   6 C :    0.270056
   7 N :   -0.436803
   8 O :   -0.386796
   9 H :    0.176942
  10 H :    0.141549
  11 H :    0.141558
  12 H :    0.276381
  13 H :    0.291695
  14 H :    0.269021
Sum of atomic charges:    0.0000000

LOEWDIN ATOMIC CHARGES
----------------------
   0 C :   -0.304805
   1 N :    0.106439
   2 C :   -0.458562
   3 O :    0.106666
   4 C :   -0.232640
   5 O :    0.202985
   6 C :   -0.452763
   7 N :    0.028070
   8 O :    0.073970
   9 H :    0.134283
  10 H :    0.118933
  11 H :    0.118933
  12 H :    0.190935
  13 H :    0.186869
  14 H :    0.180689

  Mayer bond orders larger than 0.1
B(  0-C ,  1-N ) :   0.8438 B(  0-C ,  9-H ) :   0.9273 B(  0-C , 10-H ) :   0.9348
B(  0-C , 11-H ) :   0.9348 B(  1-N ,  2-C ) :   1.2389 B(  1-N , 12-H ) :   0.8202
B(  2-C ,  3-O ) :   1.9450 B(  2-C ,  4-C ) :   0.8545 B(  4-C ,  5-O ) :   1.8913
B(  4-C ,  6-C ) :   0.8438 B(  6-C ,  7-N ) :   1.2740 B(  6-C ,  8-O ) :   1.7966
B(  7-N , 13-H ) :   0.8403 B(  7-N , 14-H ) :   0.8559

MP2 TOTAL ENERGY:     -490.381847226 Eh
FINAL SINGLE POINT ENERGY      -490.381847226437

DIPOLE MOMENT
-------------
                                X             Y             Z
Electronic contribution:      2.53985      -5.27850       0.89722
Nuclear contribution   :     -2.95280       4.74357      -2.21107
                        -----------------------------------------
Total Dipole Moment    :     -0.41294      -0.53493      -1.31385
                        -----------------------------------------
Magnitude (a.u.)       :      1.47745
Magnitude (Debye)      :      3.75539

                             ****ORCA TERMINATED NORMALLY****
TOTAL RUN TIME: 0 days 0 hours 12 minutes 50 seconds 697 msec
