                         Program Version 3.0.3 - RELEASE   -
|  1> ! RI-MP2 RIJK def2-TZVP def2-TZVP/C def2-TZVP/JK TIGHTSCF
|  2> % maxcore 2000
|  3> % mp2 density relaxed end
|  4> *xyz 0 1
|  5>  C        0.1878515844    -1.1901354325     0.0978446755
|  6>  C        0.0461584431     0.0017954945     0.0591970408
|  7>  C       -0.1504539787     1.4577056374     0.0056067021
|  8>  O       -0.7490704241     1.9649366306     1.1729548714
|  9>  C        0.3225168181     2.2080813779     2.0679853985
| 10>  C        1.4231513298     2.7351101338     1.1180413412
| 11>  O        1.1144541614     2.1203126070    -0.1269842855
| 12>  C        1.3995382346     4.2025371790     0.9830176332
| 13>  N        1.3931835898     5.3546967151     0.9024792370
| 14>  H        0.3116032713    -2.2452613884     0.1267572074
| 15>  H       -0.7831817356     1.7359504057    -0.8424518760
| 16>  H       -0.0040611033     2.9299795862     2.8158165574
| 17>  H        0.6588718990     1.2830209547     2.5533321804
| 18>  H        2.4241425301     2.4290806191     1.4383131664
| 19> *
| 20>
| 21>                          ****END OF INPUT****

CARTESIAN COORDINATES (ANGSTROEM)
---------------------------------
  C      0.187852   -1.190135    0.097845
  C      0.046158    0.001795    0.059197
  C     -0.150454    1.457706    0.005607
  O     -0.749070    1.964937    1.172955
  C      0.322517    2.208081    2.067985
  C      1.423151    2.735110    1.118041
  O      1.114454    2.120313   -0.126984
  C      1.399538    4.202537    0.983018
  N      1.393184    5.354697    0.902479
  H      0.311603   -2.245261    0.126757
  H     -0.783182    1.735950   -0.842452
  H     -0.004061    2.929980    2.815817
  H      0.658872    1.283021    2.553332
  H      2.424143    2.429081    1.438313

 Total Charge           Charge          ....    0
 Multiplicity           Mult            ....    1
 Number of Electrons    NEL             ....   64
 Basis Dimension        Dim             ....  309

ORBITAL ENERGIES
----------------

  NO   OCC          E(Eh)            E(eV)
   0   2.0000     -20.607568      -560.7604
   1   2.0000     -20.606573      -560.7334
   2   2.0000     -15.584891      -424.0864
   3   2.0000     -11.391273      -309.9723
   4   2.0000     -11.357639      -309.0571
   5   2.0000     -11.323893      -308.1388
   6   2.0000     -11.282262      -307.0060
   7   2.0000     -11.257141      -306.3224
   8   2.0000     -11.253030      -306.2105
   9   2.0000      -1.484576       -40.3974
  10   2.0000      -1.377248       -37.4768
  11   2.0000      -1.229759       -33.4634
  12   2.0000      -1.104244       -30.0480
  13   2.0000      -1.047675       -28.5087
  14   2.0000      -0.934173       -25.4201
  15   2.0000      -0.919174       -25.0120
  16   2.0000      -0.788417       -21.4539
  17   2.0000      -0.767925       -20.8963
  18   2.0000      -0.736163       -20.0320
  19   2.0000      -0.707010       -19.2387
  20   2.0000      -0.677271       -18.4295
  21   2.0000      -0.655784       -17.8448
  22   2.0000      -0.617911       -16.8142
  23   2.0000      -0.573454       -15.6045
  24   2.0000      -0.557545       -15.1716
  25   2.0000      -0.555130       -15.1059
  26   2.0000      -0.503827       -13.7098
  27   2.0000      -0.495169       -13.4742
  28   2.0000      -0.477135       -12.9835
  29   2.0000      -0.464639       -12.6435
  30   2.0000      -0.422515       -11.4972
  31   2.0000      -0.420415       -11.4401
  32   0.0000       0.122856         3.3431
  33   0.0000       0.136379         3.7111
  34   0.0000       0.144736         3.9385
  35   0.0000       0.152856         4.1594
  36   0.0000       0.160835         4.3765

MULLIKEN ATOMIC CHARGES
-----------------------
   0 C :   -0.116715
   1 C :   -0.101940
   2 C :    0.188690
   3 O :   -0.295905
   4 C :   -0.101166
   5 C :    0.209529
   6 O :   -0.303919
   7 C :   -0.214425
   8 N :   -0.048729
   9 H :    0.201441
  10 H :    0.145364
  11 H :    0.158988
  12 H :    0.131051
  13 H :    0.147736
Sum of atomic charges:   -0.0000000

LOEWDIN ATOMIC CHARGES
----------------------
   0 C :   -0.064128
   1 C :   -0.083845
   2 C :   -0.360675
   3 O :    0.207346
   4 C :   -0.259672
   5 C :   -0.295757
   6 O :    0.212137
   7 C :   -0.162429
   8 N :    0.077589
   9 H :    0.131657
  10 H :    0.156851
  11 H :    0.142807
  12 H :    0.132096
  13 H :    0.166023

  Mayer bond orders larger than 0.1
B(  0-C ,  1-C ) :   2.5836 B(  0-C ,  9-H ) :   0.8930 B(  1-C ,  2-C ) :   1.1625
B(  2-C ,  3-O ) :   0.9498 B(  2-C ,  6-O ) :   0.9075 B(  2-C , 10-H ) :   0.9161
B(  3-O ,  4-C ) :   0.9331 B(  4-C ,  5-C ) :   0.9049 B(  4-C , 11-H ) :   0.9182
B(  4-C , 12-H ) :   0.9269 B(  5-C ,  6-O ) :   0.9333 B(  5-C ,  7-C ) :   0.9139
B(  5-C , 13-H ) :   0.9036 B(  7-C ,  8-N ) :   2.8463

MP2 TOTAL ENERGY:     -435.918062759 Eh
FINAL SINGLE POINT ENERGY      -435.918062759051

DIPOLE MOMENT
-------------
                                X             Y             Z
Electronic contribution:      0.22432       2.55226      -1.77756
Nuclear contribution   :     -0.10387      -4.12310       2.37497
                        -----------------------------------------
Total Dipole Moment    :      0.12046      -1.57084       0.59740
                        -----------------------------------------
Magnitude (a.u.)       :      1.68492
Magnitude (Debye)      :      4.28272

                             ****ORCA TERMINATED NORMALLY****
TOTAL RUN TIME: 0 days 0 hours 13 minutes 1 seconds 391 msec
