                         Program Version 3.0.3 - RELEASE   -
|  1> ! RI-MP2 RIJK def2-TZVP def2-TZVP/C def2-TZVP/JK TIGHTSCF
|  2> % maxcore 2000
|  3> % mp2 density relaxed end
|  4> *xyz 0 1
|  5>  C       -0.0948570376     1.4868053235     0.0527741205
|  6>  C        0.0474510286     0.0044577188     0.0884033994
|  7>  O       -1.1571041303    -0.7936382425    -0.0337558265
|  8>  C       -0.6742691036    -1.6822470207     0.9363063137
|  9>  N       -1.2253904288    -2.6442943486     1.5098607538
| 10>  C        0.6464941187    -0.9939183816     1.0532478949
| 11>  C        1.2242584887    -0.8170348671    -0.3682457662
| 12>  C        1.1349125490    -1.8279478780    -1.3885263979
| 13>  N        1.0758210324    -2.6299383489    -2.2188236506
| 14>  H        0.8691532542     1.9676819159     0.2384843255
| 15>  H       -0.4565198649     1.8101106935    -0.9285023433
| 16>  H       -0.8079763010     1.8204706776     0.8116112742
| 17>  H       -2.1770092170    -2.7922864441     1.1704308893
| 18>  H        1.2613409798    -0.8894214411     1.9350249333
| 19>  H        2.1676486218    -0.2770917765    -0.3614771501
| 20> *
| 21>
| 22>                          ****END OF INPUT****

CARTESIAN COORDINATES (ANGSTROEM)
---------------------------------
  C     -0.094857    1.486805    0.052774
  C      0.047451    0.004458    0.088403
  O     -1.157104   -0.793638   -0.033756
  C     -0.674269   -1.682247    0.936306
  N     -1.225390   -2.644294    1.509861
  C      0.646494   -0.993918    1.053248
  C      1.224258   -0.817035   -0.368246
  C      1.134913   -1.827948   -1.388526
  N      1.075821   -2.629938   -2.218824
  H      0.869153    1.967682    0.238484
  H     -0.456520    1.810111   -0.928502
  H     -0.807976    1.820471    0.811611
  H     -2.177009   -2.792286    1.170431
  H      1.261341   -0.889421    1.935025
  H      2.167649   -0.277092   -0.361477

 Total Charge           Charge          ....    0
 Multiplicity           Mult            ....    1
 Number of Electrons    NEL             ....   64
 Basis Dimension        Dim             ....  315

ORBITAL ENERGIES
----------------

  NO   OCC          E(Eh)            E(eV)
   0   2.0000     -20.613555      -560.9233
   1   2.0000     -15.578890      -423.9232
   2   2.0000     -15.559487      -423.3952
   3   2.0000     -11.364111      -309.2332
   4   2.0000     -11.354048      -308.9593
   5   2.0000     -11.316286      -307.9318
   6   2.0000     -11.293501      -307.3118
   7   2.0000     -11.282802      -307.0206
   8   2.0000     -11.263484      -306.4950
   9   2.0000      -1.466181       -39.8968
  10   2.0000      -1.229974       -33.4693
  11   2.0000      -1.220509       -33.2117
  12   2.0000      -1.179368       -32.0922
  13   2.0000      -1.036108       -28.1939
  14   2.0000      -0.962216       -26.1832
  15   2.0000      -0.851247       -23.1636
  16   2.0000      -0.780364       -21.2348
  17   2.0000      -0.750154       -20.4127
  18   2.0000      -0.721891       -19.6437
  19   2.0000      -0.695363       -18.9218
  20   2.0000      -0.637030       -17.3345
  21   2.0000      -0.620328       -16.8800
  22   2.0000      -0.596232       -16.2243
  23   2.0000      -0.580901       -15.8071
  24   2.0000      -0.565155       -15.3786
  25   2.0000      -0.556955       -15.1555
  26   2.0000      -0.539693       -14.6858
  27   2.0000      -0.482317       -13.1245
  28   2.0000      -0.462643       -12.5892
  29   2.0000      -0.454888       -12.3781
  30   2.0000      -0.436977       -11.8907
  31   2.0000      -0.412962       -11.2373
  32   0.0000       0.108893         2.9631
  33   0.0000       0.131647         3.5823
  34   0.0000       0.148623         4.0442
  35   0.0000       0.161151         4.3851
  36   0.0000       0.166301         4.5253

MULLIKEN ATOMIC CHARGES
-----------------------
   0 C :   -0.393588
   1 C :    0.247829
   2 O :   -0.276391
   3 C :    0.126895
   4 N :   -0.341612
   5 C :   -0.101711
   6 C :   -0.091398
   7 C :   -0.159471
   8 N :   -0.045565
   9 H :    0.142171
  10 H :    0.160621
  11 H :    0.154049
  12 H :    0.242017
  13 H :    0.171503
  14 H :    0.164652
Sum of atomic charges:   -0.0000000

LOEWDIN ATOMIC CHARGES
----------------------
   0 C :   -0.253698
   1 C :   -0.244445
   2 O :    0.253445
   3 C :   -0.359483
   4 N :   -0.019032
   5 C :   -0.082704
   6 C :   -0.146693
   7 C :   -0.166110
   8 N :    0.079565
   9 H :    0.139708
  10 H :    0.142808
  11 H :    0.140270
  12 H :    0.180982
  13 H :    0.153765
  14 H :    0.181623

  Mayer bond orders larger than 0.1
B(  0-C ,  1-C ) :   0.8917 B(  0-C ,  9-H ) :   0.9274 B(  0-C , 10-H ) :   0.9322
B(  0-C , 11-H ) :   0.9276 B(  1-C ,  2-O ) :   0.9378 B(  1-C ,  5-C ) :   0.8152
B(  1-C ,  6-C ) :   0.8620 B(  2-O ,  3-C ) :   1.0144 B(  3-C ,  4-N ) :   2.0875
B(  3-C ,  5-C ) :   0.9636 B(  4-N , 12-H ) :   0.8405 B(  5-C ,  6-C ) :   0.8129
B(  5-C , 13-H ) :   0.8987 B(  6-C ,  7-C ) :   0.9746 B(  6-C , 14-H ) :   0.9043
B(  7-C ,  8-N ) :   2.8336

MP2 TOTAL ENERGY:     -416.081653838 Eh
FINAL SINGLE POINT ENERGY      -416.081653837618

DIPOLE MOMENT
-------------
                                X             Y             Z
Electronic contribution:     -0.05413      -5.63609      -1.99880
Nuclear contribution   :      0.42972       7.55941       2.82710
                        -----------------------------------------
Total Dipole Moment    :      0.37558       1.92332       0.82830
                        -----------------------------------------
Magnitude (a.u.)       :      2.12751
Magnitude (Debye)      :      5.40771

                             ****ORCA TERMINATED NORMALLY****
TOTAL RUN TIME: 0 days 0 hours 14 minutes 54 seconds 92 msec
