                         Program Version 3.0.3 - RELEASE   -
|  1> ! RI-MP2 RIJK def2-TZVP def2-TZVP/C def2-TZVP/JK TIGHTSCF
|  2> % maxcore 2000
|  3> % mp2 density relaxed end
|  4> *xyz 0 1
|  5>  C       -0.0603526530     1.5725609820     0.2242175029
|  6>  C        1.4708750034     1.3727496689     0.0319989775
|  7>  C        1.7461512812     0.4228971050     1.2198948103
|  8>  C        0.7340853127    -0.4561539614     1.1830939518
|  9>  C       -0.0622750957     0.0123407047    -0.0334969529
| 10>  C       -1.2184061990    -0.5892773289    -0.8178018242
| 11>  C       -0.9047891003    -0.0604404333    -2.2163820878
| 12>  C        0.3215108196     0.4686260952    -2.3292792330
| 13>  C        1.1015523789     0.2835457207    -1.0541860986
| 14>  H       -0.3954968848     1.9039629010     1.2092511817
| 15>  H       -0.5420133621     2.1460583196    -0.5705054635
| 16>  H        2.1655586123     2.1956365156    -0.1389613266
| 17>  H        2.5754473098     0.4901224550     1.9101898189
| 18>  H        0.5185601446    -1.2954023250     1.8292183518
| 19>  H       -1.2257986512    -1.6888430097    -0.8028504655
| 20>  H       -2.2017397619    -0.2613778455    -0.4592147295
| 21>  H       -1.6229687552    -0.1280162906    -3.0276992888
| 22>  H        0.7347265416     0.8683492642    -3.2493541740
| 23>  H        1.8644839191    -0.4963384875    -1.1624566803
| 24> *
| 25>
| 26>                          ****END OF INPUT****

CARTESIAN COORDINATES (ANGSTROEM)
---------------------------------
  C     -0.060353    1.572561    0.224218
  C      1.470875    1.372750    0.031999
  C      1.746151    0.422897    1.219895
  C      0.734085   -0.456154    1.183094
  C     -0.062275    0.012341   -0.033497
  C     -1.218406   -0.589277   -0.817802
  C     -0.904789   -0.060440   -2.216382
  C      0.321511    0.468626   -2.329279
  C      1.101552    0.283546   -1.054186
  H     -0.395497    1.903963    1.209251
  H     -0.542013    2.146058   -0.570505
  H      2.165559    2.195637   -0.138961
  H      2.575447    0.490122    1.910190
  H      0.518560   -1.295402    1.829218
  H     -1.225799   -1.688843   -0.802850
  H     -2.201740   -0.261378   -0.459215
  H     -1.622969   -0.128016   -3.027699
  H      0.734727    0.868349   -3.249354
  H      1.864484   -0.496338   -1.162457

 Total Charge           Charge          ....    0
 Multiplicity           Mult            ....    1
 Number of Electrons    NEL             ....   64
 Basis Dimension        Dim             ....  339

ORBITAL ENERGIES
----------------

  NO   OCC          E(Eh)            E(eV)
   0   2.0000     -11.237253      -305.7812
   1   2.0000     -11.237074      -305.7763
   2   2.0000     -11.228191      -305.5346
   3   2.0000     -11.227586      -305.5181
   4   2.0000     -11.227281      -305.5098
   5   2.0000     -11.224048      -305.4219
   6   2.0000     -11.222973      -305.3926
   7   2.0000     -11.220810      -305.3338
   8   2.0000     -11.217316      -305.2387
   9   2.0000      -1.204631       -32.7797
  10   2.0000      -1.087495       -29.5922
  11   2.0000      -0.978187       -26.6178
  12   2.0000      -0.957834       -26.0640
  13   2.0000      -0.893621       -24.3167
  14   2.0000      -0.863387       -23.4940
  15   2.0000      -0.753331       -20.4992
  16   2.0000      -0.720079       -19.5943
  17   2.0000      -0.702939       -19.1279
  18   2.0000      -0.675919       -18.3927
  19   2.0000      -0.633399       -17.2357
  20   2.0000      -0.618837       -16.8394
  21   2.0000      -0.576946       -15.6995
  22   2.0000      -0.560670       -15.2566
  23   2.0000      -0.538381       -14.6501
  24   2.0000      -0.510329       -13.8868
  25   2.0000      -0.480279       -13.0691
  26   2.0000      -0.464316       -12.6347
  27   2.0000      -0.461488       -12.5577
  28   2.0000      -0.447168       -12.1680
  29   2.0000      -0.407672       -11.0933
  30   2.0000      -0.347822        -9.4647
  31   2.0000      -0.322599        -8.7784
  32   0.0000       0.145346         3.9551
  33   0.0000       0.149486         4.0677
  34   0.0000       0.150782         4.1030
  35   0.0000       0.169253         4.6056
  36   0.0000       0.177860         4.8398

MULLIKEN ATOMIC CHARGES
-----------------------
   0 C :   -0.227199
   1 C :   -0.067404
   2 C :   -0.207066
   3 C :   -0.241734
   4 C :    0.114946
   5 C :   -0.138691
   6 C :   -0.195612
   7 C :   -0.198865
   8 C :   -0.061961
   9 H :    0.112546
  10 H :    0.125141
  11 H :    0.129012
  12 H :    0.130387
  13 H :    0.129579
  14 H :    0.117100
  15 H :    0.124378
  16 H :    0.124116
  17 H :    0.126615
  18 H :    0.104712
Sum of atomic charges:    0.0000000

LOEWDIN ATOMIC CHARGES
----------------------
   0 C :   -0.154949
   1 C :   -0.167965
   2 C :   -0.129122
   3 C :   -0.115122
   4 C :   -0.177359
   5 C :   -0.205459
   6 C :   -0.141978
   7 C :   -0.145168
   8 C :   -0.132303
   9 H :    0.127798
  10 H :    0.136889
  11 H :    0.129594
  12 H :    0.131833
  13 H :    0.134707
  14 H :    0.144348
  15 H :    0.142872
  16 H :    0.134084
  17 H :    0.136830
  18 H :    0.150471

  Mayer bond orders larger than 0.1
B(  0-C ,  1-C ) :   0.9312 B(  0-C ,  4-C ) :   0.9128 B(  0-C ,  9-H ) :   0.9218
B(  0-C , 10-H ) :   0.9072 B(  1-C ,  2-C ) :   0.9311 B(  1-C ,  8-C ) :   0.8848
B(  1-C , 11-H ) :   0.9045 B(  2-C ,  3-C ) :   1.7461 B(  2-C , 12-H ) :   0.9376
B(  3-C ,  4-C ) :   0.9327 B(  3-C , 13-H ) :   0.9383 B(  4-C ,  5-C ) :   0.9075
B(  4-C ,  8-C ) :   0.8624 B(  5-C ,  6-C ) :   0.9505 B(  5-C , 14-H ) :   0.9013
B(  5-C , 15-H ) :   0.9156 B(  6-C ,  7-C ) :   1.7660 B(  6-C , 16-H ) :   0.9294
B(  7-C ,  8-C ) :   0.9348 B(  7-C , 17-H ) :   0.9302 B(  8-C , 18-H ) :   0.9057

MP2 TOTAL ENERGY:     -348.066918550 Eh
FINAL SINGLE POINT ENERGY      -348.066918550143

DIPOLE MOMENT
-------------
                                X             Y             Z
Electronic contribution:      1.26368      -0.35394       0.11999
Nuclear contribution   :     -1.37750       0.31836      -0.21378
                        -----------------------------------------
Total Dipole Moment    :     -0.11382      -0.03557      -0.09379
                        -----------------------------------------
Magnitude (a.u.)       :      0.15171
Magnitude (Debye)      :      0.38562

                             ****ORCA TERMINATED NORMALLY****
TOTAL RUN TIME: 0 days 0 hours 19 minutes 4 seconds 220 msec
