                         Program Version 3.0.3 - RELEASE   -
|  1> ! RI-MP2 RIJK def2-TZVP def2-TZVP/C def2-TZVP/JK TIGHTSCF
|  2> % maxcore 2000
|  3> % mp2 density relaxed end
|  4> *xyz 0 1
|  5>  N       -0.4770891090    -1.0835573959    -0.7037202968
|  6>  C       -0.2971604854     0.0123955499    -0.3833162640
|  7>  C       -0.0673145788     1.4012808762     0.0233238271
|  8>  C       -0.4956625875     1.6865574198     1.4593852751
|  9>  C        0.4408124317     2.3266202397     2.1556216673
| 10>  C        1.6929334440     2.5539895842     1.3523690556
| 11>  O        2.7693339952     1.6463927314     1.6907940401
| 12>  C        2.4822121871     0.8226435878     0.5365387853
| 13>  C        1.4262651847     1.8225984131     0.0133447103
| 14>  H       -0.6406561241     2.0289163929    -0.6727048552
| 15>  H       -1.4727838723     1.3899356700     1.8218922781
| 16>  H        0.3453257064     2.6387564544     3.1890046532
| 17>  H        2.0403937095     3.5926889818     1.3453834377
| 18>  H        3.3669890123     0.6953998232    -0.0953310973
| 19>  H        2.0932974818    -0.1643285436     0.8130886652
| 20>  H        1.7085992646     2.3391606650    -0.9023611616
| 21> *
| 22>
| 23>                          ****END OF INPUT****

CARTESIAN COORDINATES (ANGSTROEM)
---------------------------------
  N     -0.477089   -1.083557   -0.703720
  C     -0.297160    0.012396   -0.383316
  C     -0.067315    1.401281    0.023324
  C     -0.495663    1.686557    1.459385
  C      0.440812    2.326620    2.155622
  C      1.692933    2.553990    1.352369
  O      2.769334    1.646393    1.690794
  C      2.482212    0.822644    0.536539
  C      1.426265    1.822598    0.013345
  H     -0.640656    2.028916   -0.672705
  H     -1.472784    1.389936    1.821892
  H      0.345326    2.638756    3.189005
  H      2.040394    3.592689    1.345383
  H      3.366989    0.695400   -0.095331
  H      2.093297   -0.164329    0.813089
  H      1.708599    2.339161   -0.902361

 Total Charge           Charge          ....    0
 Multiplicity           Mult            ....    1
 Number of Electrons    NEL             ....   64
 Basis Dimension        Dim             ....  321

ORBITAL ENERGIES
----------------

  NO   OCC          E(Eh)            E(eV)
   0   2.0000     -20.561060      -559.4949
   1   2.0000     -15.575375      -423.8275
   2   2.0000     -11.306323      -307.6607
   3   2.0000     -11.300762      -307.5094
   4   2.0000     -11.292912      -307.2958
   5   2.0000     -11.278649      -306.9076
   6   2.0000     -11.265293      -306.5442
   7   2.0000     -11.265257      -306.5432
   8   2.0000     -11.254019      -306.2374
   9   2.0000      -1.393018       -37.9060
  10   2.0000      -1.226689       -33.3799
  11   2.0000      -1.159329       -31.5469
  12   2.0000      -1.035650       -28.1815
  13   2.0000      -0.988859       -26.9082
  14   2.0000      -0.930518       -25.3207
  15   2.0000      -0.806641       -21.9498
  16   2.0000      -0.760074       -20.6827
  17   2.0000      -0.734461       -19.9857
  18   2.0000      -0.711894       -19.3716
  19   2.0000      -0.653667       -17.7872
  20   2.0000      -0.645195       -17.5566
  21   2.0000      -0.599266       -16.3069
  22   2.0000      -0.591525       -16.0962
  23   2.0000      -0.580455       -15.7950
  24   2.0000      -0.556587       -15.1455
  25   2.0000      -0.536317       -14.5939
  26   2.0000      -0.489936       -13.3318
  27   2.0000      -0.482117       -13.1191
  28   2.0000      -0.461016       -12.5449
  29   2.0000      -0.455828       -12.4037
  30   2.0000      -0.432050       -11.7567
  31   2.0000      -0.392057       -10.6684
  32   0.0000       0.113566         3.0903
  33   0.0000       0.128598         3.4993
  34   0.0000       0.157412         4.2834
  35   0.0000       0.160219         4.3598
  36   0.0000       0.165007         4.4901

MULLIKEN ATOMIC CHARGES
-----------------------
   0 N :   -0.050096
   1 C :   -0.210843
   2 C :    0.068669
   3 C :   -0.195474
   4 C :   -0.183259
   5 C :    0.138733
   6 O :   -0.328450
   7 C :   -0.053880
   8 C :   -0.109658
   9 H :    0.145931
  10 H :    0.152467
  11 H :    0.146917
  12 H :    0.109703
  13 H :    0.112691
  14 H :    0.118906
  15 H :    0.137645
Sum of atomic charges:   -0.0000000

LOEWDIN ATOMIC CHARGES
----------------------
   0 N :    0.064561
   1 C :   -0.169252
   2 C :   -0.200401
   3 C :   -0.100853
   4 C :   -0.119676
   5 C :   -0.236548
   6 O :    0.134415
   7 C :   -0.233481
   8 C :   -0.151660
   9 H :    0.181429
  10 H :    0.147044
  11 H :    0.145644
  12 H :    0.138027
  13 H :    0.122284
  14 H :    0.128908
  15 H :    0.149561

  Mayer bond orders larger than 0.1
B(  0-N ,  1-C ) :   2.8624 B(  1-C ,  2-C ) :   0.9027 B(  2-C ,  3-C ) :   0.9164
B(  2-C ,  8-C ) :   0.9074 B(  2-C ,  9-H ) :   0.8947 B(  3-C ,  4-C ) :   1.7706
B(  3-C , 10-H ) :   0.9162 B(  4-C ,  5-C ) :   0.9102 B(  4-C , 11-H ) :   0.9181
B(  5-C ,  6-O ) :   0.9484 B(  5-C ,  8-C ) :   0.9452 B(  5-C , 12-H ) :   0.9274
B(  6-O ,  7-C ) :   0.9432 B(  7-C ,  8-C ) :   0.9760 B(  7-C , 13-H ) :   0.9209
B(  7-C , 14-H ) :   0.8977 B(  8-C , 15-H ) :   0.9103

MP2 TOTAL ENERGY:     -400.051747659 Eh
FINAL SINGLE POINT ENERGY      -400.051747659299

DIPOLE MOMENT
-------------
                                X             Y             Z
Electronic contribution:     -1.34703      -2.08224      -0.58419
Nuclear contribution   :      1.18086       3.53097       0.57519
                        -----------------------------------------
Total Dipole Moment    :     -0.16617       1.44873      -0.00899
                        -----------------------------------------
Magnitude (a.u.)       :      1.45826
Magnitude (Debye)      :      3.70660

                             ****ORCA TERMINATED NORMALLY****
TOTAL RUN TIME: 0 days 0 hours 17 minutes 3 seconds 681 msec
