                         Program Version 3.0.3 - RELEASE   -
|  1> ! RI-MP2 RIJK def2-TZVP def2-TZVP/C def2-TZVP/JK TIGHTSCF
|  2> % maxcore 2000
|  3> % mp2 density relaxed end
|  4> *xyz 0 1
|  5>  C        0.3443338152     1.6197142359    -0.3048779106
|  6>  C       -0.0328960443     0.1898324016    -0.0039915937
|  7>  N        1.0201303942    -0.8252003643    -0.0452217848
|  8>  C        0.4291948366    -0.5178189975     1.2579102217
|  9>  C        1.2560214629     0.1704840037     2.2186562867
| 10>  N        1.8896736890     0.7376056992     3.0017246728
| 11>  C       -1.3905172617    -0.2721106397    -0.4548411201
| 12>  O       -1.6783177765    -1.4387778352    -0.5702327697
| 13>  H        1.2972004884     1.8754667877     0.1608679616
| 14>  H        0.4410998336     1.7691280468    -1.3848604898
| 15>  H       -0.4192006975     2.3087278069     0.0709506011
| 16>  H        0.6049610988    -1.6979798554    -0.3772963274
| 17>  H       -0.2632347793    -1.2361922639     1.6880809241
| 18>  H       -2.1181207493     0.5334025641    -0.6831581320
| 19> *
| 20>
| 21>                          ****END OF INPUT****

CARTESIAN COORDINATES (ANGSTROEM)
---------------------------------
  C      0.344334    1.619714   -0.304878
  C     -0.032896    0.189832   -0.003992
  N      1.020130   -0.825200   -0.045222
  C      0.429195   -0.517819    1.257910
  C      1.256021    0.170484    2.218656
  N      1.889674    0.737606    3.001725
  C     -1.390517   -0.272111   -0.454841
  O     -1.678318   -1.438778   -0.570233
  H      1.297200    1.875467    0.160868
  H      0.441100    1.769128   -1.384860
  H     -0.419201    2.308728    0.070951
  H      0.604961   -1.697980   -0.377296
  H     -0.263235   -1.236192    1.688081
  H     -2.118121    0.533403   -0.683158

 Total Charge           Charge          ....    0
 Multiplicity           Mult            ....    1
 Number of Electrons    NEL             ....   58
 Basis Dimension        Dim             ....  284

ORBITAL ENERGIES
----------------

  NO   OCC          E(Eh)            E(eV)
   0   2.0000     -20.592282      -560.3445
   1   2.0000     -15.607663      -424.7061
   2   2.0000     -15.585416      -424.1007
   3   2.0000     -11.367551      -309.3268
   4   2.0000     -11.334743      -308.4340
   5   2.0000     -11.319957      -308.0317
   6   2.0000     -11.286812      -307.1298
   7   2.0000     -11.254143      -306.2408
   8   2.0000      -1.434040       -39.0222
   9   2.0000      -1.322279       -35.9810
  10   2.0000      -1.227779       -33.4096
  11   2.0000      -1.049314       -28.5533
  12   2.0000      -0.977884       -26.6096
  13   2.0000      -0.928083       -25.2544
  14   2.0000      -0.809752       -22.0345
  15   2.0000      -0.765785       -20.8381
  16   2.0000      -0.715908       -19.4808
  17   2.0000      -0.689102       -18.7514
  18   2.0000      -0.624934       -17.0053
  19   2.0000      -0.612862       -16.6768
  20   2.0000      -0.587185       -15.9781
  21   2.0000      -0.573692       -15.6109
  22   2.0000      -0.566091       -15.4041
  23   2.0000      -0.554287       -15.0829
  24   2.0000      -0.519798       -14.1444
  25   2.0000      -0.488827       -13.3017
  26   2.0000      -0.472971       -12.8702
  27   2.0000      -0.455684       -12.3998
  28   2.0000      -0.424221       -11.5436
  29   0.0000       0.080616         2.1937
  30   0.0000       0.127206         3.4614
  31   0.0000       0.139846         3.8054
  32   0.0000       0.150655         4.0995
  33   0.0000       0.170593         4.6421

MULLIKEN ATOMIC CHARGES
-----------------------
   0 C :   -0.414395
   1 C :    0.144781
   2 N :   -0.354548
   3 C :    0.011161
   4 C :   -0.163627
   5 N :   -0.050623
   6 C :    0.118946
   7 O :   -0.280816
   8 H :    0.171770
   9 H :    0.148887
  10 H :    0.139274
  11 H :    0.245566
  12 H :    0.179127
  13 H :    0.104497
Sum of atomic charges:   -0.0000000

LOEWDIN ATOMIC CHARGES
----------------------
   0 C :   -0.253327
   1 C :   -0.300078
   2 N :    0.078290
   3 C :   -0.216618
   4 C :   -0.166736
   5 N :    0.080047
   6 C :   -0.252375
   7 O :    0.139546
   8 H :    0.143953
   9 H :    0.136352
  10 H :    0.135442
  11 H :    0.183362
  12 H :    0.167160
  13 H :    0.124981

  Mayer bond orders larger than 0.1
B(  0-C ,  1-C ) :   0.9177 B(  0-C ,  8-H ) :   0.9293 B(  0-C ,  9-H ) :   0.9322
B(  0-C , 10-H ) :   0.9265 B(  1-C ,  2-N ) :   0.8789 B(  1-C ,  3-C ) :   0.8524
B(  1-C ,  6-C ) :   0.8856 B(  2-N ,  3-C ) :   0.9638 B(  2-N , 11-H ) :   0.8489
B(  3-C ,  4-C ) :   0.9220 B(  3-C , 12-H ) :   0.8923 B(  4-C ,  5-N ) :   2.8310
B(  6-C ,  7-O ) :   1.9098 B(  6-C , 13-H ) :   0.9320

MP2 TOTAL ENERGY:     -378.082805855 Eh
FINAL SINGLE POINT ENERGY      -378.082805854870

DIPOLE MOMENT
-------------
                                X             Y             Z
Electronic contribution:      0.52178      -3.42641       2.97404
Nuclear contribution   :     -1.50216       3.63832      -3.78934
                        -----------------------------------------
Total Dipole Moment    :     -0.98038       0.21191      -0.81530
                        -----------------------------------------
Magnitude (a.u.)       :      1.29258
Magnitude (Debye)      :      3.28547

                             ****ORCA TERMINATED NORMALLY****
TOTAL RUN TIME: 0 days 0 hours 10 minutes 11 seconds 172 msec
