                         Program Version 3.0.3 - RELEASE   -
|  1> ! RI-MP2 RIJK def2-TZVP def2-TZVP/C def2-TZVP/JK TIGHTSCF
|  2> % maxcore 2000
|  3> % mp2 density relaxed end
|  4> *xyz 0 1
|  5>  C        0.1080839698     0.5294252270    -0.6157810704
|  6>  O       -0.4540335940    -0.1911219837     0.4645431900
|  7>  C        0.4791623705    -0.5269883038     1.4542223975
|  8>  C       -0.1455735406    -1.3777788964     2.5835455162
|  9>  C        0.8582469509    -2.5334417944     2.2943394498
| 10>  C        0.2878456178    -3.7754856117     1.5965454970
| 11>  C        0.1279347831    -3.3058674039     0.1408708634
| 12>  O        1.2094269877    -2.3992293799    -0.0844301396
| 13>  C        1.4688862869    -1.7069105630     1.1177092943
| 14>  H        0.8569519240    -0.0664207399    -1.1507042815
| 15>  H       -0.7099899442     0.7738821680    -1.2978935008
| 16>  H        0.5730448717     1.4667245094    -0.2710996989
| 17>  H        1.0078971687     0.3719947627     1.8095839512
| 18>  H       -0.0773372472    -0.9402884659     3.5816798255
| 19>  H       -1.1911249123    -1.6258493528     2.3816875206
| 20>  H        1.5274517224    -2.7788810547     3.1195861117
| 21>  H        1.0053619886    -4.6004817437     1.6493169876
| 22>  H       -0.6558243599    -4.1155274516     2.0328248334
| 23>  H        0.2142168915    -4.1121741104    -0.5924357159
| 24>  H       -0.8316288056    -2.7938378885    -0.0083025520
| 25>  H        2.5321406404    -1.4551111526     1.1415871109
| 26> *
| 27>
| 28>                          ****END OF INPUT****

CARTESIAN COORDINATES (ANGSTROEM)
---------------------------------
  C      0.108084    0.529425   -0.615781
  O     -0.454034   -0.191122    0.464543
  C      0.479162   -0.526988    1.454222
  C     -0.145574   -1.377779    2.583546
  C      0.858247   -2.533442    2.294339
  C      0.287846   -3.775486    1.596545
  C      0.127935   -3.305867    0.140871
  O      1.209427   -2.399229   -0.084430
  C      1.468886   -1.706911    1.117709
  H      0.856952   -0.066421   -1.150704
  H     -0.709990    0.773882   -1.297894
  H      0.573045    1.466725   -0.271100
  H      1.007897    0.371995    1.809584
  H     -0.077337   -0.940288    3.581680
  H     -1.191125   -1.625849    2.381688
  H      1.527452   -2.778881    3.119586
  H      1.005362   -4.600482    1.649317
  H     -0.655824   -4.115527    2.032825
  H      0.214217   -4.112174   -0.592436
  H     -0.831629   -2.793838   -0.008303
  H      2.532141   -1.455111    1.141587

 Total Charge           Charge          ....    0
 Multiplicity           Mult            ....    1
 Number of Electrons    NEL             ....   70
 Basis Dimension        Dim             ....  351

ORBITAL ENERGIES
----------------

  NO   OCC          E(Eh)            E(eV)
   0   2.0000     -20.551868      -559.2447
   1   2.0000     -20.548977      -559.1661
   2   2.0000     -11.273973      -306.7804
   3   2.0000     -11.270774      -306.6933
   4   2.0000     -11.266198      -306.5688
   5   2.0000     -11.261847      -306.4504
   6   2.0000     -11.228078      -305.5315
   7   2.0000     -11.222820      -305.3884
   8   2.0000     -11.219131      -305.2881
   9   2.0000      -1.384822       -37.6829
  10   2.0000      -1.362693       -37.0808
  11   2.0000      -1.113876       -30.3101
  12   2.0000      -1.023518       -27.8513
  13   2.0000      -0.942507       -25.6469
  14   2.0000      -0.898990       -24.4628
  15   2.0000      -0.856223       -23.2990
  16   2.0000      -0.795566       -21.6485
  17   2.0000      -0.742295       -20.1989
  18   2.0000      -0.705201       -19.1895
  19   2.0000      -0.667278       -18.1576
  20   2.0000      -0.649077       -17.6623
  21   2.0000      -0.637880       -17.3576
  22   2.0000      -0.616201       -16.7677
  23   2.0000      -0.591274       -16.0894
  24   2.0000      -0.569026       -15.4840
  25   2.0000      -0.557395       -15.1675
  26   2.0000      -0.540279       -14.7017
  27   2.0000      -0.512753       -13.9527
  28   2.0000      -0.487696       -13.2709
  29   2.0000      -0.475484       -12.9386
  30   2.0000      -0.470883       -12.8134
  31   2.0000      -0.455999       -12.4084
  32   2.0000      -0.437040       -11.8925
  33   2.0000      -0.422417       -11.4946
  34   2.0000      -0.378095       -10.2885
  35   0.0000       0.139925         3.8075
  36   0.0000       0.156470         4.2578
  37   0.0000       0.168295         4.5795
  38   0.0000       0.174787         4.7562
  39   0.0000       0.192506         5.2383

MULLIKEN ATOMIC CHARGES
-----------------------
   0 C :   -0.225214
   1 O :   -0.303437
   2 C :    0.005399
   3 C :   -0.227323
   4 C :   -0.049003
   5 C :   -0.291464
   6 C :   -0.048073
   7 O :   -0.333950
   8 C :    0.088071
   9 H :    0.137232
  10 H :    0.136387
  11 H :    0.106360
  12 H :    0.070654
  13 H :    0.125211
  14 H :    0.112138
  15 H :    0.113252
  16 H :    0.115901
  17 H :    0.122503
  18 H :    0.120159
  19 H :    0.110426
  20 H :    0.114770
Sum of atomic charges:    0.0000000

LOEWDIN ATOMIC CHARGES
----------------------
   0 C :   -0.350575
   1 O :    0.160983
   2 C :   -0.298209
   3 C :   -0.197539
   4 C :   -0.205521
   5 C :   -0.245587
   6 C :   -0.296399
   7 O :    0.175644
   8 C :   -0.258720
   9 H :    0.108027
  10 H :    0.112548
  11 H :    0.100995
  12 H :    0.127578
  13 H :    0.130610
  14 H :    0.139907
  15 H :    0.141513
  16 H :    0.138780
  17 H :    0.138765
  18 H :    0.124373
  19 H :    0.122008
  20 H :    0.130816

  Mayer bond orders larger than 0.1
B(  0-C ,  1-O ) :   0.8941 B(  0-C ,  9-H ) :   0.9285 B(  0-C , 10-H ) :   0.9433
B(  0-C , 11-H ) :   0.9318 B(  1-O ,  2-C ) :   1.0502 B(  2-C ,  3-C ) :   0.9178
B(  2-C ,  8-C ) :   0.9123 B(  2-C , 12-H ) :   0.9406 B(  3-C ,  4-C ) :   0.9304
B(  3-C , 13-H ) :   0.9185 B(  3-C , 14-H ) :   0.9009 B(  4-C ,  5-C ) :   0.8893
B(  4-C ,  8-C ) :   0.9022 B(  4-C , 15-H ) :   0.9143 B(  5-C ,  6-C ) :   0.9702
B(  5-C , 16-H ) :   0.9267 B(  5-C , 17-H ) :   0.9290 B(  6-C ,  7-O ) :   0.8967
B(  6-C , 18-H ) :   0.9302 B(  6-C , 19-H ) :   0.9195 B(  7-O ,  8-C ) :   0.9513
B(  8-C , 20-H ) :   0.9318

MP2 TOTAL ENERGY:     -423.503581262 Eh
FINAL SINGLE POINT ENERGY      -423.503581261512

DIPOLE MOMENT
-------------
                                X             Y             Z
Electronic contribution:      0.95497      -0.21420      -0.52704
Nuclear contribution   :     -0.81080       0.15940       0.93242
                        -----------------------------------------
Total Dipole Moment    :      0.14417      -0.05480       0.40538
                        -----------------------------------------
Magnitude (a.u.)       :      0.43373
Magnitude (Debye)      :      1.10246

                             ****ORCA TERMINATED NORMALLY****
TOTAL RUN TIME: 0 days 0 hours 30 minutes 21 seconds 305 msec
