                         Program Version 3.0.3 - RELEASE   -
|  1> ! RI-MP2 RIJK def2-TZVP def2-TZVP/C def2-TZVP/JK TIGHTSCF
|  2> % maxcore 2000
|  3> % mp2 density relaxed end
|  4> *xyz 0 1
|  5>  C        0.0776850951     1.4079177056    -0.0102307554
|  6>  N        0.0167446391    -0.0411301013     0.1024445863
|  7>  C       -1.2398221605    -0.6282659356     0.0512459546
|  8>  C       -2.5115437999    -0.0849577430     0.0781981015
|  9>  C       -3.3729299162    -1.2162241223     0.0830152181
| 10>  N       -4.7668636779    -1.1984938402     0.1695206240
| 11>  N       -2.7106876746    -2.3621185348     0.0481214865
| 12>  N       -1.3912657129    -1.9757601217     0.0170126709
| 13>  H        1.1214556927     1.7248256909     0.0478707380
| 14>  H       -0.3593057698     1.7961972487    -0.9431239158
| 15>  H       -0.4595120685     1.8590760532     0.8293199226
| 16>  H        0.6936026277    -0.5080272284    -0.4861600183
| 17>  H       -2.7825774852     0.9570614315     0.0857022835
| 18>  H       -5.1910465492    -0.4833697965    -0.4062459185
| 19>  H       -5.1561897856    -2.1054264985    -0.0564937506
| 20>  H       -0.6816206444    -2.6680447576     0.1787890024
| 21> *
| 22>
| 23>                          ****END OF INPUT****

CARTESIAN COORDINATES (ANGSTROEM)
---------------------------------
  C      0.077685    1.407918   -0.010231
  N      0.016745   -0.041130    0.102445
  C     -1.239822   -0.628266    0.051246
  C     -2.511544   -0.084958    0.078198
  C     -3.372930   -1.216224    0.083015
  N     -4.766864   -1.198494    0.169521
  N     -2.710688   -2.362119    0.048121
  N     -1.391266   -1.975760    0.017013
  H      1.121456    1.724826    0.047871
  H     -0.359306    1.796197   -0.943124
  H     -0.459512    1.859076    0.829320
  H      0.693603   -0.508027   -0.486160
  H     -2.782577    0.957061    0.085702
  H     -5.191047   -0.483370   -0.406246
  H     -5.156190   -2.105426   -0.056494
  H     -0.681621   -2.668045    0.178789

 Total Charge           Charge          ....    0
 Multiplicity           Mult            ....    1
 Number of Electrons    NEL             ....   60
 Basis Dimension        Dim             ....  296

ORBITAL ENERGIES
----------------

  NO   OCC          E(Eh)            E(eV)
   0   2.0000     -15.605829      -424.6562
   1   2.0000     -15.582448      -424.0200
   2   2.0000     -15.552700      -423.2105
   3   2.0000     -15.547907      -423.0801
   4   2.0000     -11.311103      -307.7908
   5   2.0000     -11.281907      -306.9963
   6   2.0000     -11.265683      -306.5548
   7   2.0000     -11.198497      -304.7266
   8   2.0000      -1.353365       -36.8269
   9   2.0000      -1.244303       -33.8592
  10   2.0000      -1.197681       -32.5905
  11   2.0000      -1.054424       -28.6923
  12   2.0000      -1.023921       -27.8623
  13   2.0000      -0.931384       -25.3442
  14   2.0000      -0.802970       -21.8499
  15   2.0000      -0.774633       -21.0788
  16   2.0000      -0.746841       -20.3226
  17   2.0000      -0.673962       -18.3394
  18   2.0000      -0.649073       -17.6622
  19   2.0000      -0.619091       -16.8463
  20   2.0000      -0.608233       -16.5509
  21   2.0000      -0.592512       -16.1231
  22   2.0000      -0.580962       -15.8088
  23   2.0000      -0.568209       -15.4617
  24   2.0000      -0.544386       -14.8135
  25   2.0000      -0.480932       -13.0868
  26   2.0000      -0.440227       -11.9792
  27   2.0000      -0.433810       -11.8046
  28   2.0000      -0.324551        -8.8315
  29   2.0000      -0.302581        -8.2336
  30   0.0000       0.127480         3.4689
  31   0.0000       0.144483         3.9316
  32   0.0000       0.154762         4.2113
  33   0.0000       0.166393         4.5278
  34   0.0000       0.187586         5.1045

MULLIKEN ATOMIC CHARGES
-----------------------
   0 C :   -0.299931
   1 N :   -0.360064
   2 C :    0.222658
   3 C :   -0.305208
   4 C :    0.160272
   5 N :   -0.525339
   6 N :   -0.251015
   7 N :   -0.170100
   8 H :    0.143816
   9 H :    0.131094
  10 H :    0.146713
  11 H :    0.227207
  12 H :    0.137373
  13 H :    0.244898
  14 H :    0.248200
  15 H :    0.249427
Sum of atomic charges:    0.0000000

LOEWDIN ATOMIC CHARGES
----------------------
   0 C :   -0.324621
   1 N :    0.027078
   2 C :   -0.325653
   3 C :   -0.199789
   4 C :   -0.394523
   5 N :   -0.091904
   6 N :    0.005174
   7 N :    0.117764
   8 H :    0.118909
   9 H :    0.107566
  10 H :    0.122698
  11 H :    0.181005
  12 H :    0.139452
  13 H :    0.165525
  14 H :    0.169280
  15 H :    0.182041

  Mayer bond orders larger than 0.1
B(  0-C ,  1-N ) :   0.9132 B(  0-C ,  8-H ) :   0.9352 B(  0-C ,  9-H ) :   0.9334
B(  0-C , 10-H ) :   0.9357 B(  1-N ,  2-C ) :   1.0592 B(  1-N , 11-H ) :   0.8752
B(  2-C ,  3-C ) :   1.4344 B(  2-C ,  7-N ) :   1.2014 B(  3-C ,  4-C ) :   1.2502
B(  3-C , 12-H ) :   0.9167 B(  4-C ,  5-N ) :   1.0245 B(  4-C ,  6-N ) :   1.6354
B(  5-N , 13-H ) :   0.8769 B(  5-N , 14-H ) :   0.8760 B(  6-N ,  7-N ) :   0.9928
B(  7-N , 15-H ) :   0.8686

MP2 TOTAL ENERGY:     -375.477434999 Eh
FINAL SINGLE POINT ENERGY      -375.477434998530

DIPOLE MOMENT
-------------
                                X             Y             Z
Electronic contribution:     -1.90453      -5.48261       0.43673
Nuclear contribution   :      2.80020       6.13226      -1.13134
                        -----------------------------------------
Total Dipole Moment    :      0.89566       0.64965      -0.69461
                        -----------------------------------------
Magnitude (a.u.)       :      1.30643
Magnitude (Debye)      :      3.32067

                             ****ORCA TERMINATED NORMALLY****
TOTAL RUN TIME: 0 days 0 hours 10 minutes 59 seconds 514 msec
