                         Program Version 3.0.3 - RELEASE   -
|  1> ! RI-MP2 RIJK def2-TZVP def2-TZVP/C def2-TZVP/JK TIGHTSCF
|  2> % maxcore 2000
|  3> % mp2 density relaxed end
|  4> *xyz 0 1
|  5>  C       -0.0775660482     1.5276257607     0.0081866886
|  6>  O        1.1426836877     0.7850171651    -0.0246877354
|  7>  C       -0.0898159683     0.0596320339     0.0047354781
|  8>  C       -0.3545459870    -0.7314062691     1.2421998465
|  9>  N       -1.5295780009    -1.6314326529     1.1836134487
| 10>  C       -0.1976247094    -2.2014662363     1.2793801147
| 11>  C        0.4165704344    -3.1851386768     0.2882768110
| 12>  O        0.9873027855    -3.9431568462     1.3812518588
| 13>  C        0.3931504608    -3.0843999338     2.3757008419
| 14>  H       -0.2734108586     2.0642004865     0.9361032406
| 15>  H       -0.3213982569     2.0720153966    -0.9028233454
| 16>  H       -0.3453857733    -0.4514999112    -0.9237696372
| 17>  H       -0.1568867161    -0.1966299187     2.1705823307
| 18>  H       -2.0083567956    -1.6614359437     2.0807675741
| 19>  H       -0.3113019569    -3.7685914402    -0.2887742234
| 20>  H        1.1883709889    -2.7882900805    -0.3819960541
| 21>  H        1.1442649987    -2.6196747082     3.0268852799
| 22>  H       -0.3437690746    -3.6158831051     2.9949512220
| 23> *
| 24>
| 25>                          ****END OF INPUT****

CARTESIAN COORDINATES (ANGSTROEM)
---------------------------------
  C     -0.077566    1.527626    0.008187
  O      1.142684    0.785017   -0.024688
  C     -0.089816    0.059632    0.004735
  C     -0.354546   -0.731406    1.242200
  N     -1.529578   -1.631433    1.183613
  C     -0.197625   -2.201466    1.279380
  C      0.416570   -3.185139    0.288277
  O      0.987303   -3.943157    1.381252
  C      0.393150   -3.084400    2.375701
  H     -0.273411    2.064200    0.936103
  H     -0.321398    2.072015   -0.902823
  H     -0.345386   -0.451500   -0.923770
  H     -0.156887   -0.196630    2.170582
  H     -2.008357   -1.661436    2.080768
  H     -0.311302   -3.768591   -0.288774
  H      1.188371   -2.788290   -0.381996
  H      1.144265   -2.619675    3.026885
  H     -0.343769   -3.615883    2.994951

 Total Charge           Charge          ....    0
 Multiplicity           Mult            ....    1
 Number of Electrons    NEL             ....   68
 Basis Dimension        Dim             ....  333

ORBITAL ENERGIES
----------------

  NO   OCC          E(Eh)            E(eV)
   0   2.0000     -20.574971      -559.8734
   1   2.0000     -20.555785      -559.3514
   2   2.0000     -15.575889      -423.8415
   3   2.0000     -11.296580      -307.3956
   4   2.0000     -11.289867      -307.2129
   5   2.0000     -11.289848      -307.2124
   6   2.0000     -11.283509      -307.0399
   7   2.0000     -11.280075      -306.9464
   8   2.0000     -11.278227      -306.8962
   9   2.0000      -1.418658       -38.6037
  10   2.0000      -1.386840       -37.7378
  11   2.0000      -1.279800       -34.8251
  12   2.0000      -0.977572       -26.6011
  13   2.0000      -0.972200       -26.4549
  14   2.0000      -0.946838       -25.7648
  15   2.0000      -0.907614       -24.6974
  16   2.0000      -0.823886       -22.4191
  17   2.0000      -0.768409       -20.9095
  18   2.0000      -0.719711       -19.5843
  19   2.0000      -0.691749       -18.8235
  20   2.0000      -0.676214       -18.4007
  21   2.0000      -0.667346       -18.1594
  22   2.0000      -0.614589       -16.7238
  23   2.0000      -0.589951       -16.0534
  24   2.0000      -0.572228       -15.5711
  25   2.0000      -0.553889       -15.0721
  26   2.0000      -0.542233       -14.7549
  27   2.0000      -0.511503       -13.9187
  28   2.0000      -0.493151       -13.4193
  29   2.0000      -0.472700       -12.8628
  30   2.0000      -0.454987       -12.3808
  31   2.0000      -0.439074       -11.9478
  32   2.0000      -0.430215       -11.7067
  33   2.0000      -0.389775       -10.6063
  34   0.0000       0.127685         3.4745
  35   0.0000       0.156579         4.2607
  36   0.0000       0.160992         4.3808
  37   0.0000       0.166880         4.5410
  38   0.0000       0.175911         4.7868

MULLIKEN ATOMIC CHARGES
-----------------------
   0 C :   -0.073694
   1 O :   -0.331471
   2 C :    0.004257
   3 C :   -0.041631
   4 N :   -0.384712
   5 C :    0.001564
   6 C :   -0.007925
   7 O :   -0.326266
   8 C :    0.004857
   9 H :    0.113918
  10 H :    0.121535
  11 H :    0.139153
  12 H :    0.137561
  13 H :    0.224685
  14 H :    0.102112
  15 H :    0.114106
  16 H :    0.107522
  17 H :    0.094430
Sum of atomic charges:   -0.0000000

LOEWDIN ATOMIC CHARGES
----------------------
   0 C :   -0.260143
   1 O :    0.147107
   2 C :   -0.273682
   3 C :   -0.221903
   4 N :    0.037211
   5 C :   -0.281619
   6 C :   -0.223986
   7 O :    0.117569
   8 C :   -0.237033
   9 H :    0.120288
  10 H :    0.120790
  11 H :    0.145446
  12 H :    0.148203
  13 H :    0.170681
  14 H :    0.123765
  15 H :    0.124338
  16 H :    0.122856
  17 H :    0.120111

  Mayer bond orders larger than 0.1
B(  0-C ,  1-O ) :   0.9059 B(  0-C ,  2-C ) :   0.9725 B(  0-C ,  9-H ) :   0.9130
B(  0-C , 10-H ) :   0.9185 B(  1-O ,  2-C ) :   0.8985 B(  2-C ,  3-C ) :   0.8811
B(  2-C , 11-H ) :   0.9246 B(  3-C ,  4-N ) :   0.9487 B(  3-C ,  5-C ) :   0.8867
B(  3-C , 12-H ) :   0.9159 B(  4-N ,  5-C ) :   0.9102 B(  4-N , 13-H ) :   0.8624
B(  5-C ,  6-C ) :   0.9682 B(  5-C ,  8-C ) :   0.9715 B(  6-C ,  7-O ) :   0.9556
B(  6-C , 14-H ) :   0.9023 B(  6-C , 15-H ) :   0.9141 B(  7-O ,  8-C ) :   0.9696
B(  8-C , 16-H ) :   0.9086 B(  8-C , 17-H ) :   0.9030

MP2 TOTAL ENERGY:     -438.275875771 Eh
FINAL SINGLE POINT ENERGY      -438.275875771020

DIPOLE MOMENT
-------------
                                X             Y             Z
Electronic contribution:      1.34884      -0.76885      -0.38415
Nuclear contribution   :     -2.13653       1.38640       0.89757
                        -----------------------------------------
Total Dipole Moment    :     -0.78769       0.61755       0.51342
                        -----------------------------------------
Magnitude (a.u.)       :      1.12491
Magnitude (Debye)      :      2.85929

                             ****ORCA TERMINATED NORMALLY****
TOTAL RUN TIME: 0 days 0 hours 15 minutes 6 seconds 517 msec
