                         Program Version 3.0.3 - RELEASE   -
|  1> ! RI-MP2 RIJK def2-TZVP def2-TZVP/C def2-TZVP/JK TIGHTSCF
|  2> % maxcore 2000
|  3> % mp2 density relaxed end
|  4> *xyz 0 1
|  5>  O       -0.0164951158    -0.0405613125    -0.2545924975
|  6>  C       -0.0143963976     1.1600171609    -0.0498576145
|  7>  N       -1.1673945115     1.8736217589     0.1901417752
|  8>  C       -1.2159579007     3.3229620354     0.0722116663
|  9>  C       -0.0259115972     3.9456670418     0.8309207683
| 10>  C        1.2533680023     3.2287995446     0.4358237567
| 11>  C        1.2360418654     1.9623935770     0.0185780323
| 12>  C        0.0468870241     5.3849209805     0.5979485472
| 13>  C        0.0989195953     6.5673028477     0.3916320868
| 14>  H       -2.0143940234     1.3523257777     0.0152381717
| 15>  H       -1.1721833211     3.6523321616    -0.9763821365
| 16>  H       -2.1564088039     3.6836898143     0.4952166654
| 17>  H       -0.1827188401     3.7754386645     1.9080199687
| 18>  H        2.1831796451     3.7803294285     0.5350422778
| 19>  H        2.1399365259     1.4230903907    -0.2394880090
| 20>  H        0.1480926732     7.6140027684     0.2178210611
| 21> *
| 22>
| 23>                          ****END OF INPUT****

CARTESIAN COORDINATES (ANGSTROEM)
---------------------------------
  O     -0.016495   -0.040561   -0.254592
  C     -0.014396    1.160017   -0.049858
  N     -1.167395    1.873622    0.190142
  C     -1.215958    3.322962    0.072212
  C     -0.025912    3.945667    0.830921
  C      1.253368    3.228800    0.435824
  C      1.236042    1.962394    0.018578
  C      0.046887    5.384921    0.597949
  C      0.098920    6.567303    0.391632
  H     -2.014394    1.352326    0.015238
  H     -1.172183    3.652332   -0.976382
  H     -2.156409    3.683690    0.495217
  H     -0.182719    3.775439    1.908020
  H      2.183180    3.780329    0.535042
  H      2.139937    1.423090   -0.239488
  H      0.148093    7.614003    0.217821

 Total Charge           Charge          ....    0
 Multiplicity           Mult            ....    1
 Number of Electrons    NEL             ....   64
 Basis Dimension        Dim             ....  321

ORBITAL ENERGIES
----------------

  NO   OCC          E(Eh)            E(eV)
   0   2.0000     -20.520695      -558.3965
   1   2.0000     -15.585435      -424.1012
   2   2.0000     -11.353012      -308.9312
   3   2.0000     -11.291243      -307.2503
   4   2.0000     -11.287877      -307.1587
   5   2.0000     -11.273475      -306.7669
   6   2.0000     -11.251521      -306.1695
   7   2.0000     -11.248664      -306.0917
   8   2.0000     -11.241576      -305.8988
   9   2.0000      -1.383503       -37.6470
  10   2.0000      -1.246749       -33.9258
  11   2.0000      -1.126663       -30.6581
  12   2.0000      -1.062042       -28.8996
  13   2.0000      -1.008279       -27.4367
  14   2.0000      -0.905089       -24.6287
  15   2.0000      -0.860877       -23.4257
  16   2.0000      -0.765836       -20.8395
  17   2.0000      -0.732548       -19.9337
  18   2.0000      -0.703857       -19.1529
  19   2.0000      -0.675101       -18.3704
  20   2.0000      -0.662461       -18.0265
  21   2.0000      -0.640981       -17.4420
  22   2.0000      -0.601657       -16.3719
  23   2.0000      -0.591536       -16.0965
  24   2.0000      -0.577034       -15.7019
  25   2.0000      -0.547076       -14.8867
  26   2.0000      -0.524019       -14.2593
  27   2.0000      -0.430160       -11.7052
  28   2.0000      -0.414402       -11.2764
  29   2.0000      -0.407518       -11.0891
  30   2.0000      -0.400082       -10.8868
  31   2.0000      -0.384238       -10.4556
  32   0.0000       0.093045         2.5319
  33   0.0000       0.128230         3.4893
  34   0.0000       0.150861         4.1051
  35   0.0000       0.155466         4.2305
  36   0.0000       0.165267         4.4971

MULLIKEN ATOMIC CHARGES
-----------------------
   0 O :   -0.340556
   1 C :    0.238893
   2 N :   -0.295021
   3 C :   -0.159331
   4 C :   -0.006449
   5 C :   -0.199127
   6 C :   -0.142163
   7 C :   -0.089030
   8 C :   -0.142939
   9 H :    0.238601
  10 H :    0.132337
  11 H :    0.141773
  12 H :    0.129723
  13 H :    0.146309
  14 H :    0.149516
  15 H :    0.197465
Sum of atomic charges:    0.0000000

LOEWDIN ATOMIC CHARGES
----------------------
   0 O :    0.091932
   1 C :   -0.442258
   2 N :    0.103852
   3 C :   -0.232372
   4 C :   -0.223499
   5 C :   -0.097115
   6 C :   -0.119523
   7 C :   -0.086248
   8 C :   -0.086245
   9 H :    0.189371
  10 H :    0.137937
  11 H :    0.141005
  12 H :    0.183594
  13 H :    0.153044
  14 H :    0.157229
  15 H :    0.129296

  Mayer bond orders larger than 0.1
B(  0-O ,  1-C ) :   1.9605 B(  1-C ,  2-N ) :   1.1493 B(  1-C ,  6-C ) :   0.9729
B(  2-N ,  3-C ) :   0.9056 B(  2-N ,  9-H ) :   0.8614 B(  3-C ,  4-C ) :   0.9239
B(  3-C , 10-H ) :   0.9385 B(  3-C , 11-H ) :   0.9218 B(  4-C ,  5-C ) :   0.8945
B(  4-C ,  7-C ) :   1.1185 B(  4-C , 12-H ) :   0.8820 B(  5-C ,  6-C ) :   1.7007
B(  5-C , 13-H ) :   0.9239 B(  6-C , 14-H ) :   0.9284 B(  7-C ,  8-C ) :   2.6062
B(  8-C , 15-H ) :   0.8871

MP2 TOTAL ENERGY:     -400.052258843 Eh
FINAL SINGLE POINT ENERGY      -400.052258843349

DIPOLE MOMENT
-------------
                                X             Y             Z
Electronic contribution:      0.60486      -2.83478      -0.14424
Nuclear contribution   :     -0.93529       4.24773       0.30087
                        -----------------------------------------
Total Dipole Moment    :     -0.33043       1.41295       0.15662
                        -----------------------------------------
Magnitude (a.u.)       :      1.45951
Magnitude (Debye)      :      3.70977

                             ****ORCA TERMINATED NORMALLY****
TOTAL RUN TIME: 0 days 0 hours 15 minutes 49 seconds 610 msec
