                         Program Version 3.0.3 - RELEASE   -
|  1> ! RI-MP2 RIJK def2-TZVP def2-TZVP/C def2-TZVP/JK TIGHTSCF
|  2> % maxcore 2000
|  3> % mp2 density relaxed end
|  4> *xyz 0 1
|  5>  O        0.1370143793     1.4161739903     0.0601494115
|  6>  C        0.0176679174     0.0387041297     0.0105398421
|  7>  C        0.2075021865    -0.7552455023     1.3317261496
|  8>  O       -0.7531609155    -0.0959635035     2.2181211107
|  9>  C       -1.7698572313    -0.7463103446     1.4628794395
| 10>  C       -0.8847389926    -1.7729180333     0.8659801365
| 11>  C       -1.3806387308    -0.6220570705    -0.0355570512
| 12>  C       -2.3239219989    -0.6664525554    -1.0955176966
| 13>  N       -3.0924253365    -0.7005291305    -1.9612102852
| 14>  H       -0.2819118776     1.6945122898     0.8864883639
| 15>  H        0.6493312012    -0.3437558056    -0.7936739279
| 16>  H        1.1730950801    -0.9422143138     1.7926169142
| 17>  H       -2.7898500835    -0.7568608426     1.8207683727
| 18>  H       -0.9367426078    -2.8430609876     0.7355486304
| 19> *
| 20>
| 21>                          ****END OF INPUT****

CARTESIAN COORDINATES (ANGSTROEM)
---------------------------------
  O      0.137014    1.416174    0.060149
  C      0.017668    0.038704    0.010540
  C      0.207502   -0.755246    1.331726
  O     -0.753161   -0.095964    2.218121
  C     -1.769857   -0.746310    1.462879
  C     -0.884739   -1.772918    0.865980
  C     -1.380639   -0.622057   -0.035557
  C     -2.323922   -0.666453   -1.095518
  N     -3.092425   -0.700529   -1.961210
  H     -0.281912    1.694512    0.886488
  H      0.649331   -0.343756   -0.793674
  H      1.173095   -0.942214    1.792617
  H     -2.789850   -0.756861    1.820768
  H     -0.936743   -2.843061    0.735549

 Total Charge           Charge          ....    0
 Multiplicity           Mult            ....    1
 Number of Electrons    NEL             ....   64
 Basis Dimension        Dim             ....  309

ORBITAL ENERGIES
----------------

  NO   OCC          E(Eh)            E(eV)
   0   2.0000     -20.598642      -560.5176
   1   2.0000     -20.579289      -559.9909
   2   2.0000     -15.580008      -423.9536
   3   2.0000     -11.340416      -308.5884
   4   2.0000     -11.332570      -308.3749
   5   2.0000     -11.326149      -308.2002
   6   2.0000     -11.302977      -307.5696
   7   2.0000     -11.290875      -307.2403
   8   2.0000     -11.285029      -307.0813
   9   2.0000      -1.454568       -39.5808
  10   2.0000      -1.390086       -37.8262
  11   2.0000      -1.230814       -33.4922
  12   2.0000      -1.190452       -32.3938
  13   2.0000      -1.014323       -27.6011
  14   2.0000      -0.953291       -25.9404
  15   2.0000      -0.865360       -23.5476
  16   2.0000      -0.801103       -21.7991
  17   2.0000      -0.787322       -21.4241
  18   2.0000      -0.719271       -19.5724
  19   2.0000      -0.690595       -18.7920
  20   2.0000      -0.656522       -17.8649
  21   2.0000      -0.630132       -17.1468
  22   2.0000      -0.601541       -16.3687
  23   2.0000      -0.578907       -15.7529
  24   2.0000      -0.568044       -15.4573
  25   2.0000      -0.556545       -15.1444
  26   2.0000      -0.521168       -14.1817
  27   2.0000      -0.505688       -13.7605
  28   2.0000      -0.487007       -13.2521
  29   2.0000      -0.460586       -12.5332
  30   2.0000      -0.421714       -11.4754
  31   2.0000      -0.405751       -11.0410
  32   0.0000       0.132727         3.6117
  33   0.0000       0.137795         3.7496
  34   0.0000       0.143618         3.9080
  35   0.0000       0.151624         4.1259
  36   0.0000       0.159648         4.3442

MULLIKEN ATOMIC CHARGES
-----------------------
   0 O :   -0.447007
   1 C :    0.128623
   2 C :    0.018093
   3 O :   -0.317261
   4 C :    0.024852
   5 C :   -0.159710
   6 C :    0.123853
   7 C :   -0.305169
   8 N :   -0.040170
   9 H :    0.335686
  10 H :    0.133156
  11 H :    0.153059
  12 H :    0.171784
  13 H :    0.180212
Sum of atomic charges:    0.0000000

LOEWDIN ATOMIC CHARGES
----------------------
   0 O :    0.021639
   1 C :   -0.280204
   2 C :   -0.172054
   3 O :    0.174397
   4 C :   -0.191455
   5 C :   -0.081023
   6 C :   -0.162958
   7 C :   -0.160962
   8 N :    0.076370
   9 H :    0.188191
  10 H :    0.158884
  11 H :    0.136261
  12 H :    0.147172
  13 H :    0.145741

  Mayer bond orders larger than 0.1
B(  0-O ,  1-C ) :   1.0315 B(  0-O ,  9-H ) :   0.8152 B(  1-C ,  2-C ) :   0.9376
B(  1-C ,  6-C ) :   0.8040 B(  1-C , 10-H ) :   0.9444 B(  2-C ,  3-O ) :   0.8828
B(  2-C ,  5-C ) :   0.9606 B(  2-C , 11-H ) :   0.9155 B(  3-O ,  4-C ) :   0.9487
B(  4-C ,  5-C ) :   0.9159 B(  4-C ,  6-C ) :   0.8126 B(  4-C , 12-H ) :   0.9132
B(  5-C ,  6-C ) :   0.7799 B(  5-C , 13-H ) :   0.8891 B(  6-C ,  7-C ) :   0.8796
B(  7-C ,  8-N ) :   2.8716

MP2 TOTAL ENERGY:     -435.909489324 Eh
FINAL SINGLE POINT ENERGY      -435.909489323556

DIPOLE MOMENT
-------------
                                X             Y             Z
Electronic contribution:     -2.08408       0.40537      -1.29973
Nuclear contribution   :      2.87697      -1.20304       2.50231
                        -----------------------------------------
Total Dipole Moment    :      0.79289      -0.79766       1.20258
                        -----------------------------------------
Magnitude (a.u.)       :      1.64655
Magnitude (Debye)      :      4.18520

                             ****ORCA TERMINATED NORMALLY****
TOTAL RUN TIME: 0 days 0 hours 14 minutes 35 seconds 731 msec
