                         Program Version 3.0.3 - RELEASE   -
|  1> ! RI-MP2 RIJK def2-TZVP def2-TZVP/C def2-TZVP/JK TIGHTSCF
|  2> % maxcore 2000
|  3> % mp2 density relaxed end
|  4> *xyz 0 1
|  5>  N        0.0621235468     1.4233420587     0.1447260037
|  6>  C        0.0252726457     0.0224799396     0.0211214549
|  7>  C       -1.0531536202    -0.8101873399    -0.0075406315
|  8>  O       -0.6444637861    -2.1149639288    -0.0357754907
|  9>  C        0.7102193478    -2.1026995717    -0.0370806945
| 10>  C        1.1862468094    -0.8305591067     0.0015583344
| 11>  C        2.6136483344    -0.3950224437     0.0449565881
| 12>  O        3.4396795291    -1.5459143765    -0.0163753740
| 13>  H        0.7151851364     1.8506095141    -0.5021515174
| 14>  H       -0.8476239313     1.8454751100     0.0056297502
| 15>  H       -2.1171904026    -0.6438889337     0.0021304027
| 16>  H        1.2018780126    -3.0593598782    -0.0639698385
| 17>  H        2.8279252012     0.2888885497    -0.7968939938
| 18>  H        2.7953464753     0.1833676495     0.9665848470
| 19>  H        4.3532036117    -1.2637471624     0.0811995795
| 20> *
| 21>
| 22>                          ****END OF INPUT****

CARTESIAN COORDINATES (ANGSTROEM)
---------------------------------
  N      0.062124    1.423342    0.144726
  C      0.025273    0.022480    0.021121
  C     -1.053154   -0.810187   -0.007541
  O     -0.644464   -2.114964   -0.035775
  C      0.710219   -2.102700   -0.037081
  C      1.186247   -0.830559    0.001558
  C      2.613648   -0.395022    0.044957
  O      3.439680   -1.545914   -0.016375
  H      0.715185    1.850610   -0.502152
  H     -0.847624    1.845475    0.005630
  H     -2.117190   -0.643889    0.002130
  H      1.201878   -3.059360   -0.063970
  H      2.827925    0.288889   -0.796894
  H      2.795346    0.183368    0.966585
  H      4.353204   -1.263747    0.081200

 Total Charge           Charge          ....    0
 Multiplicity           Mult            ....    1
 Number of Electrons    NEL             ....   60
 Basis Dimension        Dim             ....  290

ORBITAL ENERGIES
----------------

  NO   OCC          E(Eh)            E(eV)
   0   2.0000     -20.605570      -560.7061
   1   2.0000     -20.564461      -559.5874
   2   2.0000     -15.567223      -423.6057
   3   2.0000     -11.291561      -307.2590
   4   2.0000     -11.275746      -306.8286
   5   2.0000     -11.263915      -306.5067
   6   2.0000     -11.262447      -306.4668
   7   2.0000     -11.223511      -305.4073
   8   2.0000      -1.442509       -39.2527
   9   2.0000      -1.369588       -37.2684
  10   2.0000      -1.213183       -33.0124
  11   2.0000      -1.070755       -29.1367
  12   2.0000      -0.990163       -26.9437
  13   2.0000      -0.930526       -25.3209
  14   2.0000      -0.787489       -21.4287
  15   2.0000      -0.769381       -20.9359
  16   2.0000      -0.717712       -19.5299
  17   2.0000      -0.695816       -18.9341
  18   2.0000      -0.663144       -18.0451
  19   2.0000      -0.644261       -17.5312
  20   2.0000      -0.617457       -16.8019
  21   2.0000      -0.610886       -16.6230
  22   2.0000      -0.587486       -15.9863
  23   2.0000      -0.570204       -15.5160
  24   2.0000      -0.524835       -14.2815
  25   2.0000      -0.509547       -13.8655
  26   2.0000      -0.489340       -13.3156
  27   2.0000      -0.461412       -12.5557
  28   2.0000      -0.349721        -9.5164
  29   2.0000      -0.296882        -8.0786
  30   0.0000       0.122182         3.3247
  31   0.0000       0.137701         3.7470
  32   0.0000       0.157578         4.2879
  33   0.0000       0.168913         4.5964
  34   0.0000       0.196115         5.3366

MULLIKEN ATOMIC CHARGES
-----------------------
   0 N :   -0.525570
   1 C :    0.074690
   2 C :   -0.076830
   3 O :   -0.213963
   4 C :   -0.012251
   5 C :    0.010930
   6 C :   -0.112824
   7 O :   -0.467134
   8 H :    0.248573
   9 H :    0.240284
  10 H :    0.136191
  11 H :    0.156632
  12 H :    0.097249
  13 H :    0.126578
  14 H :    0.317445
Sum of atomic charges:    0.0000000

LOEWDIN ATOMIC CHARGES
----------------------
   0 N :   -0.095739
   1 C :   -0.264782
   2 C :   -0.251921
   3 O :    0.331071
   4 C :   -0.219535
   5 C :   -0.178654
   6 C :   -0.307181
   7 O :   -0.036123
   8 H :    0.166155
   9 H :    0.167302
  10 H :    0.128969
  11 H :    0.137623
  12 H :    0.120467
  13 H :    0.128055
  14 H :    0.174292

  Mayer bond orders larger than 0.1
B(  0-N ,  1-C ) :   0.9618 B(  0-N ,  8-H ) :   0.8746 B(  0-N ,  9-H ) :   0.8857
B(  1-C ,  2-C ) :   1.5348 B(  1-C ,  5-C ) :   1.1455 B(  2-C ,  3-O ) :   1.0117
B(  2-C , 10-H ) :   0.9488 B(  3-O ,  4-C ) :   1.0604 B(  4-C ,  5-C ) :   1.5322
B(  4-C , 11-H ) :   0.9268 B(  5-C ,  6-C ) :   0.8778 B(  5-C ,  7-O ) :  -0.1161
B(  6-C ,  7-O ) :   1.0522 B(  6-C , 12-H ) :   0.9356 B(  6-C , 13-H ) :   0.9361
B(  7-O , 14-H ) :   0.8477

MP2 TOTAL ENERGY:     -399.157181928 Eh
FINAL SINGLE POINT ENERGY      -399.157181928495

DIPOLE MOMENT
-------------
                                X             Y             Z
Electronic contribution:     -2.38806      -3.36962       0.03057
Nuclear contribution   :      2.79082       4.39189      -0.35610
                        -----------------------------------------
Total Dipole Moment    :      0.40276       1.02227      -0.32553
                        -----------------------------------------
Magnitude (a.u.)       :      1.14596
Magnitude (Debye)      :      2.91280

                             ****ORCA TERMINATED NORMALLY****
TOTAL RUN TIME: 0 days 0 hours 11 minutes 3 seconds 714 msec
