                         Program Version 3.0.3 - RELEASE   -
|  1> ! RI-MP2 RIJK def2-TZVP def2-TZVP/C def2-TZVP/JK TIGHTSCF
|  2> % maxcore 2000
|  3> % mp2 density relaxed end
|  4> *xyz 0 1
|  5>  C       -0.0381756589     1.5113300766     0.0603486505
|  6>  C        0.0256757771     0.0104359291     0.0011315907
|  7>  C       -0.0589912359    -0.6870337040    -1.1356152357
|  8>  C        0.0155273490    -2.1870376042    -1.1943323350
|  9>  O        0.4330666742    -2.7809100909     0.0210402377
| 10>  C       -0.2158507664    -2.2158338411     1.1429294977
| 11>  C        0.1468170271    -0.7480487119     1.2829389568
| 12>  C        1.0252869759    -0.3039985241     2.3803765240
| 13>  O       -0.3896672398    -0.1230056176     2.4626727589
| 14>  H        0.9062620658     1.9412779762     0.4165640783
| 15>  H       -0.2423668929     1.9314414113    -0.9273365462
| 16>  H       -0.8157782520     1.8399288177     0.7563837832
| 17>  H       -0.1941390696    -0.1758491217    -2.0861990338
| 18>  H       -0.9654737830    -2.5948736313    -1.5037957972
| 19>  H        0.7408188301    -2.5055811324    -1.9524242386
| 20>  H       -1.3114807292    -2.3035914020     1.0542358258
| 21>  H        0.1016971611    -2.7864829088     2.0191070501
| 22>  H        1.4444626906    -1.0487625938     3.0562904104
| 23>  H        1.6070152166     0.6107785429     2.2824459024
| 24> *
| 25>
| 26>                          ****END OF INPUT****

CARTESIAN COORDINATES (ANGSTROEM)
---------------------------------
  C     -0.038176    1.511330    0.060349
  C      0.025676    0.010436    0.001132
  C     -0.058991   -0.687034   -1.135615
  C      0.015527   -2.187038   -1.194332
  O      0.433067   -2.780910    0.021040
  C     -0.215851   -2.215834    1.142929
  C      0.146817   -0.748049    1.282939
  C      1.025287   -0.303999    2.380377
  O     -0.389667   -0.123006    2.462673
  H      0.906262    1.941278    0.416564
  H     -0.242367    1.931441   -0.927337
  H     -0.815778    1.839929    0.756384
  H     -0.194139   -0.175849   -2.086199
  H     -0.965474   -2.594874   -1.503796
  H      0.740819   -2.505581   -1.952424
  H     -1.311481   -2.303591    1.054236
  H      0.101697   -2.786483    2.019107
  H      1.444463   -1.048763    3.056290
  H      1.607015    0.610779    2.282446

 Total Charge           Charge          ....    0
 Multiplicity           Mult            ....    1
 Number of Electrons    NEL             ....   68
 Basis Dimension        Dim             ....  339

ORBITAL ENERGIES
----------------

  NO   OCC          E(Eh)            E(eV)
   0   2.0000     -20.572453      -559.8049
   1   2.0000     -20.562037      -559.5215
   2   2.0000     -11.295890      -307.3768
   3   2.0000     -11.285928      -307.1057
   4   2.0000     -11.284878      -307.0771
   5   2.0000     -11.281750      -306.9920
   6   2.0000     -11.244604      -305.9812
   7   2.0000     -11.233296      -305.6735
   8   2.0000     -11.224539      -305.4352
   9   2.0000      -1.417062       -38.5602
  10   2.0000      -1.383679       -37.6518
  11   2.0000      -1.102296       -29.9950
  12   2.0000      -1.020232       -27.7619
  13   2.0000      -0.968429       -26.3523
  14   2.0000      -0.914895       -24.8956
  15   2.0000      -0.861144       -23.4329
  16   2.0000      -0.845512       -23.0076
  17   2.0000      -0.724416       -19.7124
  18   2.0000      -0.695928       -18.9372
  19   2.0000      -0.680761       -18.5244
  20   2.0000      -0.657567       -17.8933
  21   2.0000      -0.624637       -16.9972
  22   2.0000      -0.610712       -16.6183
  23   2.0000      -0.574536       -15.6339
  24   2.0000      -0.571348       -15.5472
  25   2.0000      -0.564995       -15.3743
  26   2.0000      -0.542974       -14.7751
  27   2.0000      -0.538867       -14.6633
  28   2.0000      -0.510847       -13.9008
  29   2.0000      -0.494281       -13.4501
  30   2.0000      -0.467806       -12.7296
  31   2.0000      -0.441405       -12.0112
  32   2.0000      -0.416396       -11.3307
  33   2.0000      -0.345604        -9.4044
  34   0.0000       0.142271         3.8714
  35   0.0000       0.149409         4.0656
  36   0.0000       0.157408         4.2833
  37   0.0000       0.166639         4.5345
  38   0.0000       0.185391         5.0447

MULLIKEN ATOMIC CHARGES
-----------------------
   0 C :   -0.416538
   1 C :   -0.040131
   2 C :   -0.188545
   3 C :   -0.022292
   4 O :   -0.312214
   5 C :   -0.037391
   6 C :    0.182766
   7 C :   -0.085330
   8 O :   -0.335403
   9 H :    0.129933
  10 H :    0.134361
  11 H :    0.161866
  12 H :    0.123640
  13 H :    0.106342
  14 H :    0.131659
  15 H :    0.102870
  16 H :    0.127965
  17 H :    0.118443
  18 H :    0.118001
Sum of atomic charges:    0.0000000

LOEWDIN ATOMIC CHARGES
----------------------
   0 C :   -0.262010
   1 C :   -0.161882
   2 C :   -0.142636
   3 C :   -0.305648
   4 O :    0.164877
   5 C :   -0.263335
   6 C :   -0.288013
   7 C :   -0.235236
   8 O :    0.170795
   9 H :    0.130041
  10 H :    0.130009
  11 H :    0.137394
  12 H :    0.147078
  13 H :    0.128863
  14 H :    0.137543
  15 H :    0.131538
  16 H :    0.136714
  17 H :    0.122670
  18 H :    0.121238

  Mayer bond orders larger than 0.1
B(  0-C ,  1-C ) :   0.9077 B(  0-C ,  9-H ) :   0.9240 B(  0-C , 10-H ) :   0.9432
B(  0-C , 11-H ) :   0.9294 B(  1-C ,  2-C ) :   1.7641 B(  1-C ,  6-C ) :   0.9434
B(  2-C ,  3-C ) :   0.9297 B(  2-C , 12-H ) :   0.9084 B(  3-C ,  4-O ) :   0.9440
B(  3-C , 13-H ) :   0.9367 B(  3-C , 14-H ) :   0.9213 B(  4-O ,  5-C ) :   0.9296
B(  5-C ,  6-C ) :   0.9145 B(  5-C , 15-H ) :   0.9370 B(  5-C , 16-H ) :   0.9187
B(  6-C ,  7-C ) :   0.9554 B(  6-C ,  8-O ) :   0.8888 B(  7-C ,  8-O ) :   0.8771
B(  7-C , 17-H ) :   0.9100 B(  7-C , 18-H ) :   0.9097

MP2 TOTAL ENERGY:     -422.298851049 Eh
FINAL SINGLE POINT ENERGY      -422.298851049251

DIPOLE MOMENT
-------------
                                X             Y             Z
Electronic contribution:     -0.02448      -2.92815       2.08612
Nuclear contribution   :      0.23901       3.16884      -2.51323
                        -----------------------------------------
Total Dipole Moment    :      0.21453       0.24069      -0.42712
                        -----------------------------------------
Magnitude (a.u.)       :      0.53515
Magnitude (Debye)      :      1.36024

                             ****ORCA TERMINATED NORMALLY****
TOTAL RUN TIME: 0 days 0 hours 18 minutes 22 seconds 899 msec
