                         Program Version 3.0.3 - RELEASE   -
|  1> ! RI-MP2 RIJK def2-TZVP def2-TZVP/C def2-TZVP/JK TIGHTSCF
|  2> % maxcore 2000
|  3> % mp2 density relaxed end
|  4> *xyz 0 1
|  5>  C       -0.0952509705     1.5601379067     0.0326462703
|  6>  C        0.0561809727     0.0584867137    -0.0478625016
|  7>  C        0.7049970681    -0.6736502917    -1.1886173761
|  8>  C        1.6416077995     0.0931404348    -2.1258667280
|  9>  C        2.7786352558     0.5310942116    -1.2233739268
| 10>  C        3.8991388874     1.3521890858    -1.6704915203
| 11>  O        4.0196296321     1.7937827734    -2.7941657943
| 12>  C        2.6263463493     0.0600004560     0.0296719961
| 13>  C        1.3687096921    -0.6967937446     0.1959926858
| 14>  H        0.7982196442     2.0888085433    -0.3065059477
| 15>  H       -0.9351619345     1.8924411835    -0.5875579060
| 16>  H       -0.2977808820     1.8749602195     1.0618541498
| 17>  H       -0.7935468675    -0.4779795751     0.3690284951
| 18>  H        0.2083606744    -1.5579161654    -1.5709346354
| 19>  H        2.0125657170    -0.5416785985    -2.9385098016
| 20>  H        1.1573032729     0.9504947948    -2.6075420670
| 21>  H        4.6699082121     1.5472876891    -0.8904990649
| 22>  H        3.3346046555     0.2247116064     0.8357350440
| 23>  H        1.3421967714    -1.5569626130     0.8556856787
| 24> *
| 25>
| 26>                          ****END OF INPUT****

CARTESIAN COORDINATES (ANGSTROEM)
---------------------------------
  C     -0.095251    1.560138    0.032646
  C      0.056181    0.058487   -0.047863
  C      0.704997   -0.673650   -1.188617
  C      1.641608    0.093140   -2.125867
  C      2.778635    0.531094   -1.223374
  C      3.899139    1.352189   -1.670492
  O      4.019630    1.793783   -2.794166
  C      2.626346    0.060000    0.029672
  C      1.368710   -0.696794    0.195993
  H      0.798220    2.088809   -0.306506
  H     -0.935162    1.892441   -0.587558
  H     -0.297781    1.874960    1.061854
  H     -0.793547   -0.477980    0.369028
  H      0.208361   -1.557916   -1.570935
  H      2.012566   -0.541679   -2.938510
  H      1.157303    0.950495   -2.607542
  H      4.669908    1.547288   -0.890499
  H      3.334605    0.224712    0.835735
  H      1.342197   -1.556963    0.855686

 Total Charge           Charge          ....    0
 Multiplicity           Mult            ....    1
 Number of Electrons    NEL             ....   66
 Basis Dimension        Dim             ....  339

ORBITAL ENERGIES
----------------

  NO   OCC          E(Eh)            E(eV)
   0   2.0000     -20.545513      -559.0718
   1   2.0000     -11.325999      -308.1961
   2   2.0000     -11.261794      -306.4490
   3   2.0000     -11.247704      -306.0656
   4   2.0000     -11.244876      -305.9886
   5   2.0000     -11.241494      -305.8966
   6   2.0000     -11.238753      -305.8220
   7   2.0000     -11.234568      -305.7081
   8   2.0000     -11.222548      -305.3810
   9   2.0000      -1.381610       -37.5955
  10   2.0000      -1.198158       -32.6035
  11   2.0000      -1.074399       -29.2359
  12   2.0000      -0.977879       -26.6094
  13   2.0000      -0.972604       -26.4659
  14   2.0000      -0.886496       -24.1228
  15   2.0000      -0.780856       -21.2482
  16   2.0000      -0.771454       -20.9923
  17   2.0000      -0.732159       -19.9231
  18   2.0000      -0.703046       -19.1309
  19   2.0000      -0.659011       -17.9326
  20   2.0000      -0.638320       -17.3696
  21   2.0000      -0.589259       -16.0345
  22   2.0000      -0.582976       -15.8636
  23   2.0000      -0.570250       -15.5173
  24   2.0000      -0.552866       -15.0443
  25   2.0000      -0.532798       -14.4982
  26   2.0000      -0.525224       -14.2921
  27   2.0000      -0.522598       -14.2206
  28   2.0000      -0.490693       -13.3524
  29   2.0000      -0.444150       -12.0859
  30   2.0000      -0.422566       -11.4986
  31   2.0000      -0.407415       -11.0863
  32   2.0000      -0.344569        -9.3762
  33   0.0000       0.084400         2.2966
  34   0.0000       0.133209         3.6248
  35   0.0000       0.152796         4.1578
  36   0.0000       0.161971         4.4075
  37   0.0000       0.170649         4.6436

MULLIKEN ATOMIC CHARGES
-----------------------
   0 C :   -0.393370
   1 C :   -0.115672
   2 C :   -0.080116
   3 C :   -0.217664
   4 C :   -0.001861
   5 C :    0.022876
   6 O :   -0.285622
   7 C :   -0.186833
   8 C :   -0.047940
   9 H :    0.144844
  10 H :    0.135410
  11 H :    0.134391
  12 H :    0.120056
  13 H :    0.137350
  14 H :    0.136398
  15 H :    0.143618
  16 H :    0.074772
  17 H :    0.140139
  18 H :    0.139223
Sum of atomic charges:   -0.0000000

LOEWDIN ATOMIC CHARGES
----------------------
   0 C :   -0.288656
   1 C :   -0.202275
   2 C :   -0.157698
   3 C :   -0.180374
   4 C :   -0.170412
   5 C :   -0.283181
   6 O :    0.119706
   7 C :   -0.075110
   8 C :   -0.162405
   9 H :    0.131270
  10 H :    0.129102
  11 H :    0.127665
  12 H :    0.154475
  13 H :    0.144870
  14 H :    0.151114
  15 H :    0.153174
  16 H :    0.116160
  17 H :    0.146551
  18 H :    0.146023

  Mayer bond orders larger than 0.1
B(  0-C ,  1-C ) :   0.9257 B(  0-C ,  9-H ) :   0.9316 B(  0-C , 10-H ) :   0.9355
B(  0-C , 11-H ) :   0.9374 B(  1-C ,  2-C ) :   0.8827 B(  1-C ,  8-C ) :   0.8343
B(  1-C , 12-H ) :   0.9311 B(  2-C ,  3-C ) :   0.9420 B(  2-C ,  8-C ) :   0.8335
B(  2-C , 13-H ) :   0.9291 B(  3-C ,  4-C ) :   0.9632 B(  3-C , 14-H ) :   0.9097
B(  3-C , 15-H ) :   0.9039 B(  4-C ,  5-C ) :   0.8928 B(  4-C ,  6-O ) :  -0.1137
B(  4-C ,  7-C ) :   1.6408 B(  4-C , 16-H ) :  -0.1095 B(  5-C ,  6-O ) :   1.9832
B(  5-C , 16-H ) :   0.9854 B(  7-C ,  8-C ) :   0.9624 B(  7-C , 17-H ) :   0.9206
B(  8-C , 18-H ) :   0.9202

MP2 TOTAL ENERGY:     -385.221084390 Eh
FINAL SINGLE POINT ENERGY      -385.221084390345

DIPOLE MOMENT
-------------
                                X             Y             Z
Electronic contribution:      6.30192      -0.16904      -2.94646
Nuclear contribution   :     -6.98415      -0.46660       3.96428
                        -----------------------------------------
Total Dipole Moment    :     -0.68223      -0.63564       1.01782
                        -----------------------------------------
Magnitude (a.u.)       :      1.38037
Magnitude (Debye)      :      3.50863

                             ****ORCA TERMINATED NORMALLY****
TOTAL RUN TIME: 0 days 0 hours 20 minutes 0 seconds 626 msec
