                         Program Version 3.0.3 - RELEASE   -
|  1> ! RI-MP2 RIJK def2-TZVP def2-TZVP/C def2-TZVP/JK TIGHTSCF
|  2> % maxcore 2000
|  3> % mp2 density relaxed end
|  4> *xyz 0 1
|  5>  C        0.5074598203     1.1538827154    -0.3068931768
|  6>  O        0.5513643326    -0.2346906565    -0.0257350095
|  7>  C        0.5139572070    -0.5412774022     1.3448942502
|  8>  C        0.3276955287    -2.0776794319     1.4239640258
|  9>  O        1.1357326826    -2.7122041391     2.3935097331
| 10>  C        2.4839514366    -2.3347791727     2.3601742514
| 11>  C        3.1714661690    -1.8581179793     1.0897170130
| 12>  C        2.7633655819    -0.8819779642     2.1750025392
| 13>  O        1.6427439958    -0.0446034927     2.0337842375
| 14>  H        1.3698558069     1.6773190243     0.1200943085
| 15>  H        0.5185077171     1.2586068069    -1.3937174465
| 16>  H       -0.4129528161     1.6100972962     0.0876732659
| 17>  H       -0.3277488583    -0.0122893695     1.8142482228
| 18>  H       -0.7034912793    -2.3066978934     1.7008720737
| 19>  H        0.5087797965    -2.4908503211     0.4233129505
| 20>  H        3.0461447096    -2.9259668515     3.0736898216
| 21>  H        4.2278119747    -2.0838724403     0.9880080330
| 22>  H        2.6274447807    -1.8265382822     0.1547070594
| 23>  H        3.5209648538    -0.3683248660     2.7552884972
| 24> *
| 25>
| 26>                          ****END OF INPUT****

CARTESIAN COORDINATES (ANGSTROEM)
---------------------------------
  C      0.507460    1.153883   -0.306893
  O      0.551364   -0.234691   -0.025735
  C      0.513957   -0.541277    1.344894
  C      0.327696   -2.077679    1.423964
  O      1.135733   -2.712204    2.393510
  C      2.483951   -2.334779    2.360174
  C      3.171466   -1.858118    1.089717
  C      2.763366   -0.881978    2.175003
  O      1.642744   -0.044603    2.033784
  H      1.369856    1.677319    0.120094
  H      0.518508    1.258607   -1.393717
  H     -0.412953    1.610097    0.087673
  H     -0.327749   -0.012289    1.814248
  H     -0.703491   -2.306698    1.700872
  H      0.508780   -2.490850    0.423313
  H      3.046145   -2.925967    3.073690
  H      4.227812   -2.083872    0.988008
  H      2.627445   -1.826538    0.154707
  H      3.520965   -0.368325    2.755288

 Total Charge           Charge          ....    0
 Multiplicity           Mult            ....    1
 Number of Electrons    NEL             ....   70
 Basis Dimension        Dim             ....  339

ORBITAL ENERGIES
----------------

  NO   OCC          E(Eh)            E(eV)
   0   2.0000     -20.568369      -559.6938
   1   2.0000     -20.566387      -559.6398
   2   2.0000     -20.564823      -559.5973
   3   2.0000     -11.339574      -308.5655
   4   2.0000     -11.284708      -307.0725
   5   2.0000     -11.283956      -307.0521
   6   2.0000     -11.281488      -306.9849
   7   2.0000     -11.271930      -306.7248
   8   2.0000     -11.227571      -305.5177
   9   2.0000      -1.430136       -38.9160
  10   2.0000      -1.384922       -37.6856
  11   2.0000      -1.351134       -36.7662
  12   2.0000      -1.126462       -30.6526
  13   2.0000      -1.009625       -27.4733
  14   2.0000      -0.923669       -25.1343
  15   2.0000      -0.887154       -24.1407
  16   2.0000      -0.827239       -22.5103
  17   2.0000      -0.753554       -20.5052
  18   2.0000      -0.727560       -19.7979
  19   2.0000      -0.713069       -19.4036
  20   2.0000      -0.686993       -18.6940
  21   2.0000      -0.654263       -17.8034
  22   2.0000      -0.622122       -16.9288
  23   2.0000      -0.610958       -16.6250
  24   2.0000      -0.595780       -16.2120
  25   2.0000      -0.579515       -15.7694
  26   2.0000      -0.555911       -15.1271
  27   2.0000      -0.547966       -14.9109
  28   2.0000      -0.541781       -14.7426
  29   2.0000      -0.506725       -13.7887
  30   2.0000      -0.492684       -13.4066
  31   2.0000      -0.468504       -12.7486
  32   2.0000      -0.443811       -12.0767
  33   2.0000      -0.399239       -10.8638
  34   2.0000      -0.366913        -9.9842
  35   0.0000       0.149687         4.0732
  36   0.0000       0.160175         4.3586
  37   0.0000       0.171555         4.6683
  38   0.0000       0.176158         4.7935
  39   0.0000       0.194536         5.2936

MULLIKEN ATOMIC CHARGES
-----------------------
   0 C :   -0.229913
   1 O :   -0.308917
   2 C :    0.190727
   3 C :   -0.063979
   4 O :   -0.299604
   5 C :    0.043587
   6 C :   -0.319863
   7 C :    0.024827
   8 O :   -0.307454
   9 H :    0.138613
  10 H :    0.139496
  11 H :    0.111571
  12 H :    0.086014
  13 H :    0.129770
  14 H :    0.117202
  15 H :    0.126847
  16 H :    0.129551
  17 H :    0.164332
  18 H :    0.127193
Sum of atomic charges:   -0.0000000

LOEWDIN ATOMIC CHARGES
----------------------
   0 C :   -0.349327
   1 O :    0.152434
   2 C :   -0.405979
   3 C :   -0.290004
   4 O :    0.194500
   5 C :   -0.288552
   6 C :   -0.218667
   7 C :   -0.286305
   8 O :    0.214988
   9 H :    0.107577
  10 H :    0.113245
  11 H :    0.103532
  12 H :    0.130851
  13 H :    0.134698
  14 H :    0.128308
  15 H :    0.140686
  16 H :    0.136490
  17 H :    0.142214
  18 H :    0.139311

  Mayer bond orders larger than 0.1
B(  0-C ,  1-O ) :   0.8946 B(  0-C ,  9-H ) :   0.9361 B(  0-C , 10-H ) :   0.9380
B(  0-C , 11-H ) :   0.9358 B(  1-O ,  2-C ) :   0.9910 B(  2-C ,  3-C ) :   0.9145
B(  2-C ,  8-O ) :   0.9507 B(  2-C , 12-H ) :   0.9259 B(  3-C ,  4-O ) :   0.9266
B(  3-C , 13-H ) :   0.9229 B(  3-C , 14-H ) :   0.9349 B(  4-O ,  5-C ) :   0.9646
B(  5-C ,  6-C ) :   0.8602 B(  5-C ,  7-C ) :   0.8961 B(  5-C , 15-H ) :   0.9329
B(  6-C ,  7-C ) :   0.8555 B(  6-C , 16-H ) :   0.9095 B(  6-C , 17-H ) :   0.9076
B(  7-C ,  8-O ) :   0.9495 B(  7-C , 18-H ) :   0.9334

MP2 TOTAL ENERGY:     -459.378539790 Eh
FINAL SINGLE POINT ENERGY      -459.378539790439

DIPOLE MOMENT
-------------
                                X             Y             Z
Electronic contribution:      0.00836      -2.34081       3.41718
Nuclear contribution   :      0.13018       2.65016      -3.65747
                        -----------------------------------------
Total Dipole Moment    :      0.13854       0.30935      -0.24030
                        -----------------------------------------
Magnitude (a.u.)       :      0.41550
Magnitude (Debye)      :      1.05611

                             ****ORCA TERMINATED NORMALLY****
TOTAL RUN TIME: 0 days 0 hours 15 minutes 48 seconds 729 msec
