                         Program Version 3.0.3 - RELEASE   -
|  1> ! RI-MP2 RIJK def2-TZVP def2-TZVP/C def2-TZVP/JK TIGHTSCF
|  2> % maxcore 2000
|  3> % mp2 density relaxed end
|  4> *xyz 0 1
|  5>  N       -0.0094633478    -1.1773808548     0.1300575047
|  6>  C       -0.0325086601    -0.0200103347     0.0664986630
|  7>  C       -0.0142252155     1.4032824994    -0.0155656717
|  8>  C       -1.1601240384     2.1058609044     0.0597516155
|  9>  C       -1.1992745840     3.5767389116     0.0046057637
| 10>  C       -0.3388096762     4.3841496377     0.9789551885
| 11>  C        0.0609945274     4.2884023950    -0.4602174872
| 12>  C        1.2150871311     3.4224635974    -0.9285627565
| 13>  C        1.3329408192     2.0840778536    -0.1739856107
| 14>  H       -2.1024937570     1.5770924571     0.1643775080
| 15>  H       -2.1578657204     4.0104930407    -0.2569053822
| 16>  H       -0.7500843268     5.3212156937     1.3373521365
| 17>  H        0.2157511995     3.8261183456     1.7247317655
| 18>  H       -0.1027744411     5.1792745092    -1.0593201739
| 19>  H        1.0711696197     3.2130977387    -1.9956163096
| 20>  H        2.1608680923     3.9682294586    -0.8401168278
| 21>  H        1.7775900639     2.2449525811     0.8160694989
| 22>  H        2.0227798642     1.4212106958    -0.7041901948
| 23> *
| 24>
| 25>                          ****END OF INPUT****

CARTESIAN COORDINATES (ANGSTROEM)
---------------------------------
  N     -0.009463   -1.177381    0.130058
  C     -0.032509   -0.020010    0.066499
  C     -0.014225    1.403282   -0.015566
  C     -1.160124    2.105861    0.059752
  C     -1.199275    3.576739    0.004606
  C     -0.338810    4.384150    0.978955
  C      0.060995    4.288402   -0.460217
  C      1.215087    3.422464   -0.928563
  C      1.332941    2.084078   -0.173986
  H     -2.102494    1.577092    0.164378
  H     -2.157866    4.010493   -0.256905
  H     -0.750084    5.321216    1.337352
  H      0.215751    3.826118    1.724732
  H     -0.102774    5.179275   -1.059320
  H      1.071170    3.213098   -1.995616
  H      2.160868    3.968229   -0.840117
  H      1.777590    2.244953    0.816069
  H      2.022780    1.421211   -0.704190

 Total Charge           Charge          ....    0
 Multiplicity           Mult            ....    1
 Number of Electrons    NEL             ....   64
 Basis Dimension        Dim             ....  333

ORBITAL ENERGIES
----------------

  NO   OCC          E(Eh)            E(eV)
   0   2.0000     -15.561502      -423.4500
   1   2.0000     -11.271907      -306.7242
   2   2.0000     -11.270106      -306.6752
   3   2.0000     -11.266528      -306.5778
   4   2.0000     -11.254382      -306.2473
   5   2.0000     -11.253516      -306.2237
   6   2.0000     -11.250610      -306.1447
   7   2.0000     -11.248297      -306.0817
   8   2.0000     -11.244064      -305.9665
   9   2.0000      -1.213222       -33.0134
  10   2.0000      -1.189441       -32.3663
  11   2.0000      -1.096890       -29.8479
  12   2.0000      -1.037663       -28.2362
  13   2.0000      -0.919768       -25.0281
  14   2.0000      -0.880698       -23.9650
  15   2.0000      -0.814746       -22.1704
  16   2.0000      -0.759251       -20.6603
  17   2.0000      -0.712472       -19.3874
  18   2.0000      -0.667667       -18.1681
  19   2.0000      -0.646568       -17.5940
  20   2.0000      -0.624159       -16.9842
  21   2.0000      -0.577732       -15.7209
  22   2.0000      -0.558947       -15.2097
  23   2.0000      -0.553849       -15.0710
  24   2.0000      -0.546356       -14.8671
  25   2.0000      -0.525096       -14.2886
  26   2.0000      -0.494425       -13.4540
  27   2.0000      -0.489465       -13.3190
  28   2.0000      -0.459979       -12.5167
  29   2.0000      -0.449228       -12.2241
  30   2.0000      -0.425521       -11.5790
  31   2.0000      -0.346576        -9.4308
  32   0.0000       0.093514         2.5446
  33   0.0000       0.126537         3.4433
  34   0.0000       0.145319         3.9543
  35   0.0000       0.157605         4.2886
  36   0.0000       0.165181         4.4948

MULLIKEN ATOMIC CHARGES
-----------------------
   0 N :   -0.058739
   1 C :   -0.228221
   2 C :    0.180402
   3 C :   -0.260635
   4 C :   -0.016290
   5 C :   -0.287447
   6 C :   -0.100668
   7 C :   -0.215641
   8 C :   -0.249478
   9 H :    0.143123
  10 H :    0.133971
  11 H :    0.139783
  12 H :    0.144205
  13 H :    0.130018
  14 H :    0.123666
  15 H :    0.128844
  16 H :    0.138244
  17 H :    0.154865
Sum of atomic charges:   -0.0000000

LOEWDIN ATOMIC CHARGES
----------------------
   0 N :    0.063345
   1 C :   -0.161644
   2 C :   -0.164671
   3 C :   -0.076838
   4 C :   -0.184306
   5 C :   -0.182397
   6 C :   -0.198535
   7 C :   -0.227720
   8 C :   -0.201380
   9 H :    0.157927
  10 H :    0.152527
  11 H :    0.135970
  12 H :    0.139309
  13 H :    0.152414
  14 H :    0.148270
  15 H :    0.144784
  16 H :    0.149857
  17 H :    0.153086

  Mayer bond orders larger than 0.1
B(  0-N ,  1-C ) :   2.8585 B(  1-C ,  2-C ) :   0.9066 B(  2-C ,  3-C ) :   1.6657
B(  2-C ,  8-C ) :   0.9126 B(  3-C ,  4-C ) :   0.9765 B(  3-C ,  9-H ) :   0.9321
B(  4-C ,  5-C ) :   0.8180 B(  4-C ,  6-C ) :   0.8464 B(  4-C , 10-H ) :   0.9282
B(  5-C ,  6-C ) :   0.9109 B(  5-C , 11-H ) :   0.9277 B(  5-C , 12-H ) :   0.9252
B(  6-C ,  7-C ) :   0.9394 B(  6-C , 13-H ) :   0.9301 B(  7-C ,  8-C ) :   0.9357
B(  7-C , 14-H ) :   0.9253 B(  7-C , 15-H ) :   0.9295 B(  8-C , 16-H ) :   0.9177
B(  8-C , 17-H ) :   0.9248

MP2 TOTAL ENERGY:     -364.169549942 Eh
FINAL SINGLE POINT ENERGY      -364.169549942037

DIPOLE MOMENT
-------------
                                X             Y             Z
Electronic contribution:     -1.93752      -7.77660       0.31466
Nuclear contribution   :      1.97546       9.73207      -0.43463
                        -----------------------------------------
Total Dipole Moment    :      0.03794       1.95547      -0.11997
                        -----------------------------------------
Magnitude (a.u.)       :      1.95952
Magnitude (Debye)      :      4.98070

                             ****ORCA TERMINATED NORMALLY****
TOTAL RUN TIME: 0 days 0 hours 19 minutes 44 seconds 894 msec
