                         Program Version 3.0.3 - RELEASE   -
|  1> ! RI-MP2 RIJK def2-TZVP def2-TZVP/C def2-TZVP/JK TIGHTSCF
|  2> % maxcore 2000
|  3> % mp2 density relaxed end
|  4> *xyz 0 1
|  5>  C        0.5170073631     1.5268764744    -0.3783757554
|  6>  C        0.0590434181     0.1354434779     0.0038133741
|  7>  O        0.7745087423    -0.9180114977    -0.7067452582
|  8>  C        1.0287823783    -1.6328013496     0.5110400366
|  9>  C        2.4558212044    -1.3291651834     1.0818043883
| 10>  C        1.8143444280    -0.1868249513     1.9572339604
| 11>  C        0.4145210329    -0.4975950704     1.3701439114
| 12>  C        3.0913757992    -2.4016737187     1.8167961704
| 13>  C        3.5833343325    -3.3070846948     2.4379334246
| 14>  H        1.5877671822     1.6656643919    -0.2068924655
| 15>  H        0.3222166295     1.7022341437    -1.4411026412
| 16>  H       -0.0317670242     2.2813170003     0.1959607900
| 17>  H       -1.0174640544     0.0371041571    -0.1974578556
| 18>  H        0.7020874160    -2.6746205712     0.4816629904
| 19>  H        3.1092340542    -0.9612033402     0.2856364531
| 20>  H        1.8766821946    -0.4118802671     3.0226859908
| 21>  H        2.2113841073     0.8167599517     1.7915146296
| 22>  H       -0.4034087716    -0.6315899475     2.0763124651
| 23>  H        4.0330171977    -4.1031370152     2.9776893812
| 24> *
| 25>
| 26>                          ****END OF INPUT****

CARTESIAN COORDINATES (ANGSTROEM)
---------------------------------
  C      0.517007    1.526876   -0.378376
  C      0.059043    0.135443    0.003813
  O      0.774509   -0.918011   -0.706745
  C      1.028782   -1.632801    0.511040
  C      2.455821   -1.329165    1.081804
  C      1.814344   -0.186825    1.957234
  C      0.414521   -0.497595    1.370144
  C      3.091376   -2.401674    1.816796
  C      3.583334   -3.307085    2.437933
  H      1.587767    1.665664   -0.206892
  H      0.322217    1.702234   -1.441103
  H     -0.031767    2.281317    0.195961
  H     -1.017464    0.037104   -0.197458
  H      0.702087   -2.674621    0.481663
  H      3.109234   -0.961203    0.285636
  H      1.876682   -0.411880    3.022686
  H      2.211384    0.816760    1.791515
  H     -0.403409   -0.631590    2.076312
  H      4.033017   -4.103137    2.977689

 Total Charge           Charge          ....    0
 Multiplicity           Mult            ....    1
 Number of Electrons    NEL             ....   66
 Basis Dimension        Dim             ....  339

ORBITAL ENERGIES
----------------

  NO   OCC          E(Eh)            E(eV)
   0   2.0000     -20.549972      -559.1932
   1   2.0000     -11.288925      -307.1873
   2   2.0000     -11.288782      -307.1834
   3   2.0000     -11.254864      -306.2604
   4   2.0000     -11.238353      -305.8111
   5   2.0000     -11.237437      -305.7862
   6   2.0000     -11.233852      -305.6886
   7   2.0000     -11.221937      -305.3644
   8   2.0000     -11.221617      -305.3557
   9   2.0000      -1.384492       -37.6739
  10   2.0000      -1.128154       -30.6986
  11   2.0000      -1.040434       -28.3117
  12   2.0000      -1.016216       -27.6526
  13   2.0000      -0.935924       -25.4678
  14   2.0000      -0.890812       -24.2402
  15   2.0000      -0.839640       -22.8478
  16   2.0000      -0.732590       -19.9348
  17   2.0000      -0.721848       -19.6425
  18   2.0000      -0.695032       -18.9128
  19   2.0000      -0.666332       -18.1318
  20   2.0000      -0.637157       -17.3379
  21   2.0000      -0.614624       -16.7248
  22   2.0000      -0.594333       -16.1726
  23   2.0000      -0.563173       -15.3247
  24   2.0000      -0.535639       -14.5755
  25   2.0000      -0.524066       -14.2605
  26   2.0000      -0.513344       -13.9688
  27   2.0000      -0.494551       -13.4574
  28   2.0000      -0.453598       -12.3430
  29   2.0000      -0.433754       -11.8031
  30   2.0000      -0.417293       -11.3551
  31   2.0000      -0.380016       -10.3408
  32   2.0000      -0.373014       -10.1502
  33   0.0000       0.136141         3.7046
  34   0.0000       0.150681         4.1002
  35   0.0000       0.160652         4.3716
  36   0.0000       0.166687         4.5358
  37   0.0000       0.173256         4.7145

MULLIKEN ATOMIC CHARGES
-----------------------
   0 C :   -0.417708
   1 C :    0.085267
   2 O :   -0.337221
   3 C :    0.060188
   4 C :   -0.153983
   5 C :   -0.301117
   6 C :   -0.050327
   7 C :   -0.066577
   8 C :   -0.142913
   9 H :    0.130167
  10 H :    0.144372
  11 H :    0.132301
  12 H :    0.086633
  13 H :    0.119270
  14 H :    0.125422
  15 H :    0.138848
  16 H :    0.130530
  17 H :    0.126895
  18 H :    0.189953
Sum of atomic charges:    0.0000000

LOEWDIN ATOMIC CHARGES
----------------------
   0 C :   -0.295383
   1 C :   -0.279579
   2 O :    0.157859
   3 C :   -0.201819
   4 C :   -0.191716
   5 C :   -0.176532
   6 C :   -0.172907
   7 C :   -0.095553
   8 C :   -0.100514
   9 H :    0.123604
  10 H :    0.131346
  11 H :    0.130065
  12 H :    0.138475
  13 H :    0.130769
  14 H :    0.166869
  15 H :    0.141549
  16 H :    0.129614
  17 H :    0.137446
  18 H :    0.126407

  Mayer bond orders larger than 0.1
B(  0-C ,  1-C ) :   0.9097 B(  0-C ,  9-H ) :   0.9385 B(  0-C , 10-H ) :   0.9333
B(  0-C , 11-H ) :   0.9298 B(  1-C ,  2-O ) :   0.9000 B(  1-C ,  6-C ) :   0.9336
B(  1-C , 12-H ) :   0.9178 B(  2-O ,  3-C ) :   0.9631 B(  3-C ,  4-C ) :   0.8285
B(  3-C ,  6-C ) :   0.9261 B(  3-C , 13-H ) :   0.9404 B(  4-C ,  5-C ) :   0.8914
B(  4-C ,  7-C ) :   1.1490 B(  4-C ,  8-C ) :  -0.1139 B(  4-C , 14-H ) :   0.9262
B(  5-C ,  6-C ) :   0.9223 B(  5-C , 15-H ) :   0.9148 B(  5-C , 16-H ) :   0.9253
B(  6-C , 17-H ) :   0.9149 B(  7-C ,  8-C ) :   2.5706 B(  8-C , 18-H ) :   0.8971

MP2 TOTAL ENERGY:     -385.137132867 Eh
FINAL SINGLE POINT ENERGY      -385.137132867033

DIPOLE MOMENT
-------------
                                X             Y             Z
Electronic contribution:      1.92469      -5.85310       0.07974
Nuclear contribution   :     -2.25525       6.26128       0.46292
                        -----------------------------------------
Total Dipole Moment    :     -0.33056       0.40818       0.54266
                        -----------------------------------------
Magnitude (a.u.)       :      0.75522
Magnitude (Debye)      :      1.91962

                             ****ORCA TERMINATED NORMALLY****
TOTAL RUN TIME: 0 days 0 hours 18 minutes 44 seconds 367 msec
