                         Program Version 3.0.3 - RELEASE   -
|  1> ! RI-MP2 RIJK def2-TZVP def2-TZVP/C def2-TZVP/JK TIGHTSCF
|  2> % maxcore 2000
|  3> % mp2 density relaxed end
|  4> *xyz 0 1
|  5>  O       -0.0001604842     0.0241833213    -0.1577054629
|  6>  C       -0.0135526004     1.2022700440     0.0423897328
|  7>  C       -1.1340217304     2.2280245789     0.2738917470
|  8>  C       -0.0320437911     3.2462087440     0.7417010933
|  9>  C        1.0843255458     2.2583132224     0.2440238392
| 10>  C       -0.0580088471     4.5695805628     0.1553366837
| 11>  C       -0.0797265586     5.6601995174    -0.3507381698
| 12>  H       -1.6130527719     2.5257814174    -0.6635693432
| 13>  H       -1.9063037157     1.9544798250     0.9961418030
| 14>  H       -0.0183290299     3.3179896709     1.8329799284
| 15>  H        1.8829315101     2.0062088301     0.9451402618
| 16>  H        1.5296637045     2.5686898115    -0.7058716671
| 17>  H       -0.0988374211     6.6265736344    -0.7904199462
| 18> *
| 19>
| 20>                          ****END OF INPUT****

CARTESIAN COORDINATES (ANGSTROEM)
---------------------------------
  O     -0.000160    0.024183   -0.157705
  C     -0.013553    1.202270    0.042390
  C     -1.134022    2.228025    0.273892
  C     -0.032044    3.246209    0.741701
  C      1.084326    2.258313    0.244024
  C     -0.058009    4.569581    0.155337
  C     -0.079727    5.660200   -0.350738
  H     -1.613053    2.525781   -0.663569
  H     -1.906304    1.954480    0.996142
  H     -0.018329    3.317990    1.832980
  H      1.882932    2.006209    0.945140
  H      1.529664    2.568690   -0.705872
  H     -0.098837    6.626574   -0.790420

 Total Charge           Charge          ....    0
 Multiplicity           Mult            ....    1
 Number of Electrons    NEL             ....   50
 Basis Dimension        Dim             ....  253

ORBITAL ENERGIES
----------------

  NO   OCC          E(Eh)            E(eV)
   0   2.0000     -20.559959      -559.4649
   1   2.0000     -11.341262      -308.6114
   2   2.0000     -11.279586      -306.9332
   3   2.0000     -11.254584      -306.2528
   4   2.0000     -11.254557      -306.2521
   5   2.0000     -11.244988      -305.9917
   6   2.0000     -11.233800      -305.6873
   7   2.0000      -1.403448       -38.1898
   8   2.0000      -1.159320       -31.5467
   9   2.0000      -1.038104       -28.2482
  10   2.0000      -0.944745       -25.7078
  11   2.0000      -0.905520       -24.6405
  12   2.0000      -0.739072       -20.1112
  13   2.0000      -0.733790       -19.9674
  14   2.0000      -0.686540       -18.6817
  15   2.0000      -0.679842       -18.4995
  16   2.0000      -0.631983       -17.1971
  17   2.0000      -0.576675       -15.6921
  18   2.0000      -0.575541       -15.6613
  19   2.0000      -0.550217       -14.9722
  20   2.0000      -0.520387       -14.1605
  21   2.0000      -0.496570       -13.5124
  22   2.0000      -0.415486       -11.3059
  23   2.0000      -0.397639       -10.8203
  24   2.0000      -0.387477       -10.5438
  25   0.0000       0.121792         3.3141
  26   0.0000       0.127222         3.4619
  27   0.0000       0.157247         4.2789
  28   0.0000       0.160674         4.3722
  29   0.0000       0.166850         4.5402

MULLIKEN ATOMIC CHARGES
-----------------------
   0 O :   -0.244873
   1 C :    0.132484
   2 C :   -0.212437
   3 C :   -0.172824
   4 C :   -0.212438
   5 C :   -0.065729
   6 C :   -0.139833
   7 H :    0.150327
   8 H :    0.142324
   9 H :    0.136312
  10 H :    0.142322
  11 H :    0.150328
  12 H :    0.194036
Sum of atomic charges:    0.0000000

LOEWDIN ATOMIC CHARGES
----------------------
   0 O :    0.167384
   1 C :   -0.315107
   2 C :   -0.168672
   3 C :   -0.208743
   4 C :   -0.168672
   5 C :   -0.100113
   6 C :   -0.095315
   7 H :    0.155174
   8 H :    0.141701
   9 H :    0.167772
  10 H :    0.141701
  11 H :    0.155173
  12 H :    0.127717

  Mayer bond orders larger than 0.1
B(  0-O ,  1-C ) :   2.0311 B(  1-C ,  2-C ) :   0.8835 B(  1-C ,  4-C ) :   0.8835
B(  2-C ,  3-C ) :   0.9091 B(  2-C ,  7-H ) :   0.9010 B(  2-C ,  8-H ) :   0.9020
B(  3-C ,  4-C ) :   0.9091 B(  3-C ,  5-C ) :   1.1589 B(  3-C ,  6-C ) :  -0.1038
B(  3-C ,  9-H ) :   0.9191 B(  4-C , 10-H ) :   0.9020 B(  4-C , 11-H ) :   0.9010
B(  5-C ,  6-C ) :   2.5879 B(  6-C , 12-H ) :   0.8955

MP2 TOTAL ENERGY:     -306.740278279 Eh
FINAL SINGLE POINT ENERGY      -306.740278279089

DIPOLE MOMENT
-------------
                                X             Y             Z
Electronic contribution:      0.02009      -2.00938      -0.54518
Nuclear contribution   :     -0.02855       2.84975       0.76891
                        -----------------------------------------
Total Dipole Moment    :     -0.00846       0.84037       0.22373
                        -----------------------------------------
Magnitude (a.u.)       :      0.86968
Magnitude (Debye)      :      2.21056

                             ****ORCA TERMINATED NORMALLY****
TOTAL RUN TIME: 0 days 0 hours 7 minutes 17 seconds 956 msec
