                         Program Version 3.0.3 - RELEASE   -
|  1> ! RI-MP2 RIJK def2-TZVP def2-TZVP/C def2-TZVP/JK TIGHTSCF
|  2> % maxcore 2000
|  3> % mp2 density relaxed end
|  4> *xyz 0 1
|  5>  C       -0.0795351634     1.5112965385    -0.0128106287
|  6>  C        0.0299273511     0.0159786897    -0.0564733908
|  7>  C       -0.0242876454    -0.9086040364    -1.2667526906
|  8>  N       -0.2786208289    -2.0798628297    -0.3385258274
|  9>  C        1.0646038821    -2.1885147544     0.3589320261
| 10>  C        0.8090802281    -0.8418385475     1.0098489495
| 11>  C        1.4226723006    -0.2783071855     2.2120016515
| 12>  O        2.3923006222    -0.7572703254     2.7562818473
| 13>  C       -0.6804610267    -1.0338340756     0.7181595423
| 14>  H        0.8312297358     1.9885329851    -0.3900622311
| 15>  H       -0.9171089016     1.8470225952    -0.6339914582
| 16>  H       -0.2547111316     1.8811186543     1.0017690014
| 17>  H       -0.9149171165    -0.7245300892    -1.8746125001
| 18>  H        0.8530243161    -1.0164539941    -1.9135739244
| 19>  H        1.0429819089    -3.0041045810     1.0847704024
| 20>  H        1.9171784126    -2.3157946647    -0.3152635132
| 21>  H        0.9278425388     0.6310921786     2.6228003361
| 22>  H       -1.5436036822    -1.0709688078     1.3685299679
| 23> *
| 24>
| 25>                          ****END OF INPUT****

CARTESIAN COORDINATES (ANGSTROEM)
---------------------------------
  C     -0.079535    1.511297   -0.012811
  C      0.029927    0.015979   -0.056473
  C     -0.024288   -0.908604   -1.266753
  N     -0.278621   -2.079863   -0.338526
  C      1.064604   -2.188515    0.358932
  C      0.809080   -0.841839    1.009849
  C      1.422672   -0.278307    2.212002
  O      2.392301   -0.757270    2.756282
  C     -0.680461   -1.033834    0.718160
  H      0.831230    1.988533   -0.390062
  H     -0.917109    1.847023   -0.633991
  H     -0.254711    1.881119    1.001769
  H     -0.914917   -0.724530   -1.874613
  H      0.853024   -1.016454   -1.913574
  H      1.042982   -3.004105    1.084770
  H      1.917178   -2.315795   -0.315264
  H      0.927843    0.631092    2.622800
  H     -1.543604   -1.070969    1.368530

 Total Charge           Charge          ....    0
 Multiplicity           Mult            ....    1
 Number of Electrons    NEL             ....   66
 Basis Dimension        Dim             ....  333

ORBITAL ENERGIES
----------------

  NO   OCC          E(Eh)            E(eV)
   0   2.0000     -20.552713      -559.2678
   1   2.0000     -15.572598      -423.7519
   2   2.0000     -11.335904      -308.4656
   3   2.0000     -11.284360      -307.0630
   4   2.0000     -11.273659      -306.7719
   5   2.0000     -11.268323      -306.6267
   6   2.0000     -11.263413      -306.4930
   7   2.0000     -11.257731      -306.3384
   8   2.0000     -11.245650      -306.0097
   9   2.0000      -1.390898       -37.8483
  10   2.0000      -1.318530       -35.8790
  11   2.0000      -1.079425       -29.3727
  12   2.0000      -1.027273       -27.9535
  13   2.0000      -0.958820       -26.0908
  14   2.0000      -0.910440       -24.7743
  15   2.0000      -0.865491       -23.5512
  16   2.0000      -0.762865       -20.7586
  17   2.0000      -0.733940       -19.9715
  18   2.0000      -0.682288       -18.5660
  19   2.0000      -0.668307       -18.1856
  20   2.0000      -0.639286       -17.3959
  21   2.0000      -0.630902       -17.1677
  22   2.0000      -0.609971       -16.5982
  23   2.0000      -0.585660       -15.9366
  24   2.0000      -0.559094       -15.2137
  25   2.0000      -0.552603       -15.0371
  26   2.0000      -0.536835       -14.6080
  27   2.0000      -0.497487       -13.5373
  28   2.0000      -0.484924       -13.1955
  29   2.0000      -0.457253       -12.4425
  30   2.0000      -0.417140       -11.3510
  31   2.0000      -0.396688       -10.7944
  32   2.0000      -0.370904       -10.0928
  33   0.0000       0.118921         3.2360
  34   0.0000       0.126426         3.4402
  35   0.0000       0.155367         4.2277
  36   0.0000       0.164425         4.4742
  37   0.0000       0.181433         4.9371

MULLIKEN ATOMIC CHARGES
-----------------------
   0 C :   -0.410639
   1 C :   -0.036254
   2 C :   -0.091093
   3 N :   -0.200695
   4 C :   -0.087045
   5 C :    0.014349
   6 C :    0.034392
   7 O :   -0.277051
   8 C :   -0.088292
   9 H :    0.150657
  10 H :    0.143821
  11 H :    0.135601
  12 H :    0.121165
  13 H :    0.116393
  14 H :    0.129028
  15 H :    0.117835
  16 H :    0.067586
  17 H :    0.160244
Sum of atomic charges:   -0.0000000

LOEWDIN ATOMIC CHARGES
----------------------
   0 C :   -0.267325
   1 C :   -0.195214
   2 C :   -0.199109
   3 N :    0.108103
   4 C :   -0.194311
   5 C :   -0.175991
   6 C :   -0.279238
   7 O :    0.125105
   8 C :   -0.103495
   9 H :    0.134352
  10 H :    0.134020
  11 H :    0.130482
  12 H :    0.137613
  13 H :    0.124395
  14 H :    0.141145
  15 H :    0.125732
  16 H :    0.115223
  17 H :    0.138514

  Mayer bond orders larger than 0.1
B(  0-C ,  1-C ) :   0.8871 B(  0-C ,  9-H ) :   0.9397 B(  0-C , 10-H ) :   0.9360
B(  0-C , 11-H ) :   0.9300 B(  1-C ,  2-C ) :   0.9622 B(  1-C ,  5-C ) :   0.7457
B(  1-C ,  8-C ) :   0.9040 B(  2-C ,  3-N ) :   0.9277 B(  2-C , 12-H ) :   0.9126
B(  2-C , 13-H ) :   0.9239 B(  3-N ,  4-C ) :   0.9150 B(  3-N ,  8-C ) :   0.9514
B(  4-C ,  5-C ) :   0.9412 B(  4-C , 14-H ) :   0.9107 B(  4-C , 15-H ) :   0.9266
B(  5-C ,  6-C ) :   0.8780 B(  5-C ,  7-O ) :  -0.1035 B(  5-C ,  8-C ) :   0.8027
B(  5-C , 16-H ) :  -0.1026 B(  6-C ,  7-O ) :   2.0014 B(  6-C , 16-H ) :   0.9711
B(  8-C , 17-H ) :   0.8884

MP2 TOTAL ENERGY:     -401.188875462 Eh
FINAL SINGLE POINT ENERGY      -401.188875462379

DIPOLE MOMENT
-------------
                                X             Y             Z
Electronic contribution:      2.03164      -3.43186       3.68394
Nuclear contribution   :     -2.73936       4.33583      -4.28585
                        -----------------------------------------
Total Dipole Moment    :     -0.70772       0.90397      -0.60191
                        -----------------------------------------
Magnitude (a.u.)       :      1.29627
Magnitude (Debye)      :      3.29486

                             ****ORCA TERMINATED NORMALLY****
TOTAL RUN TIME: 0 days 0 hours 18 minutes 56 seconds 643 msec
