                         Program Version 3.0.3 - RELEASE   -
|  1> ! RI-MP2 RIJK def2-TZVP def2-TZVP/C def2-TZVP/JK TIGHTSCF
|  2> % maxcore 2000
|  3> % mp2 density relaxed end
|  4> *xyz 0 1
|  5>  N        0.0394872015     1.3732819299     0.1325877721
|  6>  C        0.0128438864     0.0150294963     0.0415791445
|  7>  N       -1.1282090478    -0.6516344261     0.0231078836
|  8>  H       -2.0181393483    -0.1766788513     0.0611702023
|  9>  C       -1.2490613336    -2.1437148652    -0.0089893872
| 10>  O       -2.3987368567    -2.5493425865    -0.0136273899
| 11>  C       -0.0086542305    -2.7854233663    -0.0295036587
| 12>  C        1.2379992746    -2.1129524843    -0.0167398581
| 13>  N        2.4660169677    -2.5037087121    -0.0286508420
| 14>  N        1.1444415081    -0.6731569540     0.0150535408
| 15>  H        0.8966170983     1.8471630245    -0.1036795724
| 16>  H       -0.8013094121     1.8757534313    -0.1011176836
| 17>  H       -0.0112911971    -3.8661932579    -0.0553105459
| 18>  H        2.5069045941    -3.5202151523    -0.0516721180
| 19>  H        2.0456851652    -0.2172003960     0.0428861625
| 20> *
| 21>
| 22>                          ****END OF INPUT****

CARTESIAN COORDINATES (ANGSTROEM)
---------------------------------
  N      0.039487    1.373282    0.132588
  C      0.012844    0.015029    0.041579
  N     -1.128209   -0.651634    0.023108
  H     -2.018139   -0.176679    0.061170
  C     -1.249061   -2.143715   -0.008989
  O     -2.398737   -2.549343   -0.013627
  C     -0.008654   -2.785423   -0.029504
  C      1.237999   -2.112952   -0.016740
  N      2.466017   -2.503709   -0.028651
  N      1.144442   -0.673157    0.015054
  H      0.896617    1.847163   -0.103680
  H     -0.801309    1.875753   -0.101118
  H     -0.011291   -3.866193   -0.055311
  H      2.506905   -3.520215   -0.051672
  H      2.045685   -0.217200    0.042886

 Total Charge           Charge          ....    0
 Multiplicity           Mult            ....    1
 Number of Electrons    NEL             ....   66
 Basis Dimension        Dim             ....  315

ORBITAL ENERGIES
----------------

  NO   OCC          E(Eh)            E(eV)
   0   2.0000     -20.497620      -557.7686
   1   2.0000     -15.656676      -426.0398
   2   2.0000     -15.641761      -425.6340
   3   2.0000     -15.635827      -425.4725
   4   2.0000     -15.503467      -421.8708
   5   2.0000     -11.446023      -311.4621
   6   2.0000     -11.347201      -308.7730
   7   2.0000     -11.323532      -308.1290
   8   2.0000     -11.185092      -304.3618
   9   2.0000      -1.408409       -38.3248
  10   2.0000      -1.356334       -36.9077
  11   2.0000      -1.278829       -34.7987
  12   2.0000      -1.244285       -33.8587
  13   2.0000      -1.162866       -31.6432
  14   2.0000      -1.018142       -27.7050
  15   2.0000      -0.927455       -25.2373
  16   2.0000      -0.867268       -23.5996
  17   2.0000      -0.820746       -22.3336
  18   2.0000      -0.777825       -21.1657
  19   2.0000      -0.742648       -20.2085
  20   2.0000      -0.732635       -19.9360
  21   2.0000      -0.679070       -18.4784
  22   2.0000      -0.658667       -17.9232
  23   2.0000      -0.626952       -17.0602
  24   2.0000      -0.599743       -16.3198
  25   2.0000      -0.553293       -15.0559
  26   2.0000      -0.545726       -14.8500
  27   2.0000      -0.532851       -14.4996
  28   2.0000      -0.463706       -12.6181
  29   2.0000      -0.436600       -11.8805
  30   2.0000      -0.410912       -11.1815
  31   2.0000      -0.404087       -10.9958
  32   2.0000      -0.281878        -7.6703
  33   0.0000       0.076426         2.0797
  34   0.0000       0.117740         3.2039
  35   0.0000       0.129479         3.5233
  36   0.0000       0.154172         4.1952
  37   0.0000       0.171696         4.6721

MULLIKEN ATOMIC CHARGES
-----------------------
   0 N :   -0.495626
   1 C :    0.448759
   2 N :   -0.267463
   3 H :    0.245679
   4 C :    0.220264
   5 O :   -0.389359
   6 C :   -0.373631
   7 C :    0.195291
   8 N :   -0.472427
   9 N :   -0.250598
  10 H :    0.276933
  11 H :    0.277203
  12 H :    0.122121
  13 H :    0.213170
  14 H :    0.249683
Sum of atomic charges:   -0.0000000

LOEWDIN ATOMIC CHARGES
----------------------
   0 N :   -0.005762
   1 C :   -0.366962
   2 N :    0.192514
   3 H :    0.201206
   4 C :   -0.443476
   5 O :    0.049009
   6 C :   -0.225265
   7 C :   -0.374203
   8 N :   -0.136871
   9 N :    0.217466
  10 H :    0.184586
  11 H :    0.184625
  12 H :    0.153749
  13 H :    0.160798
  14 H :    0.208586

  Mayer bond orders larger than 0.1
B(  0-N ,  1-C ) :   1.1602 B(  0-N , 10-H ) :   0.8625 B(  0-N , 11-H ) :   0.8643
B(  1-C ,  2-N ) :   1.3600 B(  1-C ,  9-N ) :   1.3240 B(  2-N ,  3-H ) :   0.8541
B(  2-N ,  4-C ) :   0.7942 B(  4-C ,  5-O ) :   1.9117 B(  4-C ,  6-C ) :   1.3061
B(  6-C ,  7-C ) :   1.1665 B(  6-C , 12-H ) :   0.9436 B(  7-C ,  8-N ) :   1.8487
B(  7-C ,  9-N ) :   0.8693 B(  8-N , 13-H ) :   0.8731 B(  9-N , 14-H ) :   0.8472

MP2 TOTAL ENERGY:     -449.434787813 Eh
FINAL SINGLE POINT ENERGY      -449.434787813252

DIPOLE MOMENT
-------------
                                X             Y             Z
Electronic contribution:     -2.14353      -0.32073       0.06746
Nuclear contribution   :      2.45739       3.49505      -0.25715
                        -----------------------------------------
Total Dipole Moment    :      0.31387       3.17432      -0.18969
                        -----------------------------------------
Magnitude (a.u.)       :      3.19544
Magnitude (Debye)      :      8.12216

                             ****ORCA TERMINATED NORMALLY****
TOTAL RUN TIME: 0 days 0 hours 14 minutes 6 seconds 561 msec
