                         Program Version 3.0.3 - RELEASE   -
|  1> ! RI-MP2 RIJK def2-TZVP def2-TZVP/C def2-TZVP/JK TIGHTSCF
|  2> % maxcore 2000
|  3> % mp2 density relaxed end
|  4> *xyz 0 1
|  5>  C        0.0723917136     1.4582585503     0.3935655742
|  6>  C        1.4612156344     1.9656045619    -0.1010364166
|  7>  C        1.9646753626     0.9023389583    -1.1004323910
|  8>  C        1.2273374685    -0.3917651103    -0.7066240396
|  9>  C       -0.1777114233     0.1306925731    -0.3518371772
| 10>  C        1.2738153461    -1.5361788792    -1.7539675457
| 11>  O        1.9086623668    -2.6403942111    -1.0665960080
| 12>  C        2.1758621095    -2.1745819145     0.1767363800
| 13>  N        1.8617596768    -0.9905616278     0.4934035240
| 14>  H        0.0998726322     1.2827263811     1.4713995339
| 15>  H       -0.7257624359     2.1816449800     0.2064891231
| 16>  H        1.4014465453     2.9543988918    -0.5637491189
| 17>  H        2.1524529259     2.0476056773     0.7408269775
| 18>  H        1.6771169548     1.1671776049    -2.1258296000
| 19>  H        3.0502196117     0.7730563248    -1.0854569454
| 20>  H       -0.7467870849    -0.5954955741     0.2348782067
| 21>  H       -0.7282150075     0.3072674654    -1.2846829119
| 22>  H        0.2824088069    -1.8642641769    -2.0805500255
| 23>  H        1.8763705676    -1.2925921392    -2.6342083740
| 24>  H        2.6611971187    -2.8956233156     0.8258346842
| 25> *
| 26>
| 27>                          ****END OF INPUT****

CARTESIAN COORDINATES (ANGSTROEM)
---------------------------------
  C      0.072392    1.458259    0.393566
  C      1.461216    1.965605   -0.101036
  C      1.964675    0.902339   -1.100432
  C      1.227337   -0.391765   -0.706624
  C     -0.177711    0.130693   -0.351837
  C      1.273815   -1.536179   -1.753968
  O      1.908662   -2.640394   -1.066596
  C      2.175862   -2.174582    0.176736
  N      1.861760   -0.990562    0.493404
  H      0.099873    1.282726    1.471400
  H     -0.725762    2.181645    0.206489
  H      1.401447    2.954399   -0.563749
  H      2.152453    2.047606    0.740827
  H      1.677117    1.167178   -2.125830
  H      3.050220    0.773056   -1.085457
  H     -0.746787   -0.595496    0.234878
  H     -0.728215    0.307267   -1.284683
  H      0.282409   -1.864264   -2.080550
  H      1.876371   -1.292592   -2.634208
  H      2.661197   -2.895623    0.825835

 Total Charge           Charge          ....    0
 Multiplicity           Mult            ....    1
 Number of Electrons    NEL             ....   68
 Basis Dimension        Dim             ....  345

ORBITAL ENERGIES
----------------

  NO   OCC          E(Eh)            E(eV)
   0   2.0000     -20.592444      -560.3489
   1   2.0000     -15.542931      -422.9447
   2   2.0000     -11.327615      -308.2401
   3   2.0000     -11.287748      -307.1552
   4   2.0000     -11.265442      -306.5483
   5   2.0000     -11.219268      -305.2918
   6   2.0000     -11.219241      -305.2911
   7   2.0000     -11.214518      -305.1626
   8   2.0000     -11.213968      -305.1476
   9   2.0000      -1.434416       -39.0325
  10   2.0000      -1.216496       -33.1025
  11   2.0000      -1.109153       -30.1816
  12   2.0000      -1.008511       -27.4430
  13   2.0000      -0.965135       -26.2626
  14   2.0000      -0.901974       -24.5440
  15   2.0000      -0.814614       -22.1668
  16   2.0000      -0.779542       -21.2124
  17   2.0000      -0.762265       -20.7423
  18   2.0000      -0.703347       -19.1391
  19   2.0000      -0.665296       -18.1036
  20   2.0000      -0.649169       -17.6648
  21   2.0000      -0.615579       -16.7508
  22   2.0000      -0.591959       -16.1080
  23   2.0000      -0.581057       -15.8114
  24   2.0000      -0.567315       -15.4374
  25   2.0000      -0.527226       -14.3466
  26   2.0000      -0.503060       -13.6890
  27   2.0000      -0.490910       -13.3583
  28   2.0000      -0.476698       -12.9716
  29   2.0000      -0.472045       -12.8450
  30   2.0000      -0.469060       -12.7638
  31   2.0000      -0.452499       -12.3131
  32   2.0000      -0.428508       -11.6603
  33   2.0000      -0.373203       -10.1554
  34   0.0000       0.133914         3.6440
  35   0.0000       0.161831         4.4036
  36   0.0000       0.164512         4.4766
  37   0.0000       0.169520         4.6129
  38   0.0000       0.178394         4.8544

MULLIKEN ATOMIC CHARGES
-----------------------
   0 C :   -0.224425
   1 C :   -0.225077
   2 C :   -0.300083
   3 C :    0.318683
   4 C :   -0.299051
   5 C :   -0.058363
   6 O :   -0.269612
   7 C :    0.084773
   8 N :   -0.354420
   9 H :    0.117673
  10 H :    0.117256
  11 H :    0.116795
  12 H :    0.117696
  13 H :    0.113162
  14 H :    0.123978
  15 H :    0.123848
  16 H :    0.112863
  17 H :    0.118570
  18 H :    0.118516
  19 H :    0.147221
Sum of atomic charges:   -0.0000000

LOEWDIN ATOMIC CHARGES
----------------------
   0 C :   -0.248522
   1 C :   -0.248171
   2 C :   -0.219417
   3 C :   -0.302553
   4 C :   -0.219654
   5 C :   -0.216785
   6 O :    0.209974
   7 C :   -0.350130
   8 N :    0.110041
   9 H :    0.138401
  10 H :    0.130125
  11 H :    0.130189
  12 H :    0.138194
  13 H :    0.139407
  14 H :    0.138940
  15 H :    0.138928
  16 H :    0.139490
  17 H :    0.129075
  18 H :    0.129048
  19 H :    0.133423

  Mayer bond orders larger than 0.1
B(  0-C ,  1-C ) :   0.9452 B(  0-C ,  4-C ) :   0.9735 B(  0-C ,  9-H ) :   0.9254
B(  0-C , 10-H ) :   0.9358 B(  1-C ,  2-C ) :   0.9732 B(  1-C , 11-H ) :   0.9362
B(  1-C , 12-H ) :   0.9258 B(  2-C ,  3-C ) :   0.8850 B(  2-C , 13-H ) :   0.9276
B(  2-C , 14-H ) :   0.9142 B(  3-C ,  4-C ) :   0.8853 B(  3-C ,  5-C ) :   0.8840
B(  3-C ,  8-N ) :   0.8301 B(  4-C , 15-H ) :   0.9142 B(  4-C , 16-H ) :   0.9276
B(  5-C ,  6-O ) :   0.8812 B(  5-C , 17-H ) :   0.9240 B(  5-C , 18-H ) :   0.9243
B(  6-O ,  7-C ) :   1.0694 B(  7-C ,  8-N ) :   1.8302 B(  7-C , 19-H ) :   0.9203

MP2 TOTAL ENERGY:     -402.492563336 Eh
FINAL SINGLE POINT ENERGY      -402.492563335978

DIPOLE MOMENT
-------------
                                X             Y             Z
Electronic contribution:      2.94252      -7.58171       0.62707
Nuclear contribution   :     -3.16945       7.71574      -1.13919
                        -----------------------------------------
Total Dipole Moment    :     -0.22692       0.13403      -0.51212
                        -----------------------------------------
Magnitude (a.u.)       :      0.57595
Magnitude (Debye)      :      1.46396

                             ****ORCA TERMINATED NORMALLY****
TOTAL RUN TIME: 0 days 0 hours 19 minutes 53 seconds 433 msec
