                         Program Version 3.0.3 - RELEASE   -
|  1> ! RI-MP2 RIJK def2-TZVP def2-TZVP/C def2-TZVP/JK TIGHTSCF
|  2> % maxcore 2000
|  3> % mp2 density relaxed end
|  4> *xyz 0 1
|  5>  C        0.0735752598     1.5389121188    -0.0187148253
|  6>  C        0.0082999421     0.0074557441    -0.0518791117
|  7>  C        0.7902783930    -0.6515291323    -1.2127278978
|  8>  O        1.1947851176     0.1786486146    -2.2958905404
|  9>  C        1.9767805548    -1.3160915777    -0.5269898448
| 10>  N        2.9335587157    -1.8476321756    -1.3231924787
| 11>  C        1.8555017970    -1.3122561846     0.8243025679
| 12>  C        0.6642197051    -0.5773610845     1.2235329547
| 13>  O        0.2396971015    -0.3874182572     2.3459636717
| 14>  H        1.1089224995     1.8990049438     0.0390940580
| 15>  H       -0.4006723688     1.9823554147    -0.8986692597
| 16>  H       -0.4379571062     1.8968504552     0.8777615065
| 17>  H       -1.0436489411    -0.2930085393    -0.0709666217
| 18>  H        0.1846851725    -1.4306596506    -1.6895317702
| 19>  H        1.6117687720     0.9654266839    -1.9271849495
| 20>  H        2.9618046386    -1.5083582370    -2.2728345930
| 21>  H        3.8097134905    -2.1437954655    -0.9258091602
| 22>  H        2.5369031663    -1.7607767306     1.5359116041
| 23> *
| 24>
| 25>                          ****END OF INPUT****

CARTESIAN COORDINATES (ANGSTROEM)
---------------------------------
  C      0.073575    1.538912   -0.018715
  C      0.008300    0.007456   -0.051879
  C      0.790278   -0.651529   -1.212728
  O      1.194785    0.178649   -2.295891
  C      1.976781   -1.316092   -0.526990
  N      2.933559   -1.847632   -1.323192
  C      1.855502   -1.312256    0.824303
  C      0.664220   -0.577361    1.223533
  O      0.239697   -0.387418    2.345964
  H      1.108922    1.899005    0.039094
  H     -0.400672    1.982355   -0.898669
  H     -0.437957    1.896850    0.877762
  H     -1.043649   -0.293009   -0.070967
  H      0.184685   -1.430660   -1.689532
  H      1.611769    0.965427   -1.927185
  H      2.961805   -1.508358   -2.272835
  H      3.809713   -2.143795   -0.925809
  H      2.536903   -1.760777    1.535912

 Total Charge           Charge          ....    0
 Multiplicity           Mult            ....    1
 Number of Electrons    NEL             ....   68
 Basis Dimension        Dim             ....  333

ORBITAL ENERGIES
----------------

  NO   OCC          E(Eh)            E(eV)
   0   2.0000     -20.582979      -560.0913
   1   2.0000     -20.516286      -558.2765
   2   2.0000     -15.596539      -424.4034
   3   2.0000     -11.314221      -307.8756
   4   2.0000     -11.310531      -307.7752
   5   2.0000     -11.308164      -307.7108
   6   2.0000     -11.243484      -305.9508
   7   2.0000     -11.230127      -305.5873
   8   2.0000     -11.218001      -305.2573
   9   2.0000      -1.390427       -37.8354
  10   2.0000      -1.360639       -37.0249
  11   2.0000      -1.255950       -34.1761
  12   2.0000      -1.122766       -30.5520
  13   2.0000      -1.023818       -27.8595
  14   2.0000      -0.946371       -25.7521
  15   2.0000      -0.880625       -23.9630
  16   2.0000      -0.793394       -21.5893
  17   2.0000      -0.764806       -20.8114
  18   2.0000      -0.723919       -19.6988
  19   2.0000      -0.696047       -18.9404
  20   2.0000      -0.667669       -18.1682
  21   2.0000      -0.654494       -17.8097
  22   2.0000      -0.609302       -16.5799
  23   2.0000      -0.599998       -16.3268
  24   2.0000      -0.594752       -16.1840
  25   2.0000      -0.556244       -15.1362
  26   2.0000      -0.546762       -14.8782
  27   2.0000      -0.528989       -14.3945
  28   2.0000      -0.527327       -14.3493
  29   2.0000      -0.507100       -13.7989
  30   2.0000      -0.477103       -12.9826
  31   2.0000      -0.462219       -12.5776
  32   2.0000      -0.390013       -10.6128
  33   2.0000      -0.338215        -9.2033
  34   0.0000       0.113405         3.0859
  35   0.0000       0.121656         3.3104
  36   0.0000       0.137508         3.7418
  37   0.0000       0.151909         4.1336
  38   0.0000       0.175797         4.7837

MULLIKEN ATOMIC CHARGES
-----------------------
   0 C :   -0.488787
   1 C :    0.005513
   2 C :    0.087117
   3 O :   -0.464853
   4 C :    0.140071
   5 N :   -0.486471
   6 C :   -0.316480
   7 C :    0.183201
   8 O :   -0.320109
   9 H :    0.119650
  10 H :    0.155908
  11 H :    0.161809
  12 H :    0.109262
  13 H :    0.123094
  14 H :    0.323250
  15 H :    0.275173
  16 H :    0.260339
  17 H :    0.132313
Sum of atomic charges:    0.0000000

LOEWDIN ATOMIC CHARGES
----------------------
   0 C :   -0.292212
   1 C :   -0.209660
   2 C :   -0.267528
   3 O :   -0.014271
   4 C :   -0.233157
   5 N :   -0.005064
   6 C :   -0.141842
   7 C :   -0.327620
   8 O :    0.114423
   9 H :    0.121391
  10 H :    0.125440
  11 H :    0.137340
  12 H :    0.159718
  13 H :    0.156637
  14 H :    0.177359
  15 H :    0.180747
  16 H :    0.175016
  17 H :    0.143283

  Mayer bond orders larger than 0.1
B(  0-C ,  1-C ) :   0.8576 B(  0-C ,  9-H ) :   0.9343 B(  0-C , 10-H ) :   0.9339
B(  0-C , 11-H ) :   0.9289 B(  1-C ,  2-C ) :   0.9118 B(  1-C ,  7-C ) :   0.8646
B(  1-C , 12-H ) :   0.9074 B(  2-C ,  3-O ) :   0.9217 B(  2-C ,  4-C ) :   0.9135
B(  2-C , 13-H ) :   0.8978 B(  3-O , 14-H ) :   0.8334 B(  4-C ,  5-N ) :   1.1523
B(  4-C ,  6-C ) :   1.4723 B(  5-N , 15-H ) :   0.8535 B(  5-N , 16-H ) :   0.8710
B(  6-C ,  7-C ) :   1.0871 B(  6-C , 17-H ) :   0.9194 B(  7-C ,  8-O ) :   1.9849

MP2 TOTAL ENERGY:     -438.410880483 Eh
FINAL SINGLE POINT ENERGY      -438.410880483109

DIPOLE MOMENT
-------------
                                X             Y             Z
Electronic contribution:      0.70486      -3.52064       2.38325
Nuclear contribution   :      0.46494       3.44398      -3.65840
                        -----------------------------------------
Total Dipole Moment    :      1.16980      -0.07667      -1.27515
                        -----------------------------------------
Magnitude (a.u.)       :      1.73214
Magnitude (Debye)      :      4.40275

                             ****ORCA TERMINATED NORMALLY****
TOTAL RUN TIME: 0 days 0 hours 17 minutes 38 seconds 597 msec
