                         Program Version 3.0.3 - RELEASE   -
|  1> ! RI-MP2 RIJK def2-TZVP def2-TZVP/C def2-TZVP/JK TIGHTSCF
|  2> % maxcore 2000
|  3> % mp2 density relaxed end
|  4> *xyz 0 1
|  5>  N       -0.0941657725     1.2246783840    -0.4680642329
|  6>  C       -0.0277694086     0.0379970535    -0.0794417009
|  7>  O        1.0474984940    -0.7105132909     0.3666831555
|  8>  C        0.1810737690    -1.8916077436     0.5557055363
|  9>  C       -0.0946434054    -2.1654038846     2.0088866498
| 10>  C       -1.2882941253    -1.6943670410     2.3880210072
| 11>  C       -1.9914534456    -1.0238101906     1.2566086695
| 12>  O       -3.0903794706    -0.5341396513     1.2701770421
| 13>  C       -1.0330908962    -1.0976406439     0.0529819465
| 14>  H        0.8166589942     1.6850736488    -0.4270832399
| 15>  H        0.5591016812    -2.7365432122    -0.0213888570
| 16>  H        0.6272804717    -2.6589666945     2.6492387974
| 17>  H       -1.7243028936    -1.7432721943     3.3779572615
| 18>  H       -1.5375010524    -1.3858975694    -0.8676776452
| 19> *
| 20>
| 21>                          ****END OF INPUT****

CARTESIAN COORDINATES (ANGSTROEM)
---------------------------------
  N     -0.094166    1.224678   -0.468064
  C     -0.027769    0.037997   -0.079442
  O      1.047498   -0.710513    0.366683
  C      0.181074   -1.891608    0.555706
  C     -0.094643   -2.165404    2.008887
  C     -1.288294   -1.694367    2.388021
  C     -1.991453   -1.023810    1.256609
  O     -3.090379   -0.534140    1.270177
  C     -1.033091   -1.097641    0.052982
  H      0.816659    1.685074   -0.427083
  H      0.559102   -2.736543   -0.021389
  H      0.627280   -2.658967    2.649239
  H     -1.724303   -1.743272    3.377957
  H     -1.537501   -1.385898   -0.867678

 Total Charge           Charge          ....    0
 Multiplicity           Mult            ....    1
 Number of Electrons    NEL             ....   64
 Basis Dimension        Dim             ....  309

ORBITAL ENERGIES
----------------

  NO   OCC          E(Eh)            E(eV)
   0   2.0000     -20.608918      -560.7972
   1   2.0000     -20.564325      -559.5837
   2   2.0000     -15.551869      -423.1879
   3   2.0000     -11.358001      -309.0669
   4   2.0000     -11.355084      -308.9875
   5   2.0000     -11.333872      -308.4103
   6   2.0000     -11.287619      -307.1517
   7   2.0000     -11.275340      -306.8176
   8   2.0000     -11.270904      -306.6969
   9   2.0000      -1.450620       -39.4734
  10   2.0000      -1.407253       -38.2933
  11   2.0000      -1.212663       -32.9982
  12   2.0000      -1.164053       -31.6755
  13   2.0000      -1.034868       -28.1602
  14   2.0000      -0.955492       -26.0003
  15   2.0000      -0.847467       -23.0607
  16   2.0000      -0.791307       -21.5326
  17   2.0000      -0.753916       -20.5151
  18   2.0000      -0.727917       -19.8076
  19   2.0000      -0.697088       -18.9687
  20   2.0000      -0.691435       -18.8149
  21   2.0000      -0.636134       -17.3101
  22   2.0000      -0.624353       -16.9895
  23   2.0000      -0.610573       -16.6145
  24   2.0000      -0.568954       -15.4820
  25   2.0000      -0.541766       -14.7422
  26   2.0000      -0.530713       -14.4414
  27   2.0000      -0.524480       -14.2718
  28   2.0000      -0.454804       -12.3758
  29   2.0000      -0.434579       -11.8255
  30   2.0000      -0.415708       -11.3120
  31   2.0000      -0.410120       -11.1599
  32   0.0000       0.064662         1.7596
  33   0.0000       0.133835         3.6418
  34   0.0000       0.151549         4.1239
  35   0.0000       0.163558         4.4506
  36   0.0000       0.166750         4.5375

MULLIKEN ATOMIC CHARGES
-----------------------
   0 N :   -0.349828
   1 C :    0.085498
   2 O :   -0.272982
   3 C :    0.131137
   4 C :   -0.138064
   5 C :   -0.202654
   6 C :    0.195291
   7 O :   -0.250145
   8 C :   -0.032913
   9 H :    0.234539
  10 H :    0.131895
  11 H :    0.157542
  12 H :    0.155948
  13 H :    0.154738
Sum of atomic charges:    0.0000000

LOEWDIN ATOMIC CHARGES
----------------------
   0 N :   -0.033608
   1 C :   -0.372951
   2 O :    0.225185
   3 C :   -0.196455
   4 C :   -0.086428
   5 C :   -0.092740
   6 C :   -0.287470
   7 O :    0.176554
   8 C :   -0.119598
   9 H :    0.177176
  10 H :    0.144494
  11 H :    0.146799
  12 H :    0.150641
  13 H :    0.168401

  Mayer bond orders larger than 0.1
B(  0-N ,  1-C ) :   2.0847 B(  0-N ,  9-H ) :   0.8413 B(  1-C ,  2-O ) :   1.0490
B(  1-C ,  8-C ) :   0.8768 B(  2-O ,  3-C ) :   0.8725 B(  3-C ,  4-C ) :   0.9088
B(  3-C ,  8-C ) :   0.9333 B(  3-C , 10-H ) :   0.9163 B(  4-C ,  5-C ) :   1.6689
B(  4-C , 11-H ) :   0.9065 B(  5-C ,  6-C ) :   0.9997 B(  5-C , 12-H ) :   0.9109
B(  6-C ,  7-O ) :   2.0164 B(  6-C ,  8-C ) :   0.8463 B(  8-C , 13-H ) :   0.8997

MP2 TOTAL ENERGY:     -435.974646436 Eh
FINAL SINGLE POINT ENERGY      -435.974646435861

DIPOLE MOMENT
-------------
                                X             Y             Z
Electronic contribution:     -1.14626       1.06287      -0.25162
Nuclear contribution   :      2.10384      -2.44539       0.65477
                        -----------------------------------------
Total Dipole Moment    :      0.95758      -1.38252       0.40315
                        -----------------------------------------
Magnitude (a.u.)       :      1.72941
Magnitude (Debye)      :      4.39580

                             ****ORCA TERMINATED NORMALLY****
TOTAL RUN TIME: 0 days 0 hours 14 minutes 44 seconds 501 msec
