                         Program Version 3.0.3 - RELEASE   -
|  1> ! RI-MP2 RIJK def2-TZVP def2-TZVP/C def2-TZVP/JK TIGHTSCF
|  2> % maxcore 2000
|  3> % mp2 density relaxed end
|  4> *xyz 0 1
|  5>  C        0.9488505504     1.3807867205     0.3533255770
|  6>  N        0.7171569001    -0.0543026749     0.2748660386
|  7>  C       -0.6773242329    -0.6350246042     0.3643250935
|  8>  C       -0.3314102606    -2.0639137119    -0.0791639240
|  9>  C        0.7702863409    -2.3202942044     0.6328927916
| 10>  C        0.9528436707    -1.0182091901     1.4239248645
| 11>  C       -0.5271066089    -0.7683733371     1.9478185278
| 12>  C       -0.7054935172     0.5047679357     2.7906621022
| 13>  C       -1.2992979029    -1.8825953208     2.6652382877
| 14>  H        1.8563492085     1.5741543501     0.9366059093
| 15>  H        1.1318349107     1.7641012374    -0.6593552632
| 16>  H        0.1386164458     1.9862679865     0.7819792398
| 17>  H       -1.4980063070    -0.1002507212    -0.1170198387
| 18>  H       -0.8666850021    -2.6708229615    -0.7945653613
| 19>  H        1.3979573773    -3.1984653026     0.6712330606
| 20>  H        1.8366571009    -0.8796947724     2.0495247415
| 21>  H       -1.7039097244     0.9334305900     2.6428721574
| 22>  H       -0.6251686072     0.2491951152     3.8530750914
| 23>  H        0.0279085490     1.2827221208     2.5966899637
| 24>  H       -0.8615666609    -2.0718525647     3.6525818189
| 25>  H       -2.3368374204    -1.5681322225     2.8317229357
| 26>  H       -1.3116599398    -2.8215421977     2.1138571061
| 27> *
| 28>
| 29>                          ****END OF INPUT****

CARTESIAN COORDINATES (ANGSTROEM)
---------------------------------
  C      0.948851    1.380787    0.353326
  N      0.717157   -0.054303    0.274866
  C     -0.677324   -0.635025    0.364325
  C     -0.331410   -2.063914   -0.079164
  C      0.770286   -2.320294    0.632893
  C      0.952844   -1.018209    1.423925
  C     -0.527107   -0.768373    1.947819
  C     -0.705494    0.504768    2.790662
  C     -1.299298   -1.882595    2.665238
  H      1.856349    1.574154    0.936606
  H      1.131835    1.764101   -0.659355
  H      0.138616    1.986268    0.781979
  H     -1.498006   -0.100251   -0.117020
  H     -0.866685   -2.670823   -0.794565
  H      1.397957   -3.198465    0.671233
  H      1.836657   -0.879695    2.049525
  H     -1.703910    0.933431    2.642872
  H     -0.625169    0.249195    3.853075
  H      0.027909    1.282722    2.596690
  H     -0.861567   -2.071853    3.652582
  H     -2.336837   -1.568132    2.831723
  H     -1.311660   -2.821542    2.113857

 Total Charge           Charge          ....    0
 Multiplicity           Mult            ....    1
 Number of Electrons    NEL             ....   68
 Basis Dimension        Dim             ....  357

ORBITAL ENERGIES
----------------

  NO   OCC          E(Eh)            E(eV)
   0   2.0000     -15.534315      -422.7102
   1   2.0000     -11.262371      -306.4647
   2   2.0000     -11.261637      -306.4447
   3   2.0000     -11.243263      -305.9447
   4   2.0000     -11.236898      -305.7715
   5   2.0000     -11.218966      -305.2836
   6   2.0000     -11.217217      -305.2360
   7   2.0000     -11.211721      -305.0864
   8   2.0000     -11.205982      -304.9303
   9   2.0000      -1.259170       -34.2638
  10   2.0000      -1.074870       -29.2487
  11   2.0000      -1.034863       -28.1600
  12   2.0000      -0.930229       -25.3128
  13   2.0000      -0.921595       -25.0779
  14   2.0000      -0.919083       -25.0095
  15   2.0000      -0.820412       -22.3245
  16   2.0000      -0.724117       -19.7042
  17   2.0000      -0.714386       -19.4394
  18   2.0000      -0.689307       -18.7570
  19   2.0000      -0.635483       -17.2924
  20   2.0000      -0.600100       -16.3296
  21   2.0000      -0.592484       -16.1223
  22   2.0000      -0.571210       -15.5434
  23   2.0000      -0.561429       -15.2773
  24   2.0000      -0.536906       -14.6099
  25   2.0000      -0.530956       -14.4481
  26   2.0000      -0.520504       -14.1636
  27   2.0000      -0.507837       -13.8190
  28   2.0000      -0.492665       -13.4061
  29   2.0000      -0.461900       -12.5689
  30   2.0000      -0.457371       -12.4457
  31   2.0000      -0.408117       -11.1054
  32   2.0000      -0.339577        -9.2404
  33   2.0000      -0.331138        -9.0107
  34   0.0000       0.135350         3.6831
  35   0.0000       0.144275         3.9259
  36   0.0000       0.160464         4.3665
  37   0.0000       0.172038         4.6814
  38   0.0000       0.181107         4.9282

MULLIKEN ATOMIC CHARGES
-----------------------
   0 C :   -0.371725
   1 N :   -0.210122
   2 C :    0.055352
   3 C :   -0.240706
   4 C :   -0.222645
   5 C :    0.051438
   6 C :    0.078324
   7 C :   -0.442669
   8 C :   -0.422072
   9 H :    0.135558
  10 H :    0.144780
  11 H :    0.114168
  12 H :    0.132031
  13 H :    0.129032
  14 H :    0.128473
  15 H :    0.129262
  16 H :    0.137388
  17 H :    0.133446
  18 H :    0.142711
  19 H :    0.125733
  20 H :    0.125855
  21 H :    0.146386
Sum of atomic charges:    0.0000000

LOEWDIN ATOMIC CHARGES
----------------------
   0 C :   -0.352642
   1 N :    0.111362
   2 C :   -0.167496
   3 C :   -0.129556
   4 C :   -0.126855
   5 C :   -0.169910
   6 C :   -0.232390
   7 C :   -0.276325
   8 C :   -0.279153
   9 H :    0.119318
  10 H :    0.114791
  11 H :    0.103413
  12 H :    0.131643
  13 H :    0.131412
  14 H :    0.131532
  15 H :    0.131686
  16 H :    0.127483
  17 H :    0.129049
  18 H :    0.123879
  19 H :    0.125303
  20 H :    0.127314
  21 H :    0.126142

  Mayer bond orders larger than 0.1
B(  0-C ,  1-N ) :   0.9018 B(  0-C ,  9-H ) :   0.9327 B(  0-C , 10-H ) :   0.9444
B(  0-C , 11-H ) :   0.9242 B(  1-N ,  2-C ) :   0.8730 B(  1-N ,  5-C ) :   0.8664
B(  2-C ,  3-C ) :   0.9210 B(  2-C ,  6-C ) :   0.8945 B(  2-C , 12-H ) :   0.8944
B(  3-C ,  4-C ) :   1.7682 B(  3-C , 13-H ) :   0.9427 B(  4-C ,  5-C ) :   0.9277
B(  4-C , 14-H ) :   0.9410 B(  5-C ,  6-C ) :   0.8781 B(  5-C , 15-H ) :   0.8989
B(  6-C ,  7-C ) :   0.8788 B(  6-C ,  8-C ) :   0.9131 B(  7-C , 16-H ) :   0.9366
B(  7-C , 17-H ) :   0.9343 B(  7-C , 18-H ) :   0.9393 B(  8-C , 19-H ) :   0.9333
B(  8-C , 20-H ) :   0.9308 B(  8-C , 21-H ) :   0.9334

MP2 TOTAL ENERGY:     -366.477953900 Eh
FINAL SINGLE POINT ENERGY      -366.477953899764

DIPOLE MOMENT
-------------
                                X             Y             Z
Electronic contribution:      2.09315      -3.41854      -4.42845
Nuclear contribution   :     -2.31713       3.53922       4.84220
                        -----------------------------------------
Total Dipole Moment    :     -0.22398       0.12068       0.41375
                        -----------------------------------------
Magnitude (a.u.)       :      0.48571
Magnitude (Debye)      :      1.23459

                             ****ORCA TERMINATED NORMALLY****
TOTAL RUN TIME: 0 days 0 hours 21 minutes 2 seconds 782 msec
