                         Program Version 3.0.3 - RELEASE   -
|  1> ! RI-MP2 RIJK def2-TZVP def2-TZVP/C def2-TZVP/JK TIGHTSCF
|  2> % maxcore 2000
|  3> % mp2 density relaxed end
|  4> *xyz 0 1
|  5>  C        0.0602995635     1.4931019431    -0.0882369910
|  6>  C        0.1221359194    -0.0428092402     0.0022122336
|  7>  C        0.7547810375    -0.5155017380     1.2309381132
|  8>  C        1.2744943819    -0.8504632123     2.2665387586
|  9>  C        1.9126342061    -1.3457597545     3.4822718326
| 10>  C        1.9732291068    -2.8870654367     3.4917831799
| 11>  O        2.6438510355    -3.3825260302     2.3407834905
| 12>  C        2.7543540508    -3.4344615375     4.6820929759
| 13>  O        2.8103541987    -4.8442380493     4.6519155471
| 14>  H        1.0643452302     1.9245270096    -0.0574817544
| 15>  H       -0.4194351528     1.8000379666    -1.0222570196
| 16>  H       -0.5110477810     1.9085763376     0.7461459968
| 17>  H       -0.8925942360    -0.4551096912    -0.0678990341
| 18>  H        0.6673046163    -0.4374850443    -0.8647753303
| 19>  H        2.9341131197    -0.9507027135     3.5557102124
| 20>  H        1.3685367825    -0.9986088481     4.3699737761
| 21>  H        0.9465695256    -3.2827084939     3.5321771617
| 22>  H        2.1950058026    -3.0215780842     1.5669545203
| 23>  H        3.7631924346    -2.9882688766     4.6765650675
| 24>  H        2.2629121320    -3.1487576923     5.6181492064
| 25>  H        3.0742212260    -5.0741808741     3.7526271867
| 26> *
| 27>
| 28>                          ****END OF INPUT****

CARTESIAN COORDINATES (ANGSTROEM)
---------------------------------
  C      0.060300    1.493102   -0.088237
  C      0.122136   -0.042809    0.002212
  C      0.754781   -0.515502    1.230938
  C      1.274494   -0.850463    2.266539
  C      1.912634   -1.345760    3.482272
  C      1.973229   -2.887065    3.491783
  O      2.643851   -3.382526    2.340783
  C      2.754354   -3.434462    4.682093
  O      2.810354   -4.844238    4.651916
  H      1.064345    1.924527   -0.057482
  H     -0.419435    1.800038   -1.022257
  H     -0.511048    1.908576    0.746146
  H     -0.892594   -0.455110   -0.067899
  H      0.667305   -0.437485   -0.864775
  H      2.934113   -0.950703    3.555710
  H      1.368537   -0.998609    4.369974
  H      0.946570   -3.282708    3.532177
  H      2.195006   -3.021578    1.566955
  H      3.763192   -2.988269    4.676565
  H      2.262912   -3.148758    5.618149
  H      3.074221   -5.074181    3.752627

 Total Charge           Charge          ....    0
 Multiplicity           Mult            ....    1
 Number of Electrons    NEL             ....   70
 Basis Dimension        Dim             ....  351

ORBITAL ENERGIES
----------------

  NO   OCC          E(Eh)            E(eV)
   0   2.0000     -20.563227      -559.5539
   1   2.0000     -20.547317      -559.1209
   2   2.0000     -11.289703      -307.2084
   3   2.0000     -11.273840      -306.7768
   4   2.0000     -11.257827      -306.3411
   5   2.0000     -11.257655      -306.3364
   6   2.0000     -11.232548      -305.6532
   7   2.0000     -11.229720      -305.5762
   8   2.0000     -11.228517      -305.5435
   9   2.0000      -1.380645       -37.5693
  10   2.0000      -1.346849       -36.6496
  11   2.0000      -1.094877       -29.7931
  12   2.0000      -1.063203       -28.9312
  13   2.0000      -0.998335       -27.1661
  14   2.0000      -0.935003       -25.4427
  15   2.0000      -0.871512       -23.7150
  16   2.0000      -0.821829       -22.3631
  17   2.0000      -0.727597       -19.7989
  18   2.0000      -0.683539       -18.6000
  19   2.0000      -0.659008       -17.9325
  20   2.0000      -0.656310       -17.8591
  21   2.0000      -0.630639       -17.1606
  22   2.0000      -0.627600       -17.0779
  23   2.0000      -0.593453       -16.1487
  24   2.0000      -0.585310       -15.9271
  25   2.0000      -0.567724       -15.4486
  26   2.0000      -0.554543       -15.0899
  27   2.0000      -0.527738       -14.3605
  28   2.0000      -0.527121       -14.3437
  29   2.0000      -0.516542       -14.0558
  30   2.0000      -0.490500       -13.3472
  31   2.0000      -0.463029       -12.5997
  32   2.0000      -0.436984       -11.8910
  33   2.0000      -0.378773       -10.3069
  34   2.0000      -0.375886       -10.2284
  35   0.0000       0.121630         3.3097
  36   0.0000       0.147027         4.0008
  37   0.0000       0.153604         4.1798
  38   0.0000       0.171870         4.6768
  39   0.0000       0.178825         4.8661

MULLIKEN ATOMIC CHARGES
-----------------------
   0 C :   -0.361351
   1 C :   -0.294136
   2 C :    0.055772
   3 C :   -0.060333
   4 C :   -0.362914
   5 C :    0.080395
   6 O :   -0.498480
   7 C :    0.008056
   8 O :   -0.481958
   9 H :    0.131457
  10 H :    0.133973
  11 H :    0.131301
  12 H :    0.142728
  13 H :    0.139186
  14 H :    0.141736
  15 H :    0.146254
  16 H :    0.089065
  17 H :    0.329932
  18 H :    0.092714
  19 H :    0.104654
  20 H :    0.331949
Sum of atomic charges:    0.0000000

LOEWDIN ATOMIC CHARGES
----------------------
   0 C :   -0.298130
   1 C :   -0.278526
   2 C :   -0.086500
   3 C :   -0.093464
   4 C :   -0.237522
   5 C :   -0.353377
   6 O :   -0.022090
   7 C :   -0.334071
   8 O :   -0.043646
   9 H :    0.124728
  10 H :    0.121675
  11 H :    0.124665
  12 H :    0.153265
  13 H :    0.152501
  14 H :    0.158975
  15 H :    0.159378
  16 H :    0.139057
  17 H :    0.181786
  18 H :    0.120466
  19 H :    0.130531
  20 H :    0.180297

  Mayer bond orders larger than 0.1
B(  0-C ,  1-C ) :   0.9415 B(  0-C ,  9-H ) :   0.9351 B(  0-C , 10-H ) :   0.9385
B(  0-C , 11-H ) :   0.9353 B(  1-C ,  2-C ) :   0.9435 B(  1-C , 12-H ) :   0.9395
B(  1-C , 13-H ) :   0.9378 B(  2-C ,  3-C ) :   2.6799 B(  2-C ,  4-C ) :  -0.1126
B(  3-C ,  4-C ) :   1.0269 B(  4-C ,  5-C ) :   0.9344 B(  4-C , 14-H ) :   0.9117
B(  4-C , 15-H ) :   0.9294 B(  5-C ,  6-O ) :   0.9256 B(  5-C ,  7-C ) :   0.9316
B(  5-C , 16-H ) :   0.9250 B(  6-O , 17-H ) :   0.8317 B(  7-C ,  8-O ) :   0.9468
B(  7-C , 18-H ) :   0.9244 B(  7-C , 19-H ) :   0.9228 B(  8-O , 20-H ) :   0.8289

MP2 TOTAL ENERGY:     -423.495572568 Eh
FINAL SINGLE POINT ENERGY      -423.495572567663

DIPOLE MOMENT
-------------
                                X             Y             Z
Electronic contribution:      2.52656      -6.04257       3.07758
Nuclear contribution   :     -2.99229       6.98401      -3.76778
                        -----------------------------------------
Total Dipole Moment    :     -0.46572       0.94144      -0.69020
                        -----------------------------------------
Magnitude (a.u.)       :      1.25681
Magnitude (Debye)      :      3.19457

                             ****ORCA TERMINATED NORMALLY****
TOTAL RUN TIME: 0 days 0 hours 14 minutes 6 seconds 727 msec
