                         Program Version 3.0.3 - RELEASE   -
|  1> ! RI-MP2 RIJK def2-TZVP def2-TZVP/C def2-TZVP/JK TIGHTSCF
|  2> % maxcore 2000
|  3> % mp2 density relaxed end
|  4> *xyz 0 1
|  5>  C       -0.0394969454     0.7893739134     0.9581899777
|  6>  O       -0.5935060705     0.0100758854    -0.0862214584
|  7>  C        0.3119994845    -0.4221280654    -1.0731760695
|  8>  C        1.1243736552    -1.6838728544    -0.7048415978
|  9>  C        2.2688309053    -1.4437235412     0.1652435939
| 10>  C        3.2291009927    -1.2447343096     0.8649050335
| 11>  C        4.3913984028    -1.0139622397     1.7114913779
| 12>  C       -0.5332157846    -0.6658236859    -2.3238358862
| 13>  O       -0.2176311490    -1.3918449003    -3.2289055867
| 14>  H        0.6402037646     0.2079396143     1.5907258855
| 15>  H        0.5097899588     1.6558004869     0.5597971516
| 16>  H       -0.8779764044     1.1477368690     1.5603272992
| 17>  H        1.0160978241     0.3900229670    -1.3323243284
| 18>  H        0.4319945378    -2.3999741281    -0.2452005978
| 19>  H        1.4543051028    -2.1304819637    -1.6505945070
| 20>  H        4.4046035738    -1.7011950129     2.5646765472
| 21>  H        5.3245012064    -1.1588136359     1.1558718916
| 22>  H        4.3995990976     0.0067369800     2.1100877795
| 23>  H       -1.4806289424    -0.0853732790    -2.3236799158
| 24> *
| 25>
| 26>                          ****END OF INPUT****

CARTESIAN COORDINATES (ANGSTROEM)
---------------------------------
  C     -0.039497    0.789374    0.958190
  O     -0.593506    0.010076   -0.086221
  C      0.311999   -0.422128   -1.073176
  C      1.124374   -1.683873   -0.704842
  C      2.268831   -1.443724    0.165244
  C      3.229101   -1.244734    0.864905
  C      4.391398   -1.013962    1.711491
  C     -0.533216   -0.665824   -2.323836
  O     -0.217631   -1.391845   -3.228906
  H      0.640204    0.207940    1.590726
  H      0.509790    1.655800    0.559797
  H     -0.877976    1.147737    1.560327
  H      1.016098    0.390023   -1.332324
  H      0.431995   -2.399974   -0.245201
  H      1.454305   -2.130482   -1.650595
  H      4.404604   -1.701195    2.564677
  H      5.324501   -1.158814    1.155872
  H      4.399599    0.006737    2.110088
  H     -1.480629   -0.085373   -2.323680

 Total Charge           Charge          ....    0
 Multiplicity           Mult            ....    1
 Number of Electrons    NEL             ....   68
 Basis Dimension        Dim             ....  339

ORBITAL ENERGIES
----------------

  NO   OCC          E(Eh)            E(eV)
   0   2.0000     -20.573510      -559.8337
   1   2.0000     -20.565530      -559.6165
   2   2.0000     -11.335683      -308.4596
   3   2.0000     -11.306767      -307.6728
   4   2.0000     -11.279388      -306.9278
   5   2.0000     -11.255200      -306.2696
   6   2.0000     -11.250751      -306.1485
   7   2.0000     -11.228043      -305.5306
   8   2.0000     -11.223359      -305.4031
   9   2.0000      -1.409419       -38.3522
  10   2.0000      -1.391707       -37.8703
  11   2.0000      -1.089035       -29.6342
  12   2.0000      -1.045401       -28.4468
  13   2.0000      -0.984583       -26.7919
  14   2.0000      -0.927387       -25.2355
  15   2.0000      -0.889376       -24.2011
  16   2.0000      -0.792423       -21.5629
  17   2.0000      -0.710042       -19.3212
  18   2.0000      -0.692662       -18.8483
  19   2.0000      -0.669881       -18.2284
  20   2.0000      -0.646918       -17.6035
  21   2.0000      -0.633611       -17.2414
  22   2.0000      -0.605639       -16.4803
  23   2.0000      -0.593431       -16.1481
  24   2.0000      -0.591298       -16.0900
  25   2.0000      -0.587774       -15.9941
  26   2.0000      -0.572566       -15.5803
  27   2.0000      -0.554594       -15.0913
  28   2.0000      -0.521163       -14.1816
  29   2.0000      -0.498450       -13.5635
  30   2.0000      -0.449171       -12.2226
  31   2.0000      -0.430540       -11.7156
  32   2.0000      -0.373105       -10.1527
  33   2.0000      -0.366690        -9.9782
  34   0.0000       0.120640         3.2828
  35   0.0000       0.130301         3.5457
  36   0.0000       0.155819         4.2401
  37   0.0000       0.171064         4.6549
  38   0.0000       0.182158         4.9568

MULLIKEN ATOMIC CHARGES
-----------------------
   0 C :   -0.220723
   1 O :   -0.319389
   2 C :    0.155767
   3 C :   -0.361152
   4 C :   -0.051318
   5 C :    0.057937
   6 C :   -0.478933
   7 C :    0.085512
   8 O :   -0.262837
   9 H :    0.139267
  10 H :    0.112660
  11 H :    0.141065
  12 H :    0.098227
  13 H :    0.144129
  14 H :    0.172177
  15 H :    0.163402
  16 H :    0.163770
  17 H :    0.157969
  18 H :    0.102471
Sum of atomic charges:    0.0000000

LOEWDIN ATOMIC CHARGES
----------------------
   0 C :   -0.342649
   1 O :    0.160304
   2 C :   -0.322757
   3 C :   -0.226645
   4 C :   -0.096478
   5 C :   -0.110939
   6 C :   -0.296115
   7 C :   -0.262511
   8 O :    0.142821
   9 H :    0.110529
  10 H :    0.104253
  11 H :    0.113939
  12 H :    0.154059
  13 H :    0.162582
  14 H :    0.169355
  15 H :    0.141152
  16 H :    0.141283
  17 H :    0.139465
  18 H :    0.118354

  Mayer bond orders larger than 0.1
B(  0-C ,  1-O ) :   0.8987 B(  0-C ,  9-H ) :   0.9332 B(  0-C , 10-H ) :   0.9365
B(  0-C , 11-H ) :   0.9367 B(  1-O ,  2-C ) :   0.9202 B(  2-C ,  3-C ) :   0.9060
B(  2-C ,  7-C ) :   0.8406 B(  2-C , 12-H ) :   0.9044 B(  3-C ,  4-C ) :   1.0426
B(  3-C ,  5-C ) :  -0.1034 B(  3-C , 13-H ) :   0.9074 B(  3-C , 14-H ) :   0.9228
B(  4-C ,  5-C ) :   2.6825 B(  5-C ,  6-C ) :   0.8550 B(  6-C , 15-H ) :   0.9487
B(  6-C , 16-H ) :   0.9472 B(  6-C , 17-H ) :   0.9457 B(  7-C ,  8-O ) :   1.9916
B(  7-C , 18-H ) :   0.9397

MP2 TOTAL ENERGY:     -422.275087512 Eh
FINAL SINGLE POINT ENERGY      -422.275087512433

DIPOLE MOMENT
-------------
                                X             Y             Z
Electronic contribution:     -4.51071      -2.53932      -6.78631
Nuclear contribution   :      4.97551       3.21238       7.71098
                        -----------------------------------------
Total Dipole Moment    :      0.46480       0.67306       0.92467
                        -----------------------------------------
Magnitude (a.u.)       :      1.23453
Magnitude (Debye)      :      3.13793

                             ****ORCA TERMINATED NORMALLY****
TOTAL RUN TIME: 0 days 0 hours 15 minutes 12 seconds 110 msec
