                         Program Version 3.0.3 - RELEASE   -
|  1> ! RI-MP2 RIJK def2-TZVP def2-TZVP/C def2-TZVP/JK TIGHTSCF
|  2> % maxcore 2000
|  3> % mp2 density relaxed end
|  4> *xyz 0 1
|  5>  C        0.0308315972     1.5812616437    -0.0549326758
|  6>  C        0.0593149752     0.0557513609     0.0506229117
|  7>  O        0.7617813749    -0.3701914867     1.2222374849
|  8>  C       -1.3345348857    -0.5573910441     0.0000642789
|  9>  C       -2.1631285742    -0.4881223770    -1.3109313433
| 10>  C       -2.6869910085    -1.9172892113    -1.0135443824
| 11>  C       -1.5153942133    -2.1187168706     0.0022202905
| 12>  C       -0.3406372735    -2.8722348119    -0.6295281176
| 13>  C       -1.8801701355    -2.7344023192     1.3496841916
| 14>  H        1.0456279547     1.9851882211    -0.0022867596
| 15>  H       -0.4249575428     1.9051966961    -0.9962593370
| 16>  H       -0.5544558092     2.0166183405     0.7650670551
| 17>  H        0.6587922289    -0.3414368521    -0.7767772532
| 18>  H        0.2787947425    -0.0364219250     1.9866807978
| 19>  H       -1.9242613561    -0.1352778774     0.8271729529
| 20>  H       -2.9002090210     0.3131876396    -1.4002203017
| 21>  H       -1.5205117823    -0.4607863765    -2.1968516692
| 22>  H       -3.6605094833    -1.8986523015    -0.5142209146
| 23>  H       -2.7412302378    -2.6185318719    -1.8510201528
| 24>  H       -0.0862003991    -2.4836477064    -1.6214213417
| 25>  H        0.5518732780    -2.8041969846    -0.0005292513
| 26>  H       -0.5951329533    -3.9313309166    -0.7511569539
| 27>  H       -2.1527424225    -3.7913178543     1.2436806647
| 28>  H       -1.0340313881    -2.6748111532     2.0434017737
| 29>  H       -2.7305384250    -2.2160679616     1.8069986223
| 30> *
| 31>
| 32>                          ****END OF INPUT****

CARTESIAN COORDINATES (ANGSTROEM)
---------------------------------
  C      0.030832    1.581262   -0.054933
  C      0.059315    0.055751    0.050623
  O      0.761781   -0.370191    1.222237
  C     -1.334535   -0.557391    0.000064
  C     -2.163129   -0.488122   -1.310931
  C     -2.686991   -1.917289   -1.013544
  C     -1.515394   -2.118717    0.002220
  C     -0.340637   -2.872235   -0.629528
  C     -1.880170   -2.734402    1.349684
  H      1.045628    1.985188   -0.002287
  H     -0.424958    1.905197   -0.996259
  H     -0.554456    2.016618    0.765067
  H      0.658792   -0.341437   -0.776777
  H      0.278795   -0.036422    1.986681
  H     -1.924261   -0.135278    0.827173
  H     -2.900209    0.313188   -1.400220
  H     -1.520512   -0.460786   -2.196852
  H     -3.660509   -1.898652   -0.514221
  H     -2.741230   -2.618532   -1.851020
  H     -0.086200   -2.483648   -1.621421
  H      0.551873   -2.804197   -0.000529
  H     -0.595133   -3.931331   -0.751157
  H     -2.152742   -3.791318    1.243681
  H     -1.034031   -2.674811    2.043402
  H     -2.730538   -2.216068    1.806999

 Total Charge           Charge          ....    0
 Multiplicity           Mult            ....    1
 Number of Electrons    NEL             ....   72
 Basis Dimension        Dim             ....  375

ORBITAL ENERGIES
----------------

  NO   OCC          E(Eh)            E(eV)
   0   2.0000     -20.549383      -559.1771
   1   2.0000     -11.273772      -306.7749
   2   2.0000     -11.229181      -305.5616
   3   2.0000     -11.220883      -305.3357
   4   2.0000     -11.219587      -305.3005
   5   2.0000     -11.215599      -305.1920
   6   2.0000     -11.214657      -305.1663
   7   2.0000     -11.206607      -304.9473
   8   2.0000     -11.205084      -304.9058
   9   2.0000      -1.354228       -36.8504
  10   2.0000      -1.141689       -31.0669
  11   2.0000      -1.023908       -27.8620
  12   2.0000      -0.991228       -26.9727
  13   2.0000      -0.925809       -25.1925
  14   2.0000      -0.907227       -24.6869
  15   2.0000      -0.833013       -22.6674
  16   2.0000      -0.810796       -22.0629
  17   2.0000      -0.723489       -19.6871
  18   2.0000      -0.661234       -17.9931
  19   2.0000      -0.640874       -17.4391
  20   2.0000      -0.619602       -16.8602
  21   2.0000      -0.613503       -16.6943
  22   2.0000      -0.589136       -16.0312
  23   2.0000      -0.567883       -15.4529
  24   2.0000      -0.561030       -15.2664
  25   2.0000      -0.543714       -14.7952
  26   2.0000      -0.534990       -14.5578
  27   2.0000      -0.533129       -14.5072
  28   2.0000      -0.515789       -14.0353
  29   2.0000      -0.495563       -13.4850
  30   2.0000      -0.482953       -13.1418
  31   2.0000      -0.468414       -12.7462
  32   2.0000      -0.451839       -12.2952
  33   2.0000      -0.436811       -11.8862
  34   2.0000      -0.415272       -11.3001
  35   2.0000      -0.399656       -10.8752
  36   0.0000       0.129452         3.5226
  37   0.0000       0.147129         4.0036
  38   0.0000       0.151096         4.1115
  39   0.0000       0.166671         4.5354
  40   0.0000       0.190723         5.1898

MULLIKEN ATOMIC CHARGES
-----------------------
   0 C :   -0.385704
   1 C :    0.126662
   2 O :   -0.478053
   3 C :   -0.213773
   4 C :   -0.260002
   5 C :   -0.235448
   6 C :    0.238521
   7 C :   -0.487961
   8 C :   -0.432458
   9 H :    0.146565
  10 H :    0.130677
  11 H :    0.112140
  12 H :    0.085260
  13 H :    0.308774
  14 H :    0.086092
  15 H :    0.118613
  16 H :    0.114199
  17 H :    0.110330
  18 H :    0.112391
  19 H :    0.130120
  20 H :    0.159550
  21 H :    0.131410
  22 H :    0.127657
  23 H :    0.134080
  24 H :    0.120358
Sum of atomic charges:   -0.0000000

LOEWDIN ATOMIC CHARGES
----------------------
   0 C :   -0.299720
   1 C :   -0.357154
   2 O :   -0.023924
   3 C :   -0.191673
   4 C :   -0.218216
   5 C :   -0.199906
   6 C :   -0.277029
   7 C :   -0.270700
   8 C :   -0.280482
   9 H :    0.125831
  10 H :    0.127483
  11 H :    0.120619
  12 H :    0.146763
  13 H :    0.171723
  14 H :    0.152486
  15 H :    0.123299
  16 H :    0.135055
  17 H :    0.134487
  18 H :    0.125874
  19 H :    0.124645
  20 H :    0.131805
  21 H :    0.125943
  22 H :    0.124919
  23 H :    0.126703
  24 H :    0.121169

  Mayer bond orders larger than 0.1
B(  0-C ,  1-C ) :   0.9310 B(  0-C ,  9-H ) :   0.9447 B(  0-C , 10-H ) :   0.9341
B(  0-C , 11-H ) :   0.9225 B(  1-C ,  2-O ) :   0.8775 B(  1-C ,  3-C ) :   0.9536
B(  1-C , 12-H ) :   0.9073 B(  2-O , 13-H ) :   0.8436 B(  3-C ,  4-C ) :   0.9450
B(  3-C ,  6-C ) :   0.8874 B(  3-C , 14-H ) :   0.9036 B(  4-C ,  5-C ) :   0.9533
B(  4-C , 15-H ) :   0.9228 B(  4-C , 16-H ) :   0.9209 B(  5-C ,  6-C ) :   0.8999
B(  5-C , 17-H ) :   0.9174 B(  5-C , 18-H ) :   0.9242 B(  6-C ,  7-C ) :   0.8827
B(  6-C ,  8-C ) :   0.8792 B(  7-C , 19-H ) :   0.9341 B(  7-C , 20-H ) :   0.9404
B(  7-C , 21-H ) :   0.9331 B(  8-C , 22-H ) :   0.9364 B(  8-C , 23-H ) :   0.9428
B(  8-C , 24-H ) :   0.9321

MP2 TOTAL ENERGY:     -388.822193343 Eh
FINAL SINGLE POINT ENERGY      -388.822193343099

DIPOLE MOMENT
-------------
                                X             Y             Z
Electronic contribution:      1.67953       0.96636       1.17280
Nuclear contribution   :     -2.16794      -0.65330      -1.19150
                        -----------------------------------------
Total Dipole Moment    :     -0.48841       0.31305      -0.01870
                        -----------------------------------------
Magnitude (a.u.)       :      0.58043
Magnitude (Debye)      :      1.47533

                             ****ORCA TERMINATED NORMALLY****
TOTAL RUN TIME: 0 days 0 hours 25 minutes 58 seconds 205 msec
