                         Program Version 3.0.3 - RELEASE   -
|  1> ! RI-MP2 RIJK def2-TZVP def2-TZVP/C def2-TZVP/JK TIGHTSCF
|  2> % maxcore 2000
|  3> % mp2 density relaxed end
|  4> *xyz 0 1
|  5>  C        0.0705439632     1.3090233661     0.1816288149
|  6>  O       -0.0305863846    -0.0658937793    -0.1815344095
|  7>  C       -1.3120562490    -0.5401484330    -0.1393237959
|  8>  C       -2.0138867013    -0.9975624423     1.1545596636
|  9>  O       -3.4318398859    -0.9363503369     0.9320501876
| 10>  C       -3.1466187678    -1.4930530455    -0.3928047015
| 11>  C       -1.7368024447    -1.9881640697     0.0672706272
| 12>  C       -2.4723902599    -0.2931715160    -1.1148208286
| 13>  O       -3.1533477959     0.9278911298    -1.1122998746
| 14>  H        1.1233425111     1.5817677561     0.0881520667
| 15>  H       -0.5342708221     1.9394007271    -0.4800467266
| 16>  H       -0.2562679779     1.4689371778     1.2181940403
| 17>  H       -1.6189177188    -0.8856637357     2.1552244227
| 18>  H       -3.9692476336    -2.0646913859    -0.8149391825
| 19>  H       -1.2079084552    -2.9282216422     0.0194424377
| 20>  H       -2.1868105518    -0.5371014975    -2.1410528460
| 21>  H       -3.5805447458     0.9766324170    -0.2451173756
| 22> *
| 23>
| 24>                          ****END OF INPUT****

CARTESIAN COORDINATES (ANGSTROEM)
---------------------------------
  C      0.070544    1.309023    0.181629
  O     -0.030586   -0.065894   -0.181534
  C     -1.312056   -0.540148   -0.139324
  C     -2.013887   -0.997562    1.154560
  O     -3.431840   -0.936350    0.932050
  C     -3.146619   -1.493053   -0.392805
  C     -1.736802   -1.988164    0.067271
  C     -2.472390   -0.293172   -1.114821
  O     -3.153348    0.927891   -1.112300
  H      1.123343    1.581768    0.088152
  H     -0.534271    1.939401   -0.480047
  H     -0.256268    1.468937    1.218194
  H     -1.618918   -0.885664    2.155224
  H     -3.969248   -2.064691   -0.814939
  H     -1.207908   -2.928222    0.019442
  H     -2.186811   -0.537101   -2.141053
  H     -3.580545    0.976632   -0.245117

 Total Charge           Charge          ....    0
 Multiplicity           Mult            ....    1
 Number of Electrons    NEL             ....   68
 Basis Dimension        Dim             ....  327

ORBITAL ENERGIES
----------------

  NO   OCC          E(Eh)            E(eV)
   0   2.0000     -20.578306      -559.9642
   1   2.0000     -20.568926      -559.7089
   2   2.0000     -20.558460      -559.4241
   3   2.0000     -11.305506      -307.6385
   4   2.0000     -11.301510      -307.5297
   5   2.0000     -11.300499      -307.5022
   6   2.0000     -11.293296      -307.3062
   7   2.0000     -11.278994      -306.9170
   8   2.0000     -11.250341      -306.1373
   9   2.0000      -1.426805       -38.8253
  10   2.0000      -1.394274       -37.9401
  11   2.0000      -1.363323       -37.0979
  12   2.0000      -1.156079       -31.4585
  13   2.0000      -0.983747       -26.7691
  14   2.0000      -0.947572       -25.7847
  15   2.0000      -0.884067       -24.0567
  16   2.0000      -0.785317       -21.3696
  17   2.0000      -0.769622       -20.9425
  18   2.0000      -0.737215       -20.0607
  19   2.0000      -0.689828       -18.7712
  20   2.0000      -0.675205       -18.3733
  21   2.0000      -0.647964       -17.6320
  22   2.0000      -0.628278       -17.0963
  23   2.0000      -0.615624       -16.7520
  24   2.0000      -0.591076       -16.0840
  25   2.0000      -0.571984       -15.5645
  26   2.0000      -0.551258       -15.0005
  27   2.0000      -0.535832       -14.5807
  28   2.0000      -0.522645       -14.2219
  29   2.0000      -0.489501       -13.3200
  30   2.0000      -0.460408       -12.5283
  31   2.0000      -0.434297       -11.8178
  32   2.0000      -0.403310       -10.9746
  33   2.0000      -0.368928       -10.0390
  34   0.0000       0.144897         3.9428
  35   0.0000       0.159353         4.3362
  36   0.0000       0.169072         4.6007
  37   0.0000       0.175777         4.7831
  38   0.0000       0.192685         5.2432

MULLIKEN ATOMIC CHARGES
-----------------------
   0 C :   -0.221521
   1 O :   -0.311609
   2 C :    0.136702
   3 C :   -0.029272
   4 O :   -0.333938
   5 C :    0.008253
   6 C :   -0.189579
   7 C :    0.093964
   8 O :   -0.471850
   9 H :    0.141871
  10 H :    0.147775
  11 H :    0.113584
  12 H :    0.155003
  13 H :    0.141326
  14 H :    0.168795
  15 H :    0.119718
  16 H :    0.330778
Sum of atomic charges:    0.0000000

LOEWDIN ATOMIC CHARGES
----------------------
   0 C :   -0.323998
   1 O :    0.199899
   2 C :   -0.299232
   3 C :   -0.216506
   4 O :    0.149402
   5 C :   -0.179980
   6 C :   -0.105472
   7 C :   -0.292596
   8 O :   -0.007612
   9 H :    0.113894
  10 H :    0.112045
  11 H :    0.104290
  12 H :    0.138545
  13 H :    0.131494
  14 H :    0.139819
  15 H :    0.153039
  16 H :    0.182969

  Mayer bond orders larger than 0.1
B(  0-C ,  1-O ) :   0.8693 B(  0-C ,  9-H ) :   0.9369 B(  0-C , 10-H ) :   0.9350
B(  0-C , 11-H ) :   0.9334 B(  1-O ,  2-C ) :   1.0019 B(  2-C ,  3-C ) :   0.8527
B(  2-C ,  6-C ) :   0.8348 B(  2-C ,  7-C ) :   0.8562 B(  3-C ,  4-O ) :   0.9177
B(  3-C ,  6-C ) :   0.8846 B(  3-C , 12-H ) :   0.9113 B(  4-O ,  5-C ) :   0.8786
B(  5-C ,  6-C ) :   0.9434 B(  5-C ,  7-C ) :   0.9268 B(  5-C , 13-H ) :   0.9128
B(  6-C , 14-H ) :   0.8861 B(  7-C ,  8-O ) :   0.9984 B(  7-C , 15-H ) :   0.9423
B(  8-O , 16-H ) :   0.8173

MP2 TOTAL ENERGY:     -458.140846680 Eh
FINAL SINGLE POINT ENERGY      -458.140846680224

DIPOLE MOMENT
-------------
                                X             Y             Z
Electronic contribution:     -2.55414      -2.75003      -0.06883
Nuclear contribution   :      2.90096       2.50761       0.33216
                        -----------------------------------------
Total Dipole Moment    :      0.34682      -0.24242       0.26333
                        -----------------------------------------
Magnitude (a.u.)       :      0.49839
Magnitude (Debye)      :      1.26680

                             ****ORCA TERMINATED NORMALLY****
TOTAL RUN TIME: 0 days 0 hours 16 minutes 9 seconds 263 msec
