                         Program Version 3.0.3 - RELEASE   -
|  1> ! RI-MP2 RIJK def2-TZVP def2-TZVP/C def2-TZVP/JK TIGHTSCF
|  2> % maxcore 2000
|  3> % mp2 density relaxed end
|  4> *xyz 0 1
|  5>  O       -0.0183082216    -0.1268888619    -0.0418722424
|  6>  C       -0.0489080038     1.0846083928    -0.0171759841
|  7>  C        1.1645916889     1.8655515849     0.1685122243
|  8>  C        2.1538686031     2.5345274668     0.3213454957
|  9>  C       -1.3214865532     1.9068034099    -0.1321674038
| 10>  C       -2.5756001564     1.0992389529    -0.5380354308
| 11>  C       -3.5729372477     1.3758859392     0.6072717764
| 12>  O       -3.1351419755     2.5832331055     1.2197193145
| 13>  C       -1.7274047504     2.5164795166     1.2486386040
| 14>  H        3.0390281131     3.1076370223     0.4572249475
| 15>  H       -1.1300184092     2.7276585990    -0.8293276645
| 16>  H       -2.9630001272     1.4541369810    -1.4952090842
| 17>  H       -2.3393782180     0.0380032061    -0.6320386529
| 18>  H       -4.6019669054     1.5254987723     0.2730548484
| 19>  H       -3.5600626105     0.5523540339     1.3383314671
| 20>  H       -1.3810416553     1.8637211378     2.0673999881
| 21>  H       -1.3343671809     3.5214166508     1.4134117365
| 22> *
| 23>
| 24>                          ****END OF INPUT****

CARTESIAN COORDINATES (ANGSTROEM)
---------------------------------
  O     -0.018308   -0.126889   -0.041872
  C     -0.048908    1.084608   -0.017176
  C      1.164592    1.865552    0.168512
  C      2.153869    2.534527    0.321345
  C     -1.321487    1.906803   -0.132167
  C     -2.575600    1.099239   -0.538035
  C     -3.572937    1.375886    0.607272
  O     -3.135142    2.583233    1.219719
  C     -1.727405    2.516480    1.248639
  H      3.039028    3.107637    0.457225
  H     -1.130018    2.727659   -0.829328
  H     -2.963000    1.454137   -1.495209
  H     -2.339378    0.038003   -0.632039
  H     -4.601967    1.525499    0.273055
  H     -3.560063    0.552354    1.338331
  H     -1.381042    1.863721    2.067400
  H     -1.334367    3.521417    1.413412

 Total Charge           Charge          ....    0
 Multiplicity           Mult            ....    1
 Number of Electrons    NEL             ....   66
 Basis Dimension        Dim             ....  327

ORBITAL ENERGIES
----------------

  NO   OCC          E(Eh)            E(eV)
   0   2.0000     -20.568833      -559.7064
   1   2.0000     -20.563096      -559.5503
   2   2.0000     -11.366051      -309.2860
   3   2.0000     -11.291391      -307.2544
   4   2.0000     -11.279481      -306.9303
   5   2.0000     -11.268822      -306.6402
   6   2.0000     -11.258859      -306.3691
   7   2.0000     -11.256327      -306.3002
   8   2.0000     -11.232140      -305.6421
   9   2.0000      -1.410930       -38.3934
  10   2.0000      -1.390995       -37.8509
  11   2.0000      -1.095864       -29.8200
  12   2.0000      -1.058863       -28.8131
  13   2.0000      -1.007372       -27.4120
  14   2.0000      -0.911837       -24.8123
  15   2.0000      -0.837585       -22.7919
  16   2.0000      -0.805703       -21.9243
  17   2.0000      -0.740450       -20.1487
  18   2.0000      -0.715590       -19.4722
  19   2.0000      -0.694830       -18.9073
  20   2.0000      -0.666390       -18.1334
  21   2.0000      -0.635893       -17.3035
  22   2.0000      -0.620999       -16.8982
  23   2.0000      -0.575076       -15.6486
  24   2.0000      -0.563103       -15.3228
  25   2.0000      -0.535472       -14.5709
  26   2.0000      -0.505589       -13.7578
  27   2.0000      -0.489721       -13.3260
  28   2.0000      -0.476023       -12.9533
  29   2.0000      -0.447704       -12.1827
  30   2.0000      -0.431592       -11.7442
  31   2.0000      -0.426209       -11.5977
  32   2.0000      -0.424642       -11.5551
  33   0.0000       0.076968         2.0944
  34   0.0000       0.134765         3.6671
  35   0.0000       0.149116         4.0576
  36   0.0000       0.158713         4.3188
  37   0.0000       0.163042         4.4366

MULLIKEN ATOMIC CHARGES
-----------------------
   0 O :   -0.266053
   1 C :   -0.016697
   2 C :    0.033865
   3 C :   -0.082562
   4 C :   -0.034572
   5 C :   -0.258476
   6 C :   -0.042067
   7 O :   -0.304542
   8 C :   -0.085987
   9 H :    0.203728
  10 H :    0.126729
  11 H :    0.119929
  12 H :    0.153788
  13 H :    0.120666
  14 H :    0.095327
  15 H :    0.105005
  16 H :    0.131921
Sum of atomic charges:    0.0000000

LOEWDIN ATOMIC CHARGES
----------------------
   0 O :    0.180825
   1 C :   -0.310057
   2 C :   -0.056835
   3 C :   -0.040188
   4 C :   -0.207659
   5 C :   -0.228030
   6 C :   -0.299956
   7 O :    0.155254
   8 C :   -0.279709
   9 H :    0.133135
  10 H :    0.165212
  11 H :    0.137889
  12 H :    0.146228
  13 H :    0.126541
  14 H :    0.120927
  15 H :    0.125955
  16 H :    0.130467

  Mayer bond orders larger than 0.1
B(  0-O ,  1-C ) :   1.9876 B(  1-C ,  2-C ) :   1.0359 B(  1-C ,  3-C ) :  -0.1095
B(  1-C ,  4-C ) :   0.9485 B(  2-C ,  3-C ) :   2.5943 B(  3-C ,  9-H ) :   0.8935
B(  4-C ,  5-C ) :   0.9016 B(  4-C ,  8-C ) :   0.8943 B(  4-C , 10-H ) :   0.9049
B(  5-C ,  6-C ) :   0.9603 B(  5-C , 11-H ) :   0.9272 B(  5-C , 12-H ) :   0.9143
B(  6-C ,  7-O ) :   0.9261 B(  6-C , 13-H ) :   0.9251 B(  6-C , 14-H ) :   0.9285
B(  7-O ,  8-C ) :   0.9446 B(  8-C , 15-H ) :   0.9200 B(  8-C , 16-H ) :   0.9188

MP2 TOTAL ENERGY:     -421.087536346 Eh
FINAL SINGLE POINT ENERGY      -421.087536345670

DIPOLE MOMENT
-------------
                                X             Y             Z
Electronic contribution:      5.43694      -0.92768      -0.13903
Nuclear contribution   :     -5.17801       1.59423      -0.06153
                        -----------------------------------------
Total Dipole Moment    :      0.25893       0.66655      -0.20055
                        -----------------------------------------
Magnitude (a.u.)       :      0.74267
Magnitude (Debye)      :      1.88771

                             ****ORCA TERMINATED NORMALLY****
TOTAL RUN TIME: 0 days 0 hours 17 minutes 13 seconds 917 msec
