                         Program Version 3.0.3 - RELEASE   -
|  1> ! RI-MP2 RIJK def2-TZVP def2-TZVP/C def2-TZVP/JK TIGHTSCF
|  2> % maxcore 2000
|  3> % mp2 density relaxed end
|  4> *xyz 0 1
|  5>  C        0.0857375987     1.4479672955     0.1865617194
|  6>  O        0.0396466988     0.0249886831     0.0593803696
|  7>  C        0.6166094408    -0.6943800582     1.0189252734
|  8>  C        0.7202873023    -2.0505614640     1.1517027484
|  9>  C        1.4373132566    -2.2516191248     2.3660244381
| 10>  C        1.7219145571    -1.0211951431     2.8906064051
| 11>  O        1.2048128384    -0.0455997930     2.0413964752
| 12>  C        2.3905698837    -0.5929922900     4.0432453802
| 13>  C        2.9684161515    -0.2329612877     5.0388353979
| 14>  H        1.1188580551     1.8082254176     0.1986294056
| 15>  H       -0.4349382823     1.8359769574    -0.6887589716
| 16>  H       -0.4190261367     1.7774629210     1.0997698941
| 17>  H        0.3341365265    -2.7892706272     0.4703837807
| 18>  H        1.7154465700    -3.1948127193     2.8091048371
| 19>  H        3.4776072695     0.0806255430     5.9157741169
| 20> *
| 21>
| 22>                          ****END OF INPUT****

CARTESIAN COORDINATES (ANGSTROEM)
---------------------------------
  C      0.085738    1.447967    0.186562
  O      0.039647    0.024989    0.059380
  C      0.616609   -0.694380    1.018925
  C      0.720287   -2.050561    1.151703
  C      1.437313   -2.251619    2.366024
  C      1.721915   -1.021195    2.890606
  O      1.204813   -0.045600    2.041396
  C      2.390570   -0.592992    4.043245
  C      2.968416   -0.232961    5.038835
  H      1.118858    1.808225    0.198629
  H     -0.434938    1.835977   -0.688759
  H     -0.419026    1.777463    1.099770
  H      0.334137   -2.789271    0.470384
  H      1.715447   -3.194813    2.809105
  H      3.477607    0.080626    5.915774

 Total Charge           Charge          ....    0
 Multiplicity           Mult            ....    1
 Number of Electrons    NEL             ....   64
 Basis Dimension        Dim             ....  315

ORBITAL ENERGIES
----------------

  NO   OCC          E(Eh)            E(eV)
   0   2.0000     -20.634334      -561.4888
   1   2.0000     -20.609505      -560.8131
   2   2.0000     -11.367223      -309.3179
   3   2.0000     -11.300278      -307.4962
   4   2.0000     -11.295863      -307.3761
   5   2.0000     -11.249771      -306.1218
   6   2.0000     -11.242312      -305.9189
   7   2.0000     -11.232251      -305.6451
   8   2.0000     -11.222077      -305.3682
   9   2.0000      -1.494235       -40.6602
  10   2.0000      -1.415976       -38.5307
  11   2.0000      -1.101493       -29.9732
  12   2.0000      -1.065711       -28.9995
  13   2.0000      -1.001919       -27.2636
  14   2.0000      -0.948737       -25.8165
  15   2.0000      -0.835668       -22.7397
  16   2.0000      -0.805258       -21.9122
  17   2.0000      -0.763219       -20.7683
  18   2.0000      -0.722280       -19.6543
  19   2.0000      -0.695320       -18.9206
  20   2.0000      -0.681964       -18.5572
  21   2.0000      -0.644291       -17.5321
  22   2.0000      -0.626576       -17.0500
  23   2.0000      -0.586506       -15.9596
  24   2.0000      -0.576757       -15.6944
  25   2.0000      -0.566336       -15.4108
  26   2.0000      -0.531664       -14.4673
  27   2.0000      -0.516260       -14.0481
  28   2.0000      -0.446353       -12.1459
  29   2.0000      -0.404283       -11.0011
  30   2.0000      -0.396036       -10.7767
  31   2.0000      -0.285551        -7.7702
  32   0.0000       0.112442         3.0597
  33   0.0000       0.143639         3.9086
  34   0.0000       0.162452         4.4205
  35   0.0000       0.167162         4.5487
  36   0.0000       0.177236         4.8228

MULLIKEN ATOMIC CHARGES
-----------------------
   0 C :   -0.216083
   1 O :   -0.273063
   2 C :    0.314026
   3 C :   -0.238363
   4 C :   -0.202956
   5 C :    0.010895
   6 O :   -0.227283
   7 C :    0.059222
   8 C :   -0.136574
   9 H :    0.139372
  10 H :    0.150804
  11 H :    0.139328
  12 H :    0.142348
  13 H :    0.143012
  14 H :    0.195315
Sum of atomic charges:    0.0000000

LOEWDIN ATOMIC CHARGES
----------------------
   0 C :   -0.307115
   1 O :    0.241701
   2 C :   -0.377473
   3 C :   -0.171943
   4 C :   -0.135502
   5 C :   -0.233919
   6 O :    0.373270
   7 C :   -0.086497
   8 C :   -0.069826
   9 H :    0.112798
  10 H :    0.117673
  11 H :    0.112794
  12 H :    0.146727
  13 H :    0.148886
  14 H :    0.128425

  Mayer bond orders larger than 0.1
B(  0-C ,  1-O ) :   0.8412 B(  0-C ,  9-H ) :   0.9341 B(  0-C , 10-H ) :   0.9358
B(  0-C , 11-H ) :   0.9341 B(  1-O ,  2-C ) :   1.1223 B(  2-C ,  3-C ) :   1.4840
B(  2-C ,  6-O ) :   1.0481 B(  3-C ,  4-C ) :   1.1965 B(  3-C , 12-H ) :   0.9311
B(  4-C ,  5-C ) :   1.4837 B(  4-C , 13-H ) :   0.9263 B(  5-C ,  6-O ) :   0.9828
B(  5-C ,  7-C ) :   1.1822 B(  5-C ,  8-C ) :  -0.1413 B(  7-C ,  8-C ) :   2.5832
B(  8-C , 14-H ) :   0.8811

MP2 TOTAL ENERGY:     -419.884894602 Eh
FINAL SINGLE POINT ENERGY      -419.884894602284

DIPOLE MOMENT
-------------
                                X             Y             Z
Electronic contribution:      1.18347      -2.19901       1.93845
Nuclear contribution   :     -1.27311       2.58840      -2.07738
                        -----------------------------------------
Total Dipole Moment    :     -0.08964       0.38939      -0.13893
                        -----------------------------------------
Magnitude (a.u.)       :      0.42304
Magnitude (Debye)      :      1.07529

                             ****ORCA TERMINATED NORMALLY****
TOTAL RUN TIME: 0 days 0 hours 14 minutes 5 seconds 334 msec
