                         Program Version 3.0.3 - RELEASE   -
|  1> ! RI-MP2 RIJK def2-TZVP def2-TZVP/C def2-TZVP/JK TIGHTSCF
|  2> % maxcore 2000
|  3> % mp2 density relaxed end
|  4> *xyz 0 1
|  5>  C       -0.0734078921     1.4089227930    -0.0706341870
|  6>  O       -0.0014560263     0.0164435992     0.1094977667
|  7>  C       -1.2493571075    -0.6249453106    -0.0336671599
|  8>  C       -1.0728081668    -2.1223643279     0.2189869755
|  9>  C       -0.5483421568    -2.3930660015     1.6347653625
| 10>  C       -2.3906051316    -2.8571804649    -0.0532794804
| 11>  C       -2.2513974036    -4.3691693758    -0.2097978866
| 12>  C       -3.5488588757    -5.1593783189    -0.2060879592
| 13>  O       -1.1775867241    -4.9095642854    -0.3434083794
| 14>  H        0.9349041700     1.8096411579     0.0595888656
| 15>  H       -0.4329847259     1.6739649927    -1.0780359623
| 16>  H       -0.7423686299     1.8836115310     0.6652734991
| 17>  H       -1.9812282842    -0.1986296666     0.6775230548
| 18>  H       -1.6504623132    -0.4524990141    -1.0485608448
| 19>  H       -0.3318546320    -2.4931378125    -0.4980556107
| 20>  H       -0.3499259473    -3.4578660967     1.7768453791
| 21>  H        0.3770976356    -1.8400967594     1.8079831030
| 22>  H       -1.2780580197    -2.0729000199     2.3896255423
| 23>  H       -3.1329714999    -2.6491585200     0.7298781288
| 24>  H       -2.8513902240    -2.4969286618    -0.9863819353
| 25>  H       -4.2817914708    -4.7168729597    -0.8892474723
| 26>  H       -3.3545256383    -6.1957700861    -0.4845364746
| 27>  H       -3.9927436560    -5.1318923021     0.7961957851
| 28> *
| 29>
| 30>                          ****END OF INPUT****

CARTESIAN COORDINATES (ANGSTROEM)
---------------------------------
  C     -0.073408    1.408923   -0.070634
  O     -0.001456    0.016444    0.109498
  C     -1.249357   -0.624945   -0.033667
  C     -1.072808   -2.122364    0.218987
  C     -0.548342   -2.393066    1.634765
  C     -2.390605   -2.857180   -0.053279
  C     -2.251397   -4.369169   -0.209798
  C     -3.548859   -5.159378   -0.206088
  O     -1.177587   -4.909564   -0.343408
  H      0.934904    1.809641    0.059589
  H     -0.432985    1.673965   -1.078036
  H     -0.742369    1.883612    0.665273
  H     -1.981228   -0.198630    0.677523
  H     -1.650462   -0.452499   -1.048561
  H     -0.331855   -2.493138   -0.498056
  H     -0.349926   -3.457866    1.776845
  H      0.377098   -1.840097    1.807983
  H     -1.278058   -2.072900    2.389626
  H     -3.132971   -2.649159    0.729878
  H     -2.851390   -2.496929   -0.986382
  H     -4.281791   -4.716873   -0.889247
  H     -3.354526   -6.195770   -0.484536
  H     -3.992744   -5.131892    0.796196

 Total Charge           Charge          ....    0
 Multiplicity           Mult            ....    1
 Number of Electrons    NEL             ....   72
 Basis Dimension        Dim             ....  363

ORBITAL ENERGIES
----------------

  NO   OCC          E(Eh)            E(eV)
   0   2.0000     -20.554697      -559.3217
   1   2.0000     -20.542732      -558.9961
   2   2.0000     -11.330825      -308.3274
   3   2.0000     -11.274547      -306.7960
   4   2.0000     -11.270956      -306.6983
   5   2.0000     -11.239227      -305.8349
   6   2.0000     -11.235482      -305.7330
   7   2.0000     -11.227087      -305.5046
   8   2.0000     -11.203066      -304.8509
   9   2.0000      -1.387623       -37.7591
  10   2.0000      -1.376932       -37.4682
  11   2.0000      -1.093495       -29.7555
  12   2.0000      -1.022909       -27.8348
  13   2.0000      -0.960059       -26.1245
  14   2.0000      -0.937265       -25.5043
  15   2.0000      -0.882286       -24.0082
  16   2.0000      -0.789437       -21.4817
  17   2.0000      -0.733637       -19.9633
  18   2.0000      -0.675569       -18.3832
  19   2.0000      -0.661319       -17.9954
  20   2.0000      -0.653404       -17.7800
  21   2.0000      -0.634760       -17.2727
  22   2.0000      -0.622079       -16.9276
  23   2.0000      -0.613682       -16.6991
  24   2.0000      -0.589617       -16.0443
  25   2.0000      -0.563921       -15.3451
  26   2.0000      -0.553402       -15.0588
  27   2.0000      -0.546316       -14.8660
  28   2.0000      -0.531664       -14.4673
  29   2.0000      -0.500918       -13.6307
  30   2.0000      -0.488253       -13.2860
  31   2.0000      -0.479143       -13.0382
  32   2.0000      -0.470339       -12.7986
  33   2.0000      -0.461458       -12.5569
  34   2.0000      -0.422643       -11.5007
  35   2.0000      -0.408788       -11.1237
  36   0.0000       0.123418         3.3584
  37   0.0000       0.142322         3.8728
  38   0.0000       0.145777         3.9668
  39   0.0000       0.170939         4.6515
  40   0.0000       0.181454         4.9376

MULLIKEN ATOMIC CHARGES
-----------------------
   0 C :   -0.215833
   1 O :   -0.301381
   2 C :   -0.049519
   3 C :    0.034812
   4 C :   -0.446541
   5 C :   -0.309248
   6 C :    0.219816
   7 C :   -0.406605
   8 O :   -0.293198
   9 H :    0.139583
  10 H :    0.109663
  11 H :    0.109288
  12 H :    0.085451
  13 H :    0.092938
  14 H :    0.105335
  15 H :    0.152176
  16 H :    0.151839
  17 H :    0.107588
  18 H :    0.135205
  19 H :    0.138639
  20 H :    0.140142
  21 H :    0.154128
  22 H :    0.145724
Sum of atomic charges:   -0.0000000

LOEWDIN ATOMIC CHARGES
----------------------
   0 C :   -0.363012
   1 O :    0.140433
   2 C :   -0.312659
   3 C :   -0.279816
   4 C :   -0.290208
   5 C :   -0.223623
   6 C :   -0.346858
   7 C :   -0.281424
   8 O :    0.150578
   9 H :    0.113562
  10 H :    0.101053
  11 H :    0.100565
  12 H :    0.119633
  13 H :    0.119887
  14 H :    0.162934
  15 H :    0.127343
  16 H :    0.129017
  17 H :    0.119806
  18 H :    0.151415
  19 H :    0.156956
  20 H :    0.133824
  21 H :    0.132834
  22 H :    0.137758

  Mayer bond orders larger than 0.1
B(  0-C ,  1-O ) :   0.9214 B(  0-C ,  9-H ) :   0.9399 B(  0-C , 10-H ) :   0.9370
B(  0-C , 11-H ) :   0.9360 B(  1-O ,  2-C ) :   0.9592 B(  2-C ,  3-C ) :   0.9326
B(  2-C , 12-H ) :   0.9150 B(  2-C , 13-H ) :   0.9273 B(  3-C ,  4-C ) :   0.9112
B(  3-C ,  5-C ) :   0.9077 B(  3-C , 14-H ) :   0.9201 B(  4-C , 15-H ) :   0.9378
B(  4-C , 16-H ) :   0.9361 B(  4-C , 17-H ) :   0.9282 B(  5-C ,  6-C ) :   0.9052
B(  5-C , 18-H ) :   0.9041 B(  5-C , 19-H ) :   0.8996 B(  6-C ,  7-C ) :   0.9238
B(  6-C ,  8-O ) :   1.9840 B(  7-C , 20-H ) :   0.9185 B(  7-C , 21-H ) :   0.9383
B(  7-C , 22-H ) :   0.9167

MP2 TOTAL ENERGY:     -424.731122533 Eh
FINAL SINGLE POINT ENERGY      -424.731122533114

DIPOLE MOMENT
-------------
                                X             Y             Z
Electronic contribution:      2.66340      -4.70822      -2.10570
Nuclear contribution   :     -3.87762       5.39239       2.09654
                        -----------------------------------------
Total Dipole Moment    :     -1.21422       0.68416      -0.00915
                        -----------------------------------------
Magnitude (a.u.)       :      1.39374
Magnitude (Debye)      :      3.54260

                             ****ORCA TERMINATED NORMALLY****
TOTAL RUN TIME: 0 days 0 hours 18 minutes 37 seconds 844 msec
