                         Program Version 3.0.3 - RELEASE   -
|  1> ! RI-MP2 RIJK def2-TZVP def2-TZVP/C def2-TZVP/JK TIGHTSCF
|  2> % maxcore 2000
|  3> % mp2 density relaxed end
|  4> *xyz 0 1
|  5>  C       -0.3903944276     1.5741325840     0.2483910108
|  6>  C        0.1362392676     0.1539740000    -0.0369182293
|  7>  N        0.9895668584     0.1576009343    -1.2046501969
|  8>  C        2.1747132063    -0.5185017983    -1.3674386509
|  9>  N        2.7218610540    -0.6255988655    -2.5151757699
| 10>  C        2.8097596846    -1.0824469372    -0.1040766943
| 11>  O        3.8966656667    -1.6214728279    -0.1628286876
| 12>  C        2.0470801272    -0.9586024656     1.1438295894
| 13>  C        0.8265207240    -0.4129232322     1.1623396110
| 14>  H        0.4380135439     2.2484252918     0.4808212439
| 15>  H       -0.9183390619     1.9630665699    -0.6275415194
| 16>  H       -1.0915316374     1.5656107520     1.0882774320
| 17>  H       -0.7480876591    -0.4870872839    -0.2153322030
| 18>  H        0.5844411923     0.4878807534    -2.0691717595
| 19>  H        3.6099301369    -1.1157747224    -2.3929575915
| 20>  H        2.5130772871    -1.3629545414     2.0364747204
| 21>  H        0.2587289871    -0.3621073708     2.0878757647
| 22> *
| 23>
| 24>                          ****END OF INPUT****

CARTESIAN COORDINATES (ANGSTROEM)
---------------------------------
  C     -0.390394    1.574133    0.248391
  C      0.136239    0.153974   -0.036918
  N      0.989567    0.157601   -1.204650
  C      2.174713   -0.518502   -1.367439
  N      2.721861   -0.625599   -2.515176
  C      2.809760   -1.082447   -0.104077
  O      3.896666   -1.621473   -0.162829
  C      2.047080   -0.958602    1.143830
  C      0.826521   -0.412923    1.162340
  H      0.438014    2.248425    0.480821
  H     -0.918339    1.963067   -0.627542
  H     -1.091532    1.565611    1.088277
  H     -0.748088   -0.487087   -0.215332
  H      0.584441    0.487881   -2.069172
  H      3.609930   -1.115775   -2.392958
  H      2.513077   -1.362955    2.036475
  H      0.258729   -0.362107    2.087876

 Total Charge           Charge          ....    0
 Multiplicity           Mult            ....    1
 Number of Electrons    NEL             ....   66
 Basis Dimension        Dim             ....  327

ORBITAL ENERGIES
----------------

  NO   OCC          E(Eh)            E(eV)
   0   2.0000     -20.561455      -559.5056
   1   2.0000     -15.585472      -424.1023
   2   2.0000     -15.528155      -422.5426
   3   2.0000     -11.348469      -308.8075
   4   2.0000     -11.320755      -308.0534
   5   2.0000     -11.306040      -307.6530
   6   2.0000     -11.286025      -307.1084
   7   2.0000     -11.258219      -306.3517
   8   2.0000     -11.246237      -306.0257
   9   2.0000      -1.403779       -38.1988
  10   2.0000      -1.287612       -35.0377
  11   2.0000      -1.179378       -32.0925
  12   2.0000      -1.103042       -30.0153
  13   2.0000      -1.042045       -28.3555
  14   2.0000      -0.928612       -25.2688
  15   2.0000      -0.872997       -23.7554
  16   2.0000      -0.836023       -22.7493
  17   2.0000      -0.730834       -19.8870
  18   2.0000      -0.718660       -19.5557
  19   2.0000      -0.682672       -18.5764
  20   2.0000      -0.653231       -17.7753
  21   2.0000      -0.645454       -17.5637
  22   2.0000      -0.625717       -17.0266
  23   2.0000      -0.590392       -16.0654
  24   2.0000      -0.586956       -15.9719
  25   2.0000      -0.558085       -15.1863
  26   2.0000      -0.551402       -15.0044
  27   2.0000      -0.526399       -14.3240
  28   2.0000      -0.495982       -13.4964
  29   2.0000      -0.464440       -12.6381
  30   2.0000      -0.416674       -11.3383
  31   2.0000      -0.398720       -10.8497
  32   2.0000      -0.356075        -9.6893
  33   0.0000       0.059451         1.6177
  34   0.0000       0.119422         3.2496
  35   0.0000       0.141820         3.8591
  36   0.0000       0.158304         4.3077
  37   0.0000       0.166552         4.5321

MULLIKEN ATOMIC CHARGES
-----------------------
   0 C :   -0.387956
   1 C :    0.083724
   2 N :   -0.304010
   3 C :    0.035912
   4 N :   -0.369025
   5 C :    0.289970
   6 O :   -0.299251
   7 C :   -0.227378
   8 C :   -0.108230
   9 H :    0.141459
  10 H :    0.137099
  11 H :    0.130332
  12 H :    0.113720
  13 H :    0.237544
  14 H :    0.235765
  15 H :    0.144749
  16 H :    0.145574
Sum of atomic charges:    0.0000000

LOEWDIN ATOMIC CHARGES
----------------------
   0 C :   -0.278907
   1 C :   -0.299485
   2 N :    0.139664
   3 C :   -0.366242
   4 N :   -0.063884
   5 C :   -0.292924
   6 O :    0.160910
   7 C :   -0.122971
   8 C :   -0.096354
   9 H :    0.129514
  10 H :    0.125725
  11 H :    0.126524
  12 H :    0.160576
  13 H :    0.194191
  14 H :    0.172029
  15 H :    0.156338
  16 H :    0.155297

  Mayer bond orders larger than 0.1
B(  0-C ,  1-C ) :   0.8916 B(  0-C ,  9-H ) :   0.9294 B(  0-C , 10-H ) :   0.9343
B(  0-C , 11-H ) :   0.9300 B(  1-C ,  2-N ) :   0.9367 B(  1-C ,  8-C ) :   0.9259
B(  1-C , 12-H ) :   0.9116 B(  2-N ,  3-C ) :   1.1214 B(  2-N , 13-H ) :   0.8592
B(  3-C ,  4-N ) :   1.9445 B(  3-C ,  5-C ) :   0.9021 B(  4-N , 14-H ) :   0.8501
B(  5-C ,  6-O ) :   1.8605 B(  5-C ,  7-C ) :   1.0149 B(  7-C ,  8-C ) :   1.6885
B(  7-C , 15-H ) :   0.9151 B(  8-C , 16-H ) :   0.9137

MP2 TOTAL ENERGY:     -417.330318839 Eh
FINAL SINGLE POINT ENERGY      -417.330318839025

DIPOLE MOMENT
-------------
                                X             Y             Z
Electronic contribution:      6.68293      -4.87250      -1.73054
Nuclear contribution   :     -8.32353       5.42750       2.87446
                        -----------------------------------------
Total Dipole Moment    :     -1.64060       0.55500       1.14392
                        -----------------------------------------
Magnitude (a.u.)       :      2.07560
Magnitude (Debye)      :      5.27577

                             ****ORCA TERMINATED NORMALLY****
TOTAL RUN TIME: 0 days 0 hours 16 minutes 48 seconds 512 msec
