                         Program Version 3.0.3 - RELEASE   -
|  1> ! RI-MP2 RIJK def2-TZVP def2-TZVP/C def2-TZVP/JK TIGHTSCF
|  2> % maxcore 2000
|  3> % mp2 density relaxed end
|  4> *xyz 0 1
|  5>  C        0.1242392549     1.5752636554    -0.0383231624
|  6>  C        0.1031669283     0.0628784527     0.0609429021
|  7>  N        1.0937305950    -0.6535916227    -0.7846884316
|  8>  C        1.3273638319    -1.6594716772     0.2709114035
|  9>  C        2.7203341183    -2.0654809880     0.4435746289
| 10>  N        3.8263230905    -2.3656951583     0.5932881550
| 11>  C        0.7361816517    -0.6342913162     1.3088960280
| 12>  O        1.6684652957     0.1003633468     2.0410207421
| 13>  H        1.1195616947     1.9720155410     0.1757041967
| 14>  H       -0.1590380160     1.8957634426    -1.0461556941
| 15>  H       -0.5832467073     2.0175481211     0.6702043774
| 16>  H       -0.9233801557    -0.3103349815    -0.0787350586
| 17>  H        0.7682495137    -1.0151666250    -1.6746965528
| 18>  H        0.6990058124    -2.5589804990     0.2070434854
| 19>  H        0.0375790026    -1.0564272083     2.0316003983
| 20>  H        2.3754847694     0.3887460165     1.4514834021
| 21> *
| 22>
| 23>                          ****END OF INPUT****

CARTESIAN COORDINATES (ANGSTROEM)
---------------------------------
  C      0.124239    1.575264   -0.038323
  C      0.103167    0.062878    0.060943
  N      1.093731   -0.653592   -0.784688
  C      1.327364   -1.659472    0.270911
  C      2.720334   -2.065481    0.443575
  N      3.826323   -2.365695    0.593288
  C      0.736182   -0.634291    1.308896
  O      1.668465    0.100363    2.041021
  H      1.119562    1.972016    0.175704
  H     -0.159038    1.895763   -1.046156
  H     -0.583247    2.017548    0.670204
  H     -0.923380   -0.310335   -0.078735
  H      0.768250   -1.015167   -1.674697
  H      0.699006   -2.558980    0.207043
  H      0.037579   -1.056427    2.031600
  H      2.375485    0.388746    1.451483

 Total Charge           Charge          ....    0
 Multiplicity           Mult            ....    1
 Number of Electrons    NEL             ....   60
 Basis Dimension        Dim             ....  296

ORBITAL ENERGIES
----------------

  NO   OCC          E(Eh)            E(eV)
   0   2.0000     -20.579586      -559.9990
   1   2.0000     -15.578276      -423.9064
   2   2.0000     -15.574388      -423.8006
   3   2.0000     -11.316949      -307.9498
   4   2.0000     -11.315412      -307.9080
   5   2.0000     -11.283299      -307.0342
   6   2.0000     -11.273319      -306.7626
   7   2.0000     -11.230500      -305.5974
   8   2.0000      -1.395314       -37.9684
   9   2.0000      -1.267797       -34.4985
  10   2.0000      -1.216463       -33.1017
  11   2.0000      -1.033636       -28.1267
  12   2.0000      -0.997101       -27.1325
  13   2.0000      -0.924028       -25.1441
  14   2.0000      -0.806671       -21.9506
  15   2.0000      -0.751926       -20.4609
  16   2.0000      -0.719984       -19.5917
  17   2.0000      -0.648317       -17.6416
  18   2.0000      -0.639150       -17.3922
  19   2.0000      -0.627474       -17.0744
  20   2.0000      -0.607269       -16.5246
  21   2.0000      -0.567355       -15.4385
  22   2.0000      -0.555827       -15.1248
  23   2.0000      -0.540502       -14.7078
  24   2.0000      -0.529805       -14.4167
  25   2.0000      -0.500963       -13.6319
  26   2.0000      -0.470538       -12.8040
  27   2.0000      -0.462392       -12.5823
  28   2.0000      -0.434066       -11.8115
  29   2.0000      -0.415184       -11.2977
  30   0.0000       0.109392         2.9767
  31   0.0000       0.139284         3.7901
  32   0.0000       0.141691         3.8556
  33   0.0000       0.154112         4.1936
  34   0.0000       0.181431         4.9370

MULLIKEN ATOMIC CHARGES
-----------------------
   0 C :   -0.347748
   1 C :   -0.041398
   2 N :   -0.349203
   3 C :    0.028431
   4 C :   -0.178950
   5 N :   -0.043264
   6 C :    0.079916
   7 O :   -0.439330
   8 H :    0.110300
   9 H :    0.134761
  10 H :    0.133919
  11 H :    0.098892
  12 H :    0.214178
  13 H :    0.137699
  14 H :    0.127461
  15 H :    0.334335
Sum of atomic charges:   -0.0000000

LOEWDIN ATOMIC CHARGES
----------------------
   0 C :   -0.295481
   1 C :   -0.287947
   2 N :    0.033477
   3 C :   -0.261294
   4 C :   -0.176447
   5 N :    0.071302
   6 C :   -0.275428
   7 O :    0.023561
   8 H :    0.123082
   9 H :    0.127947
  10 H :    0.130367
  11 H :    0.139003
  12 H :    0.162045
  13 H :    0.159288
  14 H :    0.138609
  15 H :    0.187917

  Mayer bond orders larger than 0.1
B(  0-C ,  1-C ) :   0.9312 B(  0-C ,  8-H ) :   0.9237 B(  0-C ,  9-H ) :   0.9376
B(  0-C , 10-H ) :   0.9339 B(  1-C ,  2-N ) :   0.9383 B(  1-C ,  6-C ) :   0.9120
B(  1-C , 11-H ) :   0.9257 B(  2-N ,  3-C ) :   0.9994 B(  2-N , 12-H ) :   0.8773
B(  3-C ,  4-C ) :   0.9295 B(  3-C ,  6-C ) :   0.8747 B(  3-C , 13-H ) :   0.9033
B(  4-C ,  5-N ) :   2.8599 B(  6-C ,  7-O ) :   0.9992 B(  6-C , 14-H ) :   0.9216
B(  7-O , 15-H ) :   0.8258

MP2 TOTAL ENERGY:     -379.278023163 Eh
FINAL SINGLE POINT ENERGY      -379.278023163042

DIPOLE MOMENT
-------------
                                X             Y             Z
Electronic contribution:      5.72655      -5.79454       1.44630
Nuclear contribution   :     -7.50997       6.07306      -2.12298
                        -----------------------------------------
Total Dipole Moment    :     -1.78342       0.27852      -0.67668
                        -----------------------------------------
Magnitude (a.u.)       :      1.92771
Magnitude (Debye)      :      4.89984

                             ****ORCA TERMINATED NORMALLY****
TOTAL RUN TIME: 0 days 0 hours 12 minutes 8 seconds 372 msec
