                         Program Version 3.0.3 - RELEASE   -
|  1> ! RI-MP2 RIJK def2-TZVP def2-TZVP/C def2-TZVP/JK TIGHTSCF
|  2> % maxcore 2000
|  3> % mp2 density relaxed end
|  4> *xyz 0 1
|  5>  C       -0.1580457926     1.5593851886     0.0153200292
|  6>  C        0.0611544856     0.0444034366    -0.0194961295
|  7>  C        0.8848001538    -0.4915630161    -1.2045070996
|  8>  C        1.9555314908    -1.3873308522    -0.5921984710
|  9>  O        2.7670265354    -2.0691207784    -1.1680702266
| 10>  N        1.8553805834    -1.2727198189     0.7934766592
| 11>  C        2.7514128852    -1.9452789543     1.7168073224
| 12>  C        0.8239135856    -0.4422803877     1.2153656758
| 13>  O        0.5937285662    -0.1781577781     2.3708296946
| 14>  H        0.7949196966     2.0951382854    -0.0503204762
| 15>  H       -0.7859983182     1.8799400375    -0.8206599149
| 16>  H       -0.6443906584     1.8469764371     0.9504051384
| 17>  H       -0.9161694236    -0.4517457011     0.0168186996
| 18>  H        0.3048117644    -1.0631684163    -1.9324205080
| 19>  H        1.3878159948     0.3094871679    -1.7565830726
| 20>  H        3.4653634171    -2.5167402839     1.1234246059
| 21>  H        3.2740935518    -1.2125146955     2.3366413001
| 22>  H        2.1877817420    -2.6126124906     2.3737245331
| 23> *
| 24>
| 25>                          ****END OF INPUT****

CARTESIAN COORDINATES (ANGSTROEM)
---------------------------------
  C     -0.158046    1.559385    0.015320
  C      0.061154    0.044403   -0.019496
  C      0.884800   -0.491563   -1.204507
  C      1.955531   -1.387331   -0.592198
  O      2.767027   -2.069121   -1.168070
  N      1.855381   -1.272720    0.793477
  C      2.751413   -1.945279    1.716807
  C      0.823914   -0.442280    1.215366
  O      0.593729   -0.178158    2.370830
  H      0.794920    2.095138   -0.050320
  H     -0.785998    1.879940   -0.820660
  H     -0.644391    1.846976    0.950405
  H     -0.916169   -0.451746    0.016819
  H      0.304812   -1.063168   -1.932421
  H      1.387816    0.309487   -1.756583
  H      3.465363   -2.516740    1.123425
  H      3.274094   -1.212515    2.336641
  H      2.187782   -2.612612    2.373725

 Total Charge           Charge          ....    0
 Multiplicity           Mult            ....    1
 Number of Electrons    NEL             ....   68
 Basis Dimension        Dim             ....  333

ORBITAL ENERGIES
----------------

  NO   OCC          E(Eh)            E(eV)
   0   2.0000     -20.546723      -559.1048
   1   2.0000     -20.546516      -559.0991
   2   2.0000     -15.620055      -425.0433
   3   2.0000     -11.373153      -309.4792
   4   2.0000     -11.368839      -309.3618
   5   2.0000     -11.269469      -306.6578
   6   2.0000     -11.268152      -306.6220
   7   2.0000     -11.261117      -306.4306
   8   2.0000     -11.239388      -305.8393
   9   2.0000      -1.422028       -38.6953
  10   2.0000      -1.400407       -38.1070
  11   2.0000      -1.278137       -34.7799
  12   2.0000      -1.116987       -30.3948
  13   2.0000      -1.004046       -27.3215
  14   2.0000      -0.959935       -26.1212
  15   2.0000      -0.900320       -24.4989
  16   2.0000      -0.830862       -22.6089
  17   2.0000      -0.747680       -20.3454
  18   2.0000      -0.695160       -18.9163
  19   2.0000      -0.684347       -18.6220
  20   2.0000      -0.663171       -18.0458
  21   2.0000      -0.631353       -17.1800
  22   2.0000      -0.629142       -17.1198
  23   2.0000      -0.603961       -16.4346
  24   2.0000      -0.591459       -16.0944
  25   2.0000      -0.570721       -15.5301
  26   2.0000      -0.561363       -15.2755
  27   2.0000      -0.545954       -14.8562
  28   2.0000      -0.541472       -14.7342
  29   2.0000      -0.527272       -14.3478
  30   2.0000      -0.494587       -13.4584
  31   2.0000      -0.454416       -12.3653
  32   2.0000      -0.426689       -11.6108
  33   2.0000      -0.413536       -11.2529
  34   0.0000       0.115359         3.1391
  35   0.0000       0.143368         3.9012
  36   0.0000       0.151647         4.1265
  37   0.0000       0.158425         4.3110
  38   0.0000       0.163020         4.4360

MULLIKEN ATOMIC CHARGES
-----------------------
   0 C :   -0.424386
   1 C :   -0.003143
   2 C :   -0.225532
   3 C :    0.188139
   4 O :   -0.317720
   5 N :   -0.071558
   6 C :   -0.321416
   7 C :    0.158701
   8 O :   -0.316220
   9 H :    0.129680
  10 H :    0.142202
  11 H :    0.158838
  12 H :    0.122945
  13 H :    0.149994
  14 H :    0.145446
  15 H :    0.178292
  16 H :    0.153463
  17 H :    0.152276
Sum of atomic charges:   -0.0000000

LOEWDIN ATOMIC CHARGES
----------------------
   0 C :   -0.280913
   1 C :   -0.230700
   2 C :   -0.187633
   3 C :   -0.388985
   4 O :    0.120244
   5 N :    0.220910
   6 C :   -0.265575
   7 C :   -0.372703
   8 O :    0.126737
   9 H :    0.127005
  10 H :    0.126354
  11 H :    0.134391
  12 H :    0.168670
  13 H :    0.153275
  14 H :    0.158804
  15 H :    0.135057
  16 H :    0.127715
  17 H :    0.127350

  Mayer bond orders larger than 0.1
B(  0-C ,  1-C ) :   0.9015 B(  0-C ,  9-H ) :   0.9291 B(  0-C , 10-H ) :   0.9394
B(  0-C , 11-H ) :   0.9323 B(  1-C ,  2-C ) :   0.9153 B(  1-C ,  7-C ) :   0.8957
B(  1-C , 12-H ) :   0.9004 B(  2-C ,  3-C ) :   0.9211 B(  2-C , 13-H ) :   0.9144
B(  2-C , 14-H ) :   0.9015 B(  3-C ,  4-O ) :   2.0016 B(  3-C ,  5-N ) :   1.0461
B(  5-N ,  6-C ) :   0.8473 B(  5-N ,  7-C ) :   1.0448 B(  6-C , 15-H ) :   0.9205
B(  6-C , 16-H ) :   0.9298 B(  6-C , 17-H ) :   0.9305 B(  7-C ,  8-O ) :   1.9998

MP2 TOTAL ENERGY:     -438.456266315 Eh
FINAL SINGLE POINT ENERGY      -438.456266314619

DIPOLE MOMENT
-------------
                                X             Y             Z
Electronic contribution:      2.03093      -3.86720       0.63728
Nuclear contribution   :     -2.42186       4.17631      -0.95653
                        -----------------------------------------
Total Dipole Moment    :     -0.39093       0.30911      -0.31925
                        -----------------------------------------
Magnitude (a.u.)       :      0.59186
Magnitude (Debye)      :      1.50438

                             ****ORCA TERMINATED NORMALLY****
TOTAL RUN TIME: 0 days 0 hours 16 minutes 6 seconds 250 msec
