                         Program Version 3.0.3 - RELEASE   -
|  1> ! RI-MP2 RIJK def2-TZVP def2-TZVP/C def2-TZVP/JK TIGHTSCF
|  2> % maxcore 2000
|  3> % mp2 density relaxed end
|  4> *xyz 0 1
|  5>  C        0.0312957412     1.5897097002     0.0702743297
|  6>  C        1.5284853745     1.8821044179    -0.0173795818
|  7>  O        2.2123991776     1.6593714444     1.2369973530
|  8>  C        2.6397124860     0.3334346034     0.8272913959
|  9>  C        1.8829489118    -0.7790705341     1.5395356644
| 10>  C        0.3515195980    -0.6293490726     1.3670720173
| 11>  C       -0.0024185418     0.0441763716     0.0190519977
| 12>  O        1.0114411361    -0.2702941941    -0.9538664701
| 13>  C        2.0947260260     0.5646505998    -0.6092605251
| 14>  H       -0.4171679640     2.0100743684     0.9733057248
| 15>  H       -0.4816885989     1.9997439319    -0.8059315397
| 16>  H        1.7852789871     2.8490991795    -0.4565167931
| 17>  H        3.7250981018     0.2244174852     0.9291915595
| 18>  H        2.2145268741    -1.7283407708     1.1033827679
| 19>  H        2.1534648789    -0.8012944920     2.5997637944
| 20>  H       -0.1130843614    -1.6185068312     1.4186334301
| 21>  H       -0.0697490603    -0.0394036694     2.1867601726
| 22>  H       -0.9479000341    -0.3366398927    -0.3725069821
| 23>  H        2.8097006875     0.5862223545    -1.4303436355
| 24> *
| 25>
| 26>                          ****END OF INPUT****

CARTESIAN COORDINATES (ANGSTROEM)
---------------------------------
  C      0.031296    1.589710    0.070274
  C      1.528485    1.882104   -0.017380
  O      2.212399    1.659371    1.236997
  C      2.639712    0.333435    0.827291
  C      1.882949   -0.779071    1.539536
  C      0.351520   -0.629349    1.367072
  C     -0.002419    0.044176    0.019052
  O      1.011441   -0.270294   -0.953866
  C      2.094726    0.564651   -0.609261
  H     -0.417168    2.010074    0.973306
  H     -0.481689    1.999744   -0.805932
  H      1.785279    2.849099   -0.456517
  H      3.725098    0.224417    0.929192
  H      2.214527   -1.728341    1.103383
  H      2.153465   -0.801294    2.599764
  H     -0.113084   -1.618507    1.418633
  H     -0.069749   -0.039404    2.186760
  H     -0.947900   -0.336640   -0.372507
  H      2.809701    0.586222   -1.430344

 Total Charge           Charge          ....    0
 Multiplicity           Mult            ....    1
 Number of Electrons    NEL             ....   68
 Basis Dimension        Dim             ....  339

ORBITAL ENERGIES
----------------

  NO   OCC          E(Eh)            E(eV)
   0   2.0000     -20.558488      -559.4249
   1   2.0000     -20.546202      -559.0906
   2   2.0000     -11.282326      -307.0077
   3   2.0000     -11.281298      -306.9797
   4   2.0000     -11.280509      -306.9583
   5   2.0000     -11.279467      -306.9299
   6   2.0000     -11.225223      -305.4538
   7   2.0000     -11.224579      -305.4363
   8   2.0000     -11.223809      -305.4154
   9   2.0000      -1.405519       -38.2461
  10   2.0000      -1.359514       -36.9943
  11   2.0000      -1.066641       -29.0248
  12   2.0000      -1.044323       -28.4175
  13   2.0000      -1.003259       -27.3001
  14   2.0000      -0.887965       -24.1628
  15   2.0000      -0.865384       -23.5483
  16   2.0000      -0.786351       -21.3977
  17   2.0000      -0.730493       -19.8777
  18   2.0000      -0.712358       -19.3842
  19   2.0000      -0.672346       -18.2955
  20   2.0000      -0.640790       -17.4368
  21   2.0000      -0.618737       -16.8367
  22   2.0000      -0.600276       -16.3343
  23   2.0000      -0.582892       -15.8613
  24   2.0000      -0.570125       -15.5139
  25   2.0000      -0.550093       -14.9688
  26   2.0000      -0.532621       -14.4933
  27   2.0000      -0.508525       -13.8377
  28   2.0000      -0.494076       -13.4445
  29   2.0000      -0.475380       -12.9357
  30   2.0000      -0.458723       -12.4825
  31   2.0000      -0.445016       -12.1095
  32   2.0000      -0.409923       -11.1546
  33   2.0000      -0.398876       -10.8540
  34   0.0000       0.138359         3.7649
  35   0.0000       0.157744         4.2924
  36   0.0000       0.164236         4.4691
  37   0.0000       0.178701         4.8627
  38   0.0000       0.188395         5.1265

MULLIKEN ATOMIC CHARGES
-----------------------
   0 C :   -0.303522
   1 C :    0.083412
   2 O :   -0.346409
   3 C :    0.080905
   4 C :   -0.231690
   5 C :   -0.265739
   6 C :    0.143003
   7 O :   -0.322894
   8 C :   -0.018756
   9 H :    0.126473
  10 H :    0.119836
  11 H :    0.109580
  12 H :    0.103303
  13 H :    0.115310
  14 H :    0.122991
  15 H :    0.121836
  16 H :    0.114265
  17 H :    0.120712
  18 H :    0.127381
Sum of atomic charges:   -0.0000000

LOEWDIN ATOMIC CHARGES
----------------------
   0 C :   -0.222527
   1 C :   -0.256635
   2 O :    0.152984
   3 C :   -0.259090
   4 C :   -0.240305
   5 C :   -0.235980
   6 C :   -0.281831
   7 O :    0.196584
   8 C :   -0.254754
   9 H :    0.144112
  10 H :    0.144000
  11 H :    0.132183
  12 H :    0.134364
  13 H :    0.147916
  14 H :    0.141659
  15 H :    0.137682
  16 H :    0.141723
  17 H :    0.141434
  18 H :    0.136480

  Mayer bond orders larger than 0.1
B(  0-C ,  1-C ) :   0.9282 B(  0-C ,  6-C ) :   0.9505 B(  0-C ,  9-H ) :   0.9243
B(  0-C , 10-H ) :   0.9118 B(  1-C ,  2-O ) :   0.9531 B(  1-C ,  8-C ) :   0.9255
B(  1-C , 11-H ) :   0.9262 B(  2-O ,  3-C ) :   0.9539 B(  3-C ,  4-C ) :   0.9265
B(  3-C ,  8-C ) :   0.9250 B(  3-C , 12-H ) :   0.9184 B(  4-C ,  5-C ) :   0.9527
B(  4-C , 13-H ) :   0.9070 B(  4-C , 14-H ) :   0.9217 B(  5-C ,  6-C ) :   0.9254
B(  5-C , 15-H ) :   0.9296 B(  5-C , 16-H ) :   0.9119 B(  6-C ,  7-O ) :   0.8967
B(  6-C , 17-H ) :   0.9294 B(  7-O ,  8-C ) :   1.0284 B(  8-C , 18-H ) :   0.9221

MP2 TOTAL ENERGY:     -422.334073478 Eh
FINAL SINGLE POINT ENERGY      -422.334073478150

DIPOLE MOMENT
-------------
                                X             Y             Z
Electronic contribution:      2.06582       1.52741      -2.17562
Nuclear contribution   :     -2.24195      -1.61618       2.10563
                        -----------------------------------------
Total Dipole Moment    :     -0.17614      -0.08877      -0.06999
                        -----------------------------------------
Magnitude (a.u.)       :      0.20929
Magnitude (Debye)      :      0.53198

                             ****ORCA TERMINATED NORMALLY****
TOTAL RUN TIME: 0 days 0 hours 18 minutes 47 seconds 34 msec
