                         Program Version 3.0.3 - RELEASE   -
|  1> ! RI-MP2 RIJK def2-TZVP def2-TZVP/C def2-TZVP/JK TIGHTSCF
|  2> % maxcore 2000
|  3> % mp2 density relaxed end
|  4> *xyz 0 1
|  5>  C        0.0671116094     1.3206387520     0.2750922933
|  6>  O       -0.0001656800    -0.0763236907    -0.0403255096
|  7>  C        0.6548537506    -0.4449877831    -1.1601401297
|  8>  O        1.2631770563     0.3106657087    -1.8673544220
|  9>  C        0.4826608854    -1.9491484815    -1.3661704894
| 10>  C        1.1910304166    -2.4756736703    -2.5197319044
| 11>  C        1.7764174785    -2.9342109957    -3.4640272142
| 12>  C        2.4790176315    -3.4564221183    -4.6284465184
| 13>  O        3.3441360739    -4.5144100709    -4.2319510258
| 14>  H        1.1042193504     1.6326727946     0.4210862989
| 15>  H       -0.3693299909     1.9182736013    -0.5291556742
| 16>  H       -0.5027698549     1.4444860602     1.1958848893
| 17>  H        0.8101553117    -2.4495073373    -0.4463953367
| 18>  H       -0.5944796077    -2.1489075067    -1.4339938914
| 19>  H        1.7407666377    -3.8029370915    -5.3702242291
| 20>  H        3.0419958708    -2.6344937910    -5.0996023464
| 21>  H        3.8065851408    -4.8157207599    -5.0206341701
| 22> *
| 23>
| 24>                          ****END OF INPUT****

CARTESIAN COORDINATES (ANGSTROEM)
---------------------------------
  C      0.067112    1.320639    0.275092
  O     -0.000166   -0.076324   -0.040326
  C      0.654854   -0.444988   -1.160140
  O      1.263177    0.310666   -1.867354
  C      0.482661   -1.949148   -1.366170
  C      1.191030   -2.475674   -2.519732
  C      1.776417   -2.934211   -3.464027
  C      2.479018   -3.456422   -4.628447
  O      3.344136   -4.514410   -4.231951
  H      1.104219    1.632673    0.421086
  H     -0.369330    1.918274   -0.529156
  H     -0.502770    1.444486    1.195885
  H      0.810155   -2.449507   -0.446395
  H     -0.594480   -2.148908   -1.433994
  H      1.740767   -3.802937   -5.370224
  H      3.041996   -2.634494   -5.099602
  H      3.806585   -4.815721   -5.020634

 Total Charge           Charge          ....    0
 Multiplicity           Mult            ....    1
 Number of Electrons    NEL             ....   68
 Basis Dimension        Dim             ....  327

ORBITAL ENERGIES
----------------

  NO   OCC          E(Eh)            E(eV)
   0   2.0000     -20.607509      -560.7588
   1   2.0000     -20.565979      -559.6287
   2   2.0000     -20.548277      -559.1471
   3   2.0000     -11.386187      -309.8339
   4   2.0000     -11.306395      -307.6627
   5   2.0000     -11.288996      -307.1892
   6   2.0000     -11.274079      -306.7833
   7   2.0000     -11.229650      -305.5743
   8   2.0000     -11.224159      -305.4249
   9   2.0000      -1.466020       -39.8924
  10   2.0000      -1.369659       -37.2703
  11   2.0000      -1.366324       -37.1796
  12   2.0000      -1.087230       -29.5850
  13   2.0000      -1.026853       -27.9421
  14   2.0000      -0.968823       -26.3630
  15   2.0000      -0.918966       -25.0063
  16   2.0000      -0.788442       -21.4546
  17   2.0000      -0.714965       -19.4552
  18   2.0000      -0.710234       -19.3265
  19   2.0000      -0.694323       -18.8935
  20   2.0000      -0.684410       -18.6238
  21   2.0000      -0.654368       -17.8062
  22   2.0000      -0.645671       -17.5696
  23   2.0000      -0.620762       -16.8918
  24   2.0000      -0.613362       -16.6904
  25   2.0000      -0.589978       -16.0541
  26   2.0000      -0.536216       -14.5912
  27   2.0000      -0.535247       -14.5648
  28   2.0000      -0.534008       -14.5311
  29   2.0000      -0.471680       -12.8351
  30   2.0000      -0.468879       -12.7588
  31   2.0000      -0.457623       -12.4526
  32   2.0000      -0.384439       -10.4611
  33   2.0000      -0.374189       -10.1822
  34   0.0000       0.124127         3.3777
  35   0.0000       0.137788         3.7494
  36   0.0000       0.161162         4.3855
  37   0.0000       0.164028         4.4634
  38   0.0000       0.176457         4.8016

MULLIKEN ATOMIC CHARGES
-----------------------
   0 C :   -0.221747
   1 O :   -0.255288
   2 C :    0.328046
   3 O :   -0.304587
   4 C :   -0.351084
   5 C :    0.057251
   6 C :    0.043003
   7 C :   -0.197458
   8 O :   -0.447113
   9 H :    0.142131
  10 H :    0.140848
  11 H :    0.145395
  12 H :    0.175600
  13 H :    0.171204
  14 H :    0.124504
  15 H :    0.133138
  16 H :    0.316159
Sum of atomic charges:    0.0000000

LOEWDIN ATOMIC CHARGES
----------------------
   0 C :   -0.308239
   1 O :    0.223169
   2 C :   -0.470332
   3 O :    0.143252
   4 C :   -0.217565
   5 C :   -0.060316
   6 C :   -0.064307
   7 C :   -0.335524
   8 O :   -0.043041
   9 H :    0.114726
  10 H :    0.114325
  11 H :    0.115113
  12 H :    0.174029
  13 H :    0.172062
  14 H :    0.132981
  15 H :    0.135643
  16 H :    0.174025

  Mayer bond orders larger than 0.1
B(  0-C ,  1-O ) :   0.8353 B(  0-C ,  9-H ) :   0.9384 B(  0-C , 10-H ) :   0.9386
B(  0-C , 11-H ) :   0.9341 B(  1-O ,  2-C ) :   1.1355 B(  2-C ,  3-O ) :   1.9692
B(  2-C ,  4-C ) :   0.9410 B(  4-C ,  5-C ) :   0.9907 B(  4-C , 12-H ) :   0.9094
B(  4-C , 13-H ) :   0.9149 B(  5-C ,  6-C ) :   2.7129 B(  6-C ,  7-C ) :   0.9292
B(  7-C ,  8-O ) :   1.1207 B(  7-C , 14-H ) :   0.9480 B(  7-C , 15-H ) :   0.9521
B(  8-O , 16-H ) :   0.8474

MP2 TOTAL ENERGY:     -458.208973532 Eh
FINAL SINGLE POINT ENERGY      -458.208973531835

DIPOLE MOMENT
-------------
                                X             Y             Z
Electronic contribution:      0.61512      -1.34461      -0.55428
Nuclear contribution   :     -1.04072       1.46626       0.49192
                        -----------------------------------------
Total Dipole Moment    :     -0.42559       0.12165      -0.06236
                        -----------------------------------------
Magnitude (a.u.)       :      0.44701
Magnitude (Debye)      :      1.13621

                             ****ORCA TERMINATED NORMALLY****
TOTAL RUN TIME: 0 days 0 hours 12 minutes 0 seconds 521 msec
