                         Program Version 3.0.3 - RELEASE   -
|  1> ! RI-MP2 RIJK def2-TZVP def2-TZVP/C def2-TZVP/JK TIGHTSCF
|  2> % maxcore 2000
|  3> % mp2 density relaxed end
|  4> *xyz 0 1
|  5>  C       -0.0895940530     1.5458785444    -0.1175157653
|  6>  C        0.0368462972     0.0257109156    -0.0189956103
|  7>  C        0.9276769085    -0.5785730949    -1.1244008767
|  8>  N        2.3096307617    -0.3119576536    -0.5519790173
|  9>  C        1.9170525456    -1.3251528891     0.5100319731
| 10>  C        0.8032172170    -0.5525913324     1.2470368512
| 11>  C        1.3450633171     0.4632863017     2.2525210207
| 12>  C        1.1670198927    -2.0230158421    -0.6418997833
| 13>  O        1.0972702297    -3.1245922253    -1.1028578728
| 14>  H        0.8912012974     2.0250777404    -0.1635650042
| 15>  H       -0.6426504501     1.8195907681    -1.0223919232
| 16>  H       -0.6343303845     1.9592464382     0.7364911943
| 17>  H       -0.9635891984    -0.4158837954    -0.0760829950
| 18>  H        0.7366919113    -0.3103467619    -2.1626453610
| 19>  H        3.0070906431    -0.7328167752    -1.1664154299
| 20>  H        2.7071396152    -1.7972405651     1.0924990234
| 21>  H        0.1571013669    -1.2615555369     1.7752795593
| 22>  H        2.0731462055     1.1331846234     1.7890091095
| 23>  H        0.5424911368     1.0712038654     2.6806012712
| 24>  H        1.8409668804    -0.0545375652     3.0804877964
| 25> *
| 26>
| 27>                          ****END OF INPUT****

CARTESIAN COORDINATES (ANGSTROEM)
---------------------------------
  C     -0.089594    1.545879   -0.117516
  C      0.036846    0.025711   -0.018996
  C      0.927677   -0.578573   -1.124401
  N      2.309631   -0.311958   -0.551979
  C      1.917053   -1.325153    0.510032
  C      0.803217   -0.552591    1.247037
  C      1.345063    0.463286    2.252521
  C      1.167020   -2.023016   -0.641900
  O      1.097270   -3.124592   -1.102858
  H      0.891201    2.025078   -0.163565
  H     -0.642650    1.819591   -1.022392
  H     -0.634330    1.959246    0.736491
  H     -0.963589   -0.415884   -0.076083
  H      0.736692   -0.310347   -2.162645
  H      3.007091   -0.732817   -1.166415
  H      2.707140   -1.797241    1.092499
  H      0.157101   -1.261556    1.775280
  H      2.073146    1.133185    1.789009
  H      0.542491    1.071204    2.680601
  H      1.840967   -0.054538    3.080488

 Total Charge           Charge          ....    0
 Multiplicity           Mult            ....    1
 Number of Electrons    NEL             ....   68
 Basis Dimension        Dim             ....  345

ORBITAL ENERGIES
----------------

  NO   OCC          E(Eh)            E(eV)
   0   2.0000     -20.554521      -559.3169
   1   2.0000     -15.574756      -423.8107
   2   2.0000     -11.335442      -308.4530
   3   2.0000     -11.277161      -306.8671
   4   2.0000     -11.277137      -306.8665
   5   2.0000     -11.246828      -306.0417
   6   2.0000     -11.246337      -306.0284
   7   2.0000     -11.219810      -305.3066
   8   2.0000     -11.219805      -305.3064
   9   2.0000      -1.399938       -38.0943
  10   2.0000      -1.278196       -34.7815
  11   2.0000      -1.080101       -29.3910
  12   2.0000      -1.017756       -27.6945
  13   2.0000      -0.958393       -26.0792
  14   2.0000      -0.916339       -24.9349
  15   2.0000      -0.856525       -23.3072
  16   2.0000      -0.750821       -20.4309
  17   2.0000      -0.744037       -20.2463
  18   2.0000      -0.720665       -19.6103
  19   2.0000      -0.659139       -17.9361
  20   2.0000      -0.629077       -17.1181
  21   2.0000      -0.610568       -16.6144
  22   2.0000      -0.585881       -15.9426
  23   2.0000      -0.569133       -15.4869
  24   2.0000      -0.564788       -15.3687
  25   2.0000      -0.544423       -14.8145
  26   2.0000      -0.527484       -14.3536
  27   2.0000      -0.517846       -14.0913
  28   2.0000      -0.503348       -13.6968
  29   2.0000      -0.499587       -13.5944
  30   2.0000      -0.465246       -12.6600
  31   2.0000      -0.456047       -12.4097
  32   2.0000      -0.407351       -11.0846
  33   2.0000      -0.388646       -10.5756
  34   0.0000       0.127100         3.4586
  35   0.0000       0.143895         3.9156
  36   0.0000       0.154932         4.2159
  37   0.0000       0.160648         4.3715
  38   0.0000       0.173688         4.7263

MULLIKEN ATOMIC CHARGES
-----------------------
   0 C :   -0.444395
   1 C :   -0.067004
   2 C :   -0.030271
   3 N :   -0.332275
   4 C :   -0.030272
   5 C :   -0.067004
   6 C :   -0.444394
   7 C :    0.096721
   8 O :   -0.252005
   9 H :    0.151835
  10 H :    0.134564
  11 H :    0.133928
  12 H :    0.111108
  13 H :    0.143975
  14 H :    0.220079
  15 H :    0.143975
  16 H :    0.111108
  17 H :    0.151835
  18 H :    0.133928
  19 H :    0.134564
Sum of atomic charges:    0.0000000

LOEWDIN ATOMIC CHARGES
----------------------
   0 C :   -0.292813
   1 C :   -0.216210
   2 C :   -0.196129
   3 N :    0.045315
   4 C :   -0.196128
   5 C :   -0.216211
   6 C :   -0.292813
   7 C :   -0.299836
   8 O :    0.152097
   9 H :    0.129565
  10 H :    0.125227
  11 H :    0.124593
  12 H :    0.152863
  13 H :    0.138249
  14 H :    0.171732
  15 H :    0.138249
  16 H :    0.152863
  17 H :    0.129565
  18 H :    0.124593
  19 H :    0.125227

  Mayer bond orders larger than 0.1
B(  0-C ,  1-C ) :   0.8743 B(  0-C ,  9-H ) :   0.9402 B(  0-C , 10-H ) :   0.9359
B(  0-C , 11-H ) :   0.9403 B(  1-C ,  2-C ) :   0.8575 B(  1-C ,  5-C ) :   0.9227
B(  1-C , 12-H ) :   0.9261 B(  2-C ,  3-N ) :   0.9713 B(  2-C ,  4-C ) :  -0.1676
B(  2-C ,  7-C ) :   0.9163 B(  2-C , 13-H ) :   0.8958 B(  3-N ,  4-C ) :   0.9713
B(  3-N , 14-H ) :   0.8756 B(  4-C ,  5-C ) :   0.8575 B(  4-C ,  7-C ) :   0.9163
B(  4-C , 15-H ) :   0.8958 B(  5-C ,  6-C ) :   0.8743 B(  5-C , 16-H ) :   0.9261
B(  6-C , 17-H ) :   0.9402 B(  6-C , 18-H ) :   0.9403 B(  6-C , 19-H ) :   0.9359
B(  7-C ,  8-O ) :   2.0828

MP2 TOTAL ENERGY:     -402.453425585 Eh
FINAL SINGLE POINT ENERGY      -402.453425584508

DIPOLE MOMENT
-------------
                                X             Y             Z
Electronic contribution:      1.82356      -9.12754      -5.27316
Nuclear contribution   :     -1.84785       9.80551       5.59755
                        -----------------------------------------
Total Dipole Moment    :     -0.02429       0.67797       0.32439
                        -----------------------------------------
Magnitude (a.u.)       :      0.75197
Magnitude (Debye)      :      1.91135

                             ****ORCA TERMINATED NORMALLY****
TOTAL RUN TIME: 0 days 0 hours 20 minutes 11 seconds 487 msec
