                         Program Version 3.0.3 - RELEASE   -
|  1> ! RI-MP2 RIJK def2-TZVP def2-TZVP/C def2-TZVP/JK TIGHTSCF
|  2> % maxcore 2000
|  3> % mp2 density relaxed end
|  4> *xyz 0 1
|  5>  C       -0.0578746331     1.5132714700    -0.0249943909
|  6>  C        0.0408117320     0.0064067331     0.0278437259
|  7>  O        1.0836580551    -0.5893824733     0.0759194227
|  8>  C       -1.3237109850    -0.7984863924     0.0185579641
|  9>  C       -1.0263443297    -2.3162917148    -0.0116750580
| 10>  C       -2.0502104565    -0.4458052532     1.2447933289
| 11>  C       -2.6038192845    -0.1709363278     2.2753617476
| 12>  C       -2.0899343851    -0.4047943995    -1.1697806997
| 13>  C       -2.6830214708    -0.1027607775    -2.1702720885
| 14>  H        0.9341048300     1.9457384382     0.1066281320
| 15>  H       -0.4710554504     1.8185605739    -0.9910661236
| 16>  H       -0.7404882999     1.8788645258     0.7467661074
| 17>  H       -0.4300250296    -2.5919855514     0.8589543553
| 18>  H       -1.9642533291    -2.8742642818    -0.0040659518
| 19>  H       -0.4636405697    -2.5639698453    -0.9131410170
| 20>  H       -3.1093221354     0.0702486650     3.1779370876
| 21>  H       -3.2216813282     0.1650535411    -3.0457432321
| 22> *
| 23>
| 24>                          ****END OF INPUT****

CARTESIAN COORDINATES (ANGSTROEM)
---------------------------------
  C     -0.057875    1.513271   -0.024994
  C      0.040812    0.006407    0.027844
  O      1.083658   -0.589382    0.075919
  C     -1.323711   -0.798486    0.018558
  C     -1.026344   -2.316292   -0.011675
  C     -2.050210   -0.445805    1.244793
  C     -2.603819   -0.170936    2.275362
  C     -2.089934   -0.404794   -1.169781
  C     -2.683021   -0.102761   -2.170272
  H      0.934105    1.945738    0.106628
  H     -0.471055    1.818561   -0.991066
  H     -0.740488    1.878865    0.746766
  H     -0.430025   -2.591986    0.858954
  H     -1.964253   -2.874264   -0.004066
  H     -0.463641   -2.563970   -0.913141
  H     -3.109322    0.070249    3.177937
  H     -3.221681    0.165054   -3.045743

 Total Charge           Charge          ....    0
 Multiplicity           Mult            ....    1
 Number of Electrons    NEL             ....   64
 Basis Dimension        Dim             ....  327

ORBITAL ENERGIES
----------------

  NO   OCC          E(Eh)            E(eV)
   0   2.0000     -20.560756      -559.4866
   1   2.0000     -11.349483      -308.8351
   2   2.0000     -11.309794      -307.7551
   3   2.0000     -11.252269      -306.1898
   4   2.0000     -11.252171      -306.1872
   5   2.0000     -11.241315      -305.8917
   6   2.0000     -11.241142      -305.8870
   7   2.0000     -11.236381      -305.7575
   8   2.0000     -11.232880      -305.6622
   9   2.0000      -1.408411       -38.3248
  10   2.0000      -1.144116       -31.1330
  11   2.0000      -1.036601       -28.2073
  12   2.0000      -1.015747       -27.6399
  13   2.0000      -1.004794       -27.3418
  14   2.0000      -0.904418       -24.6105
  15   2.0000      -0.778887       -21.1946
  16   2.0000      -0.766042       -20.8451
  17   2.0000      -0.717450       -19.5228
  18   2.0000      -0.685305       -18.6481
  19   2.0000      -0.683291       -18.5933
  20   2.0000      -0.641130       -17.4460
  21   2.0000      -0.599490       -16.3130
  22   2.0000      -0.586090       -15.9483
  23   2.0000      -0.563701       -15.3391
  24   2.0000      -0.547031       -14.8855
  25   2.0000      -0.532001       -14.4765
  26   2.0000      -0.510323       -13.8866
  27   2.0000      -0.461092       -12.5470
  28   2.0000      -0.415601       -11.3091
  29   2.0000      -0.414440       -11.2775
  30   2.0000      -0.399016       -10.8578
  31   2.0000      -0.382007       -10.3949
  32   0.0000       0.124628         3.3913
  33   0.0000       0.126985         3.4554
  34   0.0000       0.151082         4.1112
  35   0.0000       0.153499         4.1769
  36   0.0000       0.155150         4.2218

MULLIKEN ATOMIC CHARGES
-----------------------
   0 C :   -0.440033
   1 C :    0.179924
   2 O :   -0.258184
   3 C :    0.007509
   4 C :   -0.382072
   5 C :   -0.078552
   6 C :   -0.144592
   7 C :   -0.057087
   8 C :   -0.151024
   9 H :    0.154852
  10 H :    0.166086
  11 H :    0.167733
  12 H :    0.150584
  13 H :    0.144256
  14 H :    0.147087
  15 H :    0.197000
  16 H :    0.196512
Sum of atomic charges:    0.0000000

LOEWDIN ATOMIC CHARGES
----------------------
   0 C :   -0.265441
   1 C :   -0.273141
   2 O :    0.183165
   3 C :   -0.251334
   4 C :   -0.223982
   5 C :   -0.053695
   6 C :   -0.076564
   7 C :   -0.053100
   8 C :   -0.077459
   9 H :    0.135318
  10 H :    0.146918
  11 H :    0.145175
  12 H :    0.135822
  13 H :    0.133496
  14 H :    0.135143
  15 H :    0.129886
  16 H :    0.129794

  Mayer bond orders larger than 0.1
B(  0-C ,  1-C ) :   0.9493 B(  0-C ,  9-H ) :   0.9362 B(  0-C , 10-H ) :   0.9041
B(  0-C , 11-H ) :   0.9116 B(  1-C ,  2-O ) :   2.0221 B(  1-C ,  3-C ) :   0.7435
B(  3-C ,  4-C ) :   0.8895 B(  3-C ,  5-C ) :   1.1737 B(  3-C ,  6-C ) :  -0.1110
B(  3-C ,  7-C ) :   1.1436 B(  3-C ,  8-C ) :  -0.1129 B(  4-C , 12-H ) :   0.9276
B(  4-C , 13-H ) :   0.9289 B(  4-C , 14-H ) :   0.9281 B(  5-C ,  6-C ) :   2.5628
B(  6-C , 15-H ) :   0.8848 B(  7-C ,  8-C ) :   2.5699 B(  8-C , 16-H ) :   0.8861

MP2 TOTAL ENERGY:     -383.943841507 Eh
FINAL SINGLE POINT ENERGY      -383.943841506606

DIPOLE MOMENT
-------------
                                X             Y             Z
Electronic contribution:     -0.17517      -0.28781       0.22749
Nuclear contribution   :     -0.48662       0.74285      -0.27338
                        -----------------------------------------
Total Dipole Moment    :     -0.66179       0.45503      -0.04589
                        -----------------------------------------
Magnitude (a.u.)       :      0.80444
Magnitude (Debye)      :      2.04473

                             ****ORCA TERMINATED NORMALLY****
TOTAL RUN TIME: 0 days 0 hours 18 minutes 35 seconds 482 msec
