                         Program Version 3.0.3 - RELEASE   -
|  1> ! RI-MP2 RIJK def2-TZVP def2-TZVP/C def2-TZVP/JK TIGHTSCF
|  2> % maxcore 2000
|  3> % mp2 density relaxed end
|  4> *xyz 0 1
|  5>  C       -0.1125000706     1.5238168007     0.0002815298
|  6>  C        0.0372785205     0.0195075560     0.0196845724
|  7>  C        1.3664440517    -0.6452498137    -0.2393679876
|  8>  O        2.4642478612     0.2125732156    -0.4274701580
|  9>  C        0.7626501755    -0.7016330092     1.1461134700
| 10>  N        1.4241145021     0.0486734357     2.1694144834
| 11>  C        1.3310183710    -0.3283515130     3.4889782182
| 12>  N        2.1818976620     0.3869183505     4.3312803733
| 13>  O        0.6035048226    -1.2171324983     3.8912427922
| 14>  H        0.7759368980     2.0244832322     0.3883648484
| 15>  H       -0.2766886662     1.8851469129    -1.0199399774
| 16>  H       -0.9673364299     1.8318555153     0.6108882401
| 17>  H       -0.8161734148    -0.5211186105    -0.3816623226
| 18>  H        1.3891858363    -1.5481608684    -0.8471735038
| 19>  H        3.2645296066    -0.2994672289    -0.2675483921
| 20>  H        0.3542008683    -1.6301309080     1.5251269209
| 21>  H        2.2269394545     0.5811095758     1.8693764035
| 22>  H        2.3622771690     1.3501153443     4.0874654825
| 23>  H        1.9383243522     0.2594440512     5.3023339268
| 24> *
| 25>
| 26>                          ****END OF INPUT****

CARTESIAN COORDINATES (ANGSTROEM)
---------------------------------
  C     -0.112500    1.523817    0.000282
  C      0.037279    0.019508    0.019685
  C      1.366444   -0.645250   -0.239368
  O      2.464248    0.212573   -0.427470
  C      0.762650   -0.701633    1.146113
  N      1.424115    0.048673    2.169414
  C      1.331018   -0.328352    3.488978
  N      2.181898    0.386918    4.331280
  O      0.603505   -1.217132    3.891243
  H      0.775937    2.024483    0.388365
  H     -0.276689    1.885147   -1.019940
  H     -0.967336    1.831856    0.610888
  H     -0.816173   -0.521119   -0.381662
  H      1.389186   -1.548161   -0.847174
  H      3.264530   -0.299467   -0.267548
  H      0.354201   -1.630131    1.525127
  H      2.226939    0.581110    1.869376
  H      2.362277    1.350115    4.087465
  H      1.938324    0.259444    5.302334

 Total Charge           Charge          ....    0
 Multiplicity           Mult            ....    1
 Number of Electrons    NEL             ....   70
 Basis Dimension        Dim             ....  339

ORBITAL ENERGIES
----------------

  NO   OCC          E(Eh)            E(eV)
   0   2.0000     -20.579866      -560.0066
   1   2.0000     -20.507796      -558.0455
   2   2.0000     -15.580306      -423.9617
   3   2.0000     -15.576898      -423.8690
   4   2.0000     -11.373329      -309.4840
   5   2.0000     -11.288838      -307.1849
   6   2.0000     -11.265172      -306.5409
   7   2.0000     -11.233494      -305.6789
   8   2.0000     -11.217589      -305.2461
   9   2.0000      -1.391982       -37.8777
  10   2.0000      -1.385346       -37.6972
  11   2.0000      -1.244624       -33.8679
  12   2.0000      -1.195398       -32.5284
  13   2.0000      -1.115823       -30.3631
  14   2.0000      -0.965388       -26.2695
  15   2.0000      -0.856454       -23.3053
  16   2.0000      -0.806407       -21.9435
  17   2.0000      -0.775400       -21.0997
  18   2.0000      -0.742094       -20.1934
  19   2.0000      -0.720237       -19.5987
  20   2.0000      -0.696298       -18.9472
  21   2.0000      -0.649430       -17.6719
  22   2.0000      -0.626889       -17.0585
  23   2.0000      -0.611965       -16.6524
  24   2.0000      -0.600522       -16.3410
  25   2.0000      -0.584800       -15.9132
  26   2.0000      -0.567784       -15.4502
  27   2.0000      -0.545518       -14.8443
  28   2.0000      -0.521319       -14.1858
  29   2.0000      -0.506935       -13.7944
  30   2.0000      -0.465920       -12.6783
  31   2.0000      -0.443646       -12.0722
  32   2.0000      -0.422783       -11.5045
  33   2.0000      -0.409754       -11.1500
  34   2.0000      -0.357052        -9.7159
  35   0.0000       0.115817         3.1515
  36   0.0000       0.137909         3.7527
  37   0.0000       0.156346         4.2544
  38   0.0000       0.167439         4.5562
  39   0.0000       0.190211         5.1759

MULLIKEN ATOMIC CHARGES
-----------------------
   0 C :   -0.390933
   1 C :   -0.078946
   2 C :    0.003915
   3 O :   -0.479897
   4 C :   -0.016833
   5 N :   -0.382365
   6 C :    0.397225
   7 N :   -0.532875
   8 O :   -0.400888
   9 H :    0.122134
  10 H :    0.137111
  11 H :    0.138508
  12 H :    0.127223
  13 H :    0.122596
  14 H :    0.328672
  15 H :    0.155920
  16 H :    0.237169
  17 H :    0.248237
  18 H :    0.264027
Sum of atomic charges:    0.0000000

LOEWDIN ATOMIC CHARGES
----------------------
   0 C :   -0.290742
   1 C :   -0.218135
   2 C :   -0.300044
   3 O :   -0.007378
   4 C :   -0.228445
   5 N :    0.112893
   6 C :   -0.568389
   7 N :   -0.077871
   8 O :    0.052688
   9 H :    0.124572
  10 H :    0.128155
  11 H :    0.128614
  12 H :    0.151558
  13 H :    0.130597
  14 H :    0.182878
  15 H :    0.155485
  16 H :    0.183966
  17 H :    0.164743
  18 H :    0.174855

  Mayer bond orders larger than 0.1
B(  0-C ,  1-C ) :   0.9381 B(  0-C ,  9-H ) :   0.9264 B(  0-C , 10-H ) :   0.9407
B(  0-C , 11-H ) :   0.9397 B(  1-C ,  2-C ) :   0.8630 B(  1-C ,  4-C ) :   0.8455
B(  1-C , 12-H ) :   0.9189 B(  2-C ,  3-O ) :   1.0215 B(  2-C ,  4-C ) :   0.8506
B(  2-C , 13-H ) :   0.9463 B(  3-O , 14-H ) :   0.8379 B(  4-C ,  5-N ) :   0.8727
B(  4-C , 15-H ) :   0.9381 B(  5-N ,  6-C ) :   1.1072 B(  5-N , 16-H ) :   0.8557
B(  6-C ,  7-N ) :   1.0681 B(  6-C ,  8-O ) :   1.9200 B(  7-N , 17-H ) :   0.8724
B(  7-N , 18-H ) :   0.8708

MP2 TOTAL ENERGY:     -455.631839111 Eh
FINAL SINGLE POINT ENERGY      -455.631839111335

DIPOLE MOMENT
-------------
                                X             Y             Z
Electronic contribution:      1.96944      -3.58290       4.13135
Nuclear contribution   :     -1.21897       4.22717      -4.60858
                        -----------------------------------------
Total Dipole Moment    :      0.75047       0.64427      -0.47723
                        -----------------------------------------
Magnitude (a.u.)       :      1.09820
Magnitude (Debye)      :      2.79140

                             ****ORCA TERMINATED NORMALLY****
TOTAL RUN TIME: 0 days 0 hours 21 minutes 47 seconds 849 msec
