                         Program Version 3.0.3 - RELEASE   -
|  1> ! RI-MP2 RIJK def2-TZVP def2-TZVP/C def2-TZVP/JK TIGHTSCF
|  2> % maxcore 2000
|  3> % mp2 density relaxed end
|  4> *xyz 0 1
|  5>  O        0.2572197544     1.0848452766    -0.2560815091
|  6>  C        0.0016116405    -0.2187566095     0.1788418498
|  7>  C       -1.4599686315    -0.5748846863    -0.0172493279
|  8>  O       -2.2639492619     0.1870205025    -0.4929733705
|  9>  O       -1.7397776384    -1.8189492632     0.4093625320
| 10>  C       -3.0823378714    -2.2637475915     0.2663943740
| 11>  C       -3.3707208402    -3.2417025107    -0.8423248877
| 12>  C       -3.2505682842    -3.7161879808     0.5928505312
| 13>  O       -2.1429571085    -4.4651532185     0.9815297276
| 14>  H       -0.5877718977     1.4251182741    -0.5850240405
| 15>  H        0.6098711860    -0.9533642566    -0.3709238281
| 16>  H        0.2466182792    -0.3417674911     1.2445927416
| 17>  H       -3.8123562097    -1.5189059965     0.5567401560
| 18>  H       -4.3434632075    -3.2018261430    -1.3196276145
| 19>  H       -2.5404528685    -3.4956650809    -1.4921250520
| 20>  H       -4.1574012338    -4.0126081346     1.1128991561
| 21>  H       -1.4177659167    -3.8525076898     1.1489983720
| 22> *
| 23>
| 24>                          ****END OF INPUT****

CARTESIAN COORDINATES (ANGSTROEM)
---------------------------------
  O      0.257220    1.084845   -0.256082
  C      0.001612   -0.218757    0.178842
  C     -1.459969   -0.574885   -0.017249
  O     -2.263949    0.187021   -0.492973
  O     -1.739778   -1.818949    0.409363
  C     -3.082338   -2.263748    0.266394
  C     -3.370721   -3.241703   -0.842325
  C     -3.250568   -3.716188    0.592851
  O     -2.142957   -4.465153    0.981530
  H     -0.587772    1.425118   -0.585024
  H      0.609871   -0.953364   -0.370924
  H      0.246618   -0.341767    1.244593
  H     -3.812356   -1.518906    0.556740
  H     -4.343463   -3.201826   -1.319628
  H     -2.540453   -3.495665   -1.492125
  H     -4.157401   -4.012608    1.112899
  H     -1.417766   -3.852508    1.148998

 Total Charge           Charge          ....    0
 Multiplicity           Mult            ....    1
 Number of Electrons    NEL             ....   70
 Basis Dimension        Dim             ....  327

ORBITAL ENERGIES
----------------

  NO   OCC          E(Eh)            E(eV)
   0   2.0000     -20.636150      -561.5382
   1   2.0000     -20.572910      -559.8173
   2   2.0000     -20.572664      -559.8107
   3   2.0000     -20.568041      -559.6848
   4   2.0000     -11.405516      -310.3599
   5   2.0000     -11.313130      -307.8459
   6   2.0000     -11.309861      -307.7570
   7   2.0000     -11.302920      -307.5681
   8   2.0000     -11.242838      -305.9332
   9   2.0000      -1.495052       -40.6824
  10   2.0000      -1.405975       -38.2585
  11   2.0000      -1.382329       -37.6151
  12   2.0000      -1.371224       -37.3129
  13   2.0000      -1.148299       -31.2468
  14   2.0000      -1.007922       -27.4270
  15   2.0000      -0.882222       -24.0065
  16   2.0000      -0.845428       -23.0053
  17   2.0000      -0.794049       -21.6072
  18   2.0000      -0.768150       -20.9024
  19   2.0000      -0.725316       -19.7369
  20   2.0000      -0.711437       -19.3592
  21   2.0000      -0.690167       -18.7804
  22   2.0000      -0.669848       -18.2275
  23   2.0000      -0.630101       -17.1459
  24   2.0000      -0.628739       -17.1089
  25   2.0000      -0.601010       -16.3543
  26   2.0000      -0.592267       -16.1164
  27   2.0000      -0.562266       -15.3000
  28   2.0000      -0.549656       -14.9569
  29   2.0000      -0.538048       -14.6410
  30   2.0000      -0.516445       -14.0532
  31   2.0000      -0.480444       -13.0736
  32   2.0000      -0.467758       -12.7283
  33   2.0000      -0.428690       -11.6653
  34   2.0000      -0.412579       -11.2268
  35   0.0000       0.130940         3.5631
  36   0.0000       0.146428         3.9845
  37   0.0000       0.156869         4.2686
  38   0.0000       0.163456         4.4479
  39   0.0000       0.169129         4.6022

MULLIKEN ATOMIC CHARGES
-----------------------
   0 O :   -0.479409
   1 C :   -0.013956
   2 C :    0.289495
   3 O :   -0.344821
   4 O :   -0.277671
   5 C :   -0.000803
   6 C :   -0.254325
   7 C :    0.070448
   8 O :   -0.468441
   9 H :    0.339184
  10 H :    0.126672
  11 H :    0.126713
  12 H :    0.143015
  13 H :    0.138882
  14 H :    0.142601
  15 H :    0.126462
  16 H :    0.335954
Sum of atomic charges:    0.0000000

LOEWDIN ATOMIC CHARGES
----------------------
   0 O :   -0.031084
   1 C :   -0.325108
   2 C :   -0.477511
   3 O :    0.126077
   4 O :    0.275649
   5 C :   -0.260841
   6 C :   -0.207198
   7 C :   -0.312184
   8 O :    0.003783
   9 H :    0.184463
  10 H :    0.137819
  11 H :    0.137887
  12 H :    0.144047
  13 H :    0.137705
  14 H :    0.144684
  15 H :    0.139331
  16 H :    0.182481

  Mayer bond orders larger than 0.1
B(  0-O ,  1-C ) :   1.0186 B(  0-O ,  9-H ) :   0.8108 B(  1-C ,  2-C ) :   0.9602
B(  1-C , 10-H ) :   0.9085 B(  1-C , 11-H ) :   0.9093 B(  2-C ,  3-O ) :   1.8703
B(  2-C ,  4-O ) :   1.0974 B(  4-O ,  5-C ) :   0.8128 B(  5-C ,  6-C ) :   0.9075
B(  5-C ,  7-C ) :   0.8859 B(  5-C , 12-H ) :   0.9263 B(  6-C ,  7-C ) :   0.8589
B(  6-C , 13-H ) :   0.9109 B(  6-C , 14-H ) :   0.9168 B(  7-C ,  8-O ) :   0.9890
B(  7-C , 15-H ) :   0.9452 B(  8-O , 16-H ) :   0.8259

MP2 TOTAL ENERGY:     -495.332676457 Eh
FINAL SINGLE POINT ENERGY      -495.332676457019

DIPOLE MOMENT
-------------
                                X             Y             Z
Electronic contribution:      0.69418       2.34161       0.58222
Nuclear contribution   :     -1.10545      -2.63960      -0.44103
                        -----------------------------------------
Total Dipole Moment    :     -0.41127      -0.29799       0.14118
                        -----------------------------------------
Magnitude (a.u.)       :      0.52714
Magnitude (Debye)      :      1.33988

                             ****ORCA TERMINATED NORMALLY****
TOTAL RUN TIME: 0 days 0 hours 13 minutes 1 seconds 689 msec
