                         Program Version 3.0.3 - RELEASE   -
|  1> ! RI-MP2 RIJK def2-TZVP def2-TZVP/C def2-TZVP/JK TIGHTSCF
|  2> % maxcore 2000
|  3> % mp2 density relaxed end
|  4> *xyz 0 1
|  5>  C        0.0258738262     1.4154722063    -0.1195346034
|  6>  N       -0.0074108927    -0.0373755166     0.0519744532
|  7>  C       -1.2988525767    -0.5388121187     0.6557209519
|  8>  C       -1.4116215294    -2.0334136755     0.3330154907
|  9>  C       -0.2747067150    -2.8074790197     1.0387621403
| 10>  C        1.0425917471    -2.0001344046     1.0912210405
| 11>  C        0.7305221365    -0.5112940633     1.2826763559
| 12>  C       -0.6107747888    -0.2933170727     2.0162195390
| 13>  O       -0.9388778337     0.1976215547     3.0566998172
| 14>  H        1.0372998795     1.7161958573    -0.4082529115
| 15>  H       -0.6536416550     1.6932682102    -0.9306226770
| 16>  H       -0.2598954421     1.9864722333     0.7804533733
| 17>  H       -2.1913305711     0.0407775853     0.4079610391
| 18>  H       -2.3842903398    -2.4230616512     0.6512633152
| 19>  H       -1.3494798013    -2.1400890342    -0.7551089480
| 20>  H       -0.5904332239    -3.0096547342     2.0696021550
| 21>  H       -0.1164642436    -3.7826369623     0.5693539233
| 22>  H        1.6756370345    -2.3680086858     1.9055391805
| 23>  H        1.6075871902    -2.0999919991     0.1584484957
| 24>  H        1.5925836889     0.0920883309     1.5769644191
| 25> *
| 26>
| 27>                          ****END OF INPUT****

CARTESIAN COORDINATES (ANGSTROEM)
---------------------------------
  C      0.025874    1.415472   -0.119535
  N     -0.007411   -0.037376    0.051974
  C     -1.298853   -0.538812    0.655721
  C     -1.411622   -2.033414    0.333015
  C     -0.274707   -2.807479    1.038762
  C      1.042592   -2.000134    1.091221
  C      0.730522   -0.511294    1.282676
  C     -0.610775   -0.293317    2.016220
  O     -0.938878    0.197622    3.056700
  H      1.037300    1.716196   -0.408253
  H     -0.653642    1.693268   -0.930623
  H     -0.259895    1.986472    0.780453
  H     -2.191331    0.040778    0.407961
  H     -2.384290   -2.423062    0.651263
  H     -1.349480   -2.140089   -0.755109
  H     -0.590433   -3.009655    2.069602
  H     -0.116464   -3.782637    0.569354
  H      1.675637   -2.368009    1.905539
  H      1.607587   -2.099992    0.158448
  H      1.592584    0.092088    1.576964

 Total Charge           Charge          ....    0
 Multiplicity           Mult            ....    1
 Number of Electrons    NEL             ....   68
 Basis Dimension        Dim             ....  345

ORBITAL ENERGIES
----------------

  NO   OCC          E(Eh)            E(eV)
   0   2.0000     -20.553867      -559.2991
   1   2.0000     -15.566240      -423.5789
   2   2.0000     -11.331517      -308.3463
   3   2.0000     -11.271697      -306.7185
   4   2.0000     -11.271675      -306.7179
   5   2.0000     -11.252309      -306.1909
   6   2.0000     -11.235001      -305.7199
   7   2.0000     -11.234915      -305.7176
   8   2.0000     -11.233222      -305.6715
   9   2.0000      -1.398192       -38.0468
  10   2.0000      -1.269379       -34.5416
  11   2.0000      -1.085312       -29.5328
  12   2.0000      -1.017227       -27.6802
  13   2.0000      -0.983373       -26.7589
  14   2.0000      -0.852209       -23.1898
  15   2.0000      -0.847377       -23.0583
  16   2.0000      -0.833707       -22.6863
  17   2.0000      -0.700070       -19.0499
  18   2.0000      -0.685121       -18.6431
  19   2.0000      -0.647178       -17.6106
  20   2.0000      -0.647045       -17.6070
  21   2.0000      -0.631852       -17.1936
  22   2.0000      -0.590106       -16.0576
  23   2.0000      -0.578575       -15.7438
  24   2.0000      -0.568060       -15.4577
  25   2.0000      -0.558557       -15.1991
  26   2.0000      -0.546522       -14.8716
  27   2.0000      -0.527324       -14.3492
  28   2.0000      -0.506635       -13.7862
  29   2.0000      -0.480761       -13.0822
  30   2.0000      -0.460905       -12.5419
  31   2.0000      -0.458673       -12.4811
  32   2.0000      -0.388420       -10.5694
  33   2.0000      -0.378938       -10.3114
  34   0.0000       0.124967         3.4005
  35   0.0000       0.149312         4.0630
  36   0.0000       0.159055         4.3281
  37   0.0000       0.165923         4.5150
  38   0.0000       0.176514         4.8032

MULLIKEN ATOMIC CHARGES
-----------------------
   0 C :   -0.358489
   1 N :   -0.214343
   2 C :    0.108368
   3 C :   -0.265869
   4 C :   -0.223621
   5 C :   -0.265869
   6 C :    0.108367
   7 C :   -0.050208
   8 O :   -0.237174
   9 H :    0.141231
  10 H :    0.141231
  11 H :    0.129920
  12 H :    0.127981
  13 H :    0.122442
  14 H :    0.110131
  15 H :    0.132243
  16 H :    0.133104
  17 H :    0.122442
  18 H :    0.110131
  19 H :    0.127981
Sum of atomic charges:   -0.0000000

LOEWDIN ATOMIC CHARGES
----------------------
   0 C :   -0.329021
   1 N :    0.119133
   2 C :   -0.204334
   3 C :   -0.236079
   4 C :   -0.253080
   5 C :   -0.236079
   6 C :   -0.204334
   7 C :   -0.299169
   8 O :    0.160801
   9 H :    0.119985
  10 H :    0.119985
  11 H :    0.111065
  12 H :    0.142731
  13 H :    0.140222
  14 H :    0.142869
  15 H :    0.142883
  16 H :    0.136600
  17 H :    0.140222
  18 H :    0.142869
  19 H :    0.142731

  Mayer bond orders larger than 0.1
B(  0-C ,  1-N ) :   0.8907 B(  0-C ,  9-H ) :   0.9375 B(  0-C , 10-H ) :   0.9375
B(  0-C , 11-H ) :   0.9234 B(  1-N ,  2-C ) :   0.8705 B(  1-N ,  6-C ) :   0.8705
B(  2-C ,  3-C ) :   0.8737 B(  2-C ,  6-C ) :  -0.1247 B(  2-C ,  7-C ) :   0.8283
B(  2-C , 12-H ) :   0.9105 B(  3-C ,  4-C ) :   0.9515 B(  3-C , 13-H ) :   0.9262
B(  3-C , 14-H ) :   0.9152 B(  4-C ,  5-C ) :   0.9515 B(  4-C , 15-H ) :   0.9274
B(  4-C , 16-H ) :   0.9319 B(  5-C ,  6-C ) :   0.8737 B(  5-C , 17-H ) :   0.9262
B(  5-C , 18-H ) :   0.9152 B(  6-C ,  7-C ) :   0.8283 B(  6-C , 19-H ) :   0.9105
B(  7-C ,  8-O ) :   2.0624

MP2 TOTAL ENERGY:     -402.456731452 Eh
FINAL SINGLE POINT ENERGY      -402.456731451507

DIPOLE MOMENT
-------------
                                X             Y             Z
Electronic contribution:     -1.40023       1.99239       4.44492
Nuclear contribution   :      1.62293      -2.29990      -5.15229
                        -----------------------------------------
Total Dipole Moment    :      0.22270      -0.30751      -0.70737
                        -----------------------------------------
Magnitude (a.u.)       :      0.80283
Magnitude (Debye)      :      2.04062

                             ****ORCA TERMINATED NORMALLY****
TOTAL RUN TIME: 0 days 0 hours 22 minutes 20 seconds 485 msec
