                         Program Version 3.0.3 - RELEASE   -
|  1> ! RI-MP2 RIJK def2-TZVP def2-TZVP/C def2-TZVP/JK TIGHTSCF
|  2> % maxcore 2000
|  3> % mp2 density relaxed end
|  4> *xyz 0 1
|  5>  C        0.7909535825     1.1915193040    -0.6057876155
|  6>  C        0.0216515778     0.0878141468     0.0319134582
|  7>  N       -1.2744595359    -0.0282458949    -0.0919307625
|  8>  O       -1.5730528215    -1.1802335055     0.6524778249
|  9>  C       -0.4110618278    -1.6252375432     1.1379653729
| 10>  C       -0.4172622952    -2.8490781116     2.0049833780
| 11>  C       -0.9771387145    -4.0247197984     1.3450904399
| 12>  C       -1.4342917679    -4.9943308952     0.8055780430
| 13>  N        0.6091728716    -0.8992873676     0.8008532566
| 14>  H        1.5422782742     0.7831816488    -1.2882034984
| 15>  H        0.1206428658     1.8497012495    -1.1601302247
| 16>  H        1.3203581372     1.7726611891     0.1551026033
| 17>  H        0.6183862377    -3.0295727599     2.3071359028
| 18>  H       -0.9864188466    -2.6303104358     2.9181070655
| 19>  H       -1.8414344172    -5.8500549361     0.3260987558
| 20> *
| 21>
| 22>                          ****END OF INPUT****

CARTESIAN COORDINATES (ANGSTROEM)
---------------------------------
  C      0.790954    1.191519   -0.605788
  C      0.021652    0.087814    0.031913
  N     -1.274460   -0.028246   -0.091931
  O     -1.573053   -1.180234    0.652478
  C     -0.411062   -1.625238    1.137965
  C     -0.417262   -2.849078    2.004983
  C     -0.977139   -4.024720    1.345090
  C     -1.434292   -4.994331    0.805578
  N      0.609173   -0.899287    0.800853
  H      1.542278    0.783182   -1.288203
  H      0.120643    1.849701   -1.160130
  H      1.320358    1.772661    0.155103
  H      0.618386   -3.029573    2.307136
  H     -0.986419   -2.630310    2.918107
  H     -1.841434   -5.850055    0.326099

 Total Charge           Charge          ....    0
 Multiplicity           Mult            ....    1
 Number of Electrons    NEL             ....   64
 Basis Dimension        Dim             ....  315

ORBITAL ENERGIES
----------------

  NO   OCC          E(Eh)            E(eV)
   0   2.0000     -20.655386      -562.0616
   1   2.0000     -15.622726      -425.1160
   2   2.0000     -15.575378      -423.8276
   3   2.0000     -11.369353      -309.3758
   4   2.0000     -11.318148      -307.9825
   5   2.0000     -11.294310      -307.3338
   6   2.0000     -11.252386      -306.1930
   7   2.0000     -11.244194      -305.9701
   8   2.0000     -11.240003      -305.8560
   9   2.0000      -1.520176       -41.3661
  10   2.0000      -1.258152       -34.2360
  11   2.0000      -1.179879       -32.1061
  12   2.0000      -1.086924       -29.5767
  13   2.0000      -1.004633       -27.3375
  14   2.0000      -0.995218       -27.0812
  15   2.0000      -0.837300       -22.7841
  16   2.0000      -0.817250       -22.2385
  17   2.0000      -0.743125       -20.2215
  18   2.0000      -0.706640       -19.2287
  19   2.0000      -0.695263       -18.9191
  20   2.0000      -0.644517       -17.5382
  21   2.0000      -0.627176       -17.0663
  22   2.0000      -0.619394       -16.8546
  23   2.0000      -0.588208       -16.0060
  24   2.0000      -0.569353       -15.4929
  25   2.0000      -0.556330       -15.1385
  26   2.0000      -0.521712       -14.1965
  27   2.0000      -0.469933       -12.7875
  28   2.0000      -0.460786       -12.5386
  29   2.0000      -0.411806       -11.2058
  30   2.0000      -0.406128       -11.0513
  31   2.0000      -0.396260       -10.7828
  32   0.0000       0.117701         3.2028
  33   0.0000       0.137479         3.7410
  34   0.0000       0.146511         3.9868
  35   0.0000       0.163009         4.4357
  36   0.0000       0.164766         4.4835

MULLIKEN ATOMIC CHARGES
-----------------------
   0 C :   -0.419690
   1 C :    0.196042
   2 N :   -0.131025
   3 O :   -0.092668
   4 C :    0.258566
   5 C :   -0.351548
   6 C :   -0.041947
   7 C :   -0.123533
   8 N :   -0.305686
   9 H :    0.152662
  10 H :    0.159088
  11 H :    0.151321
  12 H :    0.177620
  13 H :    0.173216
  14 H :    0.197580
Sum of atomic charges:    0.0000000

LOEWDIN ATOMIC CHARGES
----------------------
   0 C :   -0.264043
   1 C :   -0.374273
   2 N :    0.055087
   3 O :    0.297017
   4 C :   -0.356239
   5 C :   -0.203722
   6 C :   -0.103951
   7 C :   -0.083134
   8 N :    0.133091
   9 H :    0.139758
  10 H :    0.139194
  11 H :    0.139289
  12 H :    0.177670
  13 H :    0.174692
  14 H :    0.129563

  Mayer bond orders larger than 0.1
B(  0-C ,  1-C ) :   0.8636 B(  0-C ,  9-H ) :   0.9297 B(  0-C , 10-H ) :   0.9510
B(  0-C , 11-H ) :   0.9290 B(  1-C ,  2-N ) :   1.6468 B(  1-C ,  8-N ) :   1.1743
B(  2-N ,  3-O ) :   0.8772 B(  3-O ,  4-C ) :   1.1785 B(  4-C ,  5-C ) :   0.8916
B(  4-C ,  8-N ) :   1.6450 B(  5-C ,  6-C ) :   1.0640 B(  5-C , 12-H ) :   0.9278
B(  5-C , 13-H ) :   0.9235 B(  6-C ,  7-C ) :   2.6409 B(  7-C , 14-H ) :   0.8962

MP2 TOTAL ENERGY:     -416.064292637 Eh
FINAL SINGLE POINT ENERGY      -416.064292637198

DIPOLE MOMENT
-------------
                                X             Y             Z
Electronic contribution:     -3.21843      -2.07004       0.93559
Nuclear contribution   :      3.60959       1.91253      -0.64984
                        -----------------------------------------
Total Dipole Moment    :      0.39115      -0.15750       0.28575
                        -----------------------------------------
Magnitude (a.u.)       :      0.50937
Magnitude (Debye)      :      1.29472

                             ****ORCA TERMINATED NORMALLY****
TOTAL RUN TIME: 0 days 0 hours 14 minutes 0 seconds 676 msec
