                         Program Version 3.0.3 - RELEASE   -
|  1> ! RI-MP2 RIJK def2-TZVP def2-TZVP/C def2-TZVP/JK TIGHTSCF
|  2> % maxcore 2000
|  3> % mp2 density relaxed end
|  4> *xyz 0 1
|  5>  C        0.0151010643     1.5916016131    -0.0081014642
|  6>  C        1.5274046601     2.0386842707    -0.0796935435
|  7>  C        2.1260166280     0.7189963378     0.3702974560
|  8>  C        1.4196016393    -0.3136949988    -0.5001099768
|  9>  C        0.0116200288     0.0028115940     0.0459153350
| 10>  C        0.0041064072    -0.6392516573     1.4358825772
| 11>  C        1.0883699506    -0.5683560077     2.2249877215
| 12>  C        2.0732812606     0.4708450367     1.8085750335
| 13>  O        3.3183969988     0.3615146306     1.0507296369
| 14>  H       -0.4755551928     2.0145817095     0.8714513713
| 15>  H       -0.5384678473     1.9320259158    -0.8870888016
| 16>  H        1.8136179488     2.3197874143    -1.0983159588
| 17>  H        1.7486806322     2.8733789247     0.5880327479
| 18>  H        1.5307851400    -0.0743829933    -1.5641519713
| 19>  H        1.7406288863    -1.3380008920    -0.3192213137
| 20>  H       -0.8125743504    -0.3955816948    -0.5490838564
| 21>  H       -0.8553143301    -1.2417321917     1.7195725252
| 22>  H        1.1575174362    -1.0850402510     3.1769317951
| 23>  H        2.1102512294     1.3390902594     2.4688100668
| 24> *
| 25>
| 26>                          ****END OF INPUT****

CARTESIAN COORDINATES (ANGSTROEM)
---------------------------------
  C      0.015101    1.591602   -0.008101
  C      1.527405    2.038684   -0.079694
  C      2.126017    0.718996    0.370297
  C      1.419602   -0.313695   -0.500110
  C      0.011620    0.002812    0.045915
  C      0.004106   -0.639252    1.435883
  C      1.088370   -0.568356    2.224988
  C      2.073281    0.470845    1.808575
  O      3.318397    0.361515    1.050730
  H     -0.475555    2.014582    0.871451
  H     -0.538468    1.932026   -0.887089
  H      1.813618    2.319787   -1.098316
  H      1.748681    2.873379    0.588033
  H      1.530785   -0.074383   -1.564152
  H      1.740629   -1.338001   -0.319221
  H     -0.812574   -0.395582   -0.549084
  H     -0.855314   -1.241732    1.719573
  H      1.157517   -1.085040    3.176932
  H      2.110251    1.339090    2.468810

 Total Charge           Charge          ....    0
 Multiplicity           Mult            ....    1
 Number of Electrons    NEL             ....   66
 Basis Dimension        Dim             ....  339

ORBITAL ENERGIES
----------------

  NO   OCC          E(Eh)            E(eV)
   0   2.0000     -20.567344      -559.6659
   1   2.0000     -11.280565      -306.9598
   2   2.0000     -11.276025      -306.8363
   3   2.0000     -11.245523      -306.0062
   4   2.0000     -11.243077      -305.9397
   5   2.0000     -11.237168      -305.7789
   6   2.0000     -11.233982      -305.6922
   7   2.0000     -11.232871      -305.6619
   8   2.0000     -11.223686      -305.4120
   9   2.0000      -1.401746       -38.1435
  10   2.0000      -1.151409       -31.3314
  11   2.0000      -1.057072       -28.7644
  12   2.0000      -0.979543       -26.6547
  13   2.0000      -0.951308       -25.8864
  14   2.0000      -0.875619       -23.8268
  15   2.0000      -0.822415       -22.3790
  16   2.0000      -0.769839       -20.9484
  17   2.0000      -0.706893       -19.2355
  18   2.0000      -0.682353       -18.5678
  19   2.0000      -0.664606       -18.0849
  20   2.0000      -0.628350       -17.0983
  21   2.0000      -0.611843       -16.6491
  22   2.0000      -0.603061       -16.4101
  23   2.0000      -0.559886       -15.2353
  24   2.0000      -0.538532       -14.6542
  25   2.0000      -0.514538       -14.0013
  26   2.0000      -0.499792       -13.6000
  27   2.0000      -0.492576       -13.4037
  28   2.0000      -0.477250       -12.9866
  29   2.0000      -0.459720       -12.5096
  30   2.0000      -0.422314       -11.4918
  31   2.0000      -0.406376       -11.0581
  32   2.0000      -0.354599        -9.6491
  33   0.0000       0.125890         3.4256
  34   0.0000       0.140168         3.8142
  35   0.0000       0.158874         4.3232
  36   0.0000       0.166020         4.5176
  37   0.0000       0.173963         4.7338

MULLIKEN ATOMIC CHARGES
-----------------------
   0 C :   -0.276204
   1 C :   -0.297507
   2 C :    0.271899
   3 C :   -0.232014
   4 C :    0.037399
   5 C :   -0.241687
   6 C :   -0.173379
   7 C :   -0.010180
   8 O :   -0.317808
   9 H :    0.126183
  10 H :    0.128094
  11 H :    0.118261
  12 H :    0.129676
  13 H :    0.118267
  14 H :    0.128152
  15 H :    0.121239
  16 H :    0.125856
  17 H :    0.132190
  18 H :    0.111564
Sum of atomic charges:   -0.0000000

LOEWDIN ATOMIC CHARGES
----------------------
   0 C :   -0.194874
   1 C :   -0.209368
   2 C :   -0.316714
   3 C :   -0.177872
   4 C :   -0.208069
   5 C :   -0.114925
   6 C :   -0.150302
   7 C :   -0.210409
   8 O :    0.182413
   9 H :    0.136511
  10 H :    0.133068
  11 H :    0.133748
  12 H :    0.138058
  13 H :    0.141005
  14 H :    0.144957
  15 H :    0.145793
  16 H :    0.140227
  17 H :    0.139907
  18 H :    0.146846

  Mayer bond orders larger than 0.1
B(  0-C ,  1-C ) :   0.9311 B(  0-C ,  4-C ) :   0.8673 B(  0-C ,  9-H ) :   0.9273
B(  0-C , 10-H ) :   0.9254 B(  1-C ,  2-C ) :   0.8953 B(  1-C , 11-H ) :   0.9262
B(  1-C , 12-H ) :   0.9205 B(  2-C ,  3-C ) :   0.9104 B(  2-C ,  7-C ) :   0.9056
B(  2-C ,  8-O ) :   0.9748 B(  3-C ,  4-C ) :   0.9352 B(  3-C , 13-H ) :   0.9180
B(  3-C , 14-H ) :   0.9198 B(  4-C ,  5-C ) :   0.9211 B(  4-C , 15-H ) :   0.9202
B(  5-C ,  6-C ) :   1.7441 B(  5-C , 16-H ) :   0.9233 B(  6-C ,  7-C ) :   0.9195
B(  6-C , 17-H ) :   0.9295 B(  7-C ,  8-O ) :   0.9074 B(  7-C , 18-H ) :   0.9342

MP2 TOTAL ENERGY:     -385.185328512 Eh
FINAL SINGLE POINT ENERGY      -385.185328512152

DIPOLE MOMENT
-------------
                                X             Y             Z
Electronic contribution:      4.30826      -1.80199       2.26816
Nuclear contribution   :     -5.28479       1.97036      -2.37889
                        -----------------------------------------
Total Dipole Moment    :     -0.97653       0.16837      -0.11073
                        -----------------------------------------
Magnitude (a.u.)       :      0.99710
Magnitude (Debye)      :      2.53443

                             ****ORCA TERMINATED NORMALLY****
TOTAL RUN TIME: 0 days 0 hours 21 minutes 3 seconds 855 msec
