                         Program Version 3.0.3 - RELEASE   -
|  1> ! RI-MP2 RIJK def2-TZVP def2-TZVP/C def2-TZVP/JK TIGHTSCF
|  2> % maxcore 2000
|  3> % mp2 density relaxed end
|  4> *xyz 0 1
|  5>  C        0.1823831634     1.6231499066    -0.2966847401
|  6>  C        0.1295698071     0.1149859193    -0.1984404334
|  7>  C        0.7239331511    -0.8394710754    -1.1914051902
|  8>  C        1.3143942754    -0.7710350632     0.2092880994
|  9>  C        2.5911765937    -0.2646273528    -0.4461588618
| 10>  O        3.6820791763     0.0523974776    -0.0862360582
| 11>  N        1.9859142327    -0.3322451267    -1.7370362117
| 12>  C        2.1878036261     0.3411283035    -2.9300879026
| 13>  N        3.2584148818     0.9676836634    -3.1973298517
| 14>  H        1.1182685504     1.9749224070    -0.7368356488
| 15>  H       -0.6444666301     1.9971824221    -0.9098752965
| 16>  H        0.0929008580     2.0721979157     0.6972045124
| 17>  H       -0.7958147797    -0.2682005690     0.2310281241
| 18>  H        0.2166320430    -1.6713040270    -1.6626152758
| 19>  H        1.2606939524    -1.4902970249     1.0135985690
| 20>  H        1.3193017442     0.2324819204    -3.5942256045
| 21>  H        3.2010867341     1.3724268034    -4.1301656096
| 22> *
| 23>
| 24>                          ****END OF INPUT****

CARTESIAN COORDINATES (ANGSTROEM)
---------------------------------
  C      0.182383    1.623150   -0.296685
  C      0.129570    0.114986   -0.198440
  C      0.723933   -0.839471   -1.191405
  C      1.314394   -0.771035    0.209288
  C      2.591177   -0.264627   -0.446159
  O      3.682079    0.052397   -0.086236
  N      1.985914   -0.332245   -1.737036
  C      2.187804    0.341128   -2.930088
  N      3.258415    0.967684   -3.197330
  H      1.118269    1.974922   -0.736836
  H     -0.644467    1.997182   -0.909875
  H      0.092901    2.072198    0.697205
  H     -0.795815   -0.268201    0.231028
  H      0.216632   -1.671304   -1.662615
  H      1.260694   -1.490297    1.013599
  H      1.319302    0.232482   -3.594226
  H      3.201087    1.372427   -4.130166

 Total Charge           Charge          ....    0
 Multiplicity           Mult            ....    1
 Number of Electrons    NEL             ....   66
 Basis Dimension        Dim             ....  327

ORBITAL ENERGIES
----------------

  NO   OCC          E(Eh)            E(eV)
   0   2.0000     -20.546000      -559.0851
   1   2.0000     -15.603751      -424.5996
   2   2.0000     -15.542032      -422.9202
   3   2.0000     -11.368859      -309.3624
   4   2.0000     -11.325494      -308.1824
   5   2.0000     -11.300083      -307.4909
   6   2.0000     -11.275837      -306.8311
   7   2.0000     -11.263799      -306.5036
   8   2.0000     -11.236553      -305.7621
   9   2.0000      -1.408424       -38.3252
  10   2.0000      -1.318280       -35.8722
  11   2.0000      -1.215711       -33.0812
  12   2.0000      -1.119070       -30.4514
  13   2.0000      -1.000706       -27.2306
  14   2.0000      -0.927902       -25.2495
  15   2.0000      -0.857606       -23.3367
  16   2.0000      -0.801564       -21.8117
  17   2.0000      -0.730408       -19.8754
  18   2.0000      -0.702544       -19.1172
  19   2.0000      -0.699307       -19.0291
  20   2.0000      -0.661255       -17.9937
  21   2.0000      -0.645406       -17.5624
  22   2.0000      -0.593222       -16.1424
  23   2.0000      -0.591821       -16.1043
  24   2.0000      -0.578578       -15.7439
  25   2.0000      -0.568402       -15.4670
  26   2.0000      -0.534871       -14.5546
  27   2.0000      -0.512305       -13.9405
  28   2.0000      -0.463545       -12.6137
  29   2.0000      -0.449118       -12.2211
  30   2.0000      -0.431860       -11.7515
  31   2.0000      -0.414252       -11.2724
  32   2.0000      -0.365191        -9.9374
  33   0.0000       0.120939         3.2909
  34   0.0000       0.130943         3.5631
  35   0.0000       0.148262         4.0344
  36   0.0000       0.154774         4.2116
  37   0.0000       0.171162         4.6575

MULLIKEN ATOMIC CHARGES
-----------------------
   0 C :   -0.395141
   1 C :   -0.075419
   2 C :   -0.053975
   3 C :   -0.188011
   4 C :    0.203381
   5 O :   -0.244972
   6 N :   -0.081877
   7 C :   -0.035436
   8 N :   -0.340662
   9 H :    0.163730
  10 H :    0.133054
  11 H :    0.144141
  12 H :    0.126236
  13 H :    0.158534
  14 H :    0.159858
  15 H :    0.104297
  16 H :    0.222261
Sum of atomic charges:    0.0000000

LOEWDIN ATOMIC CHARGES
----------------------
   0 C :   -0.283291
   1 C :   -0.198181
   2 C :   -0.170787
   3 C :   -0.122043
   4 C :   -0.356333
   5 O :    0.171464
   6 N :    0.232826
   7 C :   -0.335066
   8 N :   -0.070348
   9 H :    0.135809
  10 H :    0.128649
  11 H :    0.132345
  12 H :    0.160751
  13 H :    0.141150
  14 H :    0.146344
  15 H :    0.120575
  16 H :    0.166136

  Mayer bond orders larger than 0.1
B(  0-C ,  1-C ) :   0.9142 B(  0-C ,  9-H ) :   0.9318 B(  0-C , 10-H ) :   0.9331
B(  0-C , 11-H ) :   0.9317 B(  1-C ,  2-C ) :   0.8764 B(  1-C ,  3-C ) :   0.8272
B(  1-C , 12-H ) :   0.9191 B(  2-C ,  3-C ) :   0.8472 B(  2-C ,  6-N ) :   0.9088
B(  2-C , 13-H ) :   0.9109 B(  3-C ,  4-C ) :   0.9398 B(  3-C , 14-H ) :   0.9115
B(  4-C ,  5-O ) :   2.0434 B(  4-C ,  6-N ) :   0.9878 B(  6-N ,  7-C ) :   1.0001
B(  7-C ,  8-N ) :   1.9596 B(  7-C , 15-H ) :   0.9279 B(  8-N , 16-H ) :   0.8551

MP2 TOTAL ENERGY:     -417.283243759 Eh
FINAL SINGLE POINT ENERGY      -417.283243758705

DIPOLE MOMENT
-------------
                                X             Y             Z
Electronic contribution:      5.96579      -3.33386      -0.20277
Nuclear contribution   :     -8.08235       2.96525      -0.18910
                        -----------------------------------------
Total Dipole Moment    :     -2.11656      -0.36861      -0.39187
                        -----------------------------------------
Magnitude (a.u.)       :      2.18386
Magnitude (Debye)      :      5.55094

                             ****ORCA TERMINATED NORMALLY****
TOTAL RUN TIME: 0 days 0 hours 17 minutes 6 seconds 438 msec
