                         Program Version 3.0.3 - RELEASE   -
|  1> ! RI-MP2 RIJK def2-TZVP def2-TZVP/C def2-TZVP/JK TIGHTSCF
|  2> % maxcore 2000
|  3> % mp2 density relaxed end
|  4> *xyz 0 1
|  5>  C       -0.0251682221     1.5798352101    -0.0579310144
|  6>  C       -0.0038083021     0.0663084798    -0.0163556349
|  7>  C        1.3116087338    -0.6895226870    -0.2195806316
|  8>  C        0.6434090828    -0.6699090519     1.1066523784
|  9>  C        1.1302628669    -0.3048991986     2.5133695454
| 10>  C       -0.2547625826    -0.7041637602     3.0743307211
| 11>  C        0.2119778760    -1.7960010874     2.0677337300
| 12>  C       -0.3524217408    -3.1499024063     1.7774069414
| 13>  O        1.5697712924    -1.7099585171     2.6884557823
| 14>  H        0.8822217540     1.9970229460     0.3912035298
| 15>  H       -0.0842560448     1.9472065151    -1.0883346725
| 16>  H       -0.8829847675     1.9856134146     0.4902128181
| 17>  H       -0.8797483254    -0.4090545633    -0.4545367700
| 18>  H        1.2933212616    -1.6061674721    -0.8012301033
| 19>  H        2.2137148437    -0.0989651690    -0.3513334960
| 20>  H        1.8134049460     0.4789235336     2.8392134467
| 21>  H       -0.2524268692    -1.0163971150     4.1200678799
| 22>  H       -1.1192765523    -0.0921729193     2.8040653292
| 23>  H       -1.3492733287    -3.0586933861     1.3341676913
| 24>  H        0.2918077597    -3.6919213689     1.0782020954
| 25>  H       -0.4356127414    -3.7362018270     2.6972874236
| 26> *
| 27>
| 28>                          ****END OF INPUT****

CARTESIAN COORDINATES (ANGSTROEM)
---------------------------------
  C     -0.025168    1.579835   -0.057931
  C     -0.003808    0.066308   -0.016356
  C      1.311609   -0.689523   -0.219581
  C      0.643409   -0.669909    1.106652
  C      1.130263   -0.304899    2.513370
  C     -0.254763   -0.704164    3.074331
  C      0.211978   -1.796001    2.067734
  C     -0.352422   -3.149902    1.777407
  O      1.569771   -1.709959    2.688456
  H      0.882222    1.997023    0.391204
  H     -0.084256    1.947207   -1.088335
  H     -0.882985    1.985613    0.490213
  H     -0.879748   -0.409055   -0.454537
  H      1.293321   -1.606167   -0.801230
  H      2.213715   -0.098965   -0.351333
  H      1.813405    0.478924    2.839213
  H     -0.252427   -1.016397    4.120068
  H     -1.119277   -0.092173    2.804065
  H     -1.349273   -3.058693    1.334168
  H      0.291808   -3.691921    1.078202
  H     -0.435613   -3.736202    2.697287

 Total Charge           Charge          ....    0
 Multiplicity           Mult            ....    1
 Number of Electrons    NEL             ....   68
 Basis Dimension        Dim             ....  351

ORBITAL ENERGIES
----------------

  NO   OCC          E(Eh)            E(eV)
   0   2.0000     -20.538233      -558.8737
   1   2.0000     -11.300319      -307.4973
   2   2.0000     -11.294092      -307.3279
   3   2.0000     -11.240746      -305.8763
   4   2.0000     -11.235162      -305.7243
   5   2.0000     -11.231289      -305.6189
   6   2.0000     -11.224274      -305.4280
   7   2.0000     -11.222408      -305.3773
   8   2.0000     -11.221879      -305.3629
   9   2.0000      -1.385357       -37.6975
  10   2.0000      -1.150153       -31.2973
  11   2.0000      -1.047812       -28.5124
  12   2.0000      -0.999342       -27.1935
  13   2.0000      -0.964733       -26.2517
  14   2.0000      -0.859471       -23.3874
  15   2.0000      -0.832515       -22.6539
  16   2.0000      -0.793514       -21.5926
  17   2.0000      -0.702317       -19.1110
  18   2.0000      -0.656047       -17.8520
  19   2.0000      -0.653893       -17.7933
  20   2.0000      -0.622805       -16.9474
  21   2.0000      -0.596090       -16.2204
  22   2.0000      -0.580045       -15.7838
  23   2.0000      -0.569466       -15.4960
  24   2.0000      -0.564443       -15.3593
  25   2.0000      -0.541281       -14.7290
  26   2.0000      -0.511581       -13.9208
  27   2.0000      -0.502139       -13.6639
  28   2.0000      -0.499546       -13.5933
  29   2.0000      -0.449049       -12.2193
  30   2.0000      -0.437265       -11.8986
  31   2.0000      -0.434798       -11.8314
  32   2.0000      -0.401726       -10.9315
  33   2.0000      -0.382098       -10.3974
  34   0.0000       0.132547         3.6068
  35   0.0000       0.145106         3.9485
  36   0.0000       0.166635         4.5344
  37   0.0000       0.176764         4.8100
  38   0.0000       0.190702         5.1893

MULLIKEN ATOMIC CHARGES
-----------------------
   0 C :   -0.419803
   1 C :   -0.068245
   2 C :   -0.293348
   3 C :    0.047719
   4 C :   -0.033810
   5 C :   -0.121926
   6 C :    0.053793
   7 C :   -0.423240
   8 O :   -0.303304
   9 H :    0.127996
  10 H :    0.136891
  11 H :    0.130423
  12 H :    0.117069
  13 H :    0.128413
  14 H :    0.125659
  15 H :    0.137823
  16 H :    0.114608
  17 H :    0.110368
  18 H :    0.138282
  19 H :    0.145971
  20 H :    0.148661
Sum of atomic charges:    0.0000000

LOEWDIN ATOMIC CHARGES
----------------------
   0 C :   -0.292594
   1 C :   -0.210190
   2 C :   -0.180474
   3 C :   -0.170534
   4 C :   -0.189909
   5 C :   -0.171744
   6 C :   -0.253693
   7 C :   -0.268956
   8 O :    0.143717
   9 H :    0.127468
  10 H :    0.125653
  11 H :    0.124326
  12 H :    0.148576
  13 H :    0.135497
  14 H :    0.137878
  15 H :    0.125293
  16 H :    0.132308
  17 H :    0.129903
  18 H :    0.135207
  19 H :    0.135952
  20 H :    0.136315

  Mayer bond orders larger than 0.1
B(  0-C ,  1-C ) :   0.8739 B(  0-C ,  9-H ) :   0.9372 B(  0-C , 10-H ) :   0.9395
B(  0-C , 11-H ) :   0.9397 B(  1-C ,  2-C ) :   0.9364 B(  1-C ,  3-C ) :   0.8395
B(  1-C , 12-H ) :   0.9135 B(  2-C ,  3-C ) :   0.8568 B(  2-C , 13-H ) :   0.9202
B(  2-C , 14-H ) :   0.9149 B(  3-C ,  4-C ) :   0.9231 B(  3-C ,  6-C ) :   0.9073
B(  4-C ,  5-C ) :   0.9257 B(  4-C ,  6-C ) :   0.1004 B(  4-C ,  8-O ) :   0.9397
B(  4-C , 15-H ) :   0.8815 B(  5-C ,  6-C ) :   0.8803 B(  5-C , 16-H ) :   0.9166
B(  5-C , 17-H ) :   0.9131 B(  6-C ,  7-C ) :   0.8150 B(  6-C ,  8-O ) :   0.9404
B(  7-C , 18-H ) :   0.9376 B(  7-C , 19-H ) :   0.9440 B(  7-C , 20-H ) :   0.9406

MP2 TOTAL ENERGY:     -386.331258106 Eh
FINAL SINGLE POINT ENERGY      -386.331258105841

DIPOLE MOMENT
-------------
                                X             Y             Z
Electronic contribution:      3.21175      -2.10940       3.63223
Nuclear contribution   :     -3.89576       2.45694      -3.97906
                        -----------------------------------------
Total Dipole Moment    :     -0.68401       0.34754      -0.34683
                        -----------------------------------------
Magnitude (a.u.)       :      0.84199
Magnitude (Debye)      :      2.14017

                             ****ORCA TERMINATED NORMALLY****
TOTAL RUN TIME: 0 days 0 hours 18 minutes 42 seconds 331 msec
