                         Program Version 3.0.3 - RELEASE   -
|  1> ! RI-MP2 RIJK def2-TZVP def2-TZVP/C def2-TZVP/JK TIGHTSCF
|  2> % maxcore 2000
|  3> % mp2 density relaxed end
|  4> *xyz 0 1
|  5>  O       -0.0709886452    -0.0160379865    -0.2850407687
|  6>  C       -0.0536440572     1.1449475952    -0.0062191867
|  7>  C       -1.0656444356     2.3136003755     0.0238692717
|  8>  C       -0.8234900337     2.9611103018     1.3917858391
|  9>  C        0.7594767614     2.9533472330     1.3960325674
| 10>  C        1.3637358340     2.2384034558     2.5069882965
| 11>  C        1.8580580752     1.6366563056     3.4226341019
| 12>  C        0.9902336842     2.2843975943     0.0182849517
| 13>  N       -0.0260306256     3.0392006983    -0.8148348490
| 14>  H       -2.0811236232     2.2383195538    -0.3594421556
| 15>  H       -1.2173860511     3.9780008688     1.4307059203
| 16>  H       -1.2419760955     2.3780433868     2.2136006872
| 17>  H        1.1378543113     3.9788464401     1.3585854060
| 18>  H        2.2977790004     1.1055995527     4.2302911176
| 19>  H        2.0091244905     2.1898781768    -0.3497894909
| 20>  H       -0.0302821499     2.6461003878    -1.7567354586
| 21> *
| 22>
| 23>                          ****END OF INPUT****

CARTESIAN COORDINATES (ANGSTROEM)
---------------------------------
  O     -0.070989   -0.016038   -0.285041
  C     -0.053644    1.144948   -0.006219
  C     -1.065644    2.313600    0.023869
  C     -0.823490    2.961110    1.391786
  C      0.759477    2.953347    1.396033
  C      1.363736    2.238403    2.506988
  C      1.858058    1.636656    3.422634
  C      0.990234    2.284398    0.018285
  N     -0.026031    3.039201   -0.814835
  H     -2.081124    2.238320   -0.359442
  H     -1.217386    3.978001    1.430706
  H     -1.241976    2.378043    2.213601
  H      1.137854    3.978846    1.358585
  H      2.297779    1.105600    4.230291
  H      2.009124    2.189878   -0.349789
  H     -0.030282    2.646100   -1.756735

 Total Charge           Charge          ....    0
 Multiplicity           Mult            ....    1
 Number of Electrons    NEL             ....   64
 Basis Dimension        Dim             ....  321

ORBITAL ENERGIES
----------------

  NO   OCC          E(Eh)            E(eV)
   0   2.0000     -20.560764      -559.4868
   1   2.0000     -15.585496      -424.1029
   2   2.0000     -11.343697      -308.6777
   3   2.0000     -11.291975      -307.2703
   4   2.0000     -11.288726      -307.1818
   5   2.0000     -11.277927      -306.8880
   6   2.0000     -11.253425      -306.2213
   7   2.0000     -11.241968      -305.9095
   8   2.0000     -11.232167      -305.6428
   9   2.0000      -1.407243       -38.2930
  10   2.0000      -1.289278       -35.0830
  11   2.0000      -1.095196       -29.8018
  12   2.0000      -1.022218       -27.8160
  13   2.0000      -0.981465       -26.7070
  14   2.0000      -0.921731       -25.0816
  15   2.0000      -0.829639       -22.5756
  16   2.0000      -0.757091       -20.6015
  17   2.0000      -0.737083       -20.0571
  18   2.0000      -0.712905       -19.3991
  19   2.0000      -0.674549       -18.3554
  20   2.0000      -0.637372       -17.3438
  21   2.0000      -0.632390       -17.2082
  22   2.0000      -0.585633       -15.9359
  23   2.0000      -0.558868       -15.2076
  24   2.0000      -0.545396       -14.8410
  25   2.0000      -0.535063       -14.5598
  26   2.0000      -0.515386       -14.0244
  27   2.0000      -0.512516       -13.9463
  28   2.0000      -0.422400       -11.4941
  29   2.0000      -0.406309       -11.0562
  30   2.0000      -0.392859       -10.6902
  31   2.0000      -0.388269       -10.5653
  32   0.0000       0.128568         3.4985
  33   0.0000       0.141009         3.8371
  34   0.0000       0.156511         4.2589
  35   0.0000       0.161167         4.3856
  36   0.0000       0.169000         4.5987

MULLIKEN ATOMIC CHARGES
-----------------------
   0 O :   -0.243009
   1 C :    0.070483
   2 C :   -0.032956
   3 C :   -0.222201
   4 C :   -0.128645
   5 C :   -0.098114
   6 C :   -0.158429
   7 C :    0.013741
   8 N :   -0.323668
   9 H :    0.149873
  10 H :    0.125783
  11 H :    0.142387
  12 H :    0.128368
  13 H :    0.194261
  14 H :    0.157496
  15 H :    0.224630
Sum of atomic charges:   -0.0000000

LOEWDIN ATOMIC CHARGES
----------------------
   0 O :    0.162901
   1 C :   -0.297868
   2 C :   -0.213919
   3 C :   -0.179403
   4 C :   -0.200081
   5 C :   -0.090337
   6 C :   -0.087858
   7 C :   -0.182579
   8 N :    0.048226
   9 H :    0.138531
  10 H :    0.140593
  11 H :    0.145779
  12 H :    0.171086
  13 H :    0.128349
  14 H :    0.142186
  15 H :    0.174394

  Mayer bond orders larger than 0.1
B(  0-O ,  1-C ) :   2.0691 B(  1-C ,  2-C ) :   0.9226 B(  1-C ,  7-C ) :   0.9031
B(  2-C ,  3-C ) :   0.8928 B(  2-C ,  7-C ) :  -0.1436 B(  2-C ,  8-N ) :   0.9673
B(  2-C ,  9-H ) :   0.8989 B(  3-C ,  4-C ) :   0.9191 B(  3-C , 10-H ) :   0.9031
B(  3-C , 11-H ) :   0.9294 B(  4-C ,  5-C ) :   1.1407 B(  4-C ,  7-C ) :   0.8377
B(  4-C , 12-H ) :   0.8990 B(  5-C ,  6-C ) :   2.5896 B(  6-C , 13-H ) :   0.8929
B(  7-C ,  8-N ) :   0.9642 B(  7-C , 14-H ) :   0.8967 B(  8-N , 15-H ) :   0.8727

MP2 TOTAL ENERGY:     -400.001506835 Eh
FINAL SINGLE POINT ENERGY      -400.001506835100

DIPOLE MOMENT
-------------
                                X             Y             Z
Electronic contribution:      1.00852      -3.26587      -1.07566
Nuclear contribution   :     -1.12579       3.92560       1.12051
                        -----------------------------------------
Total Dipole Moment    :     -0.11727       0.65973       0.04485
                        -----------------------------------------
Magnitude (a.u.)       :      0.67157
Magnitude (Debye)      :      1.70700

                             ****ORCA TERMINATED NORMALLY****
TOTAL RUN TIME: 0 days 0 hours 16 minutes 39 seconds 345 msec
