                         Program Version 3.0.3 - RELEASE   -
|  1> ! RI-MP2 RIJK def2-TZVP def2-TZVP/C def2-TZVP/JK TIGHTSCF
|  2> % maxcore 2000
|  3> % mp2 density relaxed end
|  4> *xyz 0 1
|  5>  C        0.4102978443     1.4305942386    -0.0881094309
|  6>  C       -0.1134135227    -0.0161996035     0.0261335642
|  7>  C       -1.6481849644     0.0116497147     0.1447147980
|  8>  C        0.3595248595    -0.9065170786    -1.1693521974
|  9>  C        1.4629799152    -1.8810094277    -0.6418354842
| 10>  C        1.1829573681    -3.3374775907    -1.0549320345
| 11>  C        2.8702931088    -1.4794806971    -1.1304889447
| 12>  C        1.3503636423    -1.6975346597     0.8592903991
| 13>  C        0.5229089199    -0.7186888761     1.2099096603
| 14>  H        1.4983966195     1.4521242302    -0.2015459467
| 15>  H       -0.0324396697     1.9375825048    -0.9532668531
| 16>  H        0.1568286618     2.0136050501     0.8046577963
| 17>  H       -2.1010006290     0.4632602801    -0.7454844336
| 18>  H       -2.0531930486    -0.9992632011     0.2552876850
| 19>  H       -1.9678044302     0.5990281181     1.0131817249
| 20>  H       -0.4873402372    -1.4856303489    -1.5511916400
| 21>  H        0.7244179723    -0.2992332549    -2.0036030012
| 22>  H        1.2030846380    -3.4453394772    -2.1455325650
| 23>  H        1.9354533916    -4.0183682887    -0.6407551263
| 24>  H        0.2009626349    -3.6658385001    -0.6998709961
| 25>  H        3.0970336784    -0.4389988144    -0.8789407049
| 26>  H        3.6416172989    -2.1087589786    -0.6719592092
| 27>  H        2.9517156285    -1.5925529305    -2.2177497332
| 28>  H        1.9248792268    -2.3100440574     1.5485923553
| 29>  H        0.3164766831    -0.4073685013     2.2301243578
| 30> *
| 31>
| 32>                          ****END OF INPUT****

CARTESIAN COORDINATES (ANGSTROEM)
---------------------------------
  C      0.410298    1.430594   -0.088109
  C     -0.113414   -0.016200    0.026134
  C     -1.648185    0.011650    0.144715
  C      0.359525   -0.906517   -1.169352
  C      1.462980   -1.881009   -0.641835
  C      1.182957   -3.337478   -1.054932
  C      2.870293   -1.479481   -1.130489
  C      1.350364   -1.697535    0.859290
  C      0.522909   -0.718689    1.209910
  H      1.498397    1.452124   -0.201546
  H     -0.032440    1.937583   -0.953267
  H      0.156829    2.013605    0.804658
  H     -2.101001    0.463260   -0.745484
  H     -2.053193   -0.999263    0.255288
  H     -1.967804    0.599028    1.013182
  H     -0.487340   -1.485630   -1.551192
  H      0.724418   -0.299233   -2.003603
  H      1.203085   -3.445339   -2.145533
  H      1.935453   -4.018368   -0.640755
  H      0.200963   -3.665839   -0.699871
  H      3.097034   -0.438999   -0.878941
  H      3.641617   -2.108759   -0.671959
  H      2.951716   -1.592553   -2.217750
  H      1.924879   -2.310044    1.548592
  H      0.316477   -0.407369    2.230124

 Total Charge           Charge          ....    0
 Multiplicity           Mult            ....    1
 Number of Electrons    NEL             ....   70
 Basis Dimension        Dim             ....  375

ORBITAL ENERGIES
----------------

  NO   OCC          E(Eh)            E(eV)
   0   2.0000     -11.233201      -305.6709
   1   2.0000     -11.233193      -305.6707
   2   2.0000     -11.215434      -305.1875
   3   2.0000     -11.213665      -305.1393
   4   2.0000     -11.211495      -305.0803
   5   2.0000     -11.209870      -305.0361
   6   2.0000     -11.209869      -305.0360
   7   2.0000     -11.209663      -305.0304
   8   2.0000     -11.209662      -305.0304
   9   2.0000      -1.146689       -31.2030
  10   2.0000      -1.057160       -28.7668
  11   2.0000      -0.990083       -26.9415
  12   2.0000      -0.929204       -25.2849
  13   2.0000      -0.923164       -25.1206
  14   2.0000      -0.919335       -25.0164
  15   2.0000      -0.823311       -22.4034
  16   2.0000      -0.737727       -20.0746
  17   2.0000      -0.707379       -19.2488
  18   2.0000      -0.649077       -17.6623
  19   2.0000      -0.614310       -16.7162
  20   2.0000      -0.592261       -16.1162
  21   2.0000      -0.587199       -15.9785
  22   2.0000      -0.573772       -15.6131
  23   2.0000      -0.559725       -15.2309
  24   2.0000      -0.548857       -14.9351
  25   2.0000      -0.542165       -14.7531
  26   2.0000      -0.531093       -14.4518
  27   2.0000      -0.504770       -13.7355
  28   2.0000      -0.490828       -13.3561
  29   2.0000      -0.471553       -12.8316
  30   2.0000      -0.461842       -12.5674
  31   2.0000      -0.458679       -12.4813
  32   2.0000      -0.447815       -12.1857
  33   2.0000      -0.430061       -11.7026
  34   2.0000      -0.342054        -9.3078
  35   0.0000       0.130780         3.5587
  36   0.0000       0.151547         4.1238
  37   0.0000       0.158566         4.3148
  38   0.0000       0.176581         4.8050
  39   0.0000       0.176963         4.8154

MULLIKEN ATOMIC CHARGES
-----------------------
   0 C :   -0.436753
   1 C :    0.255017
   2 C :   -0.429226
   3 C :   -0.381345
   4 C :    0.255017
   5 C :   -0.429226
   6 C :   -0.436753
   7 C :   -0.223921
   8 C :   -0.223920
   9 H :    0.131705
  10 H :    0.129686
  11 H :    0.126700
  12 H :    0.130600
  13 H :    0.132691
  14 H :    0.126642
  15 H :    0.130493
  16 H :    0.126930
  17 H :    0.130600
  18 H :    0.126642
  19 H :    0.132691
  20 H :    0.131705
  21 H :    0.126700
  22 H :    0.129686
  23 H :    0.118820
  24 H :    0.118820
Sum of atomic charges:   -0.0000000

LOEWDIN ATOMIC CHARGES
----------------------
   0 C :   -0.269127
   1 C :   -0.295374
   2 C :   -0.272457
   3 C :   -0.147219
   4 C :   -0.295374
   5 C :   -0.272457
   6 C :   -0.269127
   7 C :   -0.116498
   8 C :   -0.116498
   9 H :    0.123800
  10 H :    0.124089
  11 H :    0.124042
  12 H :    0.124763
  13 H :    0.124826
  14 H :    0.123756
  15 H :    0.143385
  16 H :    0.140321
  17 H :    0.124762
  18 H :    0.123756
  19 H :    0.124826
  20 H :    0.123800
  21 H :    0.124042
  22 H :    0.124089
  23 H :    0.139937
  24 H :    0.139937

  Mayer bond orders larger than 0.1
B(  0-C ,  1-C ) :   0.8851 B(  0-C ,  9-H ) :   0.9399 B(  0-C , 10-H ) :   0.9335
B(  0-C , 11-H ) :   0.9366 B(  1-C ,  2-C ) :   0.8893 B(  1-C ,  3-C ) :   0.8914
B(  1-C ,  8-C ) :   0.8970 B(  2-C , 12-H ) :   0.9363 B(  2-C , 13-H ) :   0.9376
B(  2-C , 14-H ) :   0.9372 B(  3-C ,  4-C ) :   0.8914 B(  3-C , 15-H ) :   0.9317
B(  3-C , 16-H ) :   0.9257 B(  4-C ,  5-C ) :   0.8893 B(  4-C ,  6-C ) :   0.8851
B(  4-C ,  7-C ) :   0.8970 B(  5-C , 17-H ) :   0.9363 B(  5-C , 18-H ) :   0.9372
B(  5-C , 19-H ) :   0.9376 B(  6-C , 20-H ) :   0.9399 B(  6-C , 21-H ) :   0.9366
B(  6-C , 22-H ) :   0.9335 B(  7-C ,  8-C ) :   1.8213 B(  7-C , 23-H ) :   0.9219
B(  8-C , 24-H ) :   0.9219

MP2 TOTAL ENERGY:     -351.736318942 Eh
FINAL SINGLE POINT ENERGY      -351.736318941870

DIPOLE MOMENT
-------------
                                X             Y             Z
Electronic contribution:      0.29843      -0.77460       2.86679
Nuclear contribution   :     -0.29769       0.79483      -2.92152
                        -----------------------------------------
Total Dipole Moment    :      0.00074       0.02023      -0.05472
                        -----------------------------------------
Magnitude (a.u.)       :      0.05835
Magnitude (Debye)      :      0.14830

                             ****ORCA TERMINATED NORMALLY****
TOTAL RUN TIME: 0 days 0 hours 26 minutes 16 seconds 916 msec
