                         Program Version 3.0.3 - RELEASE   -
|  1> ! RI-MP2 RIJK def2-TZVP def2-TZVP/C def2-TZVP/JK TIGHTSCF
|  2> % maxcore 2000
|  3> % mp2 density relaxed end
|  4> *xyz 0 1
|  5>  C        0.0670466926     1.5346810277     0.3440623961
|  6>  O       -0.0203544840     0.1553462425     0.0680813406
|  7>  C        0.6548258513    -0.7014574655     0.9889894882
|  8>  C       -0.1082757689    -0.8464677378     2.3056476256
|  9>  C        0.7828560311    -2.0438837705     0.2444859613
| 10>  O       -0.4991161524    -2.4993149414    -0.1663463590
| 11>  C        1.7467872421    -1.9476052646    -0.9214055739
| 12>  C        3.1418242226    -2.4350883074    -0.7696233024
| 13>  N        2.1808778676    -3.1694260295    -1.6081175435
| 14>  H        1.1143842208     1.8651577167     0.4154114143
| 15>  H       -0.4118945168     2.0591433006    -0.4864799933
| 16>  H       -0.4480212773     1.8117578594     1.2742200653
| 17>  H        1.6648072169    -0.3038444329     1.1800220448
| 18>  H        0.4576537929    -1.4734952517     3.0021897988
| 19>  H       -0.2685908118     0.1212282068     2.7885087355
| 20>  H       -1.0767047909    -1.3182603302     2.1226840533
| 21>  H        1.1532198319    -2.8014816011     0.9474283945
| 22>  H       -0.9078666884    -1.7557109810    -0.6275108423
| 23>  H        1.5543833728    -1.1125698422    -1.5910841977
| 24>  H        3.9522026541    -1.9556193305    -1.3115185165
| 25>  H        3.4324392596    -2.8576613181     0.1899218102
| 26>  H        1.8244371041    -3.9829350194    -1.1106610400
| 27> *
| 28>
| 29>                          ****END OF INPUT****

CARTESIAN COORDINATES (ANGSTROEM)
---------------------------------
  C      0.067047    1.534681    0.344062
  O     -0.020354    0.155346    0.068081
  C      0.654826   -0.701457    0.988989
  C     -0.108276   -0.846468    2.305648
  C      0.782856   -2.043884    0.244486
  O     -0.499116   -2.499315   -0.166346
  C      1.746787   -1.947605   -0.921406
  C      3.141824   -2.435088   -0.769623
  N      2.180878   -3.169426   -1.608118
  H      1.114384    1.865158    0.415411
  H     -0.411895    2.059143   -0.486480
  H     -0.448021    1.811758    1.274220
  H      1.664807   -0.303844    1.180022
  H      0.457654   -1.473495    3.002190
  H     -0.268591    0.121228    2.788509
  H     -1.076705   -1.318260    2.122684
  H      1.153220   -2.801482    0.947428
  H     -0.907867   -1.755711   -0.627511
  H      1.554383   -1.112570   -1.591084
  H      3.952203   -1.955619   -1.311519
  H      3.432439   -2.857661    0.189922
  H      1.824437   -3.982935   -1.110661

 Total Charge           Charge          ....    0
 Multiplicity           Mult            ....    1
 Number of Electrons    NEL             ....   72
 Basis Dimension        Dim             ....  357

ORBITAL ENERGIES
----------------

  NO   OCC          E(Eh)            E(eV)
   0   2.0000     -20.566709      -559.6486
   1   2.0000     -20.549791      -559.1882
   2   2.0000     -15.552387      -423.2020
   3   2.0000     -11.290119      -307.2198
   4   2.0000     -11.285005      -307.0806
   5   2.0000     -11.280863      -306.9679
   6   2.0000     -11.253757      -306.2303
   7   2.0000     -11.252363      -306.1924
   8   2.0000     -11.220839      -305.3346
   9   2.0000      -1.392604       -37.8947
  10   2.0000      -1.353756       -36.8376
  11   2.0000      -1.255592       -34.1664
  12   2.0000      -1.054928       -28.7061
  13   2.0000      -0.959835       -26.1184
  14   2.0000      -0.934448       -25.4276
  15   2.0000      -0.879182       -23.9238
  16   2.0000      -0.825814       -22.4715
  17   2.0000      -0.797272       -21.6949
  18   2.0000      -0.696891       -18.9634
  19   2.0000      -0.695583       -18.9278
  20   2.0000      -0.675048       -18.3690
  21   2.0000      -0.657295       -17.8859
  22   2.0000      -0.632514       -17.2116
  23   2.0000      -0.591617       -16.0987
  24   2.0000      -0.586610       -15.9625
  25   2.0000      -0.574746       -15.6396
  26   2.0000      -0.552685       -15.0393
  27   2.0000      -0.544285       -14.8108
  28   2.0000      -0.534365       -14.5408
  29   2.0000      -0.491788       -13.3822
  30   2.0000      -0.489852       -13.3296
  31   2.0000      -0.483045       -13.1443
  32   2.0000      -0.458745       -12.4831
  33   2.0000      -0.444126       -12.0853
  34   2.0000      -0.425221       -11.5708
  35   2.0000      -0.384954       -10.4751
  36   0.0000       0.132512         3.6058
  37   0.0000       0.145686         3.9643
  38   0.0000       0.162369         4.4183
  39   0.0000       0.171323         4.6619
  40   0.0000       0.175098         4.7646

MULLIKEN ATOMIC CHARGES
-----------------------
   0 C :   -0.227365
   1 O :   -0.342019
   2 C :    0.022529
   3 C :   -0.394299
   4 C :    0.129461
   5 O :   -0.471731
   6 C :   -0.076276
   7 C :   -0.185907
   8 N :   -0.343902
   9 H :    0.117151
  10 H :    0.143235
  11 H :    0.117606
  12 H :    0.085045
  13 H :    0.128661
  14 H :    0.130385
  15 H :    0.147115
  16 H :    0.093501
  17 H :    0.329449
  18 H :    0.134482
  19 H :    0.121351
  20 H :    0.119796
  21 H :    0.221733
Sum of atomic charges:    0.0000000

LOEWDIN ATOMIC CHARGES
----------------------
   0 C :   -0.355862
   1 O :    0.143954
   2 C :   -0.330879
   3 C :   -0.294733
   4 C :   -0.329153
   5 O :   -0.010985
   6 C :   -0.271638
   7 C :   -0.270075
   8 N :   -0.011471
   9 H :    0.104100
  10 H :    0.115248
  11 H :    0.102579
  12 H :    0.141359
  13 H :    0.127805
  14 H :    0.121330
  15 H :    0.131699
  16 H :    0.150662
  17 H :    0.180629
  18 H :    0.144940
  19 H :    0.123389
  20 H :    0.119257
  21 H :    0.167845

  Mayer bond orders larger than 0.1
B(  0-C ,  1-O ) :   0.9167 B(  0-C ,  9-H ) :   0.9376 B(  0-C , 10-H ) :   0.9399
B(  0-C , 11-H ) :   0.9338 B(  1-O ,  2-C ) :   0.8848 B(  2-C ,  3-C ) :   0.9142
B(  2-C ,  4-C ) :   0.9118 B(  2-C , 12-H ) :   0.9357 B(  3-C , 13-H ) :   0.9328
B(  3-C , 14-H ) :   0.9377 B(  3-C , 15-H ) :   0.9305 B(  4-C ,  5-O ) :   0.9360
B(  4-C ,  6-C ) :   0.9337 B(  4-C , 16-H ) :   0.9168 B(  5-O , 17-H ) :   0.8260
B(  6-C ,  7-C ) :   0.9448 B(  6-C ,  8-N ) :   0.9320 B(  6-C , 18-H ) :   0.9026
B(  7-C ,  8-N ) :   0.9374 B(  7-C , 19-H ) :   0.9175 B(  7-C , 20-H ) :   0.9132
B(  8-N , 21-H ) :   0.8746

MP2 TOTAL ENERGY:     -440.728412431 Eh
FINAL SINGLE POINT ENERGY      -440.728412431195

DIPOLE MOMENT
-------------
                                X             Y             Z
Electronic contribution:     -0.73409      -3.95566      -4.54698
Nuclear contribution   :      1.05622       4.91595       5.51615
                        -----------------------------------------
Total Dipole Moment    :      0.32213       0.96029       0.96917
                        -----------------------------------------
Magnitude (a.u.)       :      1.40186
Magnitude (Debye)      :      3.56325

                             ****ORCA TERMINATED NORMALLY****
TOTAL RUN TIME: 0 days 0 hours 16 minutes 47 seconds 675 msec
