                         Program Version 3.0.3 - RELEASE   -
|  1> ! RI-MP2 RIJK def2-TZVP def2-TZVP/C def2-TZVP/JK TIGHTSCF
|  2> % maxcore 2000
|  3> % mp2 density relaxed end
|  4> *xyz 0 1
|  5>  C       -0.0198075479     1.4849814127     0.2378064922
|  6>  C       -0.0058722720     0.0025164288     0.0240819517
|  7>  C       -0.9371172151    -0.9722490368     0.7189575942
|  8>  C        0.5343028866    -1.1484787730     0.9091146624
|  9>  O        1.0981152504    -1.8119331686    -0.2473472320
| 10>  C        0.7112694713    -0.7425227188    -1.0622366329
| 11>  N        0.9679382583    -0.5010626102    -2.2619347024
| 12>  C        1.3032757798    -1.0331839794     2.1537225237
| 13>  O        0.8691832193    -0.4972670606     3.1472107180
| 14>  H        0.9328201367     1.9333562810    -0.0562571054
| 15>  H       -0.8113831641     1.9516339926    -0.3571851541
| 16>  H       -0.2034151307     1.7147207530     1.2913931993
| 17>  H       -1.4604741858    -0.5533843629     1.5725922149
| 18>  H       -1.4683526292    -1.7344713212     0.1580220681
| 19>  H        1.5320718749    -1.2399021997    -2.6845387260
| 20>  H        2.3295923475    -1.4519950470     2.0986678081
| 21> *
| 22>
| 23>                          ****END OF INPUT****

CARTESIAN COORDINATES (ANGSTROEM)
---------------------------------
  C     -0.019808    1.484981    0.237806
  C     -0.005872    0.002516    0.024082
  C     -0.937117   -0.972249    0.718958
  C      0.534303   -1.148479    0.909115
  O      1.098115   -1.811933   -0.247347
  C      0.711269   -0.742523   -1.062237
  N      0.967938   -0.501063   -2.261935
  C      1.303276   -1.033184    2.153723
  O      0.869183   -0.497267    3.147211
  H      0.932820    1.933356   -0.056257
  H     -0.811383    1.951634   -0.357185
  H     -0.203415    1.714721    1.291393
  H     -1.460474   -0.553384    1.572592
  H     -1.468353   -1.734471    0.158022
  H      1.532072   -1.239902   -2.684539
  H      2.329592   -1.451995    2.098668

 Total Charge           Charge          ....    0
 Multiplicity           Mult            ....    1
 Number of Electrons    NEL             ....   66
 Basis Dimension        Dim             ....  321

ORBITAL ENERGIES
----------------

  NO   OCC          E(Eh)            E(eV)
   0   2.0000     -20.612017      -560.8815
   1   2.0000     -20.573152      -559.8239
   2   2.0000     -15.555985      -423.2999
   3   2.0000     -11.359016      -309.0945
   4   2.0000     -11.356292      -309.0204
   5   2.0000     -11.327340      -308.2326
   6   2.0000     -11.289618      -307.2061
   7   2.0000     -11.274420      -306.7926
   8   2.0000     -11.244324      -305.9736
   9   2.0000      -1.461070       -39.7577
  10   2.0000      -1.410578       -38.3838
  11   2.0000      -1.217318       -33.1249
  12   2.0000      -1.171390       -31.8751
  13   2.0000      -1.005953       -27.3734
  14   2.0000      -0.958095       -26.0711
  15   2.0000      -0.895595       -24.3704
  16   2.0000      -0.790299       -21.5051
  17   2.0000      -0.734296       -19.9812
  18   2.0000      -0.729900       -19.8616
  19   2.0000      -0.700838       -19.0708
  20   2.0000      -0.673462       -18.3258
  21   2.0000      -0.656545       -17.8655
  22   2.0000      -0.626679       -17.0528
  23   2.0000      -0.593492       -16.1497
  24   2.0000      -0.582715       -15.8565
  25   2.0000      -0.573736       -15.6121
  26   2.0000      -0.554197       -15.0805
  27   2.0000      -0.539894       -14.6913
  28   2.0000      -0.494099       -13.4451
  29   2.0000      -0.458507       -12.4766
  30   2.0000      -0.451586       -12.2883
  31   2.0000      -0.413689       -11.2570
  32   2.0000      -0.403477       -10.9792
  33   0.0000       0.090781         2.4703
  34   0.0000       0.137619         3.7448
  35   0.0000       0.155485         4.2310
  36   0.0000       0.165609         4.5064
  37   0.0000       0.176023         4.7898

MULLIKEN ATOMIC CHARGES
-----------------------
   0 C :   -0.407566
   1 C :    0.010761
   2 C :   -0.216308
   3 C :    0.193576
   4 O :   -0.278253
   5 C :    0.125244
   6 N :   -0.351910
   7 C :    0.080053
   8 O :   -0.279277
   9 H :    0.149032
  10 H :    0.154167
  11 H :    0.157218
  12 H :    0.157074
  13 H :    0.160660
  14 H :    0.238150
  15 H :    0.107380
Sum of atomic charges:   -0.0000000

LOEWDIN ATOMIC CHARGES
----------------------
   0 C :   -0.253483
   1 C :   -0.152933
   2 C :   -0.125836
   3 C :   -0.238333
   4 O :    0.244743
   5 C :   -0.344122
   6 N :   -0.028390
   7 C :   -0.263513
   8 O :    0.136345
   9 H :    0.137840
  10 H :    0.139103
  11 H :    0.140230
  12 H :    0.157630
  13 H :    0.147219
  14 H :    0.177926
  15 H :    0.125575

  Mayer bond orders larger than 0.1
B(  0-C ,  1-C ) :   0.9003 B(  0-C ,  9-H ) :   0.9319 B(  0-C , 10-H ) :   0.9280
B(  0-C , 11-H ) :   0.9292 B(  1-C ,  2-C ) :   0.8875 B(  1-C ,  3-C ) :   0.7868
B(  1-C ,  5-C ) :   0.9221 B(  2-C ,  3-C ) :   0.8651 B(  2-C , 12-H ) :   0.9118
B(  2-C , 13-H ) :   0.9031 B(  3-C ,  4-O ) :   0.9258 B(  3-C ,  7-C ) :   0.8893
B(  4-O ,  5-C ) :   1.0313 B(  5-C ,  6-N ) :   2.0936 B(  6-N , 14-H ) :   0.8419
B(  7-C ,  8-O ) :   1.9447 B(  7-C , 15-H ) :   0.9424

MP2 TOTAL ENERGY:     -437.140593416 Eh
FINAL SINGLE POINT ENERGY      -437.140593416285

DIPOLE MOMENT
-------------
                                X             Y             Z
Electronic contribution:      2.42121      -4.47470       0.76008
Nuclear contribution   :     -2.59390       4.35815      -0.84530
                        -----------------------------------------
Total Dipole Moment    :     -0.17269      -0.11655      -0.08523
                        -----------------------------------------
Magnitude (a.u.)       :      0.22510
Magnitude (Debye)      :      0.57215

                             ****ORCA TERMINATED NORMALLY****
TOTAL RUN TIME: 0 days 0 hours 16 minutes 16 seconds 70 msec
