                         Program Version 3.0.3 - RELEASE   -
|  1> ! RI-MP2 RIJK def2-TZVP def2-TZVP/C def2-TZVP/JK TIGHTSCF
|  2> % maxcore 2000
|  3> % mp2 density relaxed end
|  4> *xyz 0 1
|  5>  C        0.0433363482     1.2748399275     0.4910257959
|  6>  C       -0.0512996906    -0.1423516348    -0.0926936978
|  7>  C        0.9039386696    -1.0930086155     0.6421119683
|  8>  C       -1.4935965484    -0.6767021089    -0.0641214821
|  9>  C       -2.5061536573     0.2179284267    -0.7796975597
| 10>  O       -1.4562296309    -1.9710229073    -0.7002765780
| 11>  C       -2.4730597138    -2.8588957288    -0.3305345195
| 12>  C       -2.3474760105    -3.3388540403     1.0628229536
| 13>  N       -2.2465558053    -3.7037131343     2.1545182380
| 14>  H        1.0865473699     1.6043991558     0.5109071006
| 15>  H       -0.5217225959     2.0073669143    -0.0912705245
| 16>  H       -0.3281576497     1.3021405749     1.5225844803
| 17>  H        0.2453650147    -0.1035578980    -1.1503472723
| 18>  H        0.6521384255    -1.1540470996     1.7075733385
| 19>  H        0.8567735511    -2.1009250386     0.2264935622
| 20>  H        1.9355416845    -0.7354899211     0.5649207080
| 21>  H       -1.7934479376    -0.8104774880     0.9871911870
| 22>  H       -3.4881946714    -0.2616941185    -0.8376237791
| 23>  H       -2.6419280054     1.1633836804    -0.2491196029
| 24>  H       -2.1732892153     0.4328084188    -1.8000945461
| 25>  H       -3.4796776739    -2.4312233273    -0.4497608288
| 26>  H       -2.4038860975    -3.7211011972    -1.0013114614
| 27> *
| 28>
| 29>                          ****END OF INPUT****

CARTESIAN COORDINATES (ANGSTROEM)
---------------------------------
  C      0.043336    1.274840    0.491026
  C     -0.051300   -0.142352   -0.092694
  C      0.903939   -1.093009    0.642112
  C     -1.493597   -0.676702   -0.064121
  C     -2.506154    0.217928   -0.779698
  O     -1.456230   -1.971023   -0.700277
  C     -2.473060   -2.858896   -0.330535
  C     -2.347476   -3.338854    1.062823
  N     -2.246556   -3.703713    2.154518
  H      1.086547    1.604399    0.510907
  H     -0.521723    2.007367   -0.091271
  H     -0.328158    1.302141    1.522584
  H      0.245365   -0.103558   -1.150347
  H      0.652138   -1.154047    1.707573
  H      0.856774   -2.100925    0.226494
  H      1.935542   -0.735490    0.564921
  H     -1.793448   -0.810477    0.987191
  H     -3.488195   -0.261694   -0.837624
  H     -2.641928    1.163384   -0.249120
  H     -2.173289    0.432808   -1.800095
  H     -3.479678   -2.431223   -0.449761
  H     -2.403886   -3.721101   -1.001311

 Total Charge           Charge          ....    0
 Multiplicity           Mult            ....    1
 Number of Electrons    NEL             ....   70
 Basis Dimension        Dim             ....  357

ORBITAL ENERGIES
----------------

  NO   OCC          E(Eh)            E(eV)
   0   2.0000     -20.581609      -560.0541
   1   2.0000     -15.577802      -423.8936
   2   2.0000     -11.337822      -308.5178
   3   2.0000     -11.294146      -307.3293
   4   2.0000     -11.276670      -306.8538
   5   2.0000     -11.234230      -305.6989
   6   2.0000     -11.228432      -305.5412
   7   2.0000     -11.220048      -305.3130
   8   2.0000     -11.209202      -305.0179
   9   2.0000      -1.404134       -38.2084
  10   2.0000      -1.222747       -33.2726
  11   2.0000      -1.101117       -29.9629
  12   2.0000      -1.018809       -27.7232
  13   2.0000      -0.988164       -26.8893
  14   2.0000      -0.930059       -25.3082
  15   2.0000      -0.866476       -23.5780
  16   2.0000      -0.784582       -21.3496
  17   2.0000      -0.722541       -19.6613
  18   2.0000      -0.705084       -19.1863
  19   2.0000      -0.675973       -18.3942
  20   2.0000      -0.618406       -16.8277
  21   2.0000      -0.607916       -16.5422
  22   2.0000      -0.599354       -16.3093
  23   2.0000      -0.573211       -15.5979
  24   2.0000      -0.561295       -15.2736
  25   2.0000      -0.547045       -14.8859
  26   2.0000      -0.542219       -14.7545
  27   2.0000      -0.529971       -14.4212
  28   2.0000      -0.516607       -14.0576
  29   2.0000      -0.486197       -13.2301
  30   2.0000      -0.481056       -13.0902
  31   2.0000      -0.471570       -12.8321
  32   2.0000      -0.467284       -12.7154
  33   2.0000      -0.458274       -12.4703
  34   2.0000      -0.443731       -12.0745
  35   0.0000       0.125812         3.4235
  36   0.0000       0.146553         3.9879
  37   0.0000       0.152107         4.1390
  38   0.0000       0.158617         4.3162
  39   0.0000       0.169105         4.6016

MULLIKEN ATOMIC CHARGES
-----------------------
   0 C :   -0.431232
   1 C :    0.003829
   2 C :   -0.405642
   3 C :    0.039001
   4 C :   -0.405385
   5 O :   -0.294725
   6 C :    0.033234
   7 C :   -0.182664
   8 N :   -0.062950
   9 H :    0.138738
  10 H :    0.137385
  11 H :    0.129165
  12 H :    0.089211
  13 H :    0.125392
  14 H :    0.147022
  15 H :    0.131003
  16 H :    0.099439
  17 H :    0.125556
  18 H :    0.144938
  19 H :    0.136403
  20 H :    0.136017
  21 H :    0.166266
Sum of atomic charges:    0.0000000

LOEWDIN ATOMIC CHARGES
----------------------
   0 C :   -0.291248
   1 C :   -0.288024
   2 C :   -0.292298
   3 C :   -0.308962
   4 C :   -0.292605
   5 O :    0.196445
   6 C :   -0.322094
   7 C :   -0.194726
   8 N :    0.063999
   9 H :    0.126866
  10 H :    0.121535
  11 H :    0.125579
  12 H :    0.154733
  13 H :    0.125825
  14 H :    0.126054
  15 H :    0.123177
  16 H :    0.146453
  17 H :    0.121455
  18 H :    0.128694
  19 H :    0.129284
  20 H :    0.143863
  21 H :    0.155994

  Mayer bond orders larger than 0.1
B(  0-C ,  1-C ) :   0.8999 B(  0-C ,  9-H ) :   0.9377 B(  0-C , 10-H ) :   0.9396
B(  0-C , 11-H ) :   0.9293 B(  1-C ,  2-C ) :   0.9205 B(  1-C ,  3-C ) :   0.9248
B(  1-C , 12-H ) :   0.9192 B(  2-C , 13-H ) :   0.9293 B(  2-C , 14-H ) :   0.9372
B(  2-C , 15-H ) :   0.9372 B(  3-C ,  4-C ) :   0.9090 B(  3-C ,  5-O ) :   0.8576
B(  3-C , 16-H ) :   0.9302 B(  4-C , 17-H ) :   0.9349 B(  4-C , 18-H ) :   0.9359
B(  4-C , 19-H ) :   0.9330 B(  5-O ,  6-C ) :   0.9806 B(  6-C ,  7-C ) :   0.8715
B(  6-C , 20-H ) :   0.9305 B(  6-C , 21-H ) :   0.9096 B(  7-C ,  8-N ) :   2.8394

MP2 TOTAL ENERGY:     -403.669442741 Eh
FINAL SINGLE POINT ENERGY      -403.669442741160

DIPOLE MOMENT
-------------
                                X             Y             Z
Electronic contribution:     -4.55304     -10.76968       1.94004
Nuclear contribution   :      4.22695      11.55077      -2.94308
                        -----------------------------------------
Total Dipole Moment    :     -0.32609       0.78109      -1.00304
                        -----------------------------------------
Magnitude (a.u.)       :      1.31245
Magnitude (Debye)      :      3.33599

                             ****ORCA TERMINATED NORMALLY****
TOTAL RUN TIME: 0 days 0 hours 21 minutes 56 seconds 545 msec
