                         Program Version 3.0.3 - RELEASE   -
|  1> ! RI-MP2 RIJK def2-TZVP def2-TZVP/C def2-TZVP/JK TIGHTSCF
|  2> % maxcore 2000
|  3> % mp2 density relaxed end
|  4> *xyz 0 1
|  5>  C        0.1801121728     1.2836850323     0.1782077557
|  6>  O       -0.3160085899     0.0339851953    -0.2575939781
|  7>  C        0.4401279476    -0.5341948565    -1.2680366558
|  8>  C        1.7656851746    -1.3002655043    -0.9003905054
|  9>  N        0.8616393938    -2.3449965751    -0.2451525302
| 10>  C        0.1269114151    -2.0243121567    -1.5498199921
| 11>  C        1.5316015014    -2.1115921537    -2.1908941133
| 12>  O        2.1277105325    -2.6931634225    -3.0443180287
| 13>  H        1.1689321188     1.1878931664     0.6486682185
| 14>  H        0.2565265429     2.0011624529    -0.6532559305
| 15>  H       -0.5272326504     1.6685773084     0.9153513348
| 16>  H        0.5147714123     0.1214316740    -2.1466030621
| 17>  H        2.6776382517    -0.9425128833    -0.4277879083
| 18>  H        1.2904164686    -3.2739830641    -0.2893141303
| 19>  H       -0.8247907517    -2.4821499231    -1.8091136641
| 20> *
| 21>
| 22>                          ****END OF INPUT****

CARTESIAN COORDINATES (ANGSTROEM)
---------------------------------
  C      0.180112    1.283685    0.178208
  O     -0.316009    0.033985   -0.257594
  C      0.440128   -0.534195   -1.268037
  C      1.765685   -1.300266   -0.900391
  N      0.861639   -2.344997   -0.245153
  C      0.126911   -2.024312   -1.549820
  C      1.531602   -2.111592   -2.190894
  O      2.127711   -2.693163   -3.044318
  H      1.168932    1.187893    0.648668
  H      0.256527    2.001162   -0.653256
  H     -0.527233    1.668577    0.915351
  H      0.514771    0.121432   -2.146603
  H      2.677638   -0.942513   -0.427788
  H      1.290416   -3.273983   -0.289314
  H     -0.824791   -2.482150   -1.809114

 Total Charge           Charge          ....    0
 Multiplicity           Mult            ....    1
 Number of Electrons    NEL             ....   60
 Basis Dimension        Dim             ....  290

ORBITAL ENERGIES
----------------

  NO   OCC          E(Eh)            E(eV)
   0   2.0000     -20.574645      -559.8646
   1   2.0000     -20.564012      -559.5752
   2   2.0000     -15.588101      -424.1738
   3   2.0000     -11.353370      -308.9409
   4   2.0000     -11.317455      -307.9636
   5   2.0000     -11.296054      -307.3813
   6   2.0000     -11.295740      -307.3727
   7   2.0000     -11.284805      -307.0752
   8   2.0000      -1.415040       -38.5052
   9   2.0000      -1.402637       -38.1677
  10   2.0000      -1.296009       -35.2662
  11   2.0000      -1.027257       -27.9531
  12   2.0000      -0.953198       -25.9378
  13   2.0000      -0.910005       -24.7625
  14   2.0000      -0.838926       -22.8283
  15   2.0000      -0.758593       -20.6424
  16   2.0000      -0.722490       -19.6599
  17   2.0000      -0.685830       -18.6624
  18   2.0000      -0.651861       -17.7380
  19   2.0000      -0.647184       -17.6108
  20   2.0000      -0.625405       -17.0181
  21   2.0000      -0.617381       -16.7998
  22   2.0000      -0.562949       -15.3186
  23   2.0000      -0.532142       -14.4803
  24   2.0000      -0.519652       -14.1405
  25   2.0000      -0.512918       -13.9572
  26   2.0000      -0.480851       -13.0846
  27   2.0000      -0.439064       -11.9475
  28   2.0000      -0.418168       -11.3789
  29   2.0000      -0.401995       -10.9388
  30   0.0000       0.136178         3.7056
  31   0.0000       0.137170         3.7326
  32   0.0000       0.154882         4.2145
  33   0.0000       0.169743         4.6189
  34   0.0000       0.180227         4.9042

MULLIKEN ATOMIC CHARGES
-----------------------
   0 C :   -0.214149
   1 O :   -0.292491
   2 C :    0.072894
   3 C :   -0.119718
   4 N :   -0.286181
   5 C :   -0.075068
   6 C :    0.134302
   7 O :   -0.253179
   8 H :    0.117355
   9 H :    0.113793
  10 H :    0.147986
  11 H :    0.105566
  12 H :    0.164298
  13 H :    0.220421
  14 H :    0.164172
Sum of atomic charges:    0.0000000

LOEWDIN ATOMIC CHARGES
----------------------
   0 C :   -0.341618
   1 O :    0.184852
   2 C :   -0.286842
   3 C :   -0.179460
   4 N :    0.052497
   5 C :   -0.166235
   6 C :   -0.309201
   7 O :    0.157657
   8 H :    0.104421
   9 H :    0.103757
  10 H :    0.116871
  11 H :    0.136764
  12 H :    0.128239
  13 H :    0.166355
  14 H :    0.131943

  Mayer bond orders larger than 0.1
B(  0-C ,  1-O ) :   0.9008 B(  0-C ,  8-H ) :   0.9333 B(  0-C ,  9-H ) :   0.9341
B(  0-C , 10-H ) :   0.9404 B(  1-O ,  2-C ) :   0.9909 B(  2-C ,  3-C ) :   0.8874
B(  2-C ,  5-C ) :   0.8825 B(  2-C , 11-H ) :   0.9227 B(  3-C ,  4-N ) :   0.9811
B(  3-C ,  6-C ) :   0.9025 B(  3-C , 12-H ) :   0.8668 B(  4-N ,  5-C ) :   0.9683
B(  4-N , 13-H ) :   0.8826 B(  5-C ,  6-C ) :   0.9215 B(  5-C , 14-H ) :   0.8752
B(  6-C ,  7-O ) :   2.0412

MP2 TOTAL ENERGY:     -399.066422571 Eh
FINAL SINGLE POINT ENERGY      -399.066422570851

DIPOLE MOMENT
-------------
                                X             Y             Z
Electronic contribution:      1.19826      -5.41726      -3.58897
Nuclear contribution   :     -1.19357       6.12165       3.94321
                        -----------------------------------------
Total Dipole Moment    :      0.00468       0.70439       0.35424
                        -----------------------------------------
Magnitude (a.u.)       :      0.78846
Magnitude (Debye)      :      2.00411

                             ****ORCA TERMINATED NORMALLY****
TOTAL RUN TIME: 0 days 0 hours 12 minutes 13 seconds 660 msec
