                         Program Version 3.0.3 - RELEASE   -
|  1> ! RI-MP2 RIJK def2-TZVP def2-TZVP/C def2-TZVP/JK TIGHTSCF
|  2> % maxcore 2000
|  3> % mp2 density relaxed end
|  4> *xyz 0 1
|  5>  C       -0.2384563409     1.5373224667    -0.3510104027
|  6>  C       -0.1102395871     0.0155115761    -0.2570234817
|  7>  C        0.8816555646    -0.5844709308    -1.2921262323
|  8>  C        2.2946259856    -0.1184187121    -0.9576794318
|  9>  O        2.8621940617     0.7717009260    -1.5358109451
| 10>  C        0.8169993388    -2.0956889507    -1.2691151958
| 11>  N        1.2319181312    -2.7506646661    -0.2651184879
| 12>  O        0.2755334926    -2.5647793711    -2.4231925653
| 13>  C        0.1371074010    -3.9733002832    -2.5582185439
| 14>  H        0.7218396102     2.0374364905    -0.1959063161
| 15>  H       -0.6119969320     1.8424949071    -1.3341171914
| 16>  H       -0.9382786288     1.9084594557     0.4037216223
| 17>  H        0.2109423624    -0.2894996804     0.7448824561
| 18>  H       -1.0882945419    -0.4511267843    -0.4206705999
| 19>  H        0.6321474795    -0.2243289329    -2.2928485447
| 20>  H        2.7548476600    -0.6582487846    -0.1039821184
| 21>  H        1.1347899688    -3.7588855272    -0.3659702562
| 22>  H        1.1111767170    -4.4750903530    -2.5173987495
| 23>  H       -0.5158322663    -4.3866753412    -1.7802118515
| 24>  H       -0.3147988766    -4.1395034746    -3.5363552142
| 25> *
| 26>
| 27>                          ****END OF INPUT****

CARTESIAN COORDINATES (ANGSTROEM)
---------------------------------
  C     -0.238456    1.537322   -0.351010
  C     -0.110240    0.015512   -0.257023
  C      0.881656   -0.584471   -1.292126
  C      2.294626   -0.118419   -0.957679
  O      2.862194    0.771701   -1.535811
  C      0.816999   -2.095689   -1.269115
  N      1.231918   -2.750665   -0.265118
  O      0.275533   -2.564779   -2.423193
  C      0.137107   -3.973300   -2.558219
  H      0.721840    2.037436   -0.195906
  H     -0.611997    1.842495   -1.334117
  H     -0.938279    1.908459    0.403722
  H      0.210942   -0.289500    0.744882
  H     -1.088295   -0.451127   -0.420671
  H      0.632147   -0.224329   -2.292849
  H      2.754848   -0.658249   -0.103982
  H      1.134790   -3.758886   -0.365970
  H      1.111177   -4.475090   -2.517399
  H     -0.515832   -4.386675   -1.780212
  H     -0.314799   -4.139503   -3.536355

 Total Charge           Charge          ....    0
 Multiplicity           Mult            ....    1
 Number of Electrons    NEL             ....   70
 Basis Dimension        Dim             ....  345

ORBITAL ENERGIES
----------------

  NO   OCC          E(Eh)            E(eV)
   0   2.0000     -20.612446      -560.8932
   1   2.0000     -20.554226      -559.3089
   2   2.0000     -15.547895      -423.0797
   3   2.0000     -11.353592      -308.9469
   4   2.0000     -11.327493      -308.2367
   5   2.0000     -11.303717      -307.5898
   6   2.0000     -11.251866      -306.1788
   7   2.0000     -11.241992      -305.9101
   8   2.0000     -11.219132      -305.2881
   9   2.0000      -1.443301       -39.2742
  10   2.0000      -1.393568       -37.9209
  11   2.0000      -1.211755       -32.9735
  12   2.0000      -1.091265       -29.6948
  13   2.0000      -1.004850       -27.3434
  14   2.0000      -0.962105       -26.1802
  15   2.0000      -0.846592       -23.0369
  16   2.0000      -0.817121       -22.2350
  17   2.0000      -0.766185       -20.8490
  18   2.0000      -0.738601       -20.0983
  19   2.0000      -0.686773       -18.6880
  20   2.0000      -0.678799       -18.4711
  21   2.0000      -0.650328       -17.6963
  22   2.0000      -0.636401       -17.3174
  23   2.0000      -0.608105       -16.5474
  24   2.0000      -0.590252       -16.0616
  25   2.0000      -0.562887       -15.3169
  26   2.0000      -0.548067       -14.9137
  27   2.0000      -0.534929       -14.5561
  28   2.0000      -0.521996       -14.2042
  29   2.0000      -0.506703       -13.7881
  30   2.0000      -0.498143       -13.5552
  31   2.0000      -0.481105       -13.0915
  32   2.0000      -0.453386       -12.3373
  33   2.0000      -0.421082       -11.4582
  34   2.0000      -0.406978       -11.0744
  35   0.0000       0.125786         3.4228
  36   0.0000       0.127045         3.4571
  37   0.0000       0.152109         4.1391
  38   0.0000       0.175011         4.7623
  39   0.0000       0.177396         4.8272

MULLIKEN ATOMIC CHARGES
-----------------------
   0 C :   -0.394882
   1 C :   -0.258101
   2 C :    0.085434
   3 C :    0.053227
   4 O :   -0.261406
   5 C :    0.166728
   6 N :   -0.417276
   7 O :   -0.238484
   8 C :   -0.279290
   9 H :    0.144263
  10 H :    0.126611
  11 H :    0.136587
  12 H :    0.137447
  13 H :    0.124905
  14 H :    0.106883
  15 H :    0.109751
  16 H :    0.215436
  17 H :    0.143473
  18 H :    0.141058
  19 H :    0.157635
Sum of atomic charges:    0.0000000

LOEWDIN ATOMIC CHARGES
----------------------
   0 C :   -0.312202
   1 C :   -0.252231
   2 C :   -0.213977
   3 C :   -0.262399
   4 O :    0.137085
   5 C :   -0.394901
   6 N :   -0.053677
   7 O :    0.229459
   8 C :   -0.330243
   9 H :    0.125944
  10 H :    0.123956
  11 H :    0.123703
  12 H :    0.145592
  13 H :    0.143086
  14 H :    0.166598
  15 H :    0.122803
  16 H :    0.159825
  17 H :    0.110731
  18 H :    0.110067
  19 H :    0.120780

  Mayer bond orders larger than 0.1
B(  0-C ,  1-C ) :   0.9284 B(  0-C ,  9-H ) :   0.9337 B(  0-C , 10-H ) :   0.9349
B(  0-C , 11-H ) :   0.9401 B(  1-C ,  2-C ) :   0.8809 B(  1-C , 12-H ) :   0.9261
B(  1-C , 13-H ) :   0.9276 B(  2-C ,  3-C ) :   0.8406 B(  2-C ,  5-C ) :   0.8659
B(  2-C , 14-H ) :   0.9164 B(  3-C ,  4-O ) :   1.9884 B(  3-C , 15-H ) :   0.9220
B(  5-C ,  6-N ) :   1.9171 B(  5-C ,  7-O ) :   1.1424 B(  6-N , 16-H ) :   0.8663
B(  7-O ,  8-C ) :   0.8605 B(  8-C , 17-H ) :   0.9316 B(  8-C , 18-H ) :   0.9305
B(  8-C , 19-H ) :   0.9368

MP2 TOTAL ENERGY:     -439.573713123 Eh
FINAL SINGLE POINT ENERGY      -439.573713123433

DIPOLE MOMENT
-------------
                                X             Y             Z
Electronic contribution:      5.33320      -0.81209      -2.15714
Nuclear contribution   :     -6.34168      -0.42552       1.98042
                        -----------------------------------------
Total Dipole Moment    :     -1.00848      -1.23761      -0.17671
                        -----------------------------------------
Magnitude (a.u.)       :      1.60622
Magnitude (Debye)      :      4.08268

                             ****ORCA TERMINATED NORMALLY****
TOTAL RUN TIME: 0 days 0 hours 16 minutes 9 seconds 66 msec
