                         Program Version 3.0.3 - RELEASE   -
|  1> ! RI-MP2 RIJK def2-TZVP def2-TZVP/C def2-TZVP/JK TIGHTSCF
|  2> % maxcore 2000
|  3> % mp2 density relaxed end
|  4> *xyz 0 1
|  5>  N        0.1013160193     1.4565129997     0.1042656154
|  6>  C        0.0795317149     0.0403259905    -0.0026321695
|  7>  C       -1.1946983528    -0.6874494767     0.2410696906
|  8>  O       -2.3068324043     0.1239221929     0.4997807367
|  9>  C       -3.5281959535    -0.3525376653     0.1184895013
| 10>  O       -4.5323996289     0.2339028870     0.3637790792
| 11>  C       -0.6110715934    -0.7273402253    -1.1750467615
| 12>  C       -1.2307698465     0.0334857435    -2.2126918938
| 13>  N       -1.7226161822     0.6667020038    -3.0477213095
| 14>  H        0.6607574765     1.8848050455    -0.6246701928
| 15>  H       -0.8328639764     1.8481702251     0.0695789619
| 16>  H        0.9811829409    -0.4506827478     0.3527714263
| 17>  H       -1.1785973608    -1.6150249315     0.8061058762
| 18>  H       -3.4599608661    -1.3150413937    -0.4186504028
| 19>  H       -0.1695292067    -1.6670920577    -1.4899305577
| 20> *
| 21>
| 22>                          ****END OF INPUT****

CARTESIAN COORDINATES (ANGSTROEM)
---------------------------------
  N      0.101316    1.456513    0.104266
  C      0.079532    0.040326   -0.002632
  C     -1.194698   -0.687449    0.241070
  O     -2.306832    0.123922    0.499781
  C     -3.528196   -0.352538    0.118490
  O     -4.532400    0.233903    0.363779
  C     -0.611072   -0.727340   -1.175047
  C     -1.230770    0.033486   -2.212692
  N     -1.722616    0.666702   -3.047721
  H      0.660757    1.884805   -0.624670
  H     -0.832864    1.848170    0.069579
  H      0.981183   -0.450683    0.352771
  H     -1.178597   -1.615025    0.806106
  H     -3.459961   -1.315041   -0.418650
  H     -0.169529   -1.667092   -1.489931

 Total Charge           Charge          ....    0
 Multiplicity           Mult            ....    1
 Number of Electrons    NEL             ....   66
 Basis Dimension        Dim             ....  315

ORBITAL ENERGIES
----------------

  NO   OCC          E(Eh)            E(eV)
   0   2.0000     -20.637975      -561.5879
   1   2.0000     -20.572450      -559.8048
   2   2.0000     -15.584735      -424.0822
   3   2.0000     -15.573889      -423.7871
   4   2.0000     -11.403091      -310.2939
   5   2.0000     -11.349861      -308.8454
   6   2.0000     -11.318887      -308.0026
   7   2.0000     -11.302792      -307.5646
   8   2.0000     -11.290139      -307.2203
   9   2.0000      -1.490345       -40.5543
  10   2.0000      -1.401747       -38.1435
  11   2.0000      -1.254521       -34.1372
  12   2.0000      -1.225597       -33.3502
  13   2.0000      -1.140206       -31.0266
  14   2.0000      -0.955190       -25.9920
  15   2.0000      -0.889795       -24.2125
  16   2.0000      -0.850815       -23.1519
  17   2.0000      -0.773813       -21.0565
  18   2.0000      -0.755682       -20.5631
  19   2.0000      -0.697064       -18.9681
  20   2.0000      -0.692152       -18.8344
  21   2.0000      -0.670946       -18.2574
  22   2.0000      -0.643258       -17.5039
  23   2.0000      -0.623738       -16.9728
  24   2.0000      -0.585516       -15.9327
  25   2.0000      -0.568953       -15.4820
  26   2.0000      -0.560756       -15.2590
  27   2.0000      -0.519831       -14.1453
  28   2.0000      -0.499926       -13.6037
  29   2.0000      -0.482321       -13.1246
  30   2.0000      -0.473171       -12.8756
  31   2.0000      -0.449486       -12.2311
  32   2.0000      -0.394261       -10.7284
  33   0.0000       0.106498         2.8979
  34   0.0000       0.130064         3.5392
  35   0.0000       0.135172         3.6782
  36   0.0000       0.142538         3.8787
  37   0.0000       0.157294         4.2802

MULLIKEN ATOMIC CHARGES
-----------------------
   0 N :   -0.516907
   1 C :   -0.010548
   2 C :    0.023566
   3 O :   -0.230796
   4 C :    0.200226
   5 O :   -0.238377
   6 C :   -0.051751
   7 C :   -0.217762
   8 N :   -0.038257
   9 H :    0.246791
  10 H :    0.262215
  11 H :    0.148348
  12 H :    0.154143
  13 H :    0.101808
  14 H :    0.167303
Sum of atomic charges:   -0.0000000

LOEWDIN ATOMIC CHARGES
----------------------
   0 N :   -0.103631
   1 C :   -0.251401
   2 C :   -0.249520
   3 O :    0.267522
   4 C :   -0.416999
   5 O :    0.150432
   6 C :   -0.192370
   7 C :   -0.195094
   8 N :    0.072338
   9 H :    0.167432
  10 H :    0.169512
  11 H :    0.152670
  12 H :    0.146083
  13 H :    0.113166
  14 H :    0.169861

  Mayer bond orders larger than 0.1
B(  0-N ,  1-C ) :   1.0764 B(  0-N ,  9-H ) :   0.8824 B(  0-N , 10-H ) :   0.8793
B(  1-C ,  2-C ) :   0.8801 B(  1-C ,  6-C ) :   0.7868 B(  1-C , 11-H ) :   0.9382
B(  2-C ,  3-O ) :   0.9339 B(  2-C ,  6-C ) :   0.8267 B(  2-C , 12-H ) :   0.9339
B(  3-O ,  4-C ) :   0.9883 B(  4-C ,  5-O ) :   2.0552 B(  4-C , 13-H ) :   0.9192
B(  6-C ,  7-C ) :   0.9918 B(  6-C , 14-H ) :   0.9040 B(  7-C ,  8-N ) :   2.8236

MP2 TOTAL ENERGY:     -453.210241560 Eh
FINAL SINGLE POINT ENERGY      -453.210241560476

DIPOLE MOMENT
-------------
                                X             Y             Z
Electronic contribution:     -4.27504       0.38951      -1.24843
Nuclear contribution   :      5.76125      -1.83692       1.70049
                        -----------------------------------------
Total Dipole Moment    :      1.48622      -1.44741       0.45206
                        -----------------------------------------
Magnitude (a.u.)       :      2.12325
Magnitude (Debye)      :      5.39687

                             ****ORCA TERMINATED NORMALLY****
TOTAL RUN TIME: 0 days 0 hours 14 minutes 43 seconds 842 msec
