                         Program Version 3.0.3 - RELEASE   -
|  1> ! RI-MP2 RIJK def2-TZVP def2-TZVP/C def2-TZVP/JK TIGHTSCF
|  2> % maxcore 2000
|  3> % mp2 density relaxed end
|  4> *xyz 0 1
|  5>  C       -0.2424617295     1.5502133912     0.0252658928
|  6>  C       -0.0148852320     0.0420936503     0.1007432197
|  7>  C        0.6033014103    -0.5782699186    -1.1783221746
|  8>  C        1.5012855509    -1.6952270192    -0.6692159755
|  9>  O        2.3262778780    -2.3353669426    -1.2735756742
| 10>  C        1.3093667475    -1.8276526079     0.8447669995
| 11>  O        2.4749976597    -2.3010955263     1.4693252211
| 12>  C        0.9450780592    -0.3896164785     1.2348958805
| 13>  O        2.1192854482     0.3990991453     1.1815703430
| 14>  H        0.7069255500     2.0726578349    -0.1164721217
| 15>  H       -0.9071361665     1.8033172575    -0.8067890705
| 16>  H       -0.6994186968     1.9257444612     0.9466766298
| 17>  H       -0.9744461607    -0.4524551124     0.2998717975
| 18>  H       -0.1384714314    -0.9580709576    -1.8873845339
| 19>  H        1.2297071771     0.1356539392    -1.7233813065
| 20>  H        0.4500958088    -2.4943626176     1.0342403581
| 21>  H        2.9959060180    -2.7125258925     0.7608410728
| 22>  H        0.4664308345    -0.3215237135     2.2218957070
| 23>  H        2.8219784546    -0.1585237128     1.5441335651
| 24> *
| 25>
| 26>                          ****END OF INPUT****

CARTESIAN COORDINATES (ANGSTROEM)
---------------------------------
  C     -0.242462    1.550213    0.025266
  C     -0.014885    0.042094    0.100743
  C      0.603301   -0.578270   -1.178322
  C      1.501286   -1.695227   -0.669216
  O      2.326278   -2.335367   -1.273576
  C      1.309367   -1.827653    0.844767
  O      2.474998   -2.301096    1.469325
  C      0.945078   -0.389616    1.234896
  O      2.119285    0.399099    1.181570
  H      0.706926    2.072658   -0.116472
  H     -0.907136    1.803317   -0.806789
  H     -0.699419    1.925744    0.946677
  H     -0.974446   -0.452455    0.299872
  H     -0.138471   -0.958071   -1.887385
  H      1.229707    0.135654   -1.723381
  H      0.450096   -2.494363    1.034240
  H      2.995906   -2.712526    0.760841
  H      0.466431   -0.321524    2.221896
  H      2.821978   -0.158524    1.544134

 Total Charge           Charge          ....    0
 Multiplicity           Mult            ....    1
 Number of Electrons    NEL             ....   70
 Basis Dimension        Dim             ....  339

ORBITAL ENERGIES
----------------

  NO   OCC          E(Eh)            E(eV)
   0   2.0000     -20.577605      -559.9451
   1   2.0000     -20.565704      -559.6212
   2   2.0000     -20.563137      -559.5514
   3   2.0000     -11.342871      -308.6552
   4   2.0000     -11.299776      -307.4825
   5   2.0000     -11.293818      -307.3204
   6   2.0000     -11.249866      -306.1244
   7   2.0000     -11.246345      -306.0286
   8   2.0000     -11.222989      -305.3931
   9   2.0000      -1.420525       -38.6545
  10   2.0000      -1.387312       -37.7507
  11   2.0000      -1.363270       -37.0965
  12   2.0000      -1.131646       -30.7936
  13   2.0000      -1.009186       -27.4614
  14   2.0000      -0.972911       -26.4743
  15   2.0000      -0.887833       -24.1592
  16   2.0000      -0.791492       -21.5376
  17   2.0000      -0.779622       -21.2146
  18   2.0000      -0.707357       -19.2482
  19   2.0000      -0.701426       -19.0868
  20   2.0000      -0.691419       -18.8145
  21   2.0000      -0.665596       -18.1118
  22   2.0000      -0.626918       -17.0593
  23   2.0000      -0.604069       -16.4376
  24   2.0000      -0.581338       -15.8190
  25   2.0000      -0.578729       -15.7480
  26   2.0000      -0.557406       -15.1678
  27   2.0000      -0.555423       -15.1138
  28   2.0000      -0.527805       -14.3623
  29   2.0000      -0.518147       -14.0995
  30   2.0000      -0.497299       -13.5322
  31   2.0000      -0.487894       -13.2763
  32   2.0000      -0.457347       -12.4450
  33   2.0000      -0.452936       -12.3250
  34   2.0000      -0.413135       -11.2420
  35   0.0000       0.112644         3.0652
  36   0.0000       0.135342         3.6828
  37   0.0000       0.154209         4.1962
  38   0.0000       0.161309         4.3894
  39   0.0000       0.171006         4.6533

MULLIKEN ATOMIC CHARGES
-----------------------
   0 C :   -0.416570
   1 C :   -0.076637
   2 C :   -0.227069
   3 C :    0.107084
   4 O :   -0.290691
   5 C :    0.053402
   6 O :   -0.500169
   7 C :    0.130369
   8 O :   -0.490590
   9 H :    0.153275
  10 H :    0.134743
  11 H :    0.130899
  12 H :    0.102951
  13 H :    0.149804
  14 H :    0.145071
  15 H :    0.107803
  16 H :    0.342619
  17 H :    0.111408
  18 H :    0.332300
Sum of atomic charges:    0.0000000

LOEWDIN ATOMIC CHARGES
----------------------
   0 C :   -0.289896
   1 C :   -0.245903
   2 C :   -0.193824
   3 C :   -0.299192
   4 O :    0.148928
   5 C :   -0.318253
   6 O :   -0.009118
   7 C :   -0.304321
   8 O :   -0.002043
   9 H :    0.131565
  10 H :    0.124567
  11 H :    0.126597
  12 H :    0.156356
  13 H :    0.151508
  14 H :    0.161916
  15 H :    0.154091
  16 H :    0.188893
  17 H :    0.135190
  18 H :    0.182941

  Mayer bond orders larger than 0.1
B(  0-C ,  1-C ) :   0.8986 B(  0-C ,  9-H ) :   0.9335 B(  0-C , 10-H ) :   0.9393
B(  0-C , 11-H ) :   0.9349 B(  1-C ,  2-C ) :   0.9226 B(  1-C ,  7-C ) :   0.8693
B(  1-C , 12-H ) :   0.9222 B(  2-C ,  3-C ) :   0.8909 B(  2-C ,  5-C ) :  -0.1038
B(  2-C , 13-H ) :   0.9033 B(  2-C , 14-H ) :   0.8977 B(  3-C ,  4-O ) :   1.9702
B(  3-C ,  5-C ) :   0.9200 B(  5-C ,  6-O ) :   1.0216 B(  5-C ,  7-C ) :   0.8917
B(  5-C , 15-H ) :   0.9176 B(  6-O , 16-H ) :   0.8064 B(  7-C ,  8-O ) :   0.9721
B(  7-C , 17-H ) :   0.9236 B(  8-O , 18-H ) :   0.8150

MP2 TOTAL ENERGY:     -459.471180025 Eh
FINAL SINGLE POINT ENERGY      -459.471180024546

DIPOLE MOMENT
-------------
                                X             Y             Z
Electronic contribution:      5.45870      -6.29852      -0.05784
Nuclear contribution   :     -6.33627       6.36538       0.07986
                        -----------------------------------------
Total Dipole Moment    :     -0.87757       0.06686       0.02202
                        -----------------------------------------
Magnitude (a.u.)       :      0.88039
Magnitude (Debye)      :      2.23777

                             ****ORCA TERMINATED NORMALLY****
TOTAL RUN TIME: 0 days 0 hours 17 minutes 59 seconds 434 msec
