                         Program Version 3.0.3 - RELEASE   -
|  1> ! RI-MP2 RIJK def2-TZVP def2-TZVP/C def2-TZVP/JK TIGHTSCF
|  2> % maxcore 2000
|  3> % mp2 density relaxed end
|  4> *xyz 0 1
|  5>  C       -0.0969386610     1.5608913682    -0.0371759281
|  6>  C       -0.0060968611     0.0337695785     0.0144861683
|  7>  C        0.6456960815    -0.6107564009    -1.2367884245
|  8>  C        1.2752548088    -1.9404376950    -0.7552143321
|  9>  C        1.5364654295    -1.7495017206     0.7334424461
| 10>  C        2.3072592197    -0.5127855000     1.1858823764
| 11>  C        3.1097745663     0.2816337585     0.2991384819
| 12>  N        3.7844292528     0.9183739763    -0.3938734985
| 13>  C        0.7791583725    -0.5355514798     1.1929339189
| 14>  H        0.8957015512     2.0125554569    -0.1255457658
| 15>  H       -0.6901386959     1.8849799113    -0.8985340919
| 16>  H       -0.5738828151     1.9616608542     0.8635304183
| 17>  H       -1.0234847379    -0.3682839615     0.1199040475
| 18>  H       -0.0838660793    -0.7678037039    -2.0355890410
| 19>  H        1.4159981303     0.0518194906    -1.6381685014
| 20>  H        0.5694836051    -2.7706035323    -0.8718877822
| 21>  H        2.1766396581    -2.2023234731    -1.3179652420
| 22>  H        1.6447610853    -2.6276202906     1.3604138533
| 23>  H        2.7551936573    -0.5978535205     2.1714470565
| 24>  H        0.3258577218    -0.4903126164     2.1776317304
| 25> *
| 26>
| 27>                          ****END OF INPUT****

CARTESIAN COORDINATES (ANGSTROEM)
---------------------------------
  C     -0.096939    1.560891   -0.037176
  C     -0.006097    0.033770    0.014486
  C      0.645696   -0.610756   -1.236788
  C      1.275255   -1.940438   -0.755214
  C      1.536465   -1.749502    0.733442
  C      2.307259   -0.512786    1.185882
  C      3.109775    0.281634    0.299138
  N      3.784429    0.918374   -0.393873
  C      0.779158   -0.535551    1.192934
  H      0.895702    2.012555   -0.125546
  H     -0.690139    1.884980   -0.898534
  H     -0.573883    1.961661    0.863530
  H     -1.023485   -0.368284    0.119904
  H     -0.083866   -0.767804   -2.035589
  H      1.415998    0.051819   -1.638169
  H      0.569484   -2.770604   -0.871888
  H      2.176640   -2.202323   -1.317965
  H      1.644761   -2.627620    1.360414
  H      2.755194   -0.597854    2.171447
  H      0.325858   -0.490313    2.177632

 Total Charge           Charge          ....    0
 Multiplicity           Mult            ....    1
 Number of Electrons    NEL             ....   66
 Basis Dimension        Dim             ....  345

ORBITAL ENERGIES
----------------

  NO   OCC          E(Eh)            E(eV)
   0   2.0000     -15.561228      -423.4425
   1   2.0000     -11.278308      -306.8983
   2   2.0000     -11.269791      -306.6666
   3   2.0000     -11.258555      -306.3608
   4   2.0000     -11.257322      -306.3273
   5   2.0000     -11.241912      -305.9080
   6   2.0000     -11.235855      -305.7432
   7   2.0000     -11.224829      -305.4431
   8   2.0000     -11.216928      -305.2281
   9   2.0000      -1.222199       -33.2577
  10   2.0000      -1.190486       -32.3948
  11   2.0000      -1.063508       -28.9395
  12   2.0000      -1.010353       -27.4931
  13   2.0000      -0.916042       -24.9268
  14   2.0000      -0.900638       -24.5076
  15   2.0000      -0.801352       -21.8059
  16   2.0000      -0.766331       -20.8529
  17   2.0000      -0.720986       -19.6190
  18   2.0000      -0.656113       -17.8537
  19   2.0000      -0.632457       -17.2100
  20   2.0000      -0.612471       -16.6662
  21   2.0000      -0.588337       -16.0095
  22   2.0000      -0.569625       -15.5003
  23   2.0000      -0.551274       -15.0009
  24   2.0000      -0.529035       -14.3958
  25   2.0000      -0.507798       -13.8179
  26   2.0000      -0.501722       -13.6526
  27   2.0000      -0.490985       -13.3604
  28   2.0000      -0.484171       -13.1750
  29   2.0000      -0.469155       -12.7664
  30   2.0000      -0.461990       -12.5714
  31   2.0000      -0.413562       -11.2536
  32   2.0000      -0.401662       -10.9298
  33   0.0000       0.121048         3.2939
  34   0.0000       0.147729         4.0199
  35   0.0000       0.155368         4.2278
  36   0.0000       0.159236         4.3330
  37   0.0000       0.176770         4.8102

MULLIKEN ATOMIC CHARGES
-----------------------
   0 C :   -0.415282
   1 C :   -0.060977
   2 C :   -0.279228
   3 C :   -0.226536
   4 C :   -0.082278
   5 C :   -0.059058
   6 C :   -0.208477
   7 N :   -0.060436
   8 C :   -0.083054
   9 H :    0.151610
  10 H :    0.134080
  11 H :    0.128360
  12 H :    0.095597
  13 H :    0.128056
  14 H :    0.156815
  15 H :    0.121812
  16 H :    0.133596
  17 H :    0.136141
  18 H :    0.154076
  19 H :    0.135182
Sum of atomic charges:   -0.0000000

LOEWDIN ATOMIC CHARGES
----------------------
   0 C :   -0.287803
   1 C :   -0.246284
   2 C :   -0.220650
   3 C :   -0.224848
   4 C :   -0.157480
   5 C :   -0.173850
   6 C :   -0.184026
   7 N :    0.054506
   8 C :   -0.138637
   9 H :    0.130843
  10 H :    0.125802
  11 H :    0.123474
  12 H :    0.157815
  13 H :    0.136045
  14 H :    0.146521
  15 H :    0.143202
  16 H :    0.142445
  17 H :    0.147635
  18 H :    0.175295
  19 H :    0.149993

  Mayer bond orders larger than 0.1
B(  0-C ,  1-C ) :   0.9135 B(  0-C ,  9-H ) :   0.9292 B(  0-C , 10-H ) :   0.9378
B(  0-C , 11-H ) :   0.9382 B(  1-C ,  2-C ) :   0.9114 B(  1-C ,  8-C ) :   0.9371
B(  1-C , 12-H ) :   0.9256 B(  2-C ,  3-C ) :   0.9276 B(  2-C , 13-H ) :   0.9259
B(  2-C , 14-H ) :   0.9283 B(  3-C ,  4-C ) :   0.9570 B(  3-C , 15-H ) :   0.9259
B(  3-C , 16-H ) :   0.9268 B(  4-C ,  5-C ) :   0.8341 B(  4-C ,  8-C ) :   0.8511
B(  4-C , 17-H ) :   0.9231 B(  5-C ,  6-C ) :   0.9855 B(  5-C ,  8-C ) :   0.8460
B(  5-C , 18-H ) :   0.9121 B(  6-C ,  7-N ) :   2.8356 B(  8-C , 19-H ) :   0.9204

MP2 TOTAL ENERGY:     -365.377800672 Eh
FINAL SINGLE POINT ENERGY      -365.377800672188

DIPOLE MOMENT
-------------
                                X             Y             Z
Electronic contribution:      6.77340      -0.04382       1.83355
Nuclear contribution   :     -7.95246      -0.87267      -1.12748
                        -----------------------------------------
Total Dipole Moment    :     -1.17905      -0.91649       0.70607
                        -----------------------------------------
Magnitude (a.u.)       :      1.65186
Magnitude (Debye)      :      4.19870

                             ****ORCA TERMINATED NORMALLY****
TOTAL RUN TIME: 0 days 0 hours 26 minutes 28 seconds 953 msec
