                         Program Version 3.0.3 - RELEASE   -
|  1> ! RI-MP2 RIJK def2-TZVP def2-TZVP/C def2-TZVP/JK TIGHTSCF
|  2> % maxcore 2000
|  3> % mp2 density relaxed end
|  4> *xyz 0 1
|  5>  N       -0.1216227003     1.4083170054     0.1150964923
|  6>  C       -0.0716548367    -0.0566864923     0.0127669891
|  7>  C        0.7927757092    -0.5541530290     1.2068826318
|  8>  O        0.3070009369    -0.0646637155     2.4231952208
|  9>  C       -1.4346868747    -0.5992063327     0.1201438040
| 10>  N       -2.5011783473    -1.0416531674     0.1557752122
| 11>  C        0.5471572353    -0.5692923073    -1.2986077335
| 12>  C        0.3635641426     0.1137324822    -2.5798176913
| 13>  O        1.5826620815     0.2505981909    -1.8324611273
| 14>  H        0.6959010192     1.7830464955    -0.3617959260
| 15>  H       -0.9506108408     1.7881517547    -0.3275557153
| 16>  H        0.7790400856    -1.6472419462     1.2530621709
| 17>  H        1.8277028829    -0.2318750863     1.0026800957
| 18>  H        0.1259882670     0.8740211049     2.2664596884
| 19>  H        0.7620726808    -1.6379943332    -1.3049096167
| 20>  H        0.4475835842    -0.4520648254    -3.5045745764
| 21>  H       -0.2485841955     1.0113518017    -2.6309557187
| 22> *
| 23>
| 24>                          ****END OF INPUT****

CARTESIAN COORDINATES (ANGSTROEM)
---------------------------------
  N     -0.121623    1.408317    0.115096
  C     -0.071655   -0.056686    0.012767
  C      0.792776   -0.554153    1.206883
  O      0.307001   -0.064664    2.423195
  C     -1.434687   -0.599206    0.120144
  N     -2.501178   -1.041653    0.155775
  C      0.547157   -0.569292   -1.298608
  C      0.363564    0.113732   -2.579818
  O      1.582662    0.250598   -1.832461
  H      0.695901    1.783046   -0.361796
  H     -0.950611    1.788152   -0.327556
  H      0.779040   -1.647242    1.253062
  H      1.827703   -0.231875    1.002680
  H      0.125988    0.874021    2.266460
  H      0.762073   -1.637994   -1.304910
  H      0.447584   -0.452065   -3.504575
  H     -0.248584    1.011352   -2.630956

 Total Charge           Charge          ....    0
 Multiplicity           Mult            ....    1
 Number of Electrons    NEL             ....   68
 Basis Dimension        Dim             ....  327

ORBITAL ENERGIES
----------------

  NO   OCC          E(Eh)            E(eV)
   0   2.0000     -20.604233      -560.6697
   1   2.0000     -20.563592      -559.5638
   2   2.0000     -15.586306      -424.1249
   3   2.0000     -15.584693      -424.0811
   4   2.0000     -11.335896      -308.4654
   5   2.0000     -11.325960      -308.1951
   6   2.0000     -11.315192      -307.9020
   7   2.0000     -11.301654      -307.5336
   8   2.0000     -11.283185      -307.0311
   9   2.0000      -1.448662       -39.4201
  10   2.0000      -1.379161       -37.5289
  11   2.0000      -1.249887       -34.0112
  12   2.0000      -1.215020       -33.0624
  13   2.0000      -1.052806       -28.6483
  14   2.0000      -0.960782       -26.1442
  15   2.0000      -0.901615       -24.5342
  16   2.0000      -0.866100       -23.5678
  17   2.0000      -0.765957       -20.8427
  18   2.0000      -0.738781       -20.1033
  19   2.0000      -0.708559       -19.2809
  20   2.0000      -0.671747       -18.2792
  21   2.0000      -0.655437       -17.8353
  22   2.0000      -0.633369       -17.2348
  23   2.0000      -0.612215       -16.6592
  24   2.0000      -0.587187       -15.9782
  25   2.0000      -0.573418       -15.6035
  26   2.0000      -0.558307       -15.1923
  27   2.0000      -0.531855       -14.4725
  28   2.0000      -0.496691       -13.5156
  29   2.0000      -0.488537       -13.2938
  30   2.0000      -0.483764       -13.1639
  31   2.0000      -0.474567       -12.9136
  32   2.0000      -0.456746       -12.4287
  33   2.0000      -0.432045       -11.7566
  34   0.0000       0.116838         3.1793
  35   0.0000       0.137883         3.7520
  36   0.0000       0.149093         4.0570
  37   0.0000       0.164280         4.4703
  38   0.0000       0.172534         4.6949

MULLIKEN ATOMIC CHARGES
-----------------------
   0 N :   -0.591371
   1 C :    0.217194
   2 C :    0.003574
   3 O :   -0.465147
   4 C :   -0.217927
   5 N :   -0.034541
   6 C :    0.014336
   7 C :   -0.087491
   8 O :   -0.331741
   9 H :    0.261520
  10 H :    0.249964
  11 H :    0.119914
  12 H :    0.120484
  13 H :    0.337294
  14 H :    0.149055
  15 H :    0.135589
  16 H :    0.119294
Sum of atomic charges:   -0.0000000

LOEWDIN ATOMIC CHARGES
----------------------
   0 N :   -0.092435
   1 C :   -0.350235
   2 C :   -0.303584
   3 O :   -0.019770
   4 C :   -0.147473
   5 N :    0.082112
   6 C :   -0.252118
   7 C :   -0.247960
   8 O :    0.150885
   9 H :    0.169345
  10 H :    0.165064
  11 H :    0.136988
  12 H :    0.128895
  13 H :    0.180616
  14 H :    0.151102
  15 H :    0.126950
  16 H :    0.121620

  Mayer bond orders larger than 0.1
B(  0-N ,  1-C ) :   0.8991 B(  0-N ,  9-H ) :   0.8683 B(  0-N , 10-H ) :   0.8806
B(  1-C ,  2-C ) :   0.9186 B(  1-C ,  3-O ) :   0.1116 B(  1-C ,  4-C ) :   0.9279
B(  1-C ,  6-C ) :   0.8835 B(  2-C ,  3-O ) :   0.9692 B(  2-C , 11-H ) :   0.9173
B(  2-C , 12-H ) :   0.9049 B(  3-O , 13-H ) :   0.8116 B(  4-C ,  5-N ) :   2.8717
B(  6-C ,  7-C ) :   0.9598 B(  6-C ,  8-O ) :   0.9082 B(  6-C , 14-H ) :   0.8993
B(  7-C ,  8-O ) :   0.8747 B(  7-C , 15-H ) :   0.9219 B(  7-C , 16-H ) :   0.9114

MP2 TOTAL ENERGY:     -454.392675662 Eh
FINAL SINGLE POINT ENERGY      -454.392675662280

DIPOLE MOMENT
-------------
                                X             Y             Z
Electronic contribution:     -2.53910      -1.40469       0.86904
Nuclear contribution   :      3.27945       2.01244      -2.14448
                        -----------------------------------------
Total Dipole Moment    :      0.74035       0.60774      -1.27544
                        -----------------------------------------
Magnitude (a.u.)       :      1.59507
Magnitude (Debye)      :      4.05433

                             ****ORCA TERMINATED NORMALLY****
TOTAL RUN TIME: 0 days 0 hours 16 minutes 12 seconds 713 msec
