                         Program Version 3.0.3 - RELEASE   -
|  1> ! RI-MP2 RIJK def2-TZVP def2-TZVP/C def2-TZVP/JK TIGHTSCF
|  2> % maxcore 2000
|  3> % mp2 density relaxed end
|  4> *xyz 0 1
|  5>  C        0.4630057016     1.4652191517    -0.0948457288
|  6>  O        0.7540287298     0.0876731517    -0.0701279511
|  7>  C        0.0904006253    -0.6252986752    -1.0888069426
|  8>  C        0.4497056740    -2.0756594739    -1.0356926116
|  9>  C        1.3737533615    -2.7534971595    -0.3049386682
| 10>  C        2.3924461181    -2.4145159465     0.7201692562
| 11>  O        1.2745293219    -4.0805466815    -0.6680495318
| 12>  C        0.2976510118    -4.1138048769    -1.5973629553
| 13>  N       -0.2330191895    -2.9683026651    -1.8625225038
| 14>  H        0.7745505158     1.9303837212    -1.0431887717
| 15>  H       -0.6127438909     1.6552817173     0.0436490257
| 16>  H        1.0135646397     1.9304266101     0.7259321509
| 17>  H       -1.0036741737    -0.5223272667    -0.9902726570
| 18>  H        0.3505111659    -0.2151247900    -2.0808486021
| 19>  H        2.1997576991    -2.9437672333     1.6603831176
| 20>  H        3.3976132156    -2.6962871370     0.3862437039
| 21>  H        2.3670144659    -1.3421595340     0.9071164339
| 22>  H        0.0576814779    -5.0772130924    -2.0194926241
| 23> *
| 24>
| 25>                          ****END OF INPUT****

CARTESIAN COORDINATES (ANGSTROEM)
---------------------------------
  C      0.463006    1.465219   -0.094846
  O      0.754029    0.087673   -0.070128
  C      0.090401   -0.625299   -1.088807
  C      0.449706   -2.075659   -1.035693
  C      1.373753   -2.753497   -0.304939
  C      2.392446   -2.414516    0.720169
  O      1.274529   -4.080547   -0.668050
  C      0.297651   -4.113805   -1.597363
  N     -0.233019   -2.968303   -1.862523
  H      0.774551    1.930384   -1.043189
  H     -0.612744    1.655282    0.043649
  H      1.013565    1.930427    0.725932
  H     -1.003674   -0.522327   -0.990273
  H      0.350511   -0.215125   -2.080849
  H      2.199758   -2.943767    1.660383
  H      3.397613   -2.696287    0.386244
  H      2.367014   -1.342160    0.907116
  H      0.057681   -5.077213   -2.019493

 Total Charge           Charge          ....    0
 Multiplicity           Mult            ....    1
 Number of Electrons    NEL             ....   68
 Basis Dimension        Dim             ....  333

ORBITAL ENERGIES
----------------

  NO   OCC          E(Eh)            E(eV)
   0   2.0000     -20.627700      -561.3082
   1   2.0000     -20.564783      -559.5962
   2   2.0000     -15.559591      -423.3980
   3   2.0000     -11.327272      -308.2308
   4   2.0000     -11.289036      -307.1903
   5   2.0000     -11.287346      -307.1443
   6   2.0000     -11.277621      -306.8797
   7   2.0000     -11.254846      -306.2599
   8   2.0000     -11.226680      -305.4935
   9   2.0000      -1.477759       -40.2119
  10   2.0000      -1.386922       -37.7401
  11   2.0000      -1.228573       -33.4312
  12   2.0000      -1.069083       -29.0912
  13   2.0000      -0.994744       -27.0684
  14   2.0000      -0.937019       -25.4976
  15   2.0000      -0.888356       -24.1734
  16   2.0000      -0.826050       -22.4780
  17   2.0000      -0.772129       -21.0107
  18   2.0000      -0.714379       -19.4392
  19   2.0000      -0.677945       -18.4478
  20   2.0000      -0.657301       -17.8861
  21   2.0000      -0.653739       -17.7891
  22   2.0000      -0.634227       -17.2582
  23   2.0000      -0.596417       -16.2293
  24   2.0000      -0.566097       -15.4043
  25   2.0000      -0.561585       -15.2815
  26   2.0000      -0.560290       -15.2463
  27   2.0000      -0.551497       -15.0070
  28   2.0000      -0.532016       -14.4769
  29   2.0000      -0.489002       -13.3064
  30   2.0000      -0.455511       -12.3951
  31   2.0000      -0.451385       -12.2828
  32   2.0000      -0.425722       -11.5845
  33   2.0000      -0.322138        -8.7658
  34   0.0000       0.139448         3.7946
  35   0.0000       0.147217         4.0060
  36   0.0000       0.159500         4.3402
  37   0.0000       0.178057         4.8452
  38   0.0000       0.184289         5.0148

MULLIKEN ATOMIC CHARGES
-----------------------
   0 C :   -0.217740
   1 O :   -0.306155
   2 C :   -0.072190
   3 C :    0.027806
   4 C :    0.156562
   5 C :   -0.396452
   6 O :   -0.210125
   7 C :    0.099161
   8 N :   -0.288377
   9 H :    0.115502
  10 H :    0.116265
  11 H :    0.139548
  12 H :    0.114054
  13 H :    0.110678
  14 H :    0.143328
  15 H :    0.142523
  16 H :    0.170901
  17 H :    0.154710
Sum of atomic charges:   -0.0000000

LOEWDIN ATOMIC CHARGES
----------------------
   0 C :   -0.356514
   1 O :    0.138316
   2 C :   -0.287107
   3 C :   -0.237947
   4 C :   -0.239147
   5 C :   -0.275409
   6 O :    0.345002
   7 C :   -0.333909
   8 N :    0.118420
   9 H :    0.103104
  10 H :    0.103916
  11 H :    0.113948
  12 H :    0.132902
  13 H :    0.131018
  14 H :    0.134854
  15 H :    0.134149
  16 H :    0.142815
  17 H :    0.131589

  Mayer bond orders larger than 0.1
B(  0-C ,  1-O ) :   0.9108 B(  0-C ,  9-H ) :   0.9371 B(  0-C , 10-H ) :   0.9357
B(  0-C , 11-H ) :   0.9395 B(  1-O ,  2-C ) :   0.9743 B(  2-C ,  3-C ) :   0.9313
B(  2-C , 12-H ) :   0.9231 B(  2-C , 13-H ) :   0.9241 B(  3-C ,  4-C ) :   1.6009
B(  3-C ,  8-N ) :   1.1635 B(  4-C ,  5-C ) :   0.8453 B(  4-C ,  6-O ) :   1.0206
B(  5-C , 14-H ) :   0.9294 B(  5-C , 15-H ) :   0.9303 B(  5-C , 16-H ) :   0.9428
B(  6-O ,  7-C ) :   1.0943 B(  7-C ,  8-N ) :   1.6556 B(  7-C , 17-H ) :   0.9268

MP2 TOTAL ENERGY:     -438.382128215 Eh
FINAL SINGLE POINT ENERGY      -438.382128215247

DIPOLE MOMENT
-------------
                                X             Y             Z
Electronic contribution:     -1.19936      -8.60559      -2.86881
Nuclear contribution   :      1.46531       9.04022       3.13118
                        -----------------------------------------
Total Dipole Moment    :      0.26595       0.43463       0.26237
                        -----------------------------------------
Magnitude (a.u.)       :      0.57312
Magnitude (Debye)      :      1.45676

                             ****ORCA TERMINATED NORMALLY****
TOTAL RUN TIME: 0 days 0 hours 15 minutes 38 seconds 97 msec
