                         Program Version 3.0.3 - RELEASE   -
|  1> ! RI-MP2 RIJK def2-TZVP def2-TZVP/C def2-TZVP/JK TIGHTSCF
|  2> % maxcore 2000
|  3> % mp2 density relaxed end
|  4> *xyz 0 1
|  5>  C       -0.0568626067     1.4791370150    -0.0459583093
|  6>  C       -0.0189553182     0.0240725390    -0.0200549711
|  7>  C        0.0298638123    -1.1782832202     0.0083586786
|  8>  C        0.0449527515    -2.6416320916     0.0210383098
|  9>  C       -1.3976320784    -3.1955124110     0.0488940426
| 10>  N        0.8769895488    -3.1152114197    -1.0982262490
| 11>  C        1.0798857882    -4.5565363506    -1.1380722119
| 12>  C        2.0406844374    -4.9142845726    -2.1871129321
| 13>  N        2.7761871929    -5.2069772378    -3.0280639184
| 14>  H        0.7279073419     1.8823542091    -0.6951033793
| 15>  H       -1.0190632149     1.8483722506    -0.4171431579
| 16>  H        0.0953574560     1.8961632682     0.9555171516
| 17>  H        0.5537312280    -2.9770327231     0.9371380936
| 18>  H       -1.9370952155    -2.9007301146    -0.8566702409
| 19>  H       -1.4041286960    -4.2872319724     0.1218103824
| 20>  H       -1.9389707830    -2.7971961673     0.9112244872
| 21>  H        0.4979813915    -2.7811327880    -1.9783236056
| 22>  H        1.4929892277    -4.8758700120    -0.1725219264
| 23>  H        0.1714668964    -5.1612886810    -1.3030011139
| 24> *
| 25>
| 26>                          ****END OF INPUT****

CARTESIAN COORDINATES (ANGSTROEM)
---------------------------------
  C     -0.056863    1.479137   -0.045958
  C     -0.018955    0.024073   -0.020055
  C      0.029864   -1.178283    0.008359
  C      0.044953   -2.641632    0.021038
  C     -1.397632   -3.195512    0.048894
  N      0.876990   -3.115211   -1.098226
  C      1.079886   -4.556536   -1.138072
  C      2.040684   -4.914285   -2.187113
  N      2.776187   -5.206977   -3.028064
  H      0.727907    1.882354   -0.695103
  H     -1.019063    1.848372   -0.417143
  H      0.095357    1.896163    0.955517
  H      0.553731   -2.977033    0.937138
  H     -1.937095   -2.900730   -0.856670
  H     -1.404129   -4.287232    0.121810
  H     -1.938971   -2.797196    0.911224
  H      0.497981   -2.781133   -1.978324
  H      1.492989   -4.875870   -0.172522
  H      0.171467   -5.161289   -1.303001

 Total Charge           Charge          ....    0
 Multiplicity           Mult            ....    1
 Number of Electrons    NEL             ....   66
 Basis Dimension        Dim             ....  339

ORBITAL ENERGIES
----------------

  NO   OCC          E(Eh)            E(eV)
   0   2.0000     -15.575360      -423.8271
   1   2.0000     -15.571244      -423.7151
   2   2.0000     -11.314566      -307.8850
   3   2.0000     -11.300878      -307.5125
   4   2.0000     -11.273540      -306.7686
   5   2.0000     -11.252115      -306.1856
   6   2.0000     -11.236883      -305.7711
   7   2.0000     -11.233653      -305.6833
   8   2.0000     -11.223767      -305.4142
   9   2.0000      -1.251576       -34.0571
  10   2.0000      -1.213059       -33.0090
  11   2.0000      -1.082315       -29.4513
  12   2.0000      -1.040560       -28.3151
  13   2.0000      -0.973677       -26.4951
  14   2.0000      -0.956564       -26.0294
  15   2.0000      -0.862097       -23.4588
  16   2.0000      -0.749033       -20.3822
  17   2.0000      -0.686294       -18.6750
  18   2.0000      -0.656902       -17.8752
  19   2.0000      -0.645192       -17.5566
  20   2.0000      -0.623489       -16.9660
  21   2.0000      -0.603496       -16.4220
  22   2.0000      -0.591448       -16.0941
  23   2.0000      -0.590848       -16.0778
  24   2.0000      -0.577741       -15.7211
  25   2.0000      -0.556895       -15.1539
  26   2.0000      -0.547054       -14.8861
  27   2.0000      -0.527257       -14.3474
  28   2.0000      -0.467090       -12.7102
  29   2.0000      -0.463043       -12.6001
  30   2.0000      -0.405882       -11.0446
  31   2.0000      -0.382058       -10.3963
  32   2.0000      -0.375434       -10.2161
  33   0.0000       0.114781         3.1234
  34   0.0000       0.135393         3.6842
  35   0.0000       0.150069         4.0836
  36   0.0000       0.153645         4.1809
  37   0.0000       0.160191         4.3590

MULLIKEN ATOMIC CHARGES
-----------------------
   0 C :   -0.481152
   1 C :    0.097613
   2 C :   -0.022424
   3 C :   -0.163052
   4 C :   -0.374550
   5 N :   -0.286398
   6 C :   -0.069156
   7 C :   -0.164418
   8 N :   -0.056333
   9 H :    0.167404
  10 H :    0.161898
  11 H :    0.164025
  12 H :    0.113274
  13 H :    0.126844
  14 H :    0.133763
  15 H :    0.142814
  16 H :    0.216133
  17 H :    0.150636
  18 H :    0.143077
Sum of atomic charges:    0.0000000

LOEWDIN ATOMIC CHARGES
----------------------
   0 C :   -0.292418
   1 C :   -0.093028
   2 C :   -0.066471
   3 C :   -0.317225
   4 C :   -0.283463
   5 N :    0.022622
   6 C :   -0.294805
   7 C :   -0.187238
   8 N :    0.062575
   9 H :    0.143278
  10 H :    0.140741
  11 H :    0.142322
  12 H :    0.163274
  13 H :    0.126274
  14 H :    0.119725
  15 H :    0.131575
  16 H :    0.180397
  17 H :    0.159314
  18 H :    0.142553

  Mayer bond orders larger than 0.1
B(  0-C ,  1-C ) :   0.8414 B(  0-C ,  9-H ) :   0.9455 B(  0-C , 10-H ) :   0.9464
B(  0-C , 11-H ) :   0.9486 B(  1-C ,  2-C ) :   2.6766 B(  1-C ,  3-C ) :  -0.1123
B(  2-C ,  3-C ) :   1.0938 B(  3-C ,  4-C ) :   0.9385 B(  3-C ,  5-N ) :   1.0111
B(  3-C , 12-H ) :   0.8975 B(  4-C , 13-H ) :   0.9228 B(  4-C , 14-H ) :   0.9399
B(  4-C , 15-H ) :   0.9287 B(  5-N ,  6-C ) :   0.9643 B(  5-N , 16-H ) :   0.8676
B(  6-C ,  7-C ) :   0.9382 B(  6-C , 17-H ) :   0.8982 B(  6-C , 18-H ) :   0.8983
B(  7-C ,  8-N ) :   2.8721

MP2 TOTAL ENERGY:     -381.358957387 Eh
FINAL SINGLE POINT ENERGY      -381.358957387481

DIPOLE MOMENT
-------------
                                X             Y             Z
Electronic contribution:      6.48276      -4.82626      -4.29003
Nuclear contribution   :     -7.87937       5.40629       5.33090
                        -----------------------------------------
Total Dipole Moment    :     -1.39661       0.58004       1.04087
                        -----------------------------------------
Magnitude (a.u.)       :      1.83585
Magnitude (Debye)      :      4.66637

                             ****ORCA TERMINATED NORMALLY****
TOTAL RUN TIME: 0 days 0 hours 14 minutes 14 seconds 11 msec
