                         Program Version 3.0.3 - RELEASE   -
|  1> ! RI-MP2 RIJK def2-TZVP def2-TZVP/C def2-TZVP/JK TIGHTSCF
|  2> % maxcore 2000
|  3> % mp2 density relaxed end
|  4> *xyz 0 1
|  5>  N       -0.0756383320    -1.1757907470    -0.1022782984
|  6>  C       -0.0417230707    -0.0214129509    -0.0472805580
|  7>  C       -0.0020752128     1.4347881801     0.0240023811
|  8>  C       -0.4454755244     1.9998121411     1.3830976345
|  9>  C        0.7686284981     2.0958559643     2.2404687741
| 10>  C        1.9539329399     1.5872642958     1.4276076987
| 11>  C        1.4281527811     2.0520231947     0.0530932201
| 12>  C        1.0542707221     3.5096161253     0.3777455276
| 13>  N        0.2130059525     3.3093034683     1.5842248143
| 14>  H       -0.5978493088     1.8402624679    -0.8006228700
| 15>  H       -1.4544991642     1.8711418138     1.7523397206
| 16>  H        0.7330056330     2.0599121283     3.3216646553
| 17>  H        2.8969682662     2.0705989328     1.6984084181
| 18>  H        2.0790982919     0.5035673574     1.4975126521
| 19>  H        2.0524033907     1.8621159708    -0.8169940222
| 20>  H        1.9199579335     4.1310367530     0.6226596183
| 21>  H        0.4734718839     4.0039532345    -0.4064508564
| 22> *
| 23>
| 24>                          ****END OF INPUT****

CARTESIAN COORDINATES (ANGSTROEM)
---------------------------------
  N     -0.075638   -1.175791   -0.102278
  C     -0.041723   -0.021413   -0.047281
  C     -0.002075    1.434788    0.024002
  C     -0.445476    1.999812    1.383098
  C      0.768628    2.095856    2.240469
  C      1.953933    1.587264    1.427608
  C      1.428153    2.052023    0.053093
  C      1.054271    3.509616    0.377746
  N      0.213006    3.309303    1.584225
  H     -0.597849    1.840262   -0.800623
  H     -1.454499    1.871142    1.752340
  H      0.733006    2.059912    3.321665
  H      2.896968    2.070599    1.698408
  H      2.079098    0.503567    1.497513
  H      2.052403    1.862116   -0.816994
  H      1.919958    4.131037    0.622660
  H      0.473472    4.003953   -0.406451

 Total Charge           Charge          ....    0
 Multiplicity           Mult            ....    1
 Number of Electrons    NEL             ....   64
 Basis Dimension        Dim             ....  327

ORBITAL ENERGIES
----------------

  NO   OCC          E(Eh)            E(eV)
   0   2.0000     -15.578320      -423.9076
   1   2.0000     -15.572042      -423.7368
   2   2.0000     -11.291471      -307.2566
   3   2.0000     -11.281645      -306.9892
   4   2.0000     -11.275623      -306.8253
   5   2.0000     -11.274176      -306.7859
   6   2.0000     -11.269944      -306.6708
   7   2.0000     -11.263628      -306.4989
   8   2.0000     -11.246396      -306.0300
   9   2.0000      -1.325011       -36.0554
  10   2.0000      -1.220792       -33.2194
  11   2.0000      -1.098002       -29.8782
  12   2.0000      -1.029688       -28.0192
  13   2.0000      -1.010722       -27.5031
  14   2.0000      -0.837980       -22.8026
  15   2.0000      -0.805498       -21.9187
  16   2.0000      -0.791274       -21.5317
  17   2.0000      -0.739915       -20.1341
  18   2.0000      -0.702400       -19.1133
  19   2.0000      -0.661827       -18.0092
  20   2.0000      -0.616624       -16.7792
  21   2.0000      -0.586302       -15.9541
  22   2.0000      -0.559813       -15.2333
  23   2.0000      -0.550626       -14.9833
  24   2.0000      -0.542177       -14.7534
  25   2.0000      -0.519536       -14.1373
  26   2.0000      -0.504601       -13.7309
  27   2.0000      -0.482600       -13.1322
  28   2.0000      -0.462602       -12.5881
  29   2.0000      -0.454826       -12.3765
  30   2.0000      -0.439773       -11.9668
  31   2.0000      -0.396936       -10.8012
  32   0.0000       0.123090         3.3495
  33   0.0000       0.154562         4.2058
  34   0.0000       0.157359         4.2820
  35   0.0000       0.165522         4.5041
  36   0.0000       0.179994         4.8979

MULLIKEN ATOMIC CHARGES
-----------------------
   0 N :   -0.043954
   1 C :   -0.248320
   2 C :    0.018020
   3 C :   -0.069246
   4 C :   -0.096601
   5 C :   -0.271203
   6 C :   -0.072371
   7 C :   -0.145245
   8 N :   -0.211269
   9 H :    0.148179
  10 H :    0.149800
  11 H :    0.141851
  12 H :    0.133382
  13 H :    0.153265
  14 H :    0.154970
  15 H :    0.132861
  16 H :    0.125881
Sum of atomic charges:   -0.0000000

LOEWDIN ATOMIC CHARGES
----------------------
   0 N :    0.063617
   1 C :   -0.165405
   2 C :   -0.193230
   3 C :   -0.183815
   4 C :   -0.205892
   5 C :   -0.205213
   6 C :   -0.194855
   7 C :   -0.236735
   8 N :    0.136774
   9 H :    0.178201
  10 H :    0.145685
  11 H :    0.142204
  12 H :    0.143411
  13 H :    0.150800
  14 H :    0.151235
  15 H :    0.137514
  16 H :    0.135703

  Mayer bond orders larger than 0.1
B(  0-N ,  1-C ) :   2.8799 B(  1-C ,  2-C ) :   0.9218 B(  2-C ,  3-C ) :   0.8798
B(  2-C ,  6-C ) :   0.8848 B(  2-C ,  9-H ) :   0.8994 B(  3-C ,  4-C ) :   0.9102
B(  3-C ,  8-N ) :   0.9123 B(  3-C , 10-H ) :   0.9176 B(  4-C ,  5-C ) :   0.9529
B(  4-C ,  8-N ) :   0.8958 B(  4-C , 11-H ) :   0.9247 B(  5-C ,  6-C ) :   0.9223
B(  5-C , 12-H ) :   0.9233 B(  5-C , 13-H ) :   0.9074 B(  6-C ,  7-C ) :   0.9204
B(  6-C , 14-H ) :   0.9099 B(  7-C ,  8-N ) :   0.9413 B(  7-C , 15-H ) :   0.9294
B(  7-C , 16-H ) :   0.9255

MP2 TOTAL ENERGY:     -380.214777208 Eh
FINAL SINGLE POINT ENERGY      -380.214777207667

DIPOLE MOMENT
-------------
                                X             Y             Z
Electronic contribution:     -2.92192      -3.62345      -0.72462
Nuclear contribution   :      3.42790       4.68359       0.61894
                        -----------------------------------------
Total Dipole Moment    :      0.50598       1.06015      -0.10568
                        -----------------------------------------
Magnitude (a.u.)       :      1.17945
Magnitude (Debye)      :      2.99792

                             ****ORCA TERMINATED NORMALLY****
TOTAL RUN TIME: 0 days 0 hours 19 minutes 38 seconds 192 msec
