                         Program Version 3.0.3 - RELEASE   -
|  1> ! RI-MP2 RIJK def2-TZVP def2-TZVP/C def2-TZVP/JK TIGHTSCF
|  2> % maxcore 2000
|  3> % mp2 density relaxed end
|  4> *xyz 0 1
|  5>  C       -0.0753620551     1.6246202754    -0.0261473301
|  6>  C       -0.0264549566     0.1046025236     0.0558210932
|  7>  C       -1.4021928368    -0.5854590569     0.0404991828
|  8>  C       -1.1593919519    -1.9536743134     0.6984790477
|  9>  C       -0.1689984021    -1.6277687895     1.8349516290
| 10>  C        0.7127554376    -0.4714781856     1.3069937259
| 11>  O        1.9841485892    -0.8768037643     0.8105031336
| 12>  C        1.8018619237    -1.1991230745    -0.5444372563
| 13>  O        0.7754595345    -0.3735505511    -1.0422573632
| 14>  H        0.9352319192     2.0395880868     0.0274147060
| 15>  H       -0.5232246865     1.9406297829    -0.9731736961
| 16>  H       -0.6705573054     2.0439634520     0.7913842763
| 17>  H       -2.1081513713     0.0000689289     0.6427295640
| 18>  H       -1.7998514798    -0.6445779373    -0.9755950530
| 19>  H       -2.0789886128    -2.4228550784     1.0585534277
| 20>  H       -0.7082522835    -2.6423254032    -0.0238379454
| 21>  H       -0.7196202730    -1.2805499934     2.7170264488
| 22>  H        0.4466721989    -2.4748288080     2.1477301233
| 23>  H        0.9092201159     0.2788803322     2.0760767018
| 24>  H        2.7342881340    -0.9954538165    -1.0837141053
| 25>  H        1.5337178920    -2.2641358599    -0.6664813006
| 26> *
| 27>
| 28>                          ****END OF INPUT****

CARTESIAN COORDINATES (ANGSTROEM)
---------------------------------
  C     -0.075362    1.624620   -0.026147
  C     -0.026455    0.104603    0.055821
  C     -1.402193   -0.585459    0.040499
  C     -1.159392   -1.953674    0.698479
  C     -0.168998   -1.627769    1.834952
  C      0.712755   -0.471478    1.306994
  O      1.984149   -0.876804    0.810503
  C      1.801862   -1.199123   -0.544437
  O      0.775460   -0.373551   -1.042257
  H      0.935232    2.039588    0.027415
  H     -0.523225    1.940630   -0.973174
  H     -0.670557    2.043963    0.791384
  H     -2.108151    0.000069    0.642730
  H     -1.799851   -0.644578   -0.975595
  H     -2.078989   -2.422855    1.058553
  H     -0.708252   -2.642325   -0.023838
  H     -0.719620   -1.280550    2.717026
  H      0.446672   -2.474829    2.147730
  H      0.909220    0.278880    2.076077
  H      2.734288   -0.995454   -1.083714
  H      1.533718   -2.264136   -0.666481

 Total Charge           Charge          ....    0
 Multiplicity           Mult            ....    1
 Number of Electrons    NEL             ....   70
 Basis Dimension        Dim             ....  351

ORBITAL ENERGIES
----------------

  NO   OCC          E(Eh)            E(eV)
   0   2.0000     -20.560225      -559.4722
   1   2.0000     -20.554674      -559.3211
   2   2.0000     -11.323175      -308.1193
   3   2.0000     -11.286725      -307.1274
   4   2.0000     -11.280739      -306.9645
   5   2.0000     -11.224145      -305.4245
   6   2.0000     -11.223444      -305.4054
   7   2.0000     -11.221348      -305.3484
   8   2.0000     -11.216131      -305.2065
   9   2.0000      -1.433227       -39.0001
  10   2.0000      -1.328680       -36.1552
  11   2.0000      -1.121390       -30.5146
  12   2.0000      -1.017111       -27.6770
  13   2.0000      -0.969010       -26.3681
  14   2.0000      -0.915660       -24.9164
  15   2.0000      -0.858340       -23.3566
  16   2.0000      -0.793210       -21.5843
  17   2.0000      -0.775923       -21.1139
  18   2.0000      -0.705683       -19.2026
  19   2.0000      -0.679512       -18.4905
  20   2.0000      -0.634969       -17.2784
  21   2.0000      -0.618590       -16.8327
  22   2.0000      -0.612151       -16.6575
  23   2.0000      -0.590429       -16.0664
  24   2.0000      -0.568646       -15.4736
  25   2.0000      -0.563913       -15.3449
  26   2.0000      -0.532269       -14.4838
  27   2.0000      -0.519043       -14.1239
  28   2.0000      -0.508456       -13.8358
  29   2.0000      -0.499195       -13.5838
  30   2.0000      -0.478847       -13.0301
  31   2.0000      -0.470570       -12.8049
  32   2.0000      -0.453438       -12.3387
  33   2.0000      -0.430900       -11.7254
  34   2.0000      -0.403482       -10.9793
  35   0.0000       0.131978         3.5913
  36   0.0000       0.154478         4.2036
  37   0.0000       0.169089         4.6011
  38   0.0000       0.176003         4.7893
  39   0.0000       0.196691         5.3522

MULLIKEN ATOMIC CHARGES
-----------------------
   0 C :   -0.424312
   1 C :    0.224905
   2 C :   -0.250054
   3 C :   -0.241364
   4 C :   -0.260235
   5 C :    0.077366
   6 O :   -0.327382
   7 C :    0.108063
   8 O :   -0.340109
   9 H :    0.140588
  10 H :    0.139670
  11 H :    0.122464
  12 H :    0.110026
  13 H :    0.127738
  14 H :    0.126461
  15 H :    0.119565
  16 H :    0.113244
  17 H :    0.132824
  18 H :    0.111439
  19 H :    0.116972
  20 H :    0.072134
Sum of atomic charges:   -0.0000000

LOEWDIN ATOMIC CHARGES
----------------------
   0 C :   -0.271848
   1 C :   -0.328188
   2 C :   -0.217833
   3 C :   -0.256235
   4 C :   -0.235538
   5 C :   -0.256360
   6 O :    0.174109
   7 C :   -0.379320
   8 O :    0.188593
   9 H :    0.130437
  10 H :    0.130236
  11 H :    0.125718
  12 H :    0.142738
  13 H :    0.141404
  14 H :    0.132370
  15 H :    0.136727
  16 H :    0.140441
  17 H :    0.140425
  18 H :    0.144185
  19 H :    0.116649
  20 H :    0.101288

  Mayer bond orders larger than 0.1
B(  0-C ,  1-C ) :   0.8859 B(  0-C ,  9-H ) :   0.9411 B(  0-C , 10-H ) :   0.9400
B(  0-C , 11-H ) :   0.9339 B(  1-C ,  2-C ) :   0.9371 B(  1-C ,  5-C ) :   0.8800
B(  1-C ,  8-O ) :   0.8582 B(  2-C ,  3-C ) :   0.9311 B(  2-C , 12-H ) :   0.9250
B(  2-C , 13-H ) :   0.9204 B(  3-C ,  4-C ) :   0.9331 B(  3-C , 14-H ) :   0.9275
B(  3-C , 15-H ) :   0.9320 B(  4-C ,  5-C ) :   0.9362 B(  4-C , 16-H ) :   0.9257
B(  4-C , 17-H ) :   0.9290 B(  5-C ,  6-O ) :   0.9065 B(  5-C , 18-H ) :   0.9243
B(  6-O ,  7-C ) :   0.9729 B(  7-C ,  8-O ) :   0.9793 B(  7-C , 19-H ) :   0.9260
B(  7-C , 20-H ) :   0.9183

MP2 TOTAL ENERGY:     -423.551832629 Eh
FINAL SINGLE POINT ENERGY      -423.551832629149

DIPOLE MOMENT
-------------
                                X             Y             Z
Electronic contribution:      4.73306      -0.67635      -1.33998
Nuclear contribution   :     -5.25218       0.63436       1.63644
                        -----------------------------------------
Total Dipole Moment    :     -0.51911      -0.04199       0.29646
                        -----------------------------------------
Magnitude (a.u.)       :      0.59928
Magnitude (Debye)      :      1.52324

                             ****ORCA TERMINATED NORMALLY****
TOTAL RUN TIME: 0 days 0 hours 19 minutes 20 seconds 408 msec
