                         Program Version 3.0.3 - RELEASE   -
|  1> ! RI-MP2 RIJK def2-TZVP def2-TZVP/C def2-TZVP/JK TIGHTSCF
|  2> % maxcore 2000
|  3> % mp2 density relaxed end
|  4> *xyz 0 1
|  5>  C       -0.0435542684     1.3982036196    -0.0737625345
|  6>  O        1.2907149694     1.5399381976     0.5419323109
|  7>  C        1.3185017206     0.1904354565     0.7750054502
|  8>  N        1.9115559120    -0.4856219550     1.6503909441
|  9>  C        1.3114704670    -1.8393684446     1.6499600012
| 10>  C       -0.2241191209    -1.7421816979     1.6213084207
| 11>  O       -0.7436527041    -1.0589759727     0.4637395482
| 12>  C        0.1563648428    -0.1457593469    -0.1054182665
| 13>  H       -0.8196174758     1.7357898433     0.6167103531
| 14>  H       -0.0966952009     1.9222068339    -1.0290863970
| 15>  H        1.6714513380    -2.4375104806     0.8016271540
| 16>  H        1.6157208315    -2.3572609729     2.5636936970
| 17>  H       -0.6763405470    -2.7382928820     1.6060489981
| 18>  H       -0.5579351605    -1.2223959151     2.5299845041
| 19>  H        0.4403638364    -0.4776261533    -1.1113838934
| 20> *
| 21>
| 22>                          ****END OF INPUT****

CARTESIAN COORDINATES (ANGSTROEM)
---------------------------------
  C     -0.043554    1.398204   -0.073763
  O      1.290715    1.539938    0.541932
  C      1.318502    0.190435    0.775005
  N      1.911556   -0.485622    1.650391
  C      1.311470   -1.839368    1.649960
  C     -0.224119   -1.742182    1.621308
  O     -0.743653   -1.058976    0.463740
  C      0.156365   -0.145759   -0.105418
  H     -0.819617    1.735790    0.616710
  H     -0.096695    1.922207   -1.029086
  H      1.671451   -2.437510    0.801627
  H      1.615721   -2.357261    2.563694
  H     -0.676341   -2.738293    1.606049
  H     -0.557935   -1.222396    2.529985
  H      0.440364   -0.477626   -1.111384

 Total Charge           Charge          ....    0
 Multiplicity           Mult            ....    1
 Number of Electrons    NEL             ....   60
 Basis Dimension        Dim             ....  290

ORBITAL ENERGIES
----------------

  NO   OCC          E(Eh)            E(eV)
   0   2.0000     -20.597872      -560.4966
   1   2.0000     -20.578821      -559.9782
   2   2.0000     -15.552310      -423.1999
   3   2.0000     -11.337183      -308.5004
   4   2.0000     -11.311261      -307.7951
   5   2.0000     -11.310705      -307.7799
   6   2.0000     -11.291723      -307.2634
   7   2.0000     -11.267280      -306.5983
   8   2.0000      -1.445465       -39.3331
   9   2.0000      -1.391508       -37.8648
  10   2.0000      -1.234893       -33.6032
  11   2.0000      -1.045260       -28.4430
  12   2.0000      -0.996790       -27.1240
  13   2.0000      -0.896641       -24.3988
  14   2.0000      -0.868827       -23.6420
  15   2.0000      -0.740129       -20.1399
  16   2.0000      -0.709385       -19.3034
  17   2.0000      -0.702933       -19.1278
  18   2.0000      -0.688914       -18.7463
  19   2.0000      -0.637606       -17.3501
  20   2.0000      -0.602889       -16.4055
  21   2.0000      -0.593446       -16.1485
  22   2.0000      -0.560687       -15.2571
  23   2.0000      -0.551572       -15.0090
  24   2.0000      -0.541409       -14.7325
  25   2.0000      -0.530050       -14.4234
  26   2.0000      -0.513477       -13.9724
  27   2.0000      -0.435047       -11.8382
  28   2.0000      -0.405869       -11.0443
  29   2.0000      -0.394093       -10.7238
  30   0.0000       0.134708         3.6656
  31   0.0000       0.143327         3.9001
  32   0.0000       0.160147         4.3578
  33   0.0000       0.172431         4.6921
  34   0.0000       0.191432         5.2091

MULLIKEN ATOMIC CHARGES
-----------------------
   0 C :   -0.020237
   1 O :   -0.251992
   2 C :    0.114134
   3 N :   -0.204273
   4 C :   -0.121255
   5 C :   -0.062643
   6 O :   -0.311622
   7 C :    0.006787
   8 H :    0.116521
   9 H :    0.124929
  10 H :    0.118565
  11 H :    0.140162
  12 H :    0.123210
  13 H :    0.108084
  14 H :    0.119628
Sum of atomic charges:    0.0000000

LOEWDIN ATOMIC CHARGES
----------------------
   0 C :   -0.195371
   1 O :    0.226035
   2 C :   -0.379259
   3 N :    0.106063
   4 C :   -0.281133
   5 C :   -0.292050
   6 O :    0.166893
   7 C :   -0.281634
   8 H :    0.128632
   9 H :    0.122596
  10 H :    0.133092
  11 H :    0.139024
  12 H :    0.131003
  13 H :    0.126225
  14 H :    0.149884

  Mayer bond orders larger than 0.1
B(  0-C ,  1-O ) :   0.8856 B(  0-C ,  7-C ) :   0.9270 B(  0-C ,  8-H ) :   0.8967
B(  0-C ,  9-H ) :   0.9185 B(  1-O ,  2-C ) :   1.0956 B(  2-C ,  3-N ) :   1.8776
B(  2-C ,  7-C ) :   0.9498 B(  3-N ,  4-C ) :   0.8704 B(  4-C ,  5-C ) :   0.9354
B(  4-C , 10-H ) :   0.9231 B(  4-C , 11-H ) :   0.9236 B(  5-C ,  6-O ) :   0.9059
B(  5-C , 12-H ) :   0.9197 B(  5-C , 13-H ) :   0.9297 B(  6-O ,  7-C ) :   0.9871
B(  7-C , 14-H ) :   0.9180

MP2 TOTAL ENERGY:     -399.119964442 Eh
FINAL SINGLE POINT ENERGY      -399.119964442076

DIPOLE MOMENT
-------------
                                X             Y             Z
Electronic contribution:      1.72506       2.98810      -0.76026
Nuclear contribution   :     -2.43409      -3.45076       0.28086
                        -----------------------------------------
Total Dipole Moment    :     -0.70903      -0.46266      -0.47940
                        -----------------------------------------
Magnitude (a.u.)       :      0.97294
Magnitude (Debye)      :      2.47301

                             ****ORCA TERMINATED NORMALLY****
TOTAL RUN TIME: 0 days 0 hours 11 minutes 29 seconds 5 msec
