                         Program Version 3.0.3 - RELEASE   -
|  1> ! RI-MP2 RIJK def2-TZVP def2-TZVP/C def2-TZVP/JK TIGHTSCF
|  2> % maxcore 2000
|  3> % mp2 density relaxed end
|  4> *xyz 0 1
|  5>  C       -0.0065051567     1.5731254466     0.3151413524
|  6>  C        0.0282132077     0.0587615869     0.0343022744
|  7>  O        0.8443915345    -0.5997302072     0.9707064446
|  8>  C       -1.3895309796    -0.5229647798     0.1409436189
|  9>  O       -1.7298668891    -1.0335013148     1.1964267860
| 10>  N       -2.2419933610    -0.4178281188    -0.9437261124
| 11>  C       -1.8101823701     0.0732341800    -2.2541325893
| 12>  C       -3.5590297592    -0.8678281044    -0.7928727593
| 13>  N       -4.3882496390    -0.8331991443    -1.7536540166
| 14>  H        1.0184307072     1.9513502548     0.3241900246
| 15>  H       -0.5786991786     2.1312634690    -0.4321193712
| 16>  H       -0.4504206421     1.7533436617     1.2987501455
| 17>  H        0.4468550628    -0.1221303654    -0.9618286375
| 18>  H        0.2318138128    -0.9426920790     1.6407456382
| 19>  H       -1.0559414584    -0.5871180568    -2.6914061702
| 20>  H       -2.6898617815     0.0807989894    -2.8955693790
| 21>  H       -1.4063395323     1.0848808497    -2.1857598832
| 22>  H       -3.7423436178    -1.2264019880     0.2189771653
| 23>  H       -5.2903869797    -1.1942192997    -1.4505179212
| 24> *
| 25>
| 26>                          ****END OF INPUT****

CARTESIAN COORDINATES (ANGSTROEM)
---------------------------------
  C     -0.006505    1.573125    0.315141
  C      0.028213    0.058762    0.034302
  O      0.844392   -0.599730    0.970706
  C     -1.389531   -0.522965    0.140944
  O     -1.729867   -1.033501    1.196427
  N     -2.241993   -0.417828   -0.943726
  C     -1.810182    0.073234   -2.254133
  C     -3.559030   -0.867828   -0.792873
  N     -4.388250   -0.833199   -1.753654
  H      1.018431    1.951350    0.324190
  H     -0.578699    2.131263   -0.432119
  H     -0.450421    1.753344    1.298750
  H      0.446855   -0.122130   -0.961829
  H      0.231814   -0.942692    1.640746
  H     -1.055941   -0.587118   -2.691406
  H     -2.689862    0.080799   -2.895569
  H     -1.406340    1.084881   -2.185760
  H     -3.742344   -1.226402    0.218977
  H     -5.290387   -1.194219   -1.450518

 Total Charge           Charge          ....    0
 Multiplicity           Mult            ....    1
 Number of Electrons    NEL             ....   70
 Basis Dimension        Dim             ....  339

ORBITAL ENERGIES
----------------

  NO   OCC          E(Eh)            E(eV)
   0   2.0000     -20.557448      -559.3966
   1   2.0000     -20.550417      -559.2053
   2   2.0000     -15.621933      -425.0944
   3   2.0000     -15.552060      -423.1931
   4   2.0000     -11.376038      -309.5577
   5   2.0000     -11.327840      -308.2462
   6   2.0000     -11.307765      -307.6999
   7   2.0000     -11.275603      -306.8247
   8   2.0000     -11.235755      -305.7404
   9   2.0000      -1.424556       -38.7641
  10   2.0000      -1.364921       -37.1414
  11   2.0000      -1.298071       -35.3223
  12   2.0000      -1.192490       -32.4493
  13   2.0000      -1.042470       -28.3671
  14   2.0000      -0.981901       -26.7189
  15   2.0000      -0.922579       -25.1046
  16   2.0000      -0.839831       -22.8530
  17   2.0000      -0.760520       -20.6948
  18   2.0000      -0.754968       -20.5437
  19   2.0000      -0.693978       -18.8841
  20   2.0000      -0.670978       -18.2582
  21   2.0000      -0.660766       -17.9803
  22   2.0000      -0.643892       -17.5212
  23   2.0000      -0.622825       -16.9479
  24   2.0000      -0.598819       -16.2947
  25   2.0000      -0.579195       -15.7607
  26   2.0000      -0.573104       -15.5950
  27   2.0000      -0.553190       -15.0531
  28   2.0000      -0.541098       -14.7240
  29   2.0000      -0.529109       -14.3978
  30   2.0000      -0.495233       -13.4760
  31   2.0000      -0.463891       -12.6231
  32   2.0000      -0.455111       -12.3842
  33   2.0000      -0.432080       -11.7575
  34   2.0000      -0.385736       -10.4964
  35   0.0000       0.120741         3.2855
  36   0.0000       0.127741         3.4760
  37   0.0000       0.153334         4.1724
  38   0.0000       0.157059         4.2738
  39   0.0000       0.178362         4.8535

MULLIKEN ATOMIC CHARGES
-----------------------
   0 C :   -0.370858
   1 C :    0.078133
   2 O :   -0.473683
   3 C :    0.249165
   4 O :   -0.394574
   5 N :   -0.075405
   6 C :   -0.354440
   7 C :    0.017683
   8 N :   -0.397034
   9 H :    0.147580
  10 H :    0.116484
  11 H :    0.130464
  12 H :    0.107951
  13 H :    0.338281
  14 H :    0.156905
  15 H :    0.197549
  16 H :    0.138649
  17 H :    0.157167
  18 H :    0.229985
Sum of atomic charges:   -0.0000000

LOEWDIN ATOMIC CHARGES
----------------------
   0 C :   -0.287225
   1 C :   -0.350529
   2 O :   -0.006115
   3 C :   -0.382350
   4 O :    0.088847
   5 N :    0.189583
   6 C :   -0.271451
   7 C :   -0.294950
   8 N :   -0.083104
   9 H :    0.130937
  10 H :    0.120274
  11 H :    0.129589
  12 H :    0.145813
  13 H :    0.183949
  14 H :    0.122652
  15 H :    0.139068
  16 H :    0.118501
  17 H :    0.137676
  18 H :    0.168834

  Mayer bond orders larger than 0.1
B(  0-C ,  1-C ) :   0.8810 B(  0-C ,  9-H ) :   0.9340 B(  0-C , 10-H ) :   0.9193
B(  0-C , 11-H ) :   0.9261 B(  1-C ,  2-O ) :   1.0409 B(  1-C ,  3-C ) :   0.9420
B(  1-C , 12-H ) :   0.9171 B(  2-O , 13-H ) :   0.8016 B(  3-C ,  4-O ) :   1.7840
B(  3-C ,  5-N ) :   1.1189 B(  5-N ,  6-C ) :   0.8515 B(  5-N ,  7-C ) :   0.9877
B(  6-C , 14-H ) :   0.9340 B(  6-C , 15-H ) :   0.9119 B(  6-C , 16-H ) :   0.9251
B(  7-C ,  8-N ) :   1.8787 B(  7-C , 17-H ) :   0.9201 B(  8-N , 18-H ) :   0.8605

MP2 TOTAL ENERGY:     -455.641317419 Eh
FINAL SINGLE POINT ENERGY      -455.641317419148

DIPOLE MOMENT
-------------
                                X             Y             Z
Electronic contribution:     -2.24615      -4.94242       3.17502
Nuclear contribution   :      1.86312       5.39026      -3.70727
                        -----------------------------------------
Total Dipole Moment    :     -0.38303       0.44784      -0.53225
                        -----------------------------------------
Magnitude (a.u.)       :      0.79408
Magnitude (Debye)      :      2.01839

                             ****ORCA TERMINATED NORMALLY****
TOTAL RUN TIME: 0 days 0 hours 17 minutes 39 seconds 127 msec
