                         Program Version 3.0.3 - RELEASE   -
|  1> ! RI-MP2 RIJK def2-TZVP def2-TZVP/C def2-TZVP/JK TIGHTSCF
|  2> % maxcore 2000
|  3> % mp2 density relaxed end
|  4> *xyz 0 1
|  5>  N        0.0004694856     1.3080033079    -0.4460175106
|  6>  C        0.0605837815     0.1304428797     0.0625783147
|  7>  N       -1.1430666925    -0.3837959799     0.5242068363
|  8>  C       -1.5321267550    -1.5641625962     1.1205336737
|  9>  N       -2.7763514212    -1.6824613463     1.4148009266
| 10>  C       -0.5731380491    -2.6634984978     1.4185707949
| 11>  N        0.6802724839    -2.8057796505     1.2370567222
| 12>  C        1.5314598699    -1.8704873583     0.6593675762
| 13>  C        1.3003064042    -0.6429375682     0.1630860659
| 14>  H        0.9203038360     1.6105033468    -0.7585131011
| 15>  H       -1.9137122421     0.2601099311     0.3897744507
| 16>  H       -2.9588227605    -2.5854028919     1.8487228355
| 17>  H       -1.0824682859    -3.5080758257     1.8903237631
| 18>  H        2.5567412271    -2.2297465184     0.6188567548
| 19>  H        2.1626635081    -0.1169198622    -0.2361392029
| 20> *
| 21>
| 22>                          ****END OF INPUT****

CARTESIAN COORDINATES (ANGSTROEM)
---------------------------------
  N      0.000469    1.308003   -0.446018
  C      0.060584    0.130443    0.062578
  N     -1.143067   -0.383796    0.524207
  C     -1.532127   -1.564163    1.120534
  N     -2.776351   -1.682461    1.414801
  C     -0.573138   -2.663498    1.418571
  N      0.680272   -2.805780    1.237057
  C      1.531460   -1.870487    0.659368
  C      1.300306   -0.642938    0.163086
  H      0.920304    1.610503   -0.758513
  H     -1.913712    0.260110    0.389774
  H     -2.958823   -2.585403    1.848723
  H     -1.082468   -3.508076    1.890324
  H      2.556741   -2.229747    0.618857
  H      2.162664   -0.116920   -0.236139

 Total Charge           Charge          ....    0
 Multiplicity           Mult            ....    1
 Number of Electrons    NEL             ....   64
 Basis Dimension        Dim             ....  315

ORBITAL ENERGIES
----------------

  NO   OCC          E(Eh)            E(eV)
   0   2.0000     -15.607531      -424.7025
   1   2.0000     -15.603704      -424.5984
   2   2.0000     -15.560333      -423.4182
   3   2.0000     -15.543909      -422.9713
   4   2.0000     -11.352461      -308.9162
   5   2.0000     -11.344330      -308.6949
   6   2.0000     -11.329441      -308.2898
   7   2.0000     -11.304335      -307.6066
   8   2.0000     -11.269405      -306.6561
   9   2.0000      -1.329680       -36.1824
  10   2.0000      -1.273285       -34.6478
  11   2.0000      -1.236652       -33.6510
  12   2.0000      -1.154757       -31.4225
  13   2.0000      -1.074169       -29.2296
  14   2.0000      -0.960263       -26.1301
  15   2.0000      -0.900240       -24.4968
  16   2.0000      -0.820317       -22.3220
  17   2.0000      -0.804465       -21.8906
  18   2.0000      -0.715695       -19.4750
  19   2.0000      -0.690735       -18.7959
  20   2.0000      -0.666137       -18.1265
  21   2.0000      -0.654064       -17.7980
  22   2.0000      -0.616787       -16.7836
  23   2.0000      -0.613669       -16.6988
  24   2.0000      -0.564690       -15.3660
  25   2.0000      -0.525687       -14.3047
  26   2.0000      -0.498406       -13.5623
  27   2.0000      -0.484147       -13.1743
  28   2.0000      -0.453785       -12.3481
  29   2.0000      -0.429106       -11.6766
  30   2.0000      -0.367376        -9.9968
  31   2.0000      -0.356831        -9.7099
  32   0.0000       0.028712         0.7813
  33   0.0000       0.111369         3.0305
  34   0.0000       0.132123         3.5952
  35   0.0000       0.143921         3.9163
  36   0.0000       0.172128         4.6838

MULLIKEN ATOMIC CHARGES
-----------------------
   0 N :   -0.379747
   1 C :    0.221187
   2 N :   -0.259219
   3 C :    0.205474
   4 N :   -0.377619
   5 C :   -0.071418
   6 N :   -0.211353
   7 C :   -0.014142
   8 C :   -0.209369
   9 H :    0.215375
  10 H :    0.258575
  11 H :    0.216508
  12 H :    0.131680
  13 H :    0.140274
  14 H :    0.133795
Sum of atomic charges:    0.0000000

LOEWDIN ATOMIC CHARGES
----------------------
   0 N :   -0.052854
   1 C :   -0.358615
   2 N :    0.189267
   3 C :   -0.364204
   4 N :   -0.046117
   5 C :   -0.176458
   6 N :    0.142797
   7 C :   -0.208390
   8 C :   -0.127234
   9 H :    0.162709
  10 H :    0.216280
  11 H :    0.163838
  12 H :    0.147502
  13 H :    0.149577
  14 H :    0.161902

  Mayer bond orders larger than 0.1
B(  0-N ,  1-C ) :   1.8661 B(  0-N ,  9-H ) :   0.8704 B(  1-C ,  2-N ) :   1.0625
B(  1-C ,  8-C ) :   1.0232 B(  2-N ,  3-C ) :   1.0818 B(  2-N , 10-H ) :   0.8378
B(  3-C ,  4-N ) :   1.8256 B(  3-C ,  5-C ) :   0.9395 B(  4-N , 11-H ) :   0.8684
B(  5-C ,  6-N ) :   1.7737 B(  5-C , 12-H ) :   0.9459 B(  6-N ,  7-C ) :   1.0734
B(  7-C ,  8-C ) :   1.6154 B(  7-C , 13-H ) :   0.9417 B(  8-C , 14-H ) :   0.9099

MP2 TOTAL ENERGY:     -412.277564256 Eh
FINAL SINGLE POINT ENERGY      -412.277564256059

DIPOLE MOMENT
-------------
                                X             Y             Z
Electronic contribution:     -0.49140      -0.56859       0.34610
Nuclear contribution   :      1.36267       0.10721      -0.31138
                        -----------------------------------------
Total Dipole Moment    :      0.87127      -0.46137       0.03472
                        -----------------------------------------
Magnitude (a.u.)       :      0.98650
Magnitude (Debye)      :      2.50749

                             ****ORCA TERMINATED NORMALLY****
TOTAL RUN TIME: 0 days 0 hours 14 minutes 33 seconds 607 msec
