                         Program Version 3.0.3 - RELEASE   -
|  1> ! RI-MP2 RIJK def2-TZVP def2-TZVP/C def2-TZVP/JK TIGHTSCF
|  2> % maxcore 2000
|  3> % mp2 density relaxed end
|  4> *xyz 0 1
|  5>  C        0.0338964798    -1.2093237599    -0.0466014317
|  6>  C        0.0501974880    -0.0078563846     0.0244260799
|  7>  C        0.0414330309     1.4191939815     0.1143542699
|  8>  N        0.2823740020     2.2430625864    -1.1025606158
|  9>  C        1.2853687628     2.2544538476    -0.0329685188
| 10>  C        1.2065093584     3.4434112702     0.9249956314
| 11>  C       -0.1339712489     3.3089193327     1.6499152650
| 12>  N       -1.3211946226     3.4364496903     0.7849837124
| 13>  C       -0.8405108272     2.0952622029     1.1572965664
| 14>  H        0.0265935504    -2.2689574925    -0.1127264055
| 15>  H        0.5953287582     1.6211497658    -1.8459953841
| 16>  H        2.2471412298     1.7849080841    -0.2155258159
| 17>  H        2.0238255542     3.3790112303     1.6511539803
| 18>  H        1.2932230816     4.3967279625     0.3953151737
| 19>  H       -0.2042884840     3.6320640846     2.6841564451
| 20>  H       -2.1301339544     3.6654908687     1.3585547150
| 21>  H       -1.4413558891     1.4603855695     1.7977841628
| 22> *
| 23>
| 24>                          ****END OF INPUT****

CARTESIAN COORDINATES (ANGSTROEM)
---------------------------------
  C      0.033896   -1.209324   -0.046601
  C      0.050197   -0.007856    0.024426
  C      0.041433    1.419194    0.114354
  N      0.282374    2.243063   -1.102561
  C      1.285369    2.254454   -0.032969
  C      1.206509    3.443411    0.924996
  C     -0.133971    3.308919    1.649915
  N     -1.321195    3.436450    0.784984
  C     -0.840511    2.095262    1.157297
  H      0.026594   -2.268957   -0.112726
  H      0.595329    1.621150   -1.845995
  H      2.247141    1.784908   -0.215526
  H      2.023826    3.379011    1.651154
  H      1.293223    4.396728    0.395315
  H     -0.204288    3.632064    2.684156
  H     -2.130134    3.665491    1.358555
  H     -1.441356    1.460386    1.797784

 Total Charge           Charge          ....    0
 Multiplicity           Mult            ....    1
 Number of Electrons    NEL             ....   64
 Basis Dimension        Dim             ....  327

ORBITAL ENERGIES
----------------

  NO   OCC          E(Eh)            E(eV)
   0   2.0000     -15.564506      -423.5317
   1   2.0000     -15.557426      -423.3391
   2   2.0000     -11.286976      -307.1342
   3   2.0000     -11.268671      -306.6361
   4   2.0000     -11.265135      -306.5399
   5   2.0000     -11.261057      -306.4289
   6   2.0000     -11.242351      -305.9199
   7   2.0000     -11.231676      -305.6294
   8   2.0000     -11.231275      -305.6185
   9   2.0000      -1.299635       -35.3649
  10   2.0000      -1.242264       -33.8037
  11   2.0000      -1.046043       -28.4643
  12   2.0000      -1.020423       -27.7671
  13   2.0000      -0.948469       -25.8092
  14   2.0000      -0.865134       -23.5415
  15   2.0000      -0.816652       -22.2222
  16   2.0000      -0.780759       -21.2455
  17   2.0000      -0.752925       -20.4881
  18   2.0000      -0.710581       -19.3359
  19   2.0000      -0.679494       -18.4900
  20   2.0000      -0.610886       -16.6231
  21   2.0000      -0.594003       -16.1636
  22   2.0000      -0.567493       -15.4423
  23   2.0000      -0.549539       -14.9537
  24   2.0000      -0.510997       -13.9049
  25   2.0000      -0.493514       -13.4292
  26   2.0000      -0.472687       -12.8625
  27   2.0000      -0.451508       -12.2862
  28   2.0000      -0.429302       -11.6819
  29   2.0000      -0.402620       -10.9559
  30   2.0000      -0.374949       -10.2029
  31   2.0000      -0.347429        -9.4540
  32   0.0000       0.132348         3.6014
  33   0.0000       0.152399         4.1470
  34   0.0000       0.159375         4.3368
  35   0.0000       0.162791         4.4298
  36   0.0000       0.168995         4.5986

MULLIKEN ATOMIC CHARGES
-----------------------
   0 C :   -0.111486
   1 C :    0.098989
   2 C :   -0.067728
   3 N :   -0.337839
   4 C :   -0.125152
   5 C :   -0.126041
   6 C :   -0.070430
   7 N :   -0.355517
   8 C :   -0.160117
   9 H :    0.193685
  10 H :    0.221475
  11 H :    0.131938
  12 H :    0.112045
  13 H :    0.113955
  14 H :    0.125431
  15 H :    0.215589
  16 H :    0.141203
Sum of atomic charges:   -0.0000000

LOEWDIN ATOMIC CHARGES
----------------------
   0 C :   -0.086470
   1 C :   -0.078502
   2 C :   -0.244171
   3 N :    0.061274
   4 C :   -0.205635
   5 C :   -0.211323
   6 C :   -0.239444
   7 N :    0.022147
   8 C :   -0.196613
   9 H :    0.127885
  10 H :    0.174138
  11 H :    0.138064
  12 H :    0.145370
  13 H :    0.148361
  14 H :    0.132836
  15 H :    0.169230
  16 H :    0.142854

  Mayer bond orders larger than 0.1
B(  0-C ,  1-C ) :   2.5953 B(  0-C ,  2-C ) :  -0.1429 B(  0-C ,  9-H ) :   0.8773
B(  1-C ,  2-C ) :   1.0565 B(  1-C ,  8-C ) :  -0.1072 B(  2-C ,  3-N ) :   0.9881
B(  2-C ,  4-C ) :   0.9017 B(  2-C ,  8-C ) :   0.9515 B(  3-N ,  4-C ) :   1.0340
B(  3-N , 10-H ) :   0.8669 B(  4-C ,  5-C ) :   0.9724 B(  4-C , 11-H ) :   0.9142
B(  5-C ,  6-C ) :   0.9724 B(  5-C , 12-H ) :   0.9198 B(  5-C , 13-H ) :   0.8828
B(  6-C ,  7-N ) :   0.9460 B(  6-C ,  8-C ) :   0.9522 B(  6-C , 14-H ) :   0.9225
B(  7-N ,  8-C ) :   1.0054 B(  7-N , 15-H ) :   0.8650 B(  8-C , 16-H ) :   0.9415

MP2 TOTAL ENERGY:     -380.104156647 Eh
FINAL SINGLE POINT ENERGY      -380.104156646934

DIPOLE MOMENT
-------------
                                X             Y             Z
Electronic contribution:     -1.39605      -2.41992      -1.66661
Nuclear contribution   :      1.77942       2.02538       2.42711
                        -----------------------------------------
Total Dipole Moment    :      0.38337      -0.39454       0.76050
                        -----------------------------------------
Magnitude (a.u.)       :      0.93861
Magnitude (Debye)      :      2.38577

                             ****ORCA TERMINATED NORMALLY****
TOTAL RUN TIME: 0 days 0 hours 18 minutes 12 seconds 841 msec
