                         Program Version 3.0.3 - RELEASE   -
|  1> ! RI-MP2 RIJK def2-TZVP def2-TZVP/C def2-TZVP/JK TIGHTSCF
|  2> % maxcore 2000
|  3> % mp2 density relaxed end
|  4> *xyz 0 1
|  5>  C       -0.1588494667     1.5747701806     0.0410696585
|  6>  C        0.1866492922     0.0893580824    -0.1166686113
|  7>  C        0.8118709834    -0.5079815653     1.1370816914
|  8>  C       -0.0760550264    -0.8641405350     2.3541788791
|  9>  C       -0.5726743885    -2.2092369688     1.7129190099
| 10>  C       -0.1938452910    -2.9979465471     2.9821881464
| 11>  O        0.0942958127    -4.3706305507     2.9052511986
| 12>  C        0.9332023947    -1.9555607559     2.8522409140
| 13>  C        0.9353401508    -2.0404459706     1.2810190466
| 14>  H        0.7330153367     2.1643124122     0.2814338025
| 15>  H       -0.5908963428     1.9843300269    -0.8771841160
| 16>  H       -0.8834830133     1.7299668154     0.8477294825
| 17>  H       -0.7167599592    -0.4721400575    -0.3852254012
| 18>  H        0.8845296932    -0.0355141313    -0.9555270071
| 19>  H        1.7275313994     0.0377585034     1.4046964265
| 20>  H       -0.6683346966    -0.2117425259     2.9980864401
| 21>  H       -1.4302568017    -2.3411030756     1.0525189130
| 22>  H       -0.8629736573    -2.8781937095     3.8402021178
| 23>  H        0.6828990164    -4.5147610990     2.1562272616
| 24>  H        1.8044266271    -1.7800522857     3.4857771503
| 25>  H        1.5191493967    -2.7284215830     0.6645170468
| 26> *
| 27>
| 28>                          ****END OF INPUT****

CARTESIAN COORDINATES (ANGSTROEM)
---------------------------------
  C     -0.158849    1.574770    0.041070
  C      0.186649    0.089358   -0.116669
  C      0.811871   -0.507982    1.137082
  C     -0.076055   -0.864141    2.354179
  C     -0.572674   -2.209237    1.712919
  C     -0.193845   -2.997947    2.982188
  O      0.094296   -4.370631    2.905251
  C      0.933202   -1.955561    2.852241
  C      0.935340   -2.040446    1.281019
  H      0.733015    2.164312    0.281434
  H     -0.590896    1.984330   -0.877184
  H     -0.883483    1.729967    0.847729
  H     -0.716760   -0.472140   -0.385225
  H      0.884530   -0.035514   -0.955527
  H      1.727531    0.037759    1.404696
  H     -0.668335   -0.211743    2.998086
  H     -1.430257   -2.341103    1.052519
  H     -0.862974   -2.878194    3.840202
  H      0.682899   -4.514761    2.156227
  H      1.804427   -1.780052    3.485777
  H      1.519149   -2.728422    0.664517

 Total Charge           Charge          ....    0
 Multiplicity           Mult            ....    1
 Number of Electrons    NEL             ....   68
 Basis Dimension        Dim             ....  351

ORBITAL ENERGIES
----------------

  NO   OCC          E(Eh)            E(eV)
   0   2.0000     -20.553034      -559.2765
   1   2.0000     -11.279813      -306.9393
   2   2.0000     -11.246364      -306.0291
   3   2.0000     -11.245127      -305.9955
   4   2.0000     -11.240634      -305.8732
   5   2.0000     -11.240463      -305.8685
   6   2.0000     -11.232278      -305.6458
   7   2.0000     -11.220147      -305.3157
   8   2.0000     -11.214717      -305.1680
   9   2.0000      -1.363534       -37.1037
  10   2.0000      -1.239249       -33.7217
  11   2.0000      -1.054967       -28.7071
  12   2.0000      -0.970420       -26.4065
  13   2.0000      -0.873613       -23.7722
  14   2.0000      -0.867263       -23.5994
  15   2.0000      -0.860327       -23.4107
  16   2.0000      -0.792011       -21.5517
  17   2.0000      -0.706031       -19.2121
  18   2.0000      -0.685234       -18.6462
  19   2.0000      -0.675157       -18.3720
  20   2.0000      -0.624441       -16.9919
  21   2.0000      -0.612959       -16.6795
  22   2.0000      -0.587837       -15.9959
  23   2.0000      -0.574712       -15.6387
  24   2.0000      -0.549039       -14.9401
  25   2.0000      -0.529979       -14.4215
  26   2.0000      -0.509777       -13.8717
  27   2.0000      -0.488296       -13.2872
  28   2.0000      -0.457665       -12.4537
  29   2.0000      -0.433973       -11.8090
  30   2.0000      -0.430687       -11.7196
  31   2.0000      -0.426809       -11.6141
  32   2.0000      -0.415937       -11.3182
  33   2.0000      -0.406854       -11.0711
  34   0.0000       0.137536         3.7425
  35   0.0000       0.139826         3.8049
  36   0.0000       0.159831         4.3492
  37   0.0000       0.163484         4.4486
  38   0.0000       0.178894         4.8679

MULLIKEN ATOMIC CHARGES
-----------------------
   0 C :   -0.402356
   1 C :   -0.205823
   2 C :   -0.054808
   3 C :   -0.159416
   4 C :   -0.142263
   5 C :    0.087665
   6 O :   -0.464897
   7 C :   -0.118673
   8 C :   -0.161647
   9 H :    0.124914
  10 H :    0.134340
  11 H :    0.126507
  12 H :    0.111877
  13 H :    0.109261
  14 H :    0.093942
  15 H :    0.129244
  16 H :    0.127198
  17 H :    0.105621
  18 H :    0.315055
  19 H :    0.123680
  20 H :    0.120578
Sum of atomic charges:   -0.0000000

LOEWDIN ATOMIC CHARGES
----------------------
   0 C :   -0.316494
   1 C :   -0.273638
   2 C :   -0.197211
   3 C :   -0.117659
   4 C :   -0.130882
   5 C :   -0.297929
   6 O :   -0.013497
   7 C :   -0.128074
   8 C :   -0.131961
   9 H :    0.120879
  10 H :    0.120596
  11 H :    0.120843
  12 H :    0.139224
  13 H :    0.137887
  14 H :    0.145678
  15 H :    0.128709
  16 H :    0.126783
  17 H :    0.138075
  18 H :    0.176586
  19 H :    0.128551
  20 H :    0.123536

  Mayer bond orders larger than 0.1
B(  0-C ,  1-C ) :   0.9147 B(  0-C ,  9-H ) :   0.9396 B(  0-C , 10-H ) :   0.9407
B(  0-C , 11-H ) :   0.9400 B(  1-C ,  2-C ) :   0.9071 B(  1-C , 12-H ) :   0.9297
B(  1-C , 13-H ) :   0.9350 B(  2-C ,  3-C ) :   0.9025 B(  2-C ,  8-C ) :   0.8912
B(  2-C , 14-H ) :   0.9202 B(  3-C ,  4-C ) :   0.8392 B(  3-C ,  7-C ) :   0.8466
B(  3-C , 15-H ) :   0.8972 B(  4-C ,  5-C ) :   0.8961 B(  4-C ,  8-C ) :   0.8186
B(  4-C , 16-H ) :   0.9114 B(  5-C ,  6-O ) :   0.9781 B(  5-C ,  7-C ) :   0.8964
B(  5-C , 17-H ) :   0.9590 B(  6-O , 18-H ) :   0.8405 B(  7-C ,  8-C ) :   0.8199
B(  7-C , 19-H ) :   0.9157 B(  8-C , 20-H ) :   0.9057

MP2 TOTAL ENERGY:     -386.342371301 Eh
FINAL SINGLE POINT ENERGY      -386.342371301395

DIPOLE MOMENT
-------------
                                X             Y             Z
Electronic contribution:      0.53948      -7.82484       4.76815
Nuclear contribution   :     -0.30799       8.34036      -5.23832
                        -----------------------------------------
Total Dipole Moment    :      0.23150       0.51552      -0.47017
                        -----------------------------------------
Magnitude (a.u.)       :      0.73513
Magnitude (Debye)      :      1.86855

                             ****ORCA TERMINATED NORMALLY****
TOTAL RUN TIME: 0 days 0 hours 17 minutes 53 seconds 659 msec
