                         Program Version 3.0.3 - RELEASE   -
|  1> ! RI-MP2 RIJK def2-TZVP def2-TZVP/C def2-TZVP/JK TIGHTSCF
|  2> % maxcore 2000
|  3> % mp2 density relaxed end
|  4> *xyz 0 1
|  5>  C        0.0065940552     1.4607060600     0.0245922763
|  6>  N       -0.0172515365     0.0121543846     0.0309786456
|  7>  C       -0.1460966932    -0.8281234376    -1.0542405881
|  8>  N       -0.1390563110    -2.1229523742    -0.7720703219
|  9>  C        0.0046414760    -2.1115469552     0.5850111232
| 10>  C        0.0818572987    -0.8397130168     1.1109759290
| 11>  N        0.2225226210    -0.8612742821     2.4535888963
| 12>  N        0.2375575831    -2.1275236946     2.8010192407
| 13>  N        0.1063943899    -2.9019419522     1.6793537061
| 14>  H        0.9495866315     1.8323475386     0.4356332270
| 15>  H       -0.0949581665     1.8113709499    -1.0040119894
| 16>  H       -0.8180943262     1.8622479785     0.6203724120
| 17>  H       -0.2441390503    -0.4218248239    -2.0513126798
| 18>  H        0.1009312683    -3.9029098449     1.7818800631
| 19> *
| 20>
| 21>                          ****END OF INPUT****

CARTESIAN COORDINATES (ANGSTROEM)
---------------------------------
  C      0.006594    1.460706    0.024592
  N     -0.017252    0.012154    0.030979
  C     -0.146097   -0.828123   -1.054241
  N     -0.139056   -2.122952   -0.772070
  C      0.004641   -2.111547    0.585011
  C      0.081857   -0.839713    1.110976
  N      0.222523   -0.861274    2.453589
  N      0.237558   -2.127524    2.801019
  N      0.106394   -2.901942    1.679354
  H      0.949587    1.832348    0.435633
  H     -0.094958    1.811371   -1.004012
  H     -0.818094    1.862248    0.620372
  H     -0.244139   -0.421825   -2.051313
  H      0.100931   -3.902910    1.781880

 Total Charge           Charge          ....    0
 Multiplicity           Mult            ....    1
 Number of Electrons    NEL             ....   64
 Basis Dimension        Dim             ....  309

ORBITAL ENERGIES
----------------

  NO   OCC          E(Eh)            E(eV)
   0   2.0000     -15.652290      -425.9205
   1   2.0000     -15.642006      -425.6406
   2   2.0000     -15.638963      -425.5578
   3   2.0000     -15.607046      -424.6893
   4   2.0000     -15.571913      -423.7333
   5   2.0000     -11.329756      -308.2983
   6   2.0000     -11.294893      -307.3497
   7   2.0000     -11.293441      -307.3102
   8   2.0000     -11.278329      -306.8989
   9   2.0000      -1.432711       -38.9861
  10   2.0000      -1.352886       -36.8139
  11   2.0000      -1.229673       -33.4611
  12   2.0000      -1.182147       -32.1678
  13   2.0000      -1.058739       -28.8097
  14   2.0000      -0.987328       -26.8666
  15   2.0000      -0.889306       -24.1992
  16   2.0000      -0.859407       -23.3857
  17   2.0000      -0.808233       -21.9931
  18   2.0000      -0.736130       -20.0311
  19   2.0000      -0.695872       -18.9356
  20   2.0000      -0.680476       -18.5167
  21   2.0000      -0.641881       -17.4665
  22   2.0000      -0.627235       -17.0679
  23   2.0000      -0.610607       -16.6155
  24   2.0000      -0.586003       -15.9460
  25   2.0000      -0.546152       -14.8615
  26   2.0000      -0.527727       -14.3602
  27   2.0000      -0.471051       -12.8180
  28   2.0000      -0.462406       -12.5827
  29   2.0000      -0.435288       -11.8448
  30   2.0000      -0.371320       -10.1041
  31   2.0000      -0.316754        -8.6193
  32   0.0000       0.108811         2.9609
  33   0.0000       0.128155         3.4873
  34   0.0000       0.141220         3.8428
  35   0.0000       0.162980         4.4349
  36   0.0000       0.184107         5.0098

MULLIKEN ATOMIC CHARGES
-----------------------
   0 C :   -0.314817
   1 N :   -0.060017
   2 C :    0.006216
   3 N :   -0.284448
   4 C :    0.056594
   5 C :    0.071034
   6 N :   -0.158979
   7 N :   -0.106872
   8 N :   -0.111245
   9 H :    0.163641
  10 H :    0.149711
  11 H :    0.163622
  12 H :    0.156077
  13 H :    0.269484
Sum of atomic charges:   -0.0000000

LOEWDIN ATOMIC CHARGES
----------------------
   0 C :   -0.260896
   1 N :    0.239111
   2 C :   -0.264585
   3 N :    0.100457
   4 C :   -0.329377
   5 C :   -0.313065
   6 N :    0.010352
   7 N :   -0.036536
   8 N :    0.138788
   9 H :    0.129483
  10 H :    0.129844
  11 H :    0.129471
  12 H :    0.135410
  13 H :    0.191542

  Mayer bond orders larger than 0.1
B(  0-C ,  1-N ) :   0.8650 B(  0-C ,  9-H ) :   0.9276 B(  0-C , 10-H ) :   0.9280
B(  0-C , 11-H ) :   0.9276 B(  1-N ,  2-C ) :   1.1637 B(  1-N ,  5-C ) :   1.1068
B(  2-C ,  3-N ) :   1.5255 B(  2-C , 12-H ) :   0.9187 B(  3-N ,  4-C ) :   1.3140
B(  4-C ,  5-C ) :   1.2541 B(  4-C ,  7-N ) :   0.1123 B(  4-C ,  8-N ) :   1.1679
B(  5-C ,  6-N ) :   1.4066 B(  6-N ,  7-N ) :   1.2747 B(  7-N ,  8-N ) :   1.0191
B(  8-N , 13-H ) :   0.8572

MP2 TOTAL ENERGY:     -428.328894730 Eh
FINAL SINGLE POINT ENERGY      -428.328894729522

DIPOLE MOMENT
-------------
                                X             Y             Z
Electronic contribution:      0.19067      -5.70853       2.73660
Nuclear contribution   :     -0.28948       6.38108      -3.79258
                        -----------------------------------------
Total Dipole Moment    :     -0.09881       0.67256      -1.05597
                        -----------------------------------------
Magnitude (a.u.)       :      1.25586
Magnitude (Debye)      :      3.19213

                             ****ORCA TERMINATED NORMALLY****
TOTAL RUN TIME: 0 days 0 hours 16 minutes 35 seconds 91 msec
