                         Program Version 3.0.3 - RELEASE   -
|  1> ! RI-MP2 RIJK def2-TZVP def2-TZVP/C def2-TZVP/JK TIGHTSCF
|  2> % maxcore 2000
|  3> % mp2 density relaxed end
|  4> *xyz 0 1
|  5>  O       -0.4699679220     1.3856609364    -0.4394854001
|  6>  C        0.0378339571     0.1203471952    -0.0239764046
|  7>  C       -1.1710584600    -0.8177317545     0.2285817835
|  8>  C       -1.4837277488    -1.5473084673    -1.1195282210
|  9>  C       -0.1472336318    -1.5133476929    -1.8012636065
| 10>  C        0.6143793197    -1.9997908308    -2.8086091226
| 11>  O        1.8385502980    -1.4198882521    -2.7784350014
| 12>  N        1.9014922952    -0.5121762460    -1.7126230036
| 13>  C        0.7213704162    -0.5921438299    -1.1633121660
| 14>  H        0.2669394452     1.8980456227    -0.7894716865
| 15>  H        0.6708551030     0.2279511925     0.8657304645
| 16>  H       -0.8870443488    -1.5586867706     0.9821533537
| 17>  H       -2.0188281953    -0.2486017505     0.6152714455
| 18>  H       -1.8771518174    -2.5540762625    -0.9563989230
| 19>  H       -2.2331621990    -0.9954531280    -1.6973480443
| 20>  H        0.4735126387    -2.7248778115    -3.5948791177
| 21> *
| 22>
| 23>                          ****END OF INPUT****

CARTESIAN COORDINATES (ANGSTROEM)
---------------------------------
  O     -0.469968    1.385661   -0.439485
  C      0.037834    0.120347   -0.023976
  C     -1.171058   -0.817732    0.228582
  C     -1.483728   -1.547308   -1.119528
  C     -0.147234   -1.513348   -1.801264
  C      0.614379   -1.999791   -2.808609
  O      1.838550   -1.419888   -2.778435
  N      1.901492   -0.512176   -1.712623
  C      0.721370   -0.592144   -1.163312
  H      0.266939    1.898046   -0.789472
  H      0.670855    0.227951    0.865730
  H     -0.887044   -1.558687    0.982153
  H     -2.018828   -0.248602    0.615271
  H     -1.877152   -2.554076   -0.956399
  H     -2.233162   -0.995453   -1.697348
  H      0.473513   -2.724878   -3.594879

 Total Charge           Charge          ....    0
 Multiplicity           Mult            ....    1
 Number of Electrons    NEL             ....   66
 Basis Dimension        Dim             ....  321

ORBITAL ENERGIES
----------------

  NO   OCC          E(Eh)            E(eV)
   0   2.0000     -20.640764      -561.6637
   1   2.0000     -20.570537      -559.7528
   2   2.0000     -15.623397      -425.1342
   3   2.0000     -11.313466      -307.8551
   4   2.0000     -11.306832      -307.6745
   5   2.0000     -11.272798      -306.7484
   6   2.0000     -11.250478      -306.1411
   7   2.0000     -11.242404      -305.9214
   8   2.0000     -11.238058      -305.8031
   9   2.0000      -1.484809       -40.4037
  10   2.0000      -1.376755       -37.4634
  11   2.0000      -1.179800       -32.1040
  12   2.0000      -1.116617       -30.3847
  13   2.0000      -1.030076       -28.0298
  14   2.0000      -0.957090       -26.0437
  15   2.0000      -0.854612       -23.2552
  16   2.0000      -0.807611       -21.9762
  17   2.0000      -0.778180       -21.1754
  18   2.0000      -0.720774       -19.6132
  19   2.0000      -0.704530       -19.1712
  20   2.0000      -0.657616       -17.8946
  21   2.0000      -0.621058       -16.8998
  22   2.0000      -0.610573       -16.6145
  23   2.0000      -0.599559       -16.3148
  24   2.0000      -0.573027       -15.5929
  25   2.0000      -0.565575       -15.3901
  26   2.0000      -0.521137       -14.1809
  27   2.0000      -0.513708       -13.9787
  28   2.0000      -0.492492       -13.4014
  29   2.0000      -0.476963       -12.9788
  30   2.0000      -0.456840       -12.4312
  31   2.0000      -0.415896       -11.3171
  32   2.0000      -0.360336        -9.8052
  33   0.0000       0.110295         3.0013
  34   0.0000       0.132979         3.6185
  35   0.0000       0.155448         4.2300
  36   0.0000       0.163078         4.4376
  37   0.0000       0.176274         4.7967

MULLIKEN ATOMIC CHARGES
-----------------------
   0 O :   -0.474910
   1 C :    0.143235
   2 C :   -0.218982
   3 C :   -0.214046
   4 C :   -0.115436
   5 C :   -0.008606
   6 O :   -0.097797
   7 N :   -0.100142
   8 C :   -0.046531
   9 H :    0.323719
  10 H :    0.113724
  11 H :    0.125252
  12 H :    0.137759
  13 H :    0.135352
  14 H :    0.134487
  15 H :    0.162921
Sum of atomic charges:    0.0000000

LOEWDIN ATOMIC CHARGES
----------------------
   0 O :   -0.015671
   1 C :   -0.289853
   2 C :   -0.202374
   3 C :   -0.201557
   4 C :   -0.163435
   5 C :   -0.230667
   6 O :    0.269458
   7 N :    0.057335
   8 C :   -0.256759
   9 H :    0.179982
  10 H :    0.139042
  11 H :    0.143070
  12 H :    0.141673
  13 H :    0.141657
  14 H :    0.149551
  15 H :    0.138548

  Mayer bond orders larger than 0.1
B(  0-O ,  1-C ) :   0.9438 B(  0-O ,  9-H ) :   0.8409 B(  1-C ,  2-C ) :   0.8846
B(  1-C ,  8-C ) :   0.9078 B(  1-C , 10-H ) :   0.9610 B(  2-C ,  3-C ) :   0.9651
B(  2-C , 11-H ) :   0.9231 B(  2-C , 12-H ) :   0.9326 B(  3-C ,  4-C ) :   0.9132
B(  3-C , 13-H ) :   0.9261 B(  3-C , 14-H ) :   0.8956 B(  4-C ,  5-C ) :   1.5162
B(  4-C ,  8-C ) :   1.1557 B(  5-C ,  6-O ) :   1.1176 B(  5-C ,  7-N ) :   0.1122
B(  5-C , 15-H ) :   0.9132 B(  6-O ,  7-N ) :   0.8975 B(  7-N ,  8-C ) :   1.6500

MP2 TOTAL ENERGY:     -437.157891298 Eh
FINAL SINGLE POINT ENERGY      -437.157891297846

DIPOLE MOMENT
-------------
                                X             Y             Z
Electronic contribution:      5.85976       0.30157      -3.96515
Nuclear contribution   :     -6.58495      -0.84226       4.11515
                        -----------------------------------------
Total Dipole Moment    :     -0.72519      -0.54070       0.15000
                        -----------------------------------------
Magnitude (a.u.)       :      0.91693
Magnitude (Debye)      :      2.33064

                             ****ORCA TERMINATED NORMALLY****
TOTAL RUN TIME: 0 days 0 hours 18 minutes 12 seconds 627 msec
