                         Program Version 3.0.3 - RELEASE   -
|  1> ! RI-MP2 RIJK def2-TZVP def2-TZVP/C def2-TZVP/JK TIGHTSCF
|  2> % maxcore 2000
|  3> % mp2 density relaxed end
|  4> *xyz 0 1
|  5>  C       -0.0596677778     1.5227313718     0.0165582544
|  6>  C        1.4339830458     1.9042361035    -0.0443373152
|  7>  N        2.1897501179     1.4907321419     1.1450085637
|  8>  C        2.3049714486     0.6768831229    -0.0941203085
|  9>  C        1.3546781349    -0.4540166998    -0.0493772886
| 10>  N        1.3630092366    -1.7494210117    -0.0746184465
| 11>  O        0.0257587418    -2.0984477221     0.0225976398
| 12>  N       -0.7957836000    -0.9851284619     0.1049679473
| 13>  C        0.0184991460     0.0215146122     0.0540029090
| 14>  H       -0.5442173286     1.9465703401     0.9002990177
| 15>  H       -0.5976199602     1.8760209138    -0.8689864027
| 16>  H        1.7225886580     2.8125184670    -0.5618648752
| 17>  H        3.0238742937     2.0660274376     1.2399656507
| 18>  H        3.2420402232     0.6319784947    -0.6338157759
| 19> *
| 20>
| 21>                          ****END OF INPUT****

CARTESIAN COORDINATES (ANGSTROEM)
---------------------------------
  C     -0.059668    1.522731    0.016558
  C      1.433983    1.904236   -0.044337
  N      2.189750    1.490732    1.145009
  C      2.304971    0.676883   -0.094120
  C      1.354678   -0.454017   -0.049377
  N      1.363009   -1.749421   -0.074618
  O      0.025759   -2.098448    0.022598
  N     -0.795784   -0.985128    0.104968
  C      0.018499    0.021515    0.054003
  H     -0.544217    1.946570    0.900299
  H     -0.597620    1.876021   -0.868986
  H      1.722589    2.812518   -0.561865
  H      3.023874    2.066027    1.239966
  H      3.242040    0.631978   -0.633816

 Total Charge           Charge          ....    0
 Multiplicity           Mult            ....    1
 Number of Electrons    NEL             ....   64
 Basis Dimension        Dim             ....  309

ORBITAL ENERGIES
----------------

  NO   OCC          E(Eh)            E(eV)
   0   2.0000     -20.663957      -562.2949
   1   2.0000     -15.648879      -425.8276
   2   2.0000     -15.647025      -425.7772
   3   2.0000     -15.595570      -424.3770
   4   2.0000     -11.304291      -307.6054
   5   2.0000     -11.301557      -307.5310
   6   2.0000     -11.289781      -307.2106
   7   2.0000     -11.288659      -307.1800
   8   2.0000     -11.271736      -306.7195
   9   2.0000      -1.520384       -41.3718
  10   2.0000      -1.311368       -35.6841
  11   2.0000      -1.206036       -32.8179
  12   2.0000      -1.175562       -31.9887
  13   2.0000      -1.042047       -28.3555
  14   2.0000      -0.958693       -26.0874
  15   2.0000      -0.864873       -23.5344
  16   2.0000      -0.818111       -22.2619
  17   2.0000      -0.801918       -21.8213
  18   2.0000      -0.736980       -20.0543
  19   2.0000      -0.681344       -18.5403
  20   2.0000      -0.674206       -18.3461
  21   2.0000      -0.635996       -17.3063
  22   2.0000      -0.619309       -16.8523
  23   2.0000      -0.594368       -16.1736
  24   2.0000      -0.547869       -14.9083
  25   2.0000      -0.532926       -14.5016
  26   2.0000      -0.512778       -13.9534
  27   2.0000      -0.490365       -13.3435
  28   2.0000      -0.486369       -13.2348
  29   2.0000      -0.434047       -11.8110
  30   2.0000      -0.417814       -11.3693
  31   2.0000      -0.402764       -10.9598
  32   0.0000       0.091422         2.4877
  33   0.0000       0.123227         3.3532
  34   0.0000       0.146005         3.9730
  35   0.0000       0.160617         4.3706
  36   0.0000       0.167588         4.5603

MULLIKEN ATOMIC CHARGES
-----------------------
   0 C :   -0.142743
   1 C :   -0.034951
   2 N :   -0.364341
   3 C :   -0.116217
   4 C :    0.043164
   5 N :   -0.069968
   6 O :   -0.016550
   7 N :   -0.077359
   8 C :   -0.034346
   9 H :    0.142941
  10 H :    0.140578
  11 H :    0.145152
  12 H :    0.227041
  13 H :    0.157601
Sum of atomic charges:    0.0000000

LOEWDIN ATOMIC CHARGES
----------------------
   0 C :   -0.178788
   1 C :   -0.219536
   2 N :    0.023246
   3 C :   -0.193039
   4 C :   -0.258752
   5 N :    0.063359
   6 O :    0.191479
   7 N :    0.059408
   8 C :   -0.254435
   9 H :    0.156879
  10 H :    0.153122
  11 H :    0.137622
  12 H :    0.174447
  13 H :    0.144990

  Mayer bond orders larger than 0.1
B(  0-C ,  1-C ) :   0.9490 B(  0-C ,  8-C ) :   0.9696 B(  0-C ,  9-H ) :   0.8891
B(  0-C , 10-H ) :   0.9146 B(  1-C ,  2-N ) :   0.9334 B(  1-C ,  3-C ) :   0.8988
B(  1-C , 11-H ) :   0.9162 B(  2-N ,  3-C ) :   0.9995 B(  2-N , 12-H ) :   0.8671
B(  3-C ,  4-C ) :   0.9619 B(  3-C , 13-H ) :   0.9135 B(  4-C ,  5-N ) :   1.6645
B(  4-C ,  8-C ) :   1.1698 B(  5-N ,  6-O ) :   0.9232 B(  5-N ,  7-N ) :   0.1229
B(  6-O ,  7-N ) :   0.9206 B(  7-N ,  8-C ) :   1.6423

MP2 TOTAL ENERGY:     -432.073649414 Eh
FINAL SINGLE POINT ENERGY      -432.073649413546

DIPOLE MOMENT
-------------
                                X             Y             Z
Electronic contribution:     -1.54582      -6.69810       0.01144
Nuclear contribution   :      2.34960       8.62199      -0.51650
                        -----------------------------------------
Total Dipole Moment    :      0.80378       1.92388      -0.50506
                        -----------------------------------------
Magnitude (a.u.)       :      2.14534
Magnitude (Debye)      :      5.45301

                             ****ORCA TERMINATED NORMALLY****
TOTAL RUN TIME: 0 days 0 hours 14 minutes 38 seconds 256 msec
