                         Program Version 3.0.3 - RELEASE   -
|  1> ! RI-MP2 RIJK def2-TZVP def2-TZVP/C def2-TZVP/JK TIGHTSCF
|  2> % maxcore 2000
|  3> % mp2 density relaxed end
|  4> *xyz 0 1
|  5>  N       -0.0974588916     1.2836583201     0.0237361047
|  6>  C       -0.0008245639     0.0226369272    -0.0350249388
|  7>  N        1.1189503010    -0.8243103569    -0.1209138388
|  8>  C        0.6201120450    -2.2151145621    -0.0222390277
|  9>  C       -0.6545932104    -2.1020016147    -0.8764228949
| 10>  C       -1.1729176066    -0.9510080418     0.0001332736
| 11>  O       -1.1267126544    -1.5462401386     1.3369317056
| 12>  C       -0.0192126836    -2.3547502584     1.3707022750
| 13>  O        0.3287001534    -2.9669195182     2.3349246276
| 14>  H        0.8203597821     1.7344255682     0.0202718359
| 15>  H        1.9421895071    -0.5782230484     0.4121786283
| 16>  H        1.3708857048    -2.9619807992    -0.2646373238
| 17>  H       -0.4505631594    -1.8159912653    -1.9092330228
| 18>  H       -1.2945532640    -2.9848214757    -0.8310329000
| 19>  H       -2.1574959596    -0.5264278463    -0.1642206338
| 20> *
| 21>
| 22>                          ****END OF INPUT****

CARTESIAN COORDINATES (ANGSTROEM)
---------------------------------
  N     -0.097459    1.283658    0.023736
  C     -0.000825    0.022637   -0.035025
  N      1.118950   -0.824310   -0.120914
  C      0.620112   -2.215115   -0.022239
  C     -0.654593   -2.102002   -0.876423
  C     -1.172918   -0.951008    0.000133
  O     -1.126713   -1.546240    1.336932
  C     -0.019213   -2.354750    1.370702
  O      0.328700   -2.966920    2.334925
  H      0.820360    1.734426    0.020272
  H      1.942190   -0.578223    0.412179
  H      1.370886   -2.961981   -0.264637
  H     -0.450563   -1.815991   -1.909233
  H     -1.294553   -2.984821   -0.831033
  H     -2.157496   -0.526428   -0.164221

 Total Charge           Charge          ....    0
 Multiplicity           Mult            ....    1
 Number of Electrons    NEL             ....   66
 Basis Dimension        Dim             ....  315

ORBITAL ENERGIES
----------------

  NO   OCC          E(Eh)            E(eV)
   0   2.0000     -20.615805      -560.9846
   1   2.0000     -20.560273      -559.4735
   2   2.0000     -15.607043      -424.6892
   3   2.0000     -15.552543      -423.2062
   4   2.0000     -11.391245      -309.9715
   5   2.0000     -11.335077      -308.4431
   6   2.0000     -11.326880      -308.2201
   7   2.0000     -11.314852      -307.8928
   8   2.0000     -11.270923      -306.6974
   9   2.0000      -1.475340       -40.1460
  10   2.0000      -1.387245       -37.7488
  11   2.0000      -1.301030       -35.4028
  12   2.0000      -1.195152       -32.5217
  13   2.0000      -1.079365       -29.3710
  14   2.0000      -1.004342       -27.3295
  15   2.0000      -0.877370       -23.8744
  16   2.0000      -0.844044       -22.9676
  17   2.0000      -0.775632       -21.1060
  18   2.0000      -0.742917       -20.2158
  19   2.0000      -0.717936       -19.5360
  20   2.0000      -0.687114       -18.6973
  21   2.0000      -0.669767       -18.2253
  22   2.0000      -0.628462       -17.1013
  23   2.0000      -0.606093       -16.4926
  24   2.0000      -0.591989       -16.1088
  25   2.0000      -0.566779       -15.4229
  26   2.0000      -0.555048       -15.1036
  27   2.0000      -0.543684       -14.7944
  28   2.0000      -0.530393       -14.4327
  29   2.0000      -0.479181       -13.0392
  30   2.0000      -0.455208       -12.3868
  31   2.0000      -0.435352       -11.8465
  32   2.0000      -0.387022       -10.5314
  33   0.0000       0.118146         3.2149
  34   0.0000       0.138743         3.7754
  35   0.0000       0.152518         4.1502
  36   0.0000       0.155217         4.2237
  37   0.0000       0.169277         4.6063

MULLIKEN ATOMIC CHARGES
-----------------------
   0 N :   -0.326709
   1 C :   -0.037572
   2 N :   -0.325311
   3 C :    0.022107
   4 C :   -0.304746
   5 C :    0.186661
   6 O :   -0.227582
   7 C :    0.192547
   8 O :   -0.261976
   9 H :    0.212095
  10 H :    0.245758
  11 H :    0.164189
  12 H :    0.148527
  13 H :    0.154286
  14 H :    0.157726
Sum of atomic charges:   -0.0000000

LOEWDIN ATOMIC CHARGES
----------------------
   0 N :   -0.046833
   1 C :   -0.357595
   2 N :    0.102109
   3 C :   -0.229282
   4 C :   -0.191776
   5 C :   -0.204554
   6 O :    0.270281
   7 C :   -0.444691
   8 O :    0.151825
   9 H :    0.164140
  10 H :    0.183959
  11 H :    0.151780
  12 H :    0.149934
  13 H :    0.149161
  14 H :    0.151542

  Mayer bond orders larger than 0.1
B(  0-N ,  1-C ) :   2.1112 B(  0-N ,  9-H ) :   0.8545 B(  1-C ,  2-N ) :   1.1112
B(  1-C ,  5-C ) :   0.8887 B(  2-N ,  3-C ) :   0.8945 B(  2-N , 10-H ) :   0.8620
B(  3-C ,  4-C ) :   0.9189 B(  3-C ,  7-C ) :   0.9325 B(  3-C , 11-H ) :   0.9000
B(  4-C ,  5-C ) :   0.9437 B(  4-C , 12-H ) :   0.9160 B(  4-C , 13-H ) :   0.9172
B(  5-C ,  6-O ) :   0.8180 B(  5-C , 14-H ) :   0.9198 B(  6-O ,  7-C ) :   1.1098
B(  7-C ,  8-O ) :   2.0486

MP2 TOTAL ENERGY:     -453.253807905 Eh
FINAL SINGLE POINT ENERGY      -453.253807904743

DIPOLE MOMENT
-------------
                                X             Y             Z
Electronic contribution:     -0.15347      -0.87447       3.89342
Nuclear contribution   :      0.79343       0.62774      -5.20555
                        -----------------------------------------
Total Dipole Moment    :      0.63996      -0.24673      -1.31213
                        -----------------------------------------
Magnitude (a.u.)       :      1.48057
Magnitude (Debye)      :      3.76332

                             ****ORCA TERMINATED NORMALLY****
TOTAL RUN TIME: 0 days 0 hours 17 minutes 8 seconds 63 msec
