                         Program Version 3.0.3 - RELEASE   -
|  1> ! RI-MP2 RIJK def2-TZVP def2-TZVP/C def2-TZVP/JK TIGHTSCF
|  2> % maxcore 2000
|  3> % mp2 density relaxed end
|  4> *xyz 0 1
|  5>  C       -0.1068704384     1.5771919737     0.1122652034
|  6>  C        0.0499158436     0.0665932181     0.0020855770
|  7>  C        1.2055311544    -0.5964406437    -0.7973941954
|  8>  C        2.1794890147    -0.1973241619     0.3725924906
|  9>  C        0.8924297891    -0.7586795043     1.0498175428
| 10>  C        0.3380998752    -1.3158629986     2.3384819656
| 11>  C       -0.7217215557    -2.3406562219     1.7911617344
| 12>  C       -0.3492108080    -2.7022193846     0.2963680961
| 13>  C        0.9387867155    -1.9072935863     0.0256372961
| 14>  H        0.8253179366     2.1045832495     0.3291832135
| 15>  H       -0.5070484708     1.9882058215    -0.8217813742
| 16>  H       -0.8192203483     1.8295539838     0.9063067370
| 17>  H       -0.9293577850    -0.3682824012    -0.2154412998
| 18>  H        1.4106581734    -0.5012426040    -1.8662671738
| 19>  H        3.0805134437    -0.8089208700     0.4765565309
| 20>  H        2.4161571736     0.8604213094     0.4899667373
| 21>  H        1.1224108886    -1.8332617131     2.9031442567
| 22>  H       -0.1169365971    -0.5773631197     3.0057463574
| 23>  H       -0.7634480708    -3.2333378055     2.4213211861
| 24>  H       -1.7187377026    -1.8917514155     1.8259187712
| 25>  H       -0.1702633222    -3.7746085021     0.1835808533
| 26>  H       -1.1768602930    -2.4570524871    -0.3737524762
| 27>  H        1.8259225634    -2.5440190565     0.1111489601
| 28> *
| 29>
| 30>                          ****END OF INPUT****

CARTESIAN COORDINATES (ANGSTROEM)
---------------------------------
  C     -0.106870    1.577192    0.112265
  C      0.049916    0.066593    0.002086
  C      1.205531   -0.596441   -0.797394
  C      2.179489   -0.197324    0.372592
  C      0.892430   -0.758680    1.049818
  C      0.338100   -1.315863    2.338482
  C     -0.721722   -2.340656    1.791162
  C     -0.349211   -2.702219    0.296368
  C      0.938787   -1.907294    0.025637
  H      0.825318    2.104583    0.329183
  H     -0.507048    1.988206   -0.821781
  H     -0.819220    1.829554    0.906307
  H     -0.929358   -0.368282   -0.215441
  H      1.410658   -0.501243   -1.866267
  H      3.080513   -0.808921    0.476557
  H      2.416157    0.860421    0.489967
  H      1.122411   -1.833262    2.903144
  H     -0.116937   -0.577363    3.005746
  H     -0.763448   -3.233338    2.421321
  H     -1.718738   -1.891751    1.825919
  H     -0.170263   -3.774609    0.183581
  H     -1.176860   -2.457052   -0.373752
  H      1.825923   -2.544019    0.111149

 Total Charge           Charge          ....    0
 Multiplicity           Mult            ....    1
 Number of Electrons    NEL             ....   68
 Basis Dimension        Dim             ....  363

ORBITAL ENERGIES
----------------

  NO   OCC          E(Eh)            E(eV)
   0   2.0000     -11.239313      -305.8373
   1   2.0000     -11.230949      -305.6096
   2   2.0000     -11.225248      -305.4545
   3   2.0000     -11.224476      -305.4335
   4   2.0000     -11.218928      -305.2826
   5   2.0000     -11.217603      -305.2465
   6   2.0000     -11.215937      -305.2012
   7   2.0000     -11.215182      -305.1806
   8   2.0000     -11.208614      -305.0019
   9   2.0000      -1.211767       -32.9739
  10   2.0000      -1.058656       -28.8075
  11   2.0000      -0.987817       -26.8799
  12   2.0000      -0.956528       -26.0285
  13   2.0000      -0.880995       -23.9731
  14   2.0000      -0.855066       -23.2675
  15   2.0000      -0.807315       -21.9681
  16   2.0000      -0.766521       -20.8581
  17   2.0000      -0.690679       -18.7943
  18   2.0000      -0.645342       -17.5607
  19   2.0000      -0.628986       -17.1156
  20   2.0000      -0.613861       -16.7040
  21   2.0000      -0.598763       -16.2932
  22   2.0000      -0.559062       -15.2128
  23   2.0000      -0.541921       -14.7464
  24   2.0000      -0.534309       -14.5393
  25   2.0000      -0.521468       -14.1899
  26   2.0000      -0.481128       -13.0922
  27   2.0000      -0.475384       -12.9358
  28   2.0000      -0.464475       -12.6390
  29   2.0000      -0.437258       -11.8984
  30   2.0000      -0.427081       -11.6215
  31   2.0000      -0.421727       -11.4758
  32   2.0000      -0.409323       -11.1383
  33   2.0000      -0.383543       -10.4367
  34   0.0000       0.137188         3.7331
  35   0.0000       0.155865         4.2413
  36   0.0000       0.159747         4.3469
  37   0.0000       0.167049         4.5456
  38   0.0000       0.191782         5.2187

MULLIKEN ATOMIC CHARGES
-----------------------
   0 C :   -0.423550
   1 C :   -0.081431
   2 C :   -0.100500
   3 C :   -0.193531
   4 C :    0.012800
   5 C :   -0.211523
   6 C :   -0.261215
   7 C :   -0.246685
   8 C :   -0.123686
   9 H :    0.121349
  10 H :    0.133762
  11 H :    0.129798
  12 H :    0.090883
  13 H :    0.126301
  14 H :    0.106269
  15 H :    0.113824
  16 H :    0.109433
  17 H :    0.119122
  18 H :    0.117865
  19 H :    0.119454
  20 H :    0.124429
  21 H :    0.125537
  22 H :    0.091295
Sum of atomic charges:   -0.0000000

LOEWDIN ATOMIC CHARGES
----------------------
   0 C :   -0.297067
   1 C :   -0.181842
   2 C :   -0.143721
   3 C :   -0.173090
   4 C :   -0.184048
   5 C :   -0.225030
   6 C :   -0.233165
   7 C :   -0.239750
   8 C :   -0.160744
   9 H :    0.121146
  10 H :    0.125786
  11 H :    0.125123
  12 H :    0.149058
  13 H :    0.121631
  14 H :    0.128444
  15 H :    0.122438
  16 H :    0.139788
  17 H :    0.134406
  18 H :    0.129102
  19 H :    0.131587
  20 H :    0.132765
  21 H :    0.132957
  22 H :    0.144226

  Mayer bond orders larger than 0.1
B(  0-C ,  1-C ) :   0.9088 B(  0-C ,  9-H ) :   0.9370 B(  0-C , 10-H ) :   0.9402
B(  0-C , 11-H ) :   0.9381 B(  1-C ,  2-C ) :   0.8896 B(  1-C ,  4-C ) :   0.8848
B(  1-C , 12-H ) :   0.9253 B(  2-C ,  3-C ) :   0.9116 B(  2-C ,  8-C ) :   0.8778
B(  2-C , 13-H ) :   0.8884 B(  3-C ,  4-C ) :   0.8701 B(  3-C , 14-H ) :   0.9220
B(  3-C , 15-H ) :   0.9279 B(  4-C ,  5-C ) :   0.8681 B(  4-C ,  8-C ) :   0.8557
B(  5-C ,  6-C ) :   0.9420 B(  5-C , 16-H ) :   0.9182 B(  5-C , 17-H ) :   0.9245
B(  6-C ,  7-C ) :   0.9248 B(  6-C , 18-H ) :   0.9313 B(  6-C , 19-H ) :   0.9358
B(  7-C ,  8-C ) :   0.9407 B(  7-C , 20-H ) :   0.9308 B(  7-C , 21-H ) :   0.9315
B(  8-C , 22-H ) :   0.9303

MP2 TOTAL ENERGY:     -350.459834488 Eh
FINAL SINGLE POINT ENERGY      -350.459834487739

DIPOLE MOMENT
-------------
                                X             Y             Z
Electronic contribution:      1.91936      -1.27445      -1.00444
Nuclear contribution   :     -1.99700       1.25232       1.07939
                        -----------------------------------------
Total Dipole Moment    :     -0.07764      -0.02213       0.07495
                        -----------------------------------------
Magnitude (a.u.)       :      0.11016
Magnitude (Debye)      :      0.28000

                             ****ORCA TERMINATED NORMALLY****
TOTAL RUN TIME: 0 days 0 hours 22 minutes 48 seconds 713 msec
