                         Program Version 3.0.3 - RELEASE   -
|  1> ! RI-MP2 RIJK def2-TZVP def2-TZVP/C def2-TZVP/JK TIGHTSCF
|  2> % maxcore 2000
|  3> % mp2 density relaxed end
|  4> *xyz 0 1
|  5>  C       -0.1206400586     1.4318627243    -0.0185093182
|  6>  C        0.0596642245    -0.0586135537     0.0561104092
|  7>  O        0.2656354714    -0.6707243040     1.0757928820
|  8>  C        0.0019466289    -0.8815667180    -1.2689719157
|  9>  O        0.2781093210    -2.2248176382    -1.0086050174
| 10>  C       -1.3036286381    -0.7022103510    -1.9108981796
| 11>  C       -2.3824427708    -0.5626825449    -2.4367432892
| 12>  C       -3.6009818577    -0.3985299079    -3.0305697209
| 13>  N       -4.6372707131    -0.2511485203    -3.5341294307
| 14>  H        0.6108840937     1.8661760366    -0.7088164691
| 15>  H       -1.1130588500     1.6692886381    -0.4148056029
| 16>  H       -0.0019242205     1.8702587227     0.9724231363
| 17>  H        0.7706469885    -0.4603392944    -1.9389183088
| 18>  H        0.3117262910    -2.2885849993    -0.0375373351
| 19> *
| 20>
| 21>                          ****END OF INPUT****

CARTESIAN COORDINATES (ANGSTROEM)
---------------------------------
  C     -0.120640    1.431863   -0.018509
  C      0.059664   -0.058614    0.056110
  O      0.265635   -0.670724    1.075793
  C      0.001947   -0.881567   -1.268972
  O      0.278109   -2.224818   -1.008605
  C     -1.303629   -0.702210   -1.910898
  C     -2.382443   -0.562683   -2.436743
  C     -3.600982   -0.398530   -3.030570
  N     -4.637271   -0.251149   -3.534129
  H      0.610884    1.866176   -0.708816
  H     -1.113059    1.669289   -0.414806
  H     -0.001924    1.870259    0.972423
  H      0.770647   -0.460339   -1.938918
  H      0.311726   -2.288585   -0.037537

 Total Charge           Charge          ....    0
 Multiplicity           Mult            ....    1
 Number of Electrons    NEL             ....   64
 Basis Dimension        Dim             ....  309

ORBITAL ENERGIES
----------------

  NO   OCC          E(Eh)            E(eV)
   0   2.0000     -20.596986      -560.4725
   1   2.0000     -20.589750      -560.2756
   2   2.0000     -15.606324      -424.6697
   3   2.0000     -11.380190      -309.6707
   4   2.0000     -11.358650      -309.0846
   5   2.0000     -11.311959      -307.8140
   6   2.0000     -11.307082      -307.6813
   7   2.0000     -11.296836      -307.4025
   8   2.0000     -11.269766      -306.6659
   9   2.0000      -1.452023       -39.5116
  10   2.0000      -1.397454       -38.0267
  11   2.0000      -1.245415       -33.8895
  12   2.0000      -1.122403       -30.5421
  13   2.0000      -1.065115       -28.9833
  14   2.0000      -1.001333       -27.2477
  15   2.0000      -0.894110       -24.3300
  16   2.0000      -0.812911       -22.1204
  17   2.0000      -0.745394       -20.2832
  18   2.0000      -0.730639       -19.8817
  19   2.0000      -0.694710       -18.9040
  20   2.0000      -0.649248       -17.6669
  21   2.0000      -0.627777       -17.0827
  22   2.0000      -0.614618       -16.7246
  23   2.0000      -0.589585       -16.0434
  24   2.0000      -0.560606       -15.2549
  25   2.0000      -0.549242       -14.9456
  26   2.0000      -0.545612       -14.8468
  27   2.0000      -0.542921       -14.7736
  28   2.0000      -0.506894       -13.7933
  29   2.0000      -0.476446       -12.9647
  30   2.0000      -0.424047       -11.5389
  31   2.0000      -0.412458       -11.2235
  32   0.0000       0.072797         1.9809
  33   0.0000       0.077317         2.1039
  34   0.0000       0.110897         3.0177
  35   0.0000       0.119439         3.2501
  36   0.0000       0.154088         4.1929

MULLIKEN ATOMIC CHARGES
-----------------------
   0 C :   -0.415467
   1 C :    0.236255
   2 O :   -0.292541
   3 C :   -0.069586
   4 O :   -0.451877
   5 C :   -0.033984
   6 C :    0.286072
   7 C :   -0.218431
   8 N :   -0.034864
   9 H :    0.158462
  10 H :    0.174174
  11 H :    0.166085
  12 H :    0.153016
  13 H :    0.342688
Sum of atomic charges:   -0.0000000

LOEWDIN ATOMIC CHARGES
----------------------
   0 C :   -0.264156
   1 C :   -0.310197
   2 O :    0.166103
   3 C :   -0.326630
   4 O :    0.020368
   5 C :    0.027778
   6 C :   -0.045216
   7 C :   -0.171832
   8 N :    0.107264
   9 H :    0.145336
  10 H :    0.149368
  11 H :    0.141074
  12 H :    0.171571
  13 H :    0.189170

  Mayer bond orders larger than 0.1
B(  0-C ,  1-C ) :   0.9284 B(  0-C ,  9-H ) :   0.9121 B(  0-C , 10-H ) :   0.9044
B(  0-C , 11-H ) :   0.9268 B(  1-C ,  2-O ) :   1.9116 B(  1-C ,  3-C ) :   0.9172
B(  3-C ,  4-O ) :   1.2207 B(  3-C ,  5-C ) :   0.7588 B(  3-C , 12-H ) :   0.9870
B(  4-O , 13-H ) :   0.7912 B(  5-C ,  6-C ) :   2.6989 B(  5-C ,  8-N ) :   0.1115
B(  6-C ,  7-C ) :   0.9890 B(  7-C ,  8-N ) :   2.7502

MP2 TOTAL ENERGY:     -435.949515996 Eh
FINAL SINGLE POINT ENERGY      -435.949515996130

DIPOLE MOMENT
-------------
                                X             Y             Z
Electronic contribution:     -4.79260      -3.79930      -3.35643
Nuclear contribution   :      6.04926       4.79919       3.89646
                        -----------------------------------------
Total Dipole Moment    :      1.25666       0.99989       0.54003
                        -----------------------------------------
Magnitude (a.u.)       :      1.69429
Magnitude (Debye)      :      4.30653

                             ****ORCA TERMINATED NORMALLY****
TOTAL RUN TIME: 0 days 0 hours 13 minutes 58 seconds 31 msec
