                         Program Version 3.0.3 - RELEASE   -
|  1> ! RI-MP2 RIJK def2-TZVP def2-TZVP/C def2-TZVP/JK TIGHTSCF
|  2> % maxcore 2000
|  3> % mp2 density relaxed end
|  4> *xyz 0 1
|  5>  C        0.0717663029     1.5482482272    -0.0929279770
|  6>  C       -0.1447797237     0.0351051353     0.0260684639
|  7>  C        0.6143737264    -0.5741706559     1.1898362223
|  8>  C        0.7337311529    -2.0999159791     1.3957109152
|  9>  C        1.5266156921    -2.6311001341     0.1751202956
| 10>  C        2.8626612100    -2.6212086936     0.9014635599
| 11>  C        2.5039097832    -1.4609943569     0.0235670180
| 12>  N        2.1339459168    -0.5364825142     1.1432033338
| 13>  C        2.1460435167    -1.8143810821     2.0074710948
| 14>  H        1.1351738773     1.7812968259    -0.2012043415
| 15>  H       -0.4591233784     1.9586041771    -0.9573800810
| 16>  H       -0.2895488869     2.0701639541     0.7999435632
| 17>  H       -1.2133232101    -0.1821837890     0.1555593021
| 18>  H        0.1583976655    -0.4603377179    -0.9040895533
| 19>  H        0.3237287037    -0.0901685873     2.1318630814
| 20>  H       -0.0340793939    -2.7267068939     1.8492382637
| 21>  H        1.1982009674    -3.2498753858    -0.6482156215
| 22>  H        3.7036193316    -3.3002730944     0.8923561916
| 23>  H        2.9266975166    -1.1236944168    -0.9133117163
| 24>  H        2.3888986600    -1.7268571388     3.0645416650
| 25> *
| 26>
| 27>                          ****END OF INPUT****

CARTESIAN COORDINATES (ANGSTROEM)
---------------------------------
  C      0.071766    1.548248   -0.092928
  C     -0.144780    0.035105    0.026068
  C      0.614374   -0.574171    1.189836
  C      0.733731   -2.099916    1.395711
  C      1.526616   -2.631100    0.175120
  C      2.862661   -2.621209    0.901464
  C      2.503910   -1.460994    0.023567
  N      2.133946   -0.536483    1.143203
  C      2.146044   -1.814381    2.007471
  H      1.135174    1.781297   -0.201204
  H     -0.459123    1.958604   -0.957380
  H     -0.289549    2.070164    0.799944
  H     -1.213323   -0.182184    0.155559
  H      0.158398   -0.460338   -0.904090
  H      0.323729   -0.090169    2.131863
  H     -0.034079   -2.726707    1.849238
  H      1.198201   -3.249875   -0.648216
  H      3.703619   -3.300273    0.892356
  H      2.926698   -1.123694   -0.913312
  H      2.388899   -1.726857    3.064542

 Total Charge           Charge          ....    0
 Multiplicity           Mult            ....    1
 Number of Electrons    NEL             ....   66
 Basis Dimension        Dim             ....  345

ORBITAL ENERGIES
----------------

  NO   OCC          E(Eh)            E(eV)
   0   2.0000     -15.548428      -423.0942
   1   2.0000     -11.263910      -306.5066
   2   2.0000     -11.256110      -306.2943
   3   2.0000     -11.248238      -306.0801
   4   2.0000     -11.236132      -305.7507
   5   2.0000     -11.235060      -305.7215
   6   2.0000     -11.234380      -305.7030
   7   2.0000     -11.216490      -305.2162
   8   2.0000     -11.207515      -304.9720
   9   2.0000      -1.310137       -35.6506
  10   2.0000      -1.094109       -29.7722
  11   2.0000      -1.028753       -27.9938
  12   2.0000      -0.984048       -26.7773
  13   2.0000      -0.913029       -24.8448
  14   2.0000      -0.850999       -23.1569
  15   2.0000      -0.780950       -21.2507
  16   2.0000      -0.749225       -20.3875
  17   2.0000      -0.717950       -19.5364
  18   2.0000      -0.697023       -18.9670
  19   2.0000      -0.636068       -17.3083
  20   2.0000      -0.620025       -16.8717
  21   2.0000      -0.585914       -15.9435
  22   2.0000      -0.577578       -15.7167
  23   2.0000      -0.544015       -14.8034
  24   2.0000      -0.533032       -14.5045
  25   2.0000      -0.501413       -13.6442
  26   2.0000      -0.486833       -13.2474
  27   2.0000      -0.469822       -12.7845
  28   2.0000      -0.461401       -12.5554
  29   2.0000      -0.430503       -11.7146
  30   2.0000      -0.404576       -11.0091
  31   2.0000      -0.378660       -10.3039
  32   2.0000      -0.348775        -9.4906
  33   0.0000       0.140459         3.8221
  34   0.0000       0.163138         4.4392
  35   0.0000       0.163900         4.4599
  36   0.0000       0.170337         4.6351
  37   0.0000       0.187613         5.1052

MULLIKEN ATOMIC CHARGES
-----------------------
   0 C :   -0.398223
   1 C :   -0.232155
   2 C :   -0.049462
   3 C :    0.002898
   4 C :   -0.233294
   5 C :   -0.224405
   6 C :   -0.023319
   7 N :   -0.203629
   8 C :   -0.049232
   9 H :    0.142982
  10 H :    0.130783
  11 H :    0.120409
  12 H :    0.111549
  13 H :    0.121382
  14 H :    0.096960
  15 H :    0.123567
  16 H :    0.140894
  17 H :    0.147171
  18 H :    0.136787
  19 H :    0.138338
Sum of atomic charges:    0.0000000

LOEWDIN ATOMIC CHARGES
----------------------
   0 C :   -0.314603
   1 C :   -0.275264
   2 C :   -0.243360
   3 C :   -0.153844
   4 C :   -0.152947
   5 C :   -0.141434
   6 C :   -0.192616
   7 N :    0.137156
   8 C :   -0.127375
   9 H :    0.125982
  10 H :    0.119241
  11 H :    0.120847
  12 H :    0.140554
  13 H :    0.141656
  14 H :    0.151282
  15 H :    0.134313
  16 H :    0.135803
  17 H :    0.132455
  18 H :    0.133134
  19 H :    0.129020

  Mayer bond orders larger than 0.1
B(  0-C ,  1-C ) :   0.9200 B(  0-C ,  9-H ) :   0.9365 B(  0-C , 10-H ) :   0.9400
B(  0-C , 11-H ) :   0.9385 B(  1-C ,  2-C ) :   0.9217 B(  1-C , 12-H ) :   0.9309
B(  1-C , 13-H ) :   0.9329 B(  2-C ,  3-C ) :   0.9382 B(  2-C ,  7-N ) :   0.9387
B(  2-C , 14-H ) :   0.9121 B(  3-C ,  4-C ) :   0.8642 B(  3-C ,  8-C ) :   0.9558
B(  3-C , 15-H ) :   0.9133 B(  4-C ,  5-C ) :   0.8495 B(  4-C ,  6-C ) :   0.8659
B(  4-C , 16-H ) :   0.9278 B(  5-C ,  6-C ) :   0.8647 B(  5-C ,  8-C ) :   0.9495
B(  5-C , 17-H ) :   0.9102 B(  6-C ,  7-N ) :   0.8925 B(  6-C , 18-H ) :   0.9320
B(  7-N ,  8-C ) :   0.9632 B(  8-C , 19-H ) :   0.8940

MP2 TOTAL ENERGY:     -365.257977747 Eh
FINAL SINGLE POINT ENERGY      -365.257977746549

DIPOLE MOMENT
-------------
                                X             Y             Z
Electronic contribution:      4.35837      -5.00800       2.50915
Nuclear contribution   :     -4.70538       4.47216      -2.62509
                        -----------------------------------------
Total Dipole Moment    :     -0.34701      -0.53583      -0.11595
                        -----------------------------------------
Magnitude (a.u.)       :      0.64883
Magnitude (Debye)      :      1.64919

                             ****ORCA TERMINATED NORMALLY****
TOTAL RUN TIME: 0 days 0 hours 19 minutes 2 seconds 727 msec
