                         Program Version 3.0.3 - RELEASE   -
|  1> ! RI-MP2 RIJK def2-TZVP def2-TZVP/C def2-TZVP/JK TIGHTSCF
|  2> % maxcore 2000
|  3> % mp2 density relaxed end
|  4> *xyz 0 1
|  5>  C        0.3263138043     1.7358402742    -0.1350540733
|  6>  C        0.1255875876     0.2118445828    -0.0855382816
|  7>  C        0.7157031256    -0.5025352562    -1.2643659864
|  8>  C        0.0845443522    -1.0660364952    -2.3265114494
|  9>  O        0.9707070321    -1.6083055632    -3.1890799827
| 10>  N        2.2380444893    -1.4157999526    -2.7060809457
| 11>  C        2.0929753509    -0.7610724008    -1.5700562733
| 12>  C        3.3096309667    -0.4271318179    -0.8074290428
| 13>  O        3.3036211416     0.1831181590     0.2365887802
| 14>  H        1.3904999558     1.9816835312    -0.1184358667
| 15>  H       -0.1168510114     2.1633122883    -1.0397936132
| 16>  H       -0.1444791093     2.2083982731     0.7320071294
| 17>  H        0.5814983474    -0.1760915422     0.8306194093
| 18>  H       -0.9439980179    -0.0194720477    -0.0343139906
| 19>  H       -0.9537360992    -1.1658636031    -2.6027069250
| 20>  H        4.2460218342    -0.7905033097    -1.2749352983
| 21> *
| 22>
| 23>                          ****END OF INPUT****

CARTESIAN COORDINATES (ANGSTROEM)
---------------------------------
  C      0.326314    1.735840   -0.135054
  C      0.125588    0.211845   -0.085538
  C      0.715703   -0.502535   -1.264366
  C      0.084544   -1.066036   -2.326511
  O      0.970707   -1.608306   -3.189080
  N      2.238044   -1.415800   -2.706081
  C      2.092975   -0.761072   -1.570056
  C      3.309631   -0.427132   -0.807429
  O      3.303621    0.183118    0.236589
  H      1.390500    1.981684   -0.118436
  H     -0.116851    2.163312   -1.039794
  H     -0.144479    2.208398    0.732007
  H      0.581498   -0.176092    0.830619
  H     -0.943998   -0.019472   -0.034314
  H     -0.953736   -1.165864   -2.602707
  H      4.246022   -0.790503   -1.274935

 Total Charge           Charge          ....    0
 Multiplicity           Mult            ....    1
 Number of Electrons    NEL             ....   66
 Basis Dimension        Dim             ....  321

ORBITAL ENERGIES
----------------

  NO   OCC          E(Eh)            E(eV)
   0   2.0000     -20.667184      -562.3827
   1   2.0000     -20.578287      -559.9637
   2   2.0000     -15.654282      -425.9747
   3   2.0000     -11.355492      -308.9986
   4   2.0000     -11.320634      -308.0501
   5   2.0000     -11.297864      -307.4305
   6   2.0000     -11.260249      -306.4069
   7   2.0000     -11.246739      -306.0393
   8   2.0000     -11.221903      -305.3635
   9   2.0000      -1.520593       -41.3774
  10   2.0000      -1.414791       -38.4984
  11   2.0000      -1.191019       -32.4093
  12   2.0000      -1.115850       -30.3638
  13   2.0000      -1.023061       -27.8389
  14   2.0000      -0.930676       -25.3250
  15   2.0000      -0.878966       -23.9179
  16   2.0000      -0.827246       -22.5105
  17   2.0000      -0.780543       -21.2397
  18   2.0000      -0.732627       -19.9358
  19   2.0000      -0.681043       -18.5321
  20   2.0000      -0.672452       -18.2984
  21   2.0000      -0.640496       -17.4288
  22   2.0000      -0.625300       -17.0153
  23   2.0000      -0.608278       -16.5521
  24   2.0000      -0.582815       -15.8592
  25   2.0000      -0.562898       -15.3172
  26   2.0000      -0.537302       -14.6207
  27   2.0000      -0.521997       -14.2043
  28   2.0000      -0.507561       -13.8114
  29   2.0000      -0.489012       -13.3067
  30   2.0000      -0.452329       -12.3085
  31   2.0000      -0.429998       -11.7008
  32   2.0000      -0.372489       -10.1359
  33   0.0000       0.067510         1.8370
  34   0.0000       0.128864         3.5066
  35   0.0000       0.140317         3.8182
  36   0.0000       0.162567         4.4237
  37   0.0000       0.174443         4.7468

MULLIKEN ATOMIC CHARGES
-----------------------
   0 C :   -0.400514
   1 C :   -0.159725
   2 C :   -0.085316
   3 C :   -0.000553
   4 O :   -0.093666
   5 N :   -0.080867
   6 C :    0.071628
   7 C :    0.082401
   8 O :   -0.280348
   9 H :    0.151514
  10 H :    0.124131
  11 H :    0.133268
  12 H :    0.133087
  13 H :    0.120798
  14 H :    0.166608
  15 H :    0.117554
Sum of atomic charges:    0.0000000

LOEWDIN ATOMIC CHARGES
----------------------
   0 C :   -0.303669
   1 C :   -0.244751
   2 C :   -0.153258
   3 C :   -0.216867
   4 O :    0.288499
   5 N :    0.069736
   6 C :   -0.261348
   7 C :   -0.256239
   8 O :    0.140205
   9 H :    0.126698
  10 H :    0.120824
  11 H :    0.123423
  12 H :    0.152774
  13 H :    0.144680
  14 H :    0.142141
  15 H :    0.127153

  Mayer bond orders larger than 0.1
B(  0-C ,  1-C ) :   0.9050 B(  0-C ,  9-H ) :   0.9364 B(  0-C , 10-H ) :   0.9350
B(  0-C , 11-H ) :   0.9350 B(  1-C ,  2-C ) :   0.9003 B(  1-C , 12-H ) :   0.9233
B(  1-C , 13-H ) :   0.9313 B(  2-C ,  3-C ) :   1.5309 B(  2-C ,  6-C ) :   1.1983
B(  3-C ,  4-O ) :   1.0972 B(  3-C , 14-H ) :   0.9135 B(  4-O ,  5-N ) :   0.9225
B(  5-N ,  6-C ) :   1.5331 B(  6-C ,  7-C ) :   0.8572 B(  7-C ,  8-O ) :   1.9443
B(  7-C , 15-H ) :   0.9667

MP2 TOTAL ENERGY:     -437.162644558 Eh
FINAL SINGLE POINT ENERGY      -437.162644558401

DIPOLE MOMENT
-------------
                                X             Y             Z
Electronic contribution:      4.81242      -6.35992      -5.21739
Nuclear contribution   :     -5.81227       6.45166       5.25205
                        -----------------------------------------
Total Dipole Moment    :     -0.99985       0.09174       0.03467
                        -----------------------------------------
Magnitude (a.u.)       :      1.00465
Magnitude (Debye)      :      2.55361

                             ****ORCA TERMINATED NORMALLY****
TOTAL RUN TIME: 0 days 0 hours 16 minutes 5 seconds 126 msec
