                         Program Version 3.0.3 - RELEASE   -
|  1> ! RI-MP2 RIJK def2-TZVP def2-TZVP/C def2-TZVP/JK TIGHTSCF
|  2> % maxcore 2000
|  3> % mp2 density relaxed end
|  4> *xyz 0 1
|  5>  N       -0.1286962588     1.2133243888    -0.2043993430
|  6>  C       -0.0633253538    -0.1462595808    -0.2071073496
|  7>  N        1.0840838550    -0.7488965866    -0.5761810294
|  8>  H        1.9432033484    -0.2253393046    -0.5769182750
|  9>  H        1.0968317054    -1.7589528143    -0.4273833850
| 10>  C       -1.1868619906    -0.8894891103     0.1713882458
| 11>  O       -2.3653311130    -0.1726441237     0.3650018009
| 12>  C       -1.1438902127    -2.3004658799     0.2739456719
| 13>  O       -0.1624732452    -3.0335697404     0.0669589875
| 14>  C       -2.4111480883    -2.9171680226     0.7219059903
| 15>  N       -3.3846376582    -3.4186188181     1.0946436164
| 16>  H        0.4927832837     1.7230775043    -0.8117701972
| 17>  H       -1.0639087017     1.5821397781    -0.1151513394
| 18>  H       -2.6725449001    -0.2958871099     1.2700382857
| 19> *
| 20>
| 21>                          ****END OF INPUT****

CARTESIAN COORDINATES (ANGSTROEM)
---------------------------------
  N     -0.128696    1.213324   -0.204399
  C     -0.063325   -0.146260   -0.207107
  N      1.084084   -0.748897   -0.576181
  H      1.943203   -0.225339   -0.576918
  H      1.096832   -1.758953   -0.427383
  C     -1.186862   -0.889489    0.171388
  O     -2.365331   -0.172644    0.365002
  C     -1.143890   -2.300466    0.273946
  O     -0.162473   -3.033570    0.066959
  C     -2.411148   -2.917168    0.721906
  N     -3.384638   -3.418619    1.094644
  H      0.492783    1.723078   -0.811770
  H     -1.063909    1.582140   -0.115151
  H     -2.672545   -0.295887    1.270038

 Total Charge           Charge          ....    0
 Multiplicity           Mult            ....    1
 Number of Electrons    NEL             ....   66
 Basis Dimension        Dim             ....  309

ORBITAL ENERGIES
----------------

  NO   OCC          E(Eh)            E(eV)
   0   2.0000     -20.594002      -560.3913
   1   2.0000     -20.541750      -558.9694
   2   2.0000     -15.616533      -424.9475
   3   2.0000     -15.605788      -424.6551
   4   2.0000     -15.585988      -424.1163
   5   2.0000     -11.378426      -309.6227
   6   2.0000     -11.368302      -309.3472
   7   2.0000     -11.281328      -306.9806
   8   2.0000     -11.278040      -306.8911
   9   2.0000      -1.409255       -38.3478
  10   2.0000      -1.381148       -37.5830
  11   2.0000      -1.316867       -35.8338
  12   2.0000      -1.224015       -33.3072
  13   2.0000      -1.210223       -32.9319
  14   2.0000      -1.043384       -28.3919
  15   2.0000      -0.938736       -25.5443
  16   2.0000      -0.838004       -22.8033
  17   2.0000      -0.783765       -21.3273
  18   2.0000      -0.759613       -20.6701
  19   2.0000      -0.725518       -19.7423
  20   2.0000      -0.683160       -18.5897
  21   2.0000      -0.659964       -17.9585
  22   2.0000      -0.653499       -17.7826
  23   2.0000      -0.617577       -16.8051
  24   2.0000      -0.590380       -16.0651
  25   2.0000      -0.572426       -15.5765
  26   2.0000      -0.560686       -15.2570
  27   2.0000      -0.537199       -14.6179
  28   2.0000      -0.482419       -13.1273
  29   2.0000      -0.470728       -12.8092
  30   2.0000      -0.456829       -12.4309
  31   2.0000      -0.444087       -12.0842
  32   2.0000      -0.326228        -8.8771
  33   0.0000       0.064950         1.7674
  34   0.0000       0.104384         2.8404
  35   0.0000       0.130971         3.5639
  36   0.0000       0.152586         4.1521
  37   0.0000       0.185132         5.0377

MULLIKEN ATOMIC CHARGES
-----------------------
   0 N :   -0.497051
   1 C :    0.258224
   2 N :   -0.471328
   3 H :    0.255786
   4 H :    0.303317
   5 C :    0.046641
   6 O :   -0.495540
   7 C :    0.342931
   8 O :   -0.422829
   9 C :   -0.179323
  10 N :   -0.048094
  11 H :    0.261255
  12 H :    0.290921
  13 H :    0.355091
Sum of atomic charges:   -0.0000000

LOEWDIN ATOMIC CHARGES
----------------------
   0 N :   -0.005879
   1 C :   -0.307463
   2 N :    0.020273
   3 H :    0.174935
   4 H :    0.189192
   5 C :   -0.299499
   6 O :    0.030419
   7 C :   -0.368820
   8 O :    0.071341
   9 C :   -0.136652
  10 N :    0.075038
  11 H :    0.175557
  12 H :    0.187633
  13 H :    0.193927

  Mayer bond orders larger than 0.1
B(  0-N ,  1-C ) :   1.1986 B(  0-N , 11-H ) :   0.8667 B(  0-N , 12-H ) :   0.8486
B(  1-C ,  2-N ) :   1.2729 B(  1-C ,  5-C ) :   1.3122 B(  2-N ,  3-H ) :   0.8654
B(  2-N ,  4-H ) :   0.7951 B(  5-C ,  6-O ) :   0.9749 B(  5-C ,  7-C ) :   1.1650
B(  6-O , 13-H ) :   0.8226 B(  7-C ,  8-O ) :   1.6584 B(  7-C ,  9-C ) :   0.9123
B(  9-C , 10-N ) :   2.8290

MP2 TOTAL ENERGY:     -469.286747811 Eh
FINAL SINGLE POINT ENERGY      -469.286747810981

DIPOLE MOMENT
-------------
                                X             Y             Z
Electronic contribution:     -3.04955      -4.52030       1.09579
Nuclear contribution   :      4.69220       7.11262      -1.43865
                        -----------------------------------------
Total Dipole Moment    :      1.64265       2.59232      -0.34287
                        -----------------------------------------
Magnitude (a.u.)       :      3.08804
Magnitude (Debye)      :      7.84917

                             ****ORCA TERMINATED NORMALLY****
TOTAL RUN TIME: 0 days 0 hours 14 minutes 24 seconds 221 msec
