                         Program Version 3.0.3 - RELEASE   -
|  1> ! RI-MP2 RIJK def2-TZVP def2-TZVP/C def2-TZVP/JK TIGHTSCF
|  2> % maxcore 2000
|  3> % mp2 density relaxed end
|  4> *xyz 0 1
|  5>  O       -0.2363173573     1.4713860266    -0.0242774461
|  6>  C       -0.1210054426     0.0596856410     0.0627635508
|  7>  C       -1.4927786660    -0.5444685136    -0.2307682831
|  8>  C       -1.3951925942    -2.0731130012    -0.3128367212
|  9>  C       -0.2849998167    -2.4734882705    -1.2902250106
| 10>  O        0.9602929798    -1.8866107609    -0.9527270048
| 11>  C        0.9039571431    -0.4697619399    -0.9516490564
| 12>  C       -0.0551042856    -3.9750522301    -1.3508381923
| 13>  O       -0.9408970948    -4.7888456180    -1.3418673085
| 14>  H        0.5904174718     1.8628678618     0.2756083083
| 15>  H        0.1983505213    -0.2495004557     1.0710884310
| 16>  H       -2.2086639815    -0.2342511426     0.5362284299
| 17>  H       -1.8468395456    -0.1344756157    -1.1856656573
| 18>  H       -1.1602959437    -2.4925406952     0.6727310626
| 19>  H       -2.3375118092    -2.5220214131    -0.6374274978
| 20>  H       -0.5779331429    -2.1564163506    -2.3109900520
| 21>  H        0.6374645140    -0.0868313316    -1.9510007321
| 22>  H        1.9140459624    -0.1214369528    -0.7107502699
| 23>  H        1.0181598179    -4.2588595279    -1.4157111205
| 24> *
| 25>
| 26>                          ****END OF INPUT****

CARTESIAN COORDINATES (ANGSTROEM)
---------------------------------
  O     -0.236317    1.471386   -0.024277
  C     -0.121005    0.059686    0.062764
  C     -1.492779   -0.544469   -0.230768
  C     -1.395193   -2.073113   -0.312837
  C     -0.285000   -2.473488   -1.290225
  O      0.960293   -1.886611   -0.952727
  C      0.903957   -0.469762   -0.951649
  C     -0.055104   -3.975052   -1.350838
  O     -0.940897   -4.788846   -1.341867
  H      0.590417    1.862868    0.275608
  H      0.198351   -0.249500    1.071088
  H     -2.208664   -0.234251    0.536228
  H     -1.846840   -0.134476   -1.185666
  H     -1.160296   -2.492541    0.672731
  H     -2.337512   -2.522021   -0.637427
  H     -0.577933   -2.156416   -2.310990
  H      0.637465   -0.086831   -1.951001
  H      1.914046   -0.121437   -0.710750
  H      1.018160   -4.258860   -1.415711

 Total Charge           Charge          ....    0
 Multiplicity           Mult            ....    1
 Number of Electrons    NEL             ....   70
 Basis Dimension        Dim             ....  339

ORBITAL ENERGIES
----------------

  NO   OCC          E(Eh)            E(eV)
   0   2.0000     -20.577270      -559.9360
   1   2.0000     -20.570004      -559.7383
   2   2.0000     -20.562621      -559.5374
   3   2.0000     -11.334227      -308.4200
   4   2.0000     -11.300860      -307.5120
   5   2.0000     -11.290864      -307.2400
   6   2.0000     -11.288277      -307.1696
   7   2.0000     -11.236960      -305.7732
   8   2.0000     -11.232150      -305.6423
   9   2.0000      -1.409476       -38.3538
  10   2.0000      -1.395576       -37.9756
  11   2.0000      -1.374375       -37.3986
  12   2.0000      -1.085752       -29.5448
  13   2.0000      -1.048577       -28.5332
  14   2.0000      -0.918515       -24.9941
  15   2.0000      -0.893872       -24.3235
  16   2.0000      -0.808465       -21.9995
  17   2.0000      -0.786388       -21.3987
  18   2.0000      -0.713017       -19.4022
  19   2.0000      -0.700218       -19.0539
  20   2.0000      -0.676748       -18.4153
  21   2.0000      -0.667098       -18.1526
  22   2.0000      -0.633651       -17.2425
  23   2.0000      -0.625518       -17.0212
  24   2.0000      -0.596603       -16.2344
  25   2.0000      -0.570607       -15.5270
  26   2.0000      -0.561388       -15.2762
  27   2.0000      -0.545829       -14.8528
  28   2.0000      -0.525806       -14.3079
  29   2.0000      -0.512315       -13.9408
  30   2.0000      -0.501988       -13.6598
  31   2.0000      -0.470157       -12.7936
  32   2.0000      -0.467011       -12.7080
  33   2.0000      -0.425097       -11.5675
  34   2.0000      -0.415786       -11.3141
  35   0.0000       0.121321         3.3013
  36   0.0000       0.126074         3.4306
  37   0.0000       0.146564         3.9882
  38   0.0000       0.154551         4.2055
  39   0.0000       0.179395         4.8816

MULLIKEN ATOMIC CHARGES
-----------------------
   0 O :   -0.454111
   1 C :    0.049875
   2 C :   -0.177651
   3 C :   -0.260421
   4 C :    0.102188
   5 O :   -0.310178
   6 C :   -0.098460
   7 C :    0.072382
   8 O :   -0.263604
   9 H :    0.316525
  10 H :    0.080135
  11 H :    0.134998
  12 H :    0.118892
  13 H :    0.118497
  14 H :    0.146921
  15 H :    0.097021
  16 H :    0.105950
  17 H :    0.120739
  18 H :    0.100302
Sum of atomic charges:   -0.0000000

LOEWDIN ATOMIC CHARGES
----------------------
   0 O :   -0.012406
   1 C :   -0.359940
   2 C :   -0.241035
   3 C :   -0.235348
   4 C :   -0.326345
   5 O :    0.180548
   6 C :   -0.303371
   7 C :   -0.262774
   8 O :    0.142806
   9 H :    0.176001
  10 H :    0.135246
  11 H :    0.142938
  12 H :    0.145246
  13 H :    0.145235
  14 H :    0.149570
  15 H :    0.152103
  16 H :    0.126139
  17 H :    0.128327
  18 H :    0.117060

  Mayer bond orders larger than 0.1
B(  0-O ,  1-C ) :   1.0275 B(  0-O ,  9-H ) :   0.8453 B(  1-C ,  2-C ) :   0.9064
B(  1-C ,  6-C ) :   0.9128 B(  1-C , 10-H ) :   0.9430 B(  2-C ,  3-C ) :   0.8962
B(  2-C , 11-H ) :   0.9297 B(  2-C , 12-H ) :   0.9302 B(  3-C ,  4-C ) :   0.9207
B(  3-C , 13-H ) :   0.9233 B(  3-C , 14-H ) :   0.9202 B(  4-C ,  5-O ) :   0.9282
B(  4-C ,  7-C ) :   0.8405 B(  4-C , 15-H ) :   0.9049 B(  5-O ,  6-C ) :   0.9265
B(  6-C , 16-H ) :   0.9291 B(  6-C , 17-H ) :   0.9228 B(  7-C ,  8-O ) :   2.0039
B(  7-C , 18-H ) :   0.9480

MP2 TOTAL ENERGY:     -459.444177653 Eh
FINAL SINGLE POINT ENERGY      -459.444177652980

DIPOLE MOMENT
-------------
                                X             Y             Z
Electronic contribution:      1.46353      -4.37672      -1.11184
Nuclear contribution   :     -0.88883       5.20515       1.30327
                        -----------------------------------------
Total Dipole Moment    :      0.57470       0.82843       0.19143
                        -----------------------------------------
Magnitude (a.u.)       :      1.02627
Magnitude (Debye)      :      2.60856

                             ****ORCA TERMINATED NORMALLY****
TOTAL RUN TIME: 0 days 0 hours 17 minutes 9 seconds 843 msec
