                         Program Version 3.0.3 - RELEASE   -
|  1> ! RI-MP2 RIJK def2-TZVP def2-TZVP/C def2-TZVP/JK TIGHTSCF
|  2> % maxcore 2000
|  3> % mp2 density relaxed end
|  4> *xyz 0 1
|  5>  C        0.0077277613     1.5853397076    -0.0362895818
|  6>  O        1.4048593282     1.9139843680     0.1160121952
|  7>  C        2.0652215984     0.7069628474     0.4232278277
|  8>  C        2.1586891922    -0.2786766222    -0.7748934473
|  9>  O        0.7482015324    -0.3247163514    -1.1882630447
| 10>  C        0.0272998478     0.0578917604    -0.0154581663
| 11>  C        1.0483132956    -0.2171420396     1.1549515620
| 12>  C        1.7124845593    -1.5575299904     1.0572049107
| 13>  C        2.4255286149    -1.5896706449    -0.0783174736
| 14>  H       -0.5739128418     2.0349982905     0.7814509699
| 15>  H       -0.3565871900     1.9651170885    -0.9945021854
| 16>  H        3.0052497651     0.9099740133     0.9346840768
| 17>  H        2.7628969332     0.0011430355    -1.6355648491
| 18>  H       -0.9376668798    -0.4476120588     0.0215441346
| 19>  H        0.6984969605     0.1109364122     2.1331046583
| 20>  H        1.5862243479    -2.3564378151     1.7769370037
| 21>  H        2.9828567646    -2.4210422210    -0.4891919307
| 22> *
| 23>
| 24>                          ****END OF INPUT****

CARTESIAN COORDINATES (ANGSTROEM)
---------------------------------
  C      0.007728    1.585340   -0.036290
  O      1.404859    1.913984    0.116012
  C      2.065222    0.706963    0.423228
  C      2.158689   -0.278677   -0.774893
  O      0.748202   -0.324716   -1.188263
  C      0.027300    0.057892   -0.015458
  C      1.048313   -0.217142    1.154952
  C      1.712485   -1.557530    1.057205
  C      2.425529   -1.589671   -0.078317
  H     -0.573913    2.034998    0.781451
  H     -0.356587    1.965117   -0.994502
  H      3.005250    0.909974    0.934684
  H      2.762897    0.001143   -1.635565
  H     -0.937667   -0.447612    0.021544
  H      0.698497    0.110936    2.133105
  H      1.586224   -2.356438    1.776937
  H      2.982857   -2.421042   -0.489192

 Total Charge           Charge          ....    0
 Multiplicity           Mult            ....    1
 Number of Electrons    NEL             ....   66
 Basis Dimension        Dim             ....  327

ORBITAL ENERGIES
----------------

  NO   OCC          E(Eh)            E(eV)
   0   2.0000     -20.556572      -559.3727
   1   2.0000     -20.552460      -559.2609
   2   2.0000     -11.288427      -307.1737
   3   2.0000     -11.287894      -307.1592
   4   2.0000     -11.285801      -307.1023
   5   2.0000     -11.274739      -306.8012
   6   2.0000     -11.243831      -305.9602
   7   2.0000     -11.239695      -305.8476
   8   2.0000     -11.232230      -305.6445
   9   2.0000      -1.410780       -38.3893
  10   2.0000      -1.348398       -36.6918
  11   2.0000      -1.135205       -30.8905
  12   2.0000      -1.036076       -28.1931
  13   2.0000      -0.971689       -26.4410
  14   2.0000      -0.915753       -24.9189
  15   2.0000      -0.819369       -22.2962
  16   2.0000      -0.778806       -21.1924
  17   2.0000      -0.732408       -19.9298
  18   2.0000      -0.730577       -19.8800
  19   2.0000      -0.704033       -19.1577
  20   2.0000      -0.652636       -17.7591
  21   2.0000      -0.604290       -16.4436
  22   2.0000      -0.595763       -16.2115
  23   2.0000      -0.557469       -15.1695
  24   2.0000      -0.551491       -15.0068
  25   2.0000      -0.539503       -14.6806
  26   2.0000      -0.530616       -14.4388
  27   2.0000      -0.514040       -13.9878
  28   2.0000      -0.497157       -13.5283
  29   2.0000      -0.481202       -13.0942
  30   2.0000      -0.426452       -11.6043
  31   2.0000      -0.388383       -10.5684
  32   2.0000      -0.358656        -9.7595
  33   0.0000       0.130170         3.5421
  34   0.0000       0.146359         3.9826
  35   0.0000       0.170508         4.6398
  36   0.0000       0.175467         4.7747
  37   0.0000       0.184049         5.0082

MULLIKEN ATOMIC CHARGES
-----------------------
   0 C :   -0.054969
   1 O :   -0.324645
   2 C :    0.079546
   3 C :    0.089460
   4 O :   -0.327362
   5 C :    0.062821
   6 C :   -0.111446
   7 C :   -0.205381
   8 C :   -0.217212
   9 H :    0.093970
  10 H :    0.118343
  11 H :    0.125266
  12 H :    0.134020
  13 H :    0.129135
  14 H :    0.137365
  15 H :    0.135676
  16 H :    0.135413
Sum of atomic charges:    0.0000000

LOEWDIN ATOMIC CHARGES
----------------------
   0 C :   -0.263950
   1 O :    0.171931
   2 C :   -0.256249
   3 C :   -0.232237
   4 O :    0.183731
   5 C :   -0.274228
   6 C :   -0.180646
   7 C :   -0.121498
   8 C :   -0.129326
   9 H :    0.121060
  10 H :    0.129348
  11 H :    0.147923
  12 H :    0.139902
  13 H :    0.140124
  14 H :    0.150895
  15 H :    0.137331
  16 H :    0.135890

  Mayer bond orders larger than 0.1
B(  0-C ,  1-O ) :   0.9237 B(  0-C ,  5-C ) :   0.9590 B(  0-C ,  9-H ) :   0.9175
B(  0-C , 10-H ) :   0.9222 B(  1-O ,  2-C ) :   0.9578 B(  2-C ,  3-C ) :   0.9365
B(  2-C ,  6-C ) :   0.9135 B(  2-C , 11-H ) :   0.9098 B(  3-C ,  4-O ) :   0.8747
B(  3-C ,  8-C ) :   0.9530 B(  3-C , 12-H ) :   0.9146 B(  4-O ,  5-C ) :   0.9427
B(  5-C ,  6-C ) :   0.8753 B(  5-C , 13-H ) :   0.9040 B(  6-C ,  7-C ) :   0.9661
B(  6-C , 14-H ) :   0.9085 B(  7-C ,  8-C ) :   1.7119 B(  7-C , 15-H ) :   0.9217
B(  8-C , 16-H ) :   0.9218

MP2 TOTAL ENERGY:     -421.117218058 Eh
FINAL SINGLE POINT ENERGY      -421.117218057735

DIPOLE MOMENT
-------------
                                X             Y             Z
Electronic contribution:      0.80312       0.36464      -1.38979
Nuclear contribution   :     -0.90514      -0.75528       1.98130
                        -----------------------------------------
Total Dipole Moment    :     -0.10202      -0.39064       0.59151
                        -----------------------------------------
Magnitude (a.u.)       :      0.71616
Magnitude (Debye)      :      1.82034

                             ****ORCA TERMINATED NORMALLY****
TOTAL RUN TIME: 0 days 0 hours 18 minutes 59 seconds 166 msec
