                         Program Version 3.0.3 - RELEASE   -
|  1> ! RI-MP2 RIJK def2-TZVP def2-TZVP/C def2-TZVP/JK TIGHTSCF
|  2> % maxcore 2000
|  3> % mp2 density relaxed end
|  4> *xyz 0 1
|  5>  C        0.0192574385     1.5011609270     0.0410813930
|  6>  C       -0.0789654641    -0.0100855819    -0.0076094146
|  7>  C       -0.8699770279    -0.7396967669     1.0215333012
|  8>  N        0.5924108521    -0.7030490388     1.1058305014
|  9>  C        1.3340106559    -1.9322114302     0.7577924272
| 10>  C        2.2013941308    -1.7148936525    -0.4738049260
| 11>  O        1.8286223383    -2.4374822120    -1.6546921883
| 12>  C        1.5546988233    -1.0344551756    -1.6060776740
| 13>  C        0.0992065442    -0.6300632591    -1.4000798656
| 14>  H        0.9607262732     1.8476671090    -0.4011003543
| 15>  H       -0.8033120543     1.9636751727    -0.5165261618
| 16>  H       -0.0159077972     1.8549240473     1.0741547995
| 17>  H       -1.4006553200    -0.1996288849     1.8027200102
| 18>  H       -1.3379662356    -1.6788274893     0.7267422605
| 19>  H        1.9493051572    -2.2034232682     1.6210695696
| 20>  H        0.6652426456    -2.7786182697     0.5502420406
| 21>  H        3.2756198588    -1.6220589041    -0.3277696276
| 22>  H        2.1582498318    -0.4387479926    -2.2885880516
| 23>  H       -0.5150411504    -1.5272862183    -1.5144858299
| 24>  H       -0.2204297301     0.0800924381    -2.1676116696
| 25> *
| 26>
| 27>                          ****END OF INPUT****

CARTESIAN COORDINATES (ANGSTROEM)
---------------------------------
  C      0.019257    1.501161    0.041081
  C     -0.078965   -0.010086   -0.007609
  C     -0.869977   -0.739697    1.021533
  N      0.592411   -0.703049    1.105831
  C      1.334011   -1.932211    0.757792
  C      2.201394   -1.714894   -0.473805
  O      1.828622   -2.437482   -1.654692
  C      1.554699   -1.034455   -1.606078
  C      0.099207   -0.630063   -1.400080
  H      0.960726    1.847667   -0.401100
  H     -0.803312    1.963675   -0.516526
  H     -0.015908    1.854924    1.074155
  H     -1.400655   -0.199629    1.802720
  H     -1.337966   -1.678827    0.726742
  H      1.949305   -2.203423    1.621070
  H      0.665243   -2.778618    0.550242
  H      3.275620   -1.622059   -0.327770
  H      2.158250   -0.438748   -2.288588
  H     -0.515041   -1.527286   -1.514486
  H     -0.220430    0.080092   -2.167612

 Total Charge           Charge          ....    0
 Multiplicity           Mult            ....    1
 Number of Electrons    NEL             ....   68
 Basis Dimension        Dim             ....  345

ORBITAL ENERGIES
----------------

  NO   OCC          E(Eh)            E(eV)
   0   2.0000     -20.565233      -559.6084
   1   2.0000     -15.556191      -423.3055
   2   2.0000     -11.285882      -307.1045
   3   2.0000     -11.282667      -307.0170
   4   2.0000     -11.268141      -306.6217
   5   2.0000     -11.256790      -306.3128
   6   2.0000     -11.253616      -306.2264
   7   2.0000     -11.235443      -305.7320
   8   2.0000     -11.219138      -305.2883
   9   2.0000      -1.410717       -38.3876
  10   2.0000      -1.275395       -34.7053
  11   2.0000      -1.049473       -28.5576
  12   2.0000      -1.021603       -27.7992
  13   2.0000      -0.959702       -26.1148
  14   2.0000      -0.877469       -23.8771
  15   2.0000      -0.853071       -23.2132
  16   2.0000      -0.809332       -22.0230
  17   2.0000      -0.716388       -19.4939
  18   2.0000      -0.705772       -19.2050
  19   2.0000      -0.668814       -18.1994
  20   2.0000      -0.638799       -17.3826
  21   2.0000      -0.626315       -17.0429
  22   2.0000      -0.607500       -16.5309
  23   2.0000      -0.571230       -15.5439
  24   2.0000      -0.555703       -15.1214
  25   2.0000      -0.539911       -14.6917
  26   2.0000      -0.532187       -14.4815
  27   2.0000      -0.519686       -14.1414
  28   2.0000      -0.501623       -13.6498
  29   2.0000      -0.462457       -12.5841
  30   2.0000      -0.444522       -12.0961
  31   2.0000      -0.431596       -11.7443
  32   2.0000      -0.421857       -11.4793
  33   2.0000      -0.364607        -9.9214
  34   0.0000       0.138017         3.7556
  35   0.0000       0.159984         4.3534
  36   0.0000       0.164915         4.4876
  37   0.0000       0.181097         4.9279
  38   0.0000       0.184465         5.0196

MULLIKEN ATOMIC CHARGES
-----------------------
   0 C :   -0.457986
   1 C :    0.183501
   2 C :   -0.216132
   3 N :   -0.244525
   4 C :   -0.161109
   5 C :    0.005673
   6 O :   -0.323819
   7 C :    0.011113
   8 C :   -0.203901
   9 H :    0.128015
  10 H :    0.127891
  11 H :    0.142276
  12 H :    0.121263
  13 H :    0.118371
  14 H :    0.126650
  15 H :    0.130837
  16 H :    0.120964
  17 H :    0.124918
  18 H :    0.132884
  19 H :    0.133118
Sum of atomic charges:   -0.0000000

LOEWDIN ATOMIC CHARGES
----------------------
   0 C :   -0.268296
   1 C :   -0.301925
   2 C :   -0.227887
   3 N :    0.127772
   4 C :   -0.257246
   5 C :   -0.257093
   6 O :    0.160694
   7 C :   -0.256244
   8 C :   -0.199377
   9 H :    0.127171
  10 H :    0.125780
  11 H :    0.131410
  12 H :    0.125386
  13 H :    0.124268
  14 H :    0.136244
  15 H :    0.136406
  16 H :    0.135686
  17 H :    0.135549
  18 H :    0.153397
  19 H :    0.148306

  Mayer bond orders larger than 0.1
B(  0-C ,  1-C ) :   0.8939 B(  0-C ,  9-H ) :   0.9389 B(  0-C , 10-H ) :   0.9392
B(  0-C , 11-H ) :   0.9413 B(  1-C ,  2-C ) :   0.9399 B(  1-C ,  3-N ) :   0.7888
B(  1-C ,  8-C ) :   0.9127 B(  2-C ,  3-N ) :   0.9217 B(  2-C , 12-H ) :   0.9147
B(  2-C , 13-H ) :   0.9088 B(  3-N ,  4-C ) :   0.8786 B(  4-C ,  5-C ) :   0.8845
B(  4-C , 14-H ) :   0.9288 B(  4-C , 15-H ) :   0.9316 B(  5-C ,  6-O ) :   0.9307
B(  5-C ,  7-C ) :   0.9597 B(  5-C , 16-H ) :   0.9238 B(  6-O ,  7-C ) :   0.9166
B(  7-C ,  8-C ) :   0.9098 B(  7-C , 17-H ) :   0.9183 B(  8-C , 18-H ) :   0.9202
B(  8-C , 19-H ) :   0.9253

MP2 TOTAL ENERGY:     -402.417804490 Eh
FINAL SINGLE POINT ENERGY      -402.417804489832

DIPOLE MOMENT
-------------
                                X             Y             Z
Electronic contribution:      2.99766      -4.09385      -1.33472
Nuclear contribution   :     -3.26686       4.49988       1.31113
                        -----------------------------------------
Total Dipole Moment    :     -0.26920       0.40603      -0.02359
                        -----------------------------------------
Magnitude (a.u.)       :      0.48773
Magnitude (Debye)      :      1.23971

                             ****ORCA TERMINATED NORMALLY****
TOTAL RUN TIME: 0 days 0 hours 20 minutes 41 seconds 426 msec
