                         Program Version 3.0.3 - RELEASE   -
|  1> ! RI-MP2 RIJK def2-TZVP def2-TZVP/C def2-TZVP/JK TIGHTSCF
|  2> % maxcore 2000
|  3> % mp2 density relaxed end
|  4> *xyz 0 1
|  5>  O       -0.7111619334     1.0004232427    -0.4698289767
|  6>  C        0.2125518671     1.0211870264     0.3073662284
|  7>  C        1.3811275637     1.9625599722     0.2250661788
|  8>  C        1.4457371367     2.8266368300    -1.0595653649
|  9>  C        2.5315702942     3.8821406781    -0.7784899107
| 10>  C        1.5687248429     4.9550143064    -0.4358421592
| 11>  C        0.4516456656     3.8818198064    -0.4263015127
| 12>  C        1.0565165677     3.3331099455     0.8981801884
| 13>  N        2.2701244614     4.2189808963     0.6668097053
| 14>  H        0.2351925285     0.3314106578     1.1820441292
| 15>  H        2.2958746507     1.4731774958     0.5769449764
| 16>  H        1.3265784238     2.4086064769    -2.0554896008
| 17>  H        3.5564672160     3.9318053171    -1.1233977334
| 18>  H        1.5984872507     6.0324013189    -0.5408622839
| 19>  H       -0.5987506105     3.9607633606    -0.6835045215
| 20>  H        0.6346074149     3.4262850988     1.8976988673
| 21> *
| 22>
| 23>                          ****END OF INPUT****

CARTESIAN COORDINATES (ANGSTROEM)
---------------------------------
  O     -0.711162    1.000423   -0.469829
  C      0.212552    1.021187    0.307366
  C      1.381128    1.962560    0.225066
  C      1.445737    2.826637   -1.059565
  C      2.531570    3.882141   -0.778490
  C      1.568725    4.955014   -0.435842
  C      0.451646    3.881820   -0.426302
  C      1.056517    3.333110    0.898180
  N      2.270124    4.218981    0.666810
  H      0.235193    0.331411    1.182044
  H      2.295875    1.473177    0.576945
  H      1.326578    2.408606   -2.055490
  H      3.556467    3.931805   -1.123398
  H      1.598487    6.032401   -0.540862
  H     -0.598751    3.960763   -0.683505
  H      0.634607    3.426285    1.897699

 Total Charge           Charge          ....    0
 Multiplicity           Mult            ....    1
 Number of Electrons    NEL             ....   64
 Basis Dimension        Dim             ....  321

ORBITAL ENERGIES
----------------

  NO   OCC          E(Eh)            E(eV)
   0   2.0000     -20.561224      -559.4994
   1   2.0000     -15.569881      -423.6780
   2   2.0000     -11.337070      -308.4974
   3   2.0000     -11.281318      -306.9803
   4   2.0000     -11.270383      -306.6827
   5   2.0000     -11.269491      -306.6584
   6   2.0000     -11.253551      -306.2247
   7   2.0000     -11.250622      -306.1450
   8   2.0000     -11.250332      -306.1371
   9   2.0000      -1.399926       -38.0939
  10   2.0000      -1.336582       -36.3702
  11   2.0000      -1.100156       -29.9368
  12   2.0000      -0.993831       -27.0435
  13   2.0000      -0.954069       -25.9615
  14   2.0000      -0.889034       -24.1918
  15   2.0000      -0.775926       -21.1140
  16   2.0000      -0.767717       -20.8906
  17   2.0000      -0.725979       -19.7549
  18   2.0000      -0.716909       -19.5081
  19   2.0000      -0.684357       -18.6223
  20   2.0000      -0.650302       -17.6956
  21   2.0000      -0.632511       -17.2115
  22   2.0000      -0.593619       -16.1532
  23   2.0000      -0.566925       -15.4268
  24   2.0000      -0.533353       -14.5133
  25   2.0000      -0.504516       -13.7286
  26   2.0000      -0.478986       -13.0339
  27   2.0000      -0.454908       -12.3787
  28   2.0000      -0.435866       -11.8605
  29   2.0000      -0.433781       -11.8038
  30   2.0000      -0.410657       -11.1745
  31   2.0000      -0.365778        -9.9533
  32   0.0000       0.121055         3.2941
  33   0.0000       0.149716         4.0740
  34   0.0000       0.159925         4.3518
  35   0.0000       0.160837         4.3766
  36   0.0000       0.175163         4.7664

MULLIKEN ATOMIC CHARGES
-----------------------
   0 O :   -0.272667
   1 C :    0.064813
   2 C :   -0.113934
   3 C :   -0.041086
   4 C :   -0.122465
   5 C :   -0.132593
   6 C :   -0.118064
   7 C :   -0.007872
   8 N :   -0.216904
   9 H :    0.090913
  10 H :    0.127548
  11 H :    0.155355
  12 H :    0.144709
  13 H :    0.144957
  14 H :    0.155453
  15 H :    0.141837
Sum of atomic charges:    0.0000000

LOEWDIN ATOMIC CHARGES
----------------------
   0 O :    0.137846
   1 C :   -0.272699
   2 C :   -0.196375
   3 C :   -0.130917
   4 C :   -0.179070
   5 C :   -0.168276
   6 C :   -0.118781
   7 C :   -0.160874
   8 N :    0.140834
   9 H :    0.114595
  10 H :    0.153881
  11 H :    0.144041
  12 H :    0.134183
  13 H :    0.128960
  14 H :    0.137613
  15 H :    0.135039

  Mayer bond orders larger than 0.1
B(  0-O ,  1-C ) :   1.9891 B(  1-C ,  2-C ) :   0.8710 B(  1-C ,  9-H ) :   0.9510
B(  2-C ,  3-C ) :   0.9003 B(  2-C ,  7-C ) :   0.9077 B(  2-C , 10-H ) :   0.8780
B(  3-C ,  4-C ) :   0.8825 B(  3-C ,  6-C ) :   0.9310 B(  3-C , 11-H ) :   0.8843
B(  4-C ,  5-C ) :   0.9041 B(  4-C ,  8-N ) :   0.9080 B(  4-C , 12-H ) :   0.9182
B(  5-C ,  6-C ) :   0.9270 B(  5-C ,  8-N ) :   0.9136 B(  5-C , 13-H ) :   0.9054
B(  6-C ,  7-C ) :   0.9641 B(  6-C , 14-H ) :   0.9060 B(  7-C ,  8-N ) :   0.9219
B(  7-C , 15-H ) :   0.9006

MP2 TOTAL ENERGY:     -399.966186509 Eh
FINAL SINGLE POINT ENERGY      -399.966186509345

DIPOLE MOMENT
-------------
                                X             Y             Z
Electronic contribution:     -0.93552      -0.64674      -0.08848
Nuclear contribution   :      1.23619       0.72361       0.06733
                        -----------------------------------------
Total Dipole Moment    :      0.30067       0.07687      -0.02115
                        -----------------------------------------
Magnitude (a.u.)       :      0.31106
Magnitude (Debye)      :      0.79066

                             ****ORCA TERMINATED NORMALLY****
TOTAL RUN TIME: 0 days 0 hours 18 minutes 10 seconds 100 msec
