                         Program Version 3.0.3 - RELEASE   -
|  1> ! RI-MP2 RIJK def2-TZVP def2-TZVP/C def2-TZVP/JK TIGHTSCF
|  2> % maxcore 2000
|  3> % mp2 density relaxed end
|  4> *xyz 0 1
|  5>  C        0.3620551315     1.5594997638     0.2283696917
|  6>  C        0.0253160064     0.1331934831    -0.2200712516
|  7>  C        0.8975318479    -0.3965687812    -1.3729249543
|  8>  C        0.6767787427    -1.8989766858    -1.6041796864
|  9>  N        0.7756221781     0.2761271949    -2.6704658327
| 10>  C       -0.2398122301     0.9442563163    -2.9747151927
| 11>  O       -0.4052439289     1.5431778885    -4.2018505931
| 12>  C        0.3364725044     1.0988774936    -5.2691584203
| 13>  O        0.3130827569     1.6767644692    -6.3099070730
| 14>  H        1.4071372172     1.6292250000     0.5486114859
| 15>  H        0.2178281336     2.2919505683    -0.5709321816
| 16>  H       -0.2650105671     1.8618562857     1.0723962247
| 17>  H        0.1680677819    -0.5484007185     0.6268278934
| 18>  H       -1.0381479541     0.0504041672    -0.4807959905
| 19>  H        1.9477278467    -0.2589077816    -1.0817301843
| 20>  H        1.2987180275    -2.2568560542    -2.4285374081
| 21>  H        0.9293647315    -2.4674417428    -0.7042626588
| 22>  H       -0.3704328935    -2.1005187320    -1.8555009663
| 23>  H       -1.1079354365     1.1781639792    -2.3563237968
| 24>  H        0.8979837840     0.1849331862    -5.0381404351
| 25> *
| 26>
| 27>                          ****END OF INPUT****

CARTESIAN COORDINATES (ANGSTROEM)
---------------------------------
  C      0.362055    1.559500    0.228370
  C      0.025316    0.133193   -0.220071
  C      0.897532   -0.396569   -1.372925
  C      0.676779   -1.898977   -1.604180
  N      0.775622    0.276127   -2.670466
  C     -0.239812    0.944256   -2.974715
  O     -0.405244    1.543178   -4.201851
  C      0.336473    1.098877   -5.269158
  O      0.313083    1.676764   -6.309907
  H      1.407137    1.629225    0.548611
  H      0.217828    2.291951   -0.570932
  H     -0.265011    1.861856    1.072396
  H      0.168068   -0.548401    0.626828
  H     -1.038148    0.050404   -0.480796
  H      1.947728   -0.258908   -1.081730
  H      1.298718   -2.256856   -2.428537
  H      0.929365   -2.467442   -0.704263
  H     -0.370433   -2.100519   -1.855501
  H     -1.107935    1.178164   -2.356324
  H      0.897984    0.184933   -5.038140

 Total Charge           Charge          ....    0
 Multiplicity           Mult            ....    1
 Number of Electrons    NEL             ....   70
 Basis Dimension        Dim             ....  345

ORBITAL ENERGIES
----------------

  NO   OCC          E(Eh)            E(eV)
   0   2.0000     -20.627676      -561.3076
   1   2.0000     -20.561331      -559.5023
   2   2.0000     -15.570155      -423.6855
   3   2.0000     -11.387813      -309.8781
   4   2.0000     -11.356713      -309.0319
   5   2.0000     -11.276776      -306.8567
   6   2.0000     -11.238232      -305.8078
   7   2.0000     -11.227723      -305.5219
   8   2.0000     -11.227234      -305.5086
   9   2.0000      -1.482045       -40.3285
  10   2.0000      -1.392036       -37.8792
  11   2.0000      -1.246680       -33.9239
  12   2.0000      -1.075892       -29.2765
  13   2.0000      -1.004835       -27.3429
  14   2.0000      -0.933339       -25.3974
  15   2.0000      -0.881316       -23.9818
  16   2.0000      -0.841310       -22.8932
  17   2.0000      -0.786678       -21.4066
  18   2.0000      -0.739198       -20.1146
  19   2.0000      -0.684760       -18.6333
  20   2.0000      -0.670763       -18.2524
  21   2.0000      -0.646257       -17.5855
  22   2.0000      -0.620060       -16.8727
  23   2.0000      -0.607842       -16.5402
  24   2.0000      -0.599379       -16.3099
  25   2.0000      -0.584246       -15.8981
  26   2.0000      -0.551732       -15.0134
  27   2.0000      -0.533102       -14.5064
  28   2.0000      -0.522910       -14.2291
  29   2.0000      -0.514565       -14.0020
  30   2.0000      -0.496118       -13.5001
  31   2.0000      -0.491847       -13.3838
  32   2.0000      -0.473257       -12.8780
  33   2.0000      -0.418411       -11.3855
  34   2.0000      -0.415303       -11.3010
  35   0.0000       0.121576         3.3082
  36   0.0000       0.130590         3.5535
  37   0.0000       0.143121         3.8945
  38   0.0000       0.151350         4.1184
  39   0.0000       0.170656         4.6438

MULLIKEN ATOMIC CHARGES
-----------------------
   0 C :   -0.392754
   1 C :   -0.249656
   2 C :    0.045454
   3 C :   -0.382291
   4 N :   -0.274569
   5 C :    0.120667
   6 O :   -0.208733
   7 C :    0.204498
   8 O :   -0.252243
   9 H :    0.128873
  10 H :    0.134742
  11 H :    0.139298
  12 H :    0.125031
  13 H :    0.114718
  14 H :    0.102255
  15 H :    0.144578
  16 H :    0.130525
  17 H :    0.121422
  18 H :    0.126094
  19 H :    0.122088
Sum of atomic charges:   -0.0000000

LOEWDIN ATOMIC CHARGES
----------------------
   0 C :   -0.316905
   1 C :   -0.282615
   2 C :   -0.315140
   3 C :   -0.288853
   4 N :    0.108772
   5 C :   -0.323772
   6 O :    0.260827
   7 C :   -0.399580
   8 O :    0.139074
   9 H :    0.124099
  10 H :    0.120957
  11 H :    0.123493
  12 H :    0.144813
  13 H :    0.134368
  14 H :    0.152651
  15 H :    0.126894
  16 H :    0.125149
  17 H :    0.123453
  18 H :    0.127550
  19 H :    0.114765

  Mayer bond orders larger than 0.1
B(  0-C ,  1-C ) :   0.9189 B(  0-C ,  9-H ) :   0.9354 B(  0-C , 10-H ) :   0.9392
B(  0-C , 11-H ) :   0.9401 B(  1-C ,  2-C ) :   0.9114 B(  1-C , 12-H ) :   0.9278
B(  1-C , 13-H ) :   0.9276 B(  2-C ,  3-C ) :   0.9142 B(  2-C ,  4-N ) :   0.8932
B(  2-C , 14-H ) :   0.9301 B(  3-C , 15-H ) :   0.9395 B(  3-C , 16-H ) :   0.9360
B(  3-C , 17-H ) :   0.9261 B(  4-N ,  5-C ) :   1.7913 B(  5-C ,  6-O ) :   0.9961
B(  5-C , 18-H ) :   0.9232 B(  6-O ,  7-C ) :   0.9693 B(  7-C ,  8-O ) :   2.0373
B(  7-C , 19-H ) :   0.9164

MP2 TOTAL ENERGY:     -439.583035974 Eh
FINAL SINGLE POINT ENERGY      -439.583035974289

DIPOLE MOMENT
-------------
                                X             Y             Z
Electronic contribution:     -0.91671       5.34098     -15.01783
Nuclear contribution   :      0.77061      -6.15149      16.59081
                        -----------------------------------------
Total Dipole Moment    :     -0.14610      -0.81051       1.57298
                        -----------------------------------------
Magnitude (a.u.)       :      1.77554
Magnitude (Debye)      :      4.51305

                             ****ORCA TERMINATED NORMALLY****
TOTAL RUN TIME: 0 days 0 hours 16 minutes 5 seconds 668 msec
