                         Program Version 3.0.3 - RELEASE   -
|  1> ! RI-MP2 RIJK def2-TZVP def2-TZVP/C def2-TZVP/JK TIGHTSCF
|  2> % maxcore 2000
|  3> % mp2 density relaxed end
|  4> *xyz 0 1
|  5>  O        0.0720657473     0.0058864595     0.0963186064
|  6>  C       -0.0084224168     1.1955487675     0.0789927979
|  7>  C       -1.0967107755     2.2663168962    -0.0038540269
|  8>  C       -0.6728667227     3.0431990752     1.2986602059
|  9>  O        0.7989813660     3.0315340004     1.2454619814
| 10>  C        0.9613244609     2.4252328782    -0.0268631991
| 11>  C        2.0360648433     2.3483268700    -1.0975581073
| 12>  C        0.8141590665     2.3449121686    -2.1085919157
| 13>  C       -0.0973213098     2.9744272475    -0.9843812330
| 14>  H       -2.1615717423     2.0834666066    -0.1420215050
| 15>  H       -1.0217954630     4.0814193444     1.3076137414
| 16>  H       -1.0089644499     2.5340762715     2.2060232356
| 17>  H        2.6255007310     3.2642711185    -1.1872353691
| 18>  H        2.6978016088     1.4798901910    -1.0852151249
| 19>  H        0.9287903135     2.9786057238    -2.9876428493
| 20>  H        0.5307268033     1.3410748886    -2.4286335618
| 21>  H       -0.2023751705     4.0572809226    -1.0670054865
| 22> *
| 23>
| 24>                          ****END OF INPUT****

CARTESIAN COORDINATES (ANGSTROEM)
---------------------------------
  O      0.072066    0.005886    0.096319
  C     -0.008422    1.195549    0.078993
  C     -1.096711    2.266317   -0.003854
  C     -0.672867    3.043199    1.298660
  O      0.798981    3.031534    1.245462
  C      0.961324    2.425233   -0.026863
  C      2.036065    2.348327   -1.097558
  C      0.814159    2.344912   -2.108592
  C     -0.097321    2.974427   -0.984381
  H     -2.161572    2.083467   -0.142022
  H     -1.021795    4.081419    1.307614
  H     -1.008964    2.534076    2.206023
  H      2.625501    3.264271   -1.187235
  H      2.697802    1.479890   -1.085215
  H      0.928790    2.978606   -2.987643
  H      0.530727    1.341075   -2.428634
  H     -0.202375    4.057281   -1.067005

 Total Charge           Charge          ....    0
 Multiplicity           Mult            ....    1
 Number of Electrons    NEL             ....   66
 Basis Dimension        Dim             ....  327

ORBITAL ENERGIES
----------------

  NO   OCC          E(Eh)            E(eV)
   0   2.0000     -20.575488      -559.8875
   1   2.0000     -20.560694      -559.4849
   2   2.0000     -11.338493      -308.5361
   3   2.0000     -11.304434      -307.6093
   4   2.0000     -11.302095      -307.5457
   5   2.0000     -11.268689      -306.6366
   6   2.0000     -11.253548      -306.2246
   7   2.0000     -11.249225      -306.1070
   8   2.0000     -11.248534      -306.0882
   9   2.0000      -1.415211       -38.5098
  10   2.0000      -1.389860       -37.8200
  11   2.0000      -1.181850       -32.1598
  12   2.0000      -1.068284       -29.0695
  13   2.0000      -0.947498       -25.7827
  14   2.0000      -0.900885       -24.5143
  15   2.0000      -0.836931       -22.7740
  16   2.0000      -0.806204       -21.9379
  17   2.0000      -0.711442       -19.3593
  18   2.0000      -0.690575       -18.7915
  19   2.0000      -0.681776       -18.5521
  20   2.0000      -0.661243       -17.9933
  21   2.0000      -0.648423       -17.6445
  22   2.0000      -0.599021       -16.3002
  23   2.0000      -0.586679       -15.9644
  24   2.0000      -0.552233       -15.0270
  25   2.0000      -0.533041       -14.5048
  26   2.0000      -0.516042       -14.0422
  27   2.0000      -0.503748       -13.7077
  28   2.0000      -0.501427       -13.6445
  29   2.0000      -0.486376       -13.2350
  30   2.0000      -0.474378       -12.9085
  31   2.0000      -0.413408       -11.2494
  32   2.0000      -0.368424       -10.0253
  33   0.0000       0.130328         3.5464
  34   0.0000       0.141318         3.8455
  35   0.0000       0.152972         4.1626
  36   0.0000       0.160953         4.3797
  37   0.0000       0.178286         4.8514

MULLIKEN ATOMIC CHARGES
-----------------------
   0 O :   -0.236283
   1 C :    0.033412
   2 C :   -0.068944
   3 C :   -0.055829
   4 O :   -0.313877
   5 C :    0.254667
   6 C :   -0.225089
   7 C :   -0.250552
   8 C :   -0.201521
   9 H :    0.150369
  10 H :    0.118134
  11 H :    0.130256
  12 H :    0.127333
  13 H :    0.137726
  14 H :    0.137769
  15 H :    0.147635
  16 H :    0.114793
Sum of atomic charges:   -0.0000000

LOEWDIN ATOMIC CHARGES
----------------------
   0 O :    0.177766
   1 C :   -0.253197
   2 C :   -0.163717
   3 C :   -0.209480
   4 O :    0.166602
   5 C :   -0.290333
   6 C :   -0.185167
   7 C :   -0.190009
   8 C :   -0.144922
   9 H :    0.138859
  10 H :    0.124567
  11 H :    0.129462
  12 H :    0.142320
  13 H :    0.134683
  14 H :    0.132267
  15 H :    0.140476
  16 H :    0.149825

  Mayer bond orders larger than 0.1
B(  0-O ,  1-C ) :   2.0597 B(  1-C ,  2-C ) :   0.8732 B(  1-C ,  5-C ) :   0.7805
B(  2-C ,  3-C ) :   0.8891 B(  2-C ,  8-C ) :   0.8876 B(  2-C ,  9-H ) :   0.8844
B(  3-C ,  4-O ) :   0.8921 B(  3-C , 10-H ) :   0.9187 B(  3-C , 11-H ) :   0.9241
B(  4-O ,  5-C ) :   0.9739 B(  5-C ,  6-C ) :   0.8978 B(  5-C ,  8-C ) :   0.8970
B(  6-C ,  7-C ) :   0.9351 B(  6-C , 12-H ) :   0.9140 B(  6-C , 13-H ) :   0.9229
B(  7-C ,  8-C ) :   0.9260 B(  7-C , 14-H ) :   0.9217 B(  7-C , 15-H ) :   0.9122
B(  8-C , 16-H ) :   0.9039

MP2 TOTAL ENERGY:     -421.057413396 Eh
FINAL SINGLE POINT ENERGY      -421.057413395504

DIPOLE MOMENT
-------------
                                X             Y             Z
Electronic contribution:     -0.28194      -3.23365       3.36890
Nuclear contribution   :     -0.15023       4.13068      -3.93190
                        -----------------------------------------
Total Dipole Moment    :     -0.43218       0.89703      -0.56299
                        -----------------------------------------
Magnitude (a.u.)       :      1.14385
Magnitude (Debye)      :      2.90744

                             ****ORCA TERMINATED NORMALLY****
TOTAL RUN TIME: 0 days 0 hours 19 minutes 16 seconds 477 msec
