                         Program Version 3.0.3 - RELEASE   -
|  1> ! RI-MP2 RIJK def2-TZVP def2-TZVP/C def2-TZVP/JK TIGHTSCF
|  2> % maxcore 2000
|  3> % mp2 density relaxed end
|  4> *xyz 0 1
|  5>  O       -0.1276346260     1.5016909427     0.2745564491
|  6>  C       -0.0087922099     0.1128814861    -0.0202010167
|  7>  C        0.6262367821    -0.7216329282     1.1555837124
|  8>  O       -0.4217898766    -1.4441451038     1.8511747336
|  9>  C       -1.5025023449    -1.3581257094     1.0470891364
| 10>  N       -2.6775689032    -1.9406355702     1.1561175914
| 11>  N       -3.3250685040    -1.4413051437     0.0552474569
| 12>  C       -2.5760410056    -0.5941587473    -0.6993764998
| 13>  C       -1.3558147205    -0.5206179240    -0.0673001386
| 14>  H        0.7510332473     1.8926145294     0.2182463922
| 15>  H        0.5857876476    -0.0246551294    -0.9338547195
| 16>  H        1.3420055200    -1.4573248247     0.7722119766
| 17>  H        1.1224999526    -0.0673144071     1.8766617330
| 18>  H       -4.2684481500    -1.7412374381    -0.1169862961
| 19>  H       -2.9758331092    -0.1311826623    -1.5876567410
| 20> *
| 21>
| 22>                          ****END OF INPUT****

CARTESIAN COORDINATES (ANGSTROEM)
---------------------------------
  O     -0.127635    1.501691    0.274556
  C     -0.008792    0.112881   -0.020201
  C      0.626237   -0.721633    1.155584
  O     -0.421790   -1.444145    1.851175
  C     -1.502502   -1.358126    1.047089
  N     -2.677569   -1.940636    1.156118
  N     -3.325069   -1.441305    0.055247
  C     -2.576041   -0.594159   -0.699376
  C     -1.355815   -0.520618   -0.067300
  H      0.751033    1.892615    0.218246
  H      0.585788   -0.024655   -0.933855
  H      1.342006   -1.457325    0.772212
  H      1.122500   -0.067314    1.876662
  H     -4.268448   -1.741237   -0.116986
  H     -2.975833   -0.131183   -1.587657

 Total Charge           Charge          ....    0
 Multiplicity           Mult            ....    1
 Number of Electrons    NEL             ....   66
 Basis Dimension        Dim             ....  315

ORBITAL ENERGIES
----------------

  NO   OCC          E(Eh)            E(eV)
   0   2.0000     -20.586745      -560.1938
   1   2.0000     -20.568272      -559.6911
   2   2.0000     -15.633852      -425.4187
   3   2.0000     -15.574586      -423.8060
   4   2.0000     -11.310142      -307.7646
   5   2.0000     -11.304304      -307.6057
   6   2.0000     -11.296001      -307.3798
   7   2.0000     -11.292381      -307.2813
   8   2.0000     -11.217603      -305.2465
   9   2.0000      -1.426873       -38.8272
  10   2.0000      -1.371892       -37.3311
  11   2.0000      -1.357645       -36.9434
  12   2.0000      -1.097471       -29.8637
  13   2.0000      -1.078585       -29.3498
  14   2.0000      -1.000345       -27.2208
  15   2.0000      -0.888265       -24.1709
  16   2.0000      -0.809788       -22.0354
  17   2.0000      -0.776110       -21.1190
  18   2.0000      -0.725402       -19.7392
  19   2.0000      -0.716441       -19.4954
  20   2.0000      -0.665902       -18.1201
  21   2.0000      -0.660510       -17.9734
  22   2.0000      -0.630183       -17.1482
  23   2.0000      -0.608456       -16.5569
  24   2.0000      -0.590652       -16.0725
  25   2.0000      -0.572239       -15.5714
  26   2.0000      -0.542906       -14.7732
  27   2.0000      -0.521787       -14.1985
  28   2.0000      -0.497184       -13.5291
  29   2.0000      -0.454536       -12.3685
  30   2.0000      -0.451228       -12.2786
  31   2.0000      -0.352430        -9.5901
  32   2.0000      -0.337532        -9.1847
  33   0.0000       0.119715         3.2576
  34   0.0000       0.137823         3.7504
  35   0.0000       0.148675         4.0457
  36   0.0000       0.169371         4.6088
  37   0.0000       0.174543         4.7495

MULLIKEN ATOMIC CHARGES
-----------------------
   0 O :   -0.445792
   1 C :   -0.054237
   2 C :    0.010128
   3 O :   -0.278140
   4 C :    0.167200
   5 N :   -0.222828
   6 N :   -0.084884
   7 C :   -0.096907
   8 C :   -0.046174
   9 H :    0.314157
  10 H :    0.107467
  11 H :    0.106177
  12 H :    0.109136
  13 H :    0.257343
  14 H :    0.157353
Sum of atomic charges:    0.0000000

LOEWDIN ATOMIC CHARGES
----------------------
   0 O :   -0.018811
   1 C :   -0.306095
   2 C :   -0.219321
   3 O :    0.238348
   4 C :   -0.377639
   5 N :    0.039099
   6 N :    0.134689
   7 C :   -0.204658
   8 C :   -0.174840
   9 H :    0.171975
  10 H :    0.137663
  11 H :    0.125933
  12 H :    0.127815
  13 H :    0.186815
  14 H :    0.139027

  Mayer bond orders larger than 0.1
B(  0-O ,  1-C ) :   1.1252 B(  0-O ,  8-C ) :  -0.1476 B(  0-O ,  9-H ) :   0.8447
B(  1-C ,  2-C ) :   0.9391 B(  1-C ,  8-C ) :   0.8978 B(  1-C , 10-H ) :   0.9429
B(  2-C ,  3-O ) :   0.8734 B(  2-C , 11-H ) :   0.9126 B(  2-C , 12-H ) :   0.9247
B(  3-O ,  4-C ) :   1.0836 B(  4-C ,  5-N ) :   1.6184 B(  4-C ,  8-C ) :   1.2593
B(  5-N ,  6-N ) :   1.0174 B(  5-N ,  7-C ) :   0.1315 B(  6-N ,  7-C ) :   1.2440
B(  6-N , 13-H ) :   0.8731 B(  7-C ,  8-C ) :   1.3821 B(  7-C , 14-H ) :   0.8962

MP2 TOTAL ENERGY:     -453.212452918 Eh
FINAL SINGLE POINT ENERGY      -453.212452918185

DIPOLE MOMENT
-------------
                                X             Y             Z
Electronic contribution:     -3.21681      -1.91674       1.52852
Nuclear contribution   :      3.66077       2.36917      -2.81399
                        -----------------------------------------
Total Dipole Moment    :      0.44396       0.45244      -1.28547
                        -----------------------------------------
Magnitude (a.u.)       :      1.43326
Magnitude (Debye)      :      3.64305

                             ****ORCA TERMINATED NORMALLY****
TOTAL RUN TIME: 0 days 0 hours 16 minutes 44 seconds 516 msec
