                         Program Version 3.0.3 - RELEASE   -
|  1> ! RI-MP2 RIJK def2-TZVP def2-TZVP/C def2-TZVP/JK TIGHTSCF
|  2> % maxcore 2000
|  3> % mp2 density relaxed end
|  4> *xyz 0 1
|  5>  C       -0.0267815537     1.5422681251     0.0435994892
|  6>  C        0.1183238003     0.0344406192     0.0485701940
|  7>  C        1.3621189762    -0.7300122800    -0.2225285186
|  8>  C        2.6016523712    -0.0052001091     0.3128325901
|  9>  C        1.9642968223    -0.0712426649     1.7228810326
| 10>  O        2.3793280886     0.1651296365     2.8187439377
| 11>  C        0.7186706207    -0.7718686160     1.2189941141
| 12>  C       -0.0119285073    -1.7844868770     1.8944365357
| 13>  C       -0.6205159932    -2.6429869718     2.4786218765
| 14>  H        0.8534679439     2.0558076257     0.4364636287
| 15>  H       -0.1985697132     1.9022875456    -0.9767168908
| 16>  H       -0.8842042017     1.8421502093     0.6536776907
| 17>  H       -0.7696566105    -0.4791151895    -0.3139537780
| 18>  H        1.3910102126    -1.5703198891    -0.9036145197
| 19>  H        3.5042534261    -0.6230633363     0.2986982998
| 20>  H        2.8384829263     0.9776381141    -0.1025067335
| 21>  H       -1.1520278887    -3.4002671720     2.9994093214
| 22> *
| 23>
| 24>                          ****END OF INPUT****

CARTESIAN COORDINATES (ANGSTROEM)
---------------------------------
  C     -0.026782    1.542268    0.043599
  C      0.118324    0.034441    0.048570
  C      1.362119   -0.730012   -0.222529
  C      2.601652   -0.005200    0.312833
  C      1.964297   -0.071243    1.722881
  O      2.379328    0.165130    2.818744
  C      0.718671   -0.771869    1.218994
  C     -0.011929   -1.784487    1.894437
  C     -0.620516   -2.642987    2.478622
  H      0.853468    2.055808    0.436464
  H     -0.198570    1.902288   -0.976717
  H     -0.884204    1.842150    0.653678
  H     -0.769657   -0.479115   -0.313954
  H      1.391010   -1.570320   -0.903615
  H      3.504253   -0.623063    0.298698
  H      2.838483    0.977638   -0.102507
  H     -1.152028   -3.400267    2.999409

 Total Charge           Charge          ....    0
 Multiplicity           Mult            ....    1
 Number of Electrons    NEL             ....   64
 Basis Dimension        Dim             ....  327

ORBITAL ENERGIES
----------------

  NO   OCC          E(Eh)            E(eV)
   0   2.0000     -20.552780      -559.2696
   1   2.0000     -11.342397      -308.6423
   2   2.0000     -11.277165      -306.8673
   3   2.0000     -11.273476      -306.7669
   4   2.0000     -11.272590      -306.7428
   5   2.0000     -11.254067      -306.2387
   6   2.0000     -11.242299      -305.9185
   7   2.0000     -11.237129      -305.7778
   8   2.0000     -11.230238      -305.5903
   9   2.0000      -1.398541       -38.0562
  10   2.0000      -1.222423       -33.2638
  11   2.0000      -1.044091       -28.4111
  12   2.0000      -1.027058       -27.9477
  13   2.0000      -0.961187       -26.1552
  14   2.0000      -0.900274       -24.4977
  15   2.0000      -0.792576       -21.5671
  16   2.0000      -0.782642       -21.2968
  17   2.0000      -0.702728       -19.1222
  18   2.0000      -0.700275       -19.0554
  19   2.0000      -0.652313       -17.7503
  20   2.0000      -0.644320       -17.5328
  21   2.0000      -0.600901       -16.3513
  22   2.0000      -0.586953       -15.9718
  23   2.0000      -0.577723       -15.7206
  24   2.0000      -0.555646       -15.1199
  25   2.0000      -0.529001       -14.3949
  26   2.0000      -0.513827       -13.9820
  27   2.0000      -0.467793       -12.7293
  28   2.0000      -0.458211       -12.4686
  29   2.0000      -0.425637       -11.5822
  30   2.0000      -0.377979       -10.2853
  31   2.0000      -0.356142        -9.6911
  32   0.0000       0.128577         3.4988
  33   0.0000       0.135263         3.6807
  34   0.0000       0.144324         3.9272
  35   0.0000       0.159737         4.3467
  36   0.0000       0.164769         4.4836

MULLIKEN ATOMIC CHARGES
-----------------------
   0 C :   -0.392922
   1 C :   -0.096671
   2 C :   -0.088496
   3 C :   -0.247554
   4 C :    0.087013
   5 O :   -0.239988
   6 C :   -0.124339
   7 C :    0.007362
   8 C :   -0.105175
   9 H :    0.141561
  10 H :    0.138317
  11 H :    0.147106
  12 H :    0.138026
  13 H :    0.156210
  14 H :    0.143401
  15 H :    0.141383
  16 H :    0.194767
Sum of atomic charges:   -0.0000000

LOEWDIN ATOMIC CHARGES
----------------------
   0 C :   -0.279343
   1 C :   -0.166458
   2 C :   -0.110627
   3 C :   -0.184002
   4 C :   -0.275980
   5 O :    0.173774
   6 C :   -0.130776
   7 C :   -0.073741
   8 C :   -0.076955
   9 H :    0.130603
  10 H :    0.130015
  11 H :    0.133178
  12 H :    0.167608
  13 H :    0.145084
  14 H :    0.152648
  15 H :    0.136753
  16 H :    0.128219

  Mayer bond orders larger than 0.1
B(  0-C ,  1-C ) :   0.9006 B(  0-C ,  9-H ) :   0.9342 B(  0-C , 10-H ) :   0.9306
B(  0-C , 11-H ) :   0.9353 B(  1-C ,  2-C ) :   0.9302 B(  1-C ,  6-C ) :   0.7778
B(  1-C , 12-H ) :   0.9284 B(  2-C ,  3-C ) :   0.9232 B(  2-C ,  6-C ) :   0.7750
B(  2-C , 13-H ) :   0.9024 B(  3-C ,  4-C ) :   0.9477 B(  3-C ,  6-C ) :  -0.1390
B(  3-C , 14-H ) :   0.9032 B(  3-C , 15-H ) :   0.9024 B(  4-C ,  5-O ) :   2.0751
B(  4-C ,  6-C ) :   0.8439 B(  6-C ,  7-C ) :   1.2188 B(  6-C ,  8-C ) :  -0.1861
B(  7-C ,  8-C ) :   2.5849 B(  8-C , 16-H ) :   0.8758

MP2 TOTAL ENERGY:     -383.959491081 Eh
FINAL SINGLE POINT ENERGY      -383.959491080799

DIPOLE MOMENT
-------------
                                X             Y             Z
Electronic contribution:      1.64941      -3.86232       5.31916
Nuclear contribution   :     -2.05215       3.78375      -6.58699
                        -----------------------------------------
Total Dipole Moment    :     -0.40274      -0.07857      -1.26784
                        -----------------------------------------
Magnitude (a.u.)       :      1.33258
Magnitude (Debye)      :      3.38716

                             ****ORCA TERMINATED NORMALLY****
TOTAL RUN TIME: 0 days 0 hours 17 minutes 22 seconds 827 msec
