                         Program Version 3.0.3 - RELEASE   -
|  1> ! RI-MP2 RIJK def2-TZVP def2-TZVP/C def2-TZVP/JK TIGHTSCF
|  2> % maxcore 2000
|  3> % mp2 density relaxed end
|  4> *xyz 0 1
|  5>  C       -0.2156532606     1.5083593699     0.2058832952
|  6>  N        0.0513866416     0.0877137149     0.0759289092
|  7>  C        0.9830443813    -0.3702553261    -0.9974304919
|  8>  C        1.8075212050    -1.1007559227     0.0625948658
|  9>  C        2.3150971244    -0.1441238103     1.1087293229
| 10>  C        0.8555067830    -0.5713094979     1.1026947757
| 11>  O        2.2648317344    -2.4096643811    -0.0938135133
| 12>  C        3.5806177566    -2.5737080373    -0.3805091074
| 13>  O        4.0610406464    -3.6480937015    -0.5700110937
| 14>  H        0.6880039578     2.1331175854     0.3191450650
| 15>  H       -0.7598589633     1.8567944884    -0.6774601230
| 16>  H       -0.8532564470     1.6756253990     1.0798123151
| 17>  H        0.4890081456    -1.0385911262    -1.7093410565
| 18>  H        1.5056557059     0.4265328904    -1.5430668792
| 19>  H        2.9007127385    -0.6068939906     1.8973219065
| 20>  H        2.6225063976     0.8640008376     0.8445206994
| 21>  H        0.3949550041    -1.0624585521     1.9524277949
| 22>  H        4.1311979588    -1.6160625598    -0.4063947646
| 23> *
| 24>
| 25>                          ****END OF INPUT****

CARTESIAN COORDINATES (ANGSTROEM)
---------------------------------
  C     -0.215653    1.508359    0.205883
  N      0.051387    0.087714    0.075929
  C      0.983044   -0.370255   -0.997430
  C      1.807521   -1.100756    0.062595
  C      2.315097   -0.144124    1.108729
  C      0.855507   -0.571309    1.102695
  O      2.264832   -2.409664   -0.093814
  C      3.580618   -2.573708   -0.380509
  O      4.061041   -3.648094   -0.570011
  H      0.688004    2.133118    0.319145
  H     -0.759859    1.856794   -0.677460
  H     -0.853256    1.675625    1.079812
  H      0.489008   -1.038591   -1.709341
  H      1.505656    0.426533   -1.543067
  H      2.900713   -0.606894    1.897322
  H      2.622506    0.864001    0.844521
  H      0.394955   -1.062459    1.952428
  H      4.131198   -1.616063   -0.406395

 Total Charge           Charge          ....    0
 Multiplicity           Mult            ....    1
 Number of Electrons    NEL             ....   68
 Basis Dimension        Dim             ....  333

ORBITAL ENERGIES
----------------

  NO   OCC          E(Eh)            E(eV)
   0   2.0000     -20.619445      -561.0836
   1   2.0000     -20.557450      -559.3967
   2   2.0000     -15.566467      -423.5851
   3   2.0000     -11.388071      -309.8852
   4   2.0000     -11.315904      -307.9214
   5   2.0000     -11.279059      -306.9188
   6   2.0000     -11.273671      -306.7722
   7   2.0000     -11.255071      -306.2660
   8   2.0000     -11.254239      -306.2434
   9   2.0000      -1.472446       -40.0673
  10   2.0000      -1.384326       -37.6694
  11   2.0000      -1.286361       -35.0037
  12   2.0000      -1.108641       -30.1677
  13   2.0000      -0.983756       -26.7694
  14   2.0000      -0.912329       -24.8257
  15   2.0000      -0.888948       -24.1895
  16   2.0000      -0.810271       -22.0486
  17   2.0000      -0.781326       -21.2610
  18   2.0000      -0.738589       -20.0980
  19   2.0000      -0.688524       -18.7357
  20   2.0000      -0.675945       -18.3934
  21   2.0000      -0.647184       -17.6108
  22   2.0000      -0.636318       -17.3151
  23   2.0000      -0.619086       -16.8462
  24   2.0000      -0.594031       -16.1644
  25   2.0000      -0.579107       -15.7583
  26   2.0000      -0.559622       -15.2281
  27   2.0000      -0.532700       -14.4955
  28   2.0000      -0.504014       -13.7149
  29   2.0000      -0.495476       -13.4826
  30   2.0000      -0.468680       -12.7534
  31   2.0000      -0.461856       -12.5677
  32   2.0000      -0.409494       -11.1429
  33   2.0000      -0.361763        -9.8441
  34   0.0000       0.130559         3.5527
  35   0.0000       0.139253         3.7893
  36   0.0000       0.152297         4.1442
  37   0.0000       0.164609         4.4793
  38   0.0000       0.175480         4.7751

MULLIKEN ATOMIC CHARGES
-----------------------
   0 C :   -0.310143
   1 N :   -0.147801
   2 C :   -0.151010
   3 C :    0.098269
   4 C :   -0.306915
   5 C :   -0.074080
   6 O :   -0.203581
   7 C :    0.186744
   8 O :   -0.257571
   9 H :    0.099019
  10 H :    0.141925
  11 H :    0.141541
  12 H :    0.128639
  13 H :    0.116809
  14 H :    0.153850
  15 H :    0.143153
  16 H :    0.145163
  17 H :    0.095989
Sum of atomic charges:    0.0000000

LOEWDIN ATOMIC CHARGES
----------------------
   0 C :   -0.333492
   1 N :    0.095691
   2 C :   -0.195933
   3 C :   -0.304542
   4 C :   -0.199197
   5 C :   -0.192260
   6 O :    0.292632
   7 C :   -0.428107
   8 O :    0.129940
   9 H :    0.101202
  10 H :    0.119928
  11 H :    0.121492
  12 H :    0.136382
  13 H :    0.126025
  14 H :    0.148834
  15 H :    0.132241
  16 H :    0.139640
  17 H :    0.109524

  Mayer bond orders larger than 0.1
B(  0-C ,  1-N ) :   0.8900 B(  0-C ,  9-H ) :   0.9209 B(  0-C , 10-H ) :   0.9379
B(  0-C , 11-H ) :   0.9397 B(  1-N ,  2-C ) :   0.9470 B(  1-N ,  5-C ) :   0.9938
B(  2-C ,  3-C ) :   0.9539 B(  2-C , 12-H ) :   0.9035 B(  2-C , 13-H ) :   0.9152
B(  3-C ,  4-C ) :   0.8867 B(  3-C ,  5-C ) :   0.8822 B(  3-C ,  6-O ) :   0.9454
B(  4-C ,  5-C ) :   0.8693 B(  4-C , 14-H ) :   0.9210 B(  4-C , 15-H ) :   0.9041
B(  5-C , 16-H ) :   0.9040 B(  6-O ,  7-C ) :   1.0181 B(  7-C ,  8-O ) :   2.0456
B(  7-C , 17-H ) :   0.9195

MP2 TOTAL ENERGY:     -438.319886041 Eh
FINAL SINGLE POINT ENERGY      -438.319886040725

DIPOLE MOMENT
-------------
                                X             Y             Z
Electronic contribution:      4.31929      -9.56335      -1.02309
Nuclear contribution   :     -4.48913      11.18905       1.27552
                        -----------------------------------------
Total Dipole Moment    :     -0.16984       1.62570       0.25244
                        -----------------------------------------
Magnitude (a.u.)       :      1.65392
Magnitude (Debye)      :      4.20394

                             ****ORCA TERMINATED NORMALLY****
TOTAL RUN TIME: 0 days 0 hours 15 minutes 34 seconds 258 msec
