                         Program Version 3.0.3 - RELEASE   -
|  1> ! RI-MP2 RIJK def2-TZVP def2-TZVP/C def2-TZVP/JK TIGHTSCF
|  2> % maxcore 2000
|  3> % mp2 density relaxed end
|  4> *xyz 0 1
|  5>  O       -0.0008565563     1.4315507040    -0.1578424871
|  6>  C        0.0201899439     0.0181446003     0.0204781022
|  7>  C        0.6207458358    -0.4619928574     1.3482266730
|  8>  C        0.1034381839     0.0940869419     2.6246449655
|  9>  N       -0.3976159511    -1.1936719494     2.1327375560
| 10>  C       -1.6325143949    -1.1810188913     1.3445968582
| 11>  C       -2.3748216822     0.1000219453     0.9924650258
| 12>  C       -1.4165057981    -0.5250613360     0.0149772761
| 13>  O       -1.8855554518    -1.1091602094    -1.1594165562
| 14>  H        0.9057608576     1.7508589216    -0.1063710227
| 15>  H        0.5508513760    -0.4646347894    -0.8117780003
| 16>  H        1.6104474356    -0.9113358794     1.3159817767
| 17>  H        0.7117733715     0.0222805438     3.5222387433
| 18>  H       -0.5337135614     0.9708238739     2.5874435076
| 19>  H       -2.2177848012    -2.0892579831     1.4297603571
| 20>  H       -3.4276608499    -0.0374172466     0.7681546333
| 21>  H       -2.1314246773     1.0519968805     1.4461071845
| 22>  H       -2.1901647499    -0.4013194991    -1.7383066229
| 23> *
| 24>
| 25>                          ****END OF INPUT****

CARTESIAN COORDINATES (ANGSTROEM)
---------------------------------
  O     -0.000857    1.431551   -0.157842
  C      0.020190    0.018145    0.020478
  C      0.620746   -0.461993    1.348227
  C      0.103438    0.094087    2.624645
  N     -0.397616   -1.193672    2.132738
  C     -1.632514   -1.181019    1.344597
  C     -2.374822    0.100022    0.992465
  C     -1.416506   -0.525061    0.014977
  O     -1.885555   -1.109160   -1.159417
  H      0.905761    1.750859   -0.106371
  H      0.550851   -0.464635   -0.811778
  H      1.610447   -0.911336    1.315982
  H      0.711773    0.022281    3.522239
  H     -0.533714    0.970824    2.587444
  H     -2.217785   -2.089258    1.429760
  H     -3.427661   -0.037417    0.768155
  H     -2.131425    1.051997    1.446107
  H     -2.190165   -0.401319   -1.738307

 Total Charge           Charge          ....    0
 Multiplicity           Mult            ....    1
 Number of Electrons    NEL             ....   68
 Basis Dimension        Dim             ....  333

ORBITAL ENERGIES
----------------

  NO   OCC          E(Eh)            E(eV)
   0   2.0000     -20.567067      -559.6583
   1   2.0000     -20.566516      -559.6434
   2   2.0000     -15.564452      -423.5303
   3   2.0000     -11.293314      -307.3067
   4   2.0000     -11.285944      -307.1062
   5   2.0000     -11.260235      -306.4066
   6   2.0000     -11.258926      -306.3710
   7   2.0000     -11.258511      -306.3596
   8   2.0000     -11.229768      -305.5775
   9   2.0000      -1.384859       -37.6839
  10   2.0000      -1.366313       -37.1793
  11   2.0000      -1.285965       -34.9929
  12   2.0000      -1.124113       -30.5887
  13   2.0000      -0.988528       -26.8992
  14   2.0000      -0.919113       -25.0103
  15   2.0000      -0.824110       -22.4252
  16   2.0000      -0.796406       -21.6713
  17   2.0000      -0.773539       -21.0491
  18   2.0000      -0.722124       -19.6500
  19   2.0000      -0.695233       -18.9183
  20   2.0000      -0.668610       -18.1938
  21   2.0000      -0.643255       -17.5039
  22   2.0000      -0.612848       -16.6764
  23   2.0000      -0.601614       -16.3708
  24   2.0000      -0.580576       -15.7983
  25   2.0000      -0.563802       -15.3418
  26   2.0000      -0.525221       -14.2920
  27   2.0000      -0.520997       -14.1771
  28   2.0000      -0.493700       -13.4343
  29   2.0000      -0.466782       -12.7018
  30   2.0000      -0.448402       -12.2016
  31   2.0000      -0.427538       -11.6339
  32   2.0000      -0.391120       -10.6429
  33   2.0000      -0.367835       -10.0093
  34   0.0000       0.128622         3.5000
  35   0.0000       0.153618         4.1802
  36   0.0000       0.162780         4.4295
  37   0.0000       0.174955         4.7608
  38   0.0000       0.183831         5.0023

MULLIKEN ATOMIC CHARGES
-----------------------
   0 O :   -0.451314
   1 C :    0.069361
   2 C :   -0.126759
   3 C :   -0.165795
   4 N :   -0.205537
   5 C :   -0.058044
   6 C :   -0.305084
   7 C :    0.170450
   8 O :   -0.453211
   9 H :    0.316207
  10 H :    0.092484
  11 H :    0.131393
  12 H :    0.130160
  13 H :    0.122708
  14 H :    0.130479
  15 H :    0.136966
  16 H :    0.136371
  17 H :    0.329166
Sum of atomic charges:   -0.0000000

LOEWDIN ATOMIC CHARGES
----------------------
   0 O :   -0.019329
   1 C :   -0.280849
   2 C :   -0.226144
   3 C :   -0.237660
   4 N :    0.135403
   5 C :   -0.205295
   6 C :   -0.188728
   7 C :   -0.331135
   8 O :    0.027917
   9 H :    0.175495
  10 H :    0.145965
  11 H :    0.138056
  12 H :    0.127416
  13 H :    0.126788
  14 H :    0.147501
  15 H :    0.142635
  16 H :    0.135335
  17 H :    0.186631

  Mayer bond orders larger than 0.1
B(  0-O ,  1-C ) :   1.0617 B(  0-O ,  9-H ) :   0.8452 B(  1-C ,  2-C ) :   0.9525
B(  1-C ,  7-C ) :   0.9320 B(  1-C , 10-H ) :   0.9302 B(  2-C ,  3-C ) :   0.9504
B(  2-C ,  4-N ) :   0.8850 B(  2-C , 11-H ) :   0.9057 B(  3-C ,  4-N ) :   0.8982
B(  3-C , 12-H ) :   0.9267 B(  3-C , 13-H ) :   0.9012 B(  4-N ,  5-C ) :   0.9538
B(  5-C ,  6-C ) :   0.8865 B(  5-C ,  7-C ) :   0.8807 B(  5-C , 14-H ) :   0.9259
B(  6-C ,  7-C ) :   0.8892 B(  6-C , 15-H ) :   0.9240 B(  6-C , 16-H ) :   0.8886
B(  7-C ,  8-O ) :   1.0266 B(  8-O , 17-H ) :   0.8362

MP2 TOTAL ENERGY:     -438.315720087 Eh
FINAL SINGLE POINT ENERGY      -438.315720086984

DIPOLE MOMENT
-------------
                                X             Y             Z
Electronic contribution:      0.12512      -1.45491      -1.81993
Nuclear contribution   :      0.24755       2.24169       1.65064
                        -----------------------------------------
Total Dipole Moment    :      0.37267       0.78677      -0.16929
                        -----------------------------------------
Magnitude (a.u.)       :      0.88688
Magnitude (Debye)      :      2.25427

                             ****ORCA TERMINATED NORMALLY****
TOTAL RUN TIME: 0 days 0 hours 16 minutes 16 seconds 442 msec
