                         Program Version 3.0.3 - RELEASE   -
|  1> ! RI-MP2 RIJK def2-TZVP def2-TZVP/C def2-TZVP/JK TIGHTSCF
|  2> % maxcore 2000
|  3> % mp2 density relaxed end
|  4> *xyz 0 1
|  5>  O       -0.1116761063     0.0258158991     0.5111720703
|  6>  C        0.1396866742     0.9185895833    -0.2645997056
|  7>  C        1.3101328678     1.7560420635    -0.1873124496
|  8>  C        2.2735025391     2.4839865817    -0.1564131186
|  9>  C        3.4422553258     3.3085681263    -0.0807617667
| 10>  O        3.7297472992     4.1699643677    -1.1864079551
| 11>  C        3.3460366739     4.7951307170     0.0390862693
| 12>  C        2.0878647122     5.4841308180     0.0846585810
| 13>  C        1.0527112162     6.0900281947     0.1506004800
| 14>  H       -0.5319477002     1.1617034474    -1.1121204676
| 15>  H        4.3197698921     2.8374071038     0.3609307810
| 16>  H        4.1663094758     5.2843431391     0.5641072009
| 17>  H        0.1329656105     6.6196179384     0.2014608807
| 18> *
| 19>
| 20>                          ****END OF INPUT****

CARTESIAN COORDINATES (ANGSTROEM)
---------------------------------
  O     -0.111676    0.025816    0.511172
  C      0.139687    0.918590   -0.264600
  C      1.310133    1.756042   -0.187312
  C      2.273503    2.483987   -0.156413
  C      3.442255    3.308568   -0.080762
  O      3.729747    4.169964   -1.186408
  C      3.346037    4.795131    0.039086
  C      2.087865    5.484131    0.084659
  C      1.052711    6.090028    0.150600
  H     -0.531948    1.161703   -1.112120
  H      4.319770    2.837407    0.360931
  H      4.166309    5.284343    0.564107
  H      0.132966    6.619618    0.201461

 Total Charge           Charge          ....    0
 Multiplicity           Mult            ....    1
 Number of Electrons    NEL             ....   62
 Basis Dimension        Dim             ....  303

ORBITAL ENERGIES
----------------

  NO   OCC          E(Eh)            E(eV)
   0   2.0000     -20.611887      -560.8780
   1   2.0000     -20.577286      -559.9364
   2   2.0000     -11.366801      -309.3064
   3   2.0000     -11.348148      -308.7988
   4   2.0000     -11.347062      -308.7692
   5   2.0000     -11.279003      -306.9173
   6   2.0000     -11.263205      -306.4874
   7   2.0000     -11.258665      -306.3639
   8   2.0000     -11.254257      -306.2439
   9   2.0000      -1.456242       -39.6263
  10   2.0000      -1.412354       -38.4321
  11   2.0000      -1.092788       -29.7363
  12   2.0000      -1.071680       -29.1619
  13   2.0000      -0.989725       -26.9318
  14   2.0000      -0.947476       -25.7821
  15   2.0000      -0.893208       -24.3054
  16   2.0000      -0.789279       -21.4774
  17   2.0000      -0.736039       -20.0286
  18   2.0000      -0.729675       -19.8555
  19   2.0000      -0.714181       -19.4339
  20   2.0000      -0.667080       -18.1522
  21   2.0000      -0.639533       -17.4026
  22   2.0000      -0.609022       -16.5723
  23   2.0000      -0.566517       -15.4157
  24   2.0000      -0.532649       -14.4941
  25   2.0000      -0.505844       -13.7647
  26   2.0000      -0.463308       -12.6072
  27   2.0000      -0.435167       -11.8415
  28   2.0000      -0.425573       -11.5804
  29   2.0000      -0.414506       -11.2793
  30   2.0000      -0.391791       -10.6612
  31   0.0000       0.062993         1.7141
  32   0.0000       0.121555         3.3077
  33   0.0000       0.135120         3.6768
  34   0.0000       0.152575         4.1518
  35   0.0000       0.155341         4.2270

MULLIKEN ATOMIC CHARGES
-----------------------
   0 O :   -0.248179
   1 C :    0.036393
   2 C :    0.113888
   3 C :    0.064168
   4 C :   -0.112690
   5 O :   -0.281505
   6 C :   -0.113044
   7 C :    0.017942
   8 C :   -0.089090
   9 H :    0.113531
  10 H :    0.153039
  11 H :    0.143261
  12 H :    0.202287
Sum of atomic charges:   -0.0000000

LOEWDIN ATOMIC CHARGES
----------------------
   0 O :    0.153478
   1 C :   -0.288485
   2 C :   -0.031273
   3 C :   -0.004763
   4 C :   -0.235699
   5 O :    0.205748
   6 C :   -0.236240
   7 C :   -0.084449
   8 C :   -0.054632
   9 H :    0.127437
  10 H :    0.159291
  11 H :    0.157667
  12 H :    0.131920

  Mayer bond orders larger than 0.1
B(  0-O ,  1-C ) :   2.0032 B(  1-C ,  2-C ) :   0.8614 B(  1-C ,  9-H ) :   0.9959
B(  2-C ,  3-C ) :   2.6429 B(  2-C ,  4-C ) :  -0.1575 B(  3-C ,  4-C ) :   1.1117
B(  4-C ,  5-O ) :   0.9429 B(  4-C ,  6-C ) :   0.9293 B(  4-C , 10-H ) :   0.9236
B(  5-O ,  6-C ) :   0.9263 B(  6-C ,  7-C ) :   1.1687 B(  6-C ,  8-C ) :  -0.1274
B(  6-C , 11-H ) :   0.9347 B(  7-C ,  8-C ) :   2.5870 B(  8-C , 12-H ) :   0.8864

MP2 TOTAL ENERGY:     -418.601402509 Eh
FINAL SINGLE POINT ENERGY      -418.601402508540

DIPOLE MOMENT
-------------
                                X             Y             Z
Electronic contribution:     -0.13244      -2.06102      -0.39266
Nuclear contribution   :      0.39728       2.96910       0.50012
                        -----------------------------------------
Total Dipole Moment    :      0.26484       0.90808       0.10746
                        -----------------------------------------
Magnitude (a.u.)       :      0.95200
Magnitude (Debye)      :      2.41978

                             ****ORCA TERMINATED NORMALLY****
TOTAL RUN TIME: 0 days 0 hours 11 minutes 22 seconds 464 msec
