                         Program Version 3.0.3 - RELEASE   -
|  1> ! RI-MP2 RIJK def2-TZVP def2-TZVP/C def2-TZVP/JK TIGHTSCF
|  2> % maxcore 2000
|  3> % mp2 density relaxed end
|  4> *xyz 0 1
|  5>  C       -0.0108369894     1.5314481100    -0.0321225268
|  6>  C       -0.0221266401    -0.0206438645    -0.0106537810
|  7>  C        0.7658357117    -0.5405777649     1.2214689295
|  8>  C       -1.3956855803    -0.5164396291     0.0207727918
|  9>  C       -2.5302522503    -0.9039436836     0.0836735583
| 10>  C        0.6752087180    -0.5288692576    -1.2835264892
| 11>  O        0.1837424367    -1.2239879440    -2.1300120796
| 12>  C        2.0855393215    -0.0904526021    -1.4310202418
| 13>  N        3.1854081096     0.2425723054    -1.5607566064
| 14>  H        1.0135304838     1.9121733779    -0.0717228321
| 15>  H       -0.5665579563     1.9150255793    -0.8912085866
| 16>  H       -0.4849753464     1.9045253033     0.8786456151
| 17>  H        0.2915152328    -0.1672789373     2.1320499176
| 18>  H        0.7633939938    -1.6327546062     1.2552449067
| 19>  H        1.8004894446    -0.1872890792     1.1985945567
| 20>  H       -3.5321576798    -1.2544640774     0.1268913178
| 21> *
| 22>
| 23>                          ****END OF INPUT****

CARTESIAN COORDINATES (ANGSTROEM)
---------------------------------
  C     -0.010837    1.531448   -0.032123
  C     -0.022127   -0.020644   -0.010654
  C      0.765836   -0.540578    1.221469
  C     -1.395686   -0.516440    0.020773
  C     -2.530252   -0.903944    0.083674
  C      0.675209   -0.528869   -1.283526
  O      0.183742   -1.223988   -2.130012
  C      2.085539   -0.090453   -1.431020
  N      3.185408    0.242572   -1.560757
  H      1.013530    1.912173   -0.071723
  H     -0.566558    1.915026   -0.891209
  H     -0.484975    1.904525    0.878646
  H      0.291515   -0.167279    2.132050
  H      0.763394   -1.632755    1.255245
  H      1.800489   -0.187289    1.198595
  H     -3.532158   -1.254464    0.126891

 Total Charge           Charge          ....    0
 Multiplicity           Mult            ....    1
 Number of Electrons    NEL             ....   64
 Basis Dimension        Dim             ....  321

ORBITAL ENERGIES
----------------

  NO   OCC          E(Eh)            E(eV)
   0   2.0000     -20.605402      -560.7015
   1   2.0000     -15.612558      -424.8393
   2   2.0000     -11.401189      -310.2421
   3   2.0000     -11.311642      -307.8054
   4   2.0000     -11.301794      -307.5375
   5   2.0000     -11.256224      -306.2974
   6   2.0000     -11.256209      -306.2970
   7   2.0000     -11.249555      -306.1160
   8   2.0000     -11.241875      -305.9070
   9   2.0000      -1.449945       -39.4550
  10   2.0000      -1.249808       -34.0090
  11   2.0000      -1.154361       -31.4118
  12   2.0000      -1.030800       -28.0495
  13   2.0000      -0.972844       -26.4724
  14   2.0000      -0.952635       -25.9225
  15   2.0000      -0.881225       -23.9793
  16   2.0000      -0.750734       -20.4285
  17   2.0000      -0.716913       -19.5082
  18   2.0000      -0.703124       -19.1330
  19   2.0000      -0.648856       -17.6563
  20   2.0000      -0.635023       -17.2799
  21   2.0000      -0.601778       -16.3752
  22   2.0000      -0.591136       -16.0856
  23   2.0000      -0.580549       -15.7975
  24   2.0000      -0.563287       -15.3278
  25   2.0000      -0.558971       -15.2104
  26   2.0000      -0.524807       -14.2807
  27   2.0000      -0.504519       -13.7287
  28   2.0000      -0.491576       -13.3765
  29   2.0000      -0.474486       -12.9114
  30   2.0000      -0.408569       -11.1177
  31   2.0000      -0.406178       -11.0527
  32   0.0000       0.059943         1.6311
  33   0.0000       0.121525         3.3069
  34   0.0000       0.147258         4.0071
  35   0.0000       0.151578         4.1246
  36   0.0000       0.156178         4.2498

MULLIKEN ATOMIC CHARGES
-----------------------
   0 C :   -0.425492
   1 C :   -0.004586
   2 C :   -0.425464
   3 C :   -0.057543
   4 C :   -0.116921
   5 C :    0.291375
   6 O :   -0.197906
   7 C :   -0.177935
   8 N :   -0.026113
   9 H :    0.162108
  10 H :    0.156807
  11 H :    0.151536
  12 H :    0.151529
  13 H :    0.156788
  14 H :    0.162117
  15 H :    0.199702
Sum of atomic charges:   -0.0000000

LOEWDIN ATOMIC CHARGES
----------------------
   0 C :   -0.231271
   1 C :   -0.281020
   2 C :   -0.231291
   3 C :   -0.063979
   4 C :   -0.068663
   5 C :   -0.272192
   6 O :    0.236574
   7 C :   -0.137801
   8 N :    0.100539
   9 H :    0.135403
  10 H :    0.136464
  11 H :    0.137546
  12 H :    0.137551
  13 H :    0.136462
  14 H :    0.135410
  15 H :    0.130267

  Mayer bond orders larger than 0.1
B(  0-C ,  1-C ) :   0.8990 B(  0-C ,  9-H ) :   0.9204 B(  0-C , 10-H ) :   0.9283
B(  0-C , 11-H ) :   0.9254 B(  1-C ,  2-C ) :   0.8992 B(  1-C ,  3-C ) :   1.1552
B(  1-C ,  4-C ) :  -0.1011 B(  1-C ,  5-C ) :   0.8528 B(  1-C ,  6-O ) :  -0.1284
B(  2-C , 12-H ) :   0.9254 B(  2-C , 13-H ) :   0.9283 B(  2-C , 14-H ) :   0.9204
B(  3-C ,  4-C ) :   2.6157 B(  4-C , 15-H ) :   0.8673 B(  5-C ,  6-O ) :   2.0301
B(  5-C ,  7-C ) :   0.8907 B(  7-C ,  8-N ) :   2.7963

MP2 TOTAL ENERGY:     -400.034356686 Eh
FINAL SINGLE POINT ENERGY      -400.034356685593

DIPOLE MOMENT
-------------
                                X             Y             Z
Electronic contribution:      2.08209      -3.44030      -6.97794
Nuclear contribution   :     -2.91495       3.76142       8.02546
                        -----------------------------------------
Total Dipole Moment    :     -0.83286       0.32112       1.04753
                        -----------------------------------------
Magnitude (a.u.)       :      1.37626
Magnitude (Debye)      :      3.49817

                             ****ORCA TERMINATED NORMALLY****
TOTAL RUN TIME: 0 days 0 hours 19 minutes 4 seconds 173 msec
