                         Program Version 3.0.3 - RELEASE   -
|  1> ! RI-MP2 RIJK def2-TZVP def2-TZVP/C def2-TZVP/JK TIGHTSCF
|  2> % maxcore 2000
|  3> % mp2 density relaxed end
|  4> *xyz 0 1
|  5>  N       -0.1332449737     1.2551365137     0.0449094733
|  6>  C       -0.4166618256    -0.0394197529    -0.3786911676
|  7>  O       -0.1028083473    -0.4578720171    -1.4757134547
|  8>  N       -1.0705021046    -0.8038485895     0.5718202783
|  9>  C       -1.1794325467    -2.2240642958     0.3941417611
| 10>  C       -2.3843854805    -2.9136719330     0.9815776749
| 11>  C       -2.2369118302    -2.7971244980    -0.5150159865
| 12>  C       -3.1592713679    -1.9148496572    -1.3109488908
| 13>  O       -4.3600692949    -2.6426723345    -1.5518930612
| 14>  H        0.1260727626     1.8597404244    -0.7199509503
| 15>  H       -0.7664164321     1.6816646103     0.7050547277
| 16>  H       -1.0043080568    -0.4878292607     1.5282784062
| 17>  H       -0.2347658598    -2.7638138588     0.4140414201
| 18>  H       -2.2474035792    -3.8786250006     1.4556027704
| 19>  H       -3.1319197257    -2.2812689560     1.4494086603
| 20>  H       -1.9412556864    -3.6998407692    -1.0407119870
| 21>  H       -3.3611618698    -0.9888473590    -0.7529065435
| 22>  H       -2.6652695528    -1.6327001561    -2.2512526584
| 23>  H       -4.8850004690    -2.1410276098    -2.1823987022
| 24> *
| 25>
| 26>                          ****END OF INPUT****

CARTESIAN COORDINATES (ANGSTROEM)
---------------------------------
  N     -0.133245    1.255137    0.044909
  C     -0.416662   -0.039420   -0.378691
  O     -0.102808   -0.457872   -1.475713
  N     -1.070502   -0.803849    0.571820
  C     -1.179433   -2.224064    0.394142
  C     -2.384385   -2.913672    0.981578
  C     -2.236912   -2.797124   -0.515016
  C     -3.159271   -1.914850   -1.310949
  O     -4.360069   -2.642672   -1.551893
  H      0.126073    1.859740   -0.719951
  H     -0.766416    1.681665    0.705055
  H     -1.004308   -0.487829    1.528278
  H     -0.234766   -2.763814    0.414041
  H     -2.247404   -3.878625    1.455603
  H     -3.131920   -2.281269    1.449409
  H     -1.941256   -3.699841   -1.040712
  H     -3.361162   -0.988847   -0.752907
  H     -2.665270   -1.632700   -2.251253
  H     -4.885000   -2.141028   -2.182399

 Total Charge           Charge          ....    0
 Multiplicity           Mult            ....    1
 Number of Electrons    NEL             ....   70
 Basis Dimension        Dim             ....  339

ORBITAL ENERGIES
----------------

  NO   OCC          E(Eh)            E(eV)
   0   2.0000     -20.548080      -559.1417
   1   2.0000     -20.513173      -558.1918
   2   2.0000     -15.584272      -424.0696
   3   2.0000     -15.581920      -424.0056
   4   2.0000     -11.376129      -309.5602
   5   2.0000     -11.268999      -306.6450
   6   2.0000     -11.268055      -306.6194
   7   2.0000     -11.228463      -305.5420
   8   2.0000     -11.227500      -305.5158
   9   2.0000      -1.394424       -37.9442
  10   2.0000      -1.351187       -36.7677
  11   2.0000      -1.248729       -33.9796
  12   2.0000      -1.201174       -32.6856
  13   2.0000      -1.120395       -30.4875
  14   2.0000      -0.943396       -25.6711
  15   2.0000      -0.852779       -23.2053
  16   2.0000      -0.809842       -22.0369
  17   2.0000      -0.761855       -20.7311
  18   2.0000      -0.738601       -20.0983
  19   2.0000      -0.705305       -19.1923
  20   2.0000      -0.696376       -18.9494
  21   2.0000      -0.674800       -18.3622
  22   2.0000      -0.631794       -17.1920
  23   2.0000      -0.613373       -16.6907
  24   2.0000      -0.607175       -16.5221
  25   2.0000      -0.588848       -16.0234
  26   2.0000      -0.559034       -15.2121
  27   2.0000      -0.538361       -14.6495
  28   2.0000      -0.490327       -13.3425
  29   2.0000      -0.456818       -12.4307
  30   2.0000      -0.446068       -12.1381
  31   2.0000      -0.442769       -12.0484
  32   2.0000      -0.427631       -11.6364
  33   2.0000      -0.422316       -11.4918
  34   2.0000      -0.383893       -10.4463
  35   0.0000       0.116410         3.1677
  36   0.0000       0.145978         3.9723
  37   0.0000       0.158204         4.3050
  38   0.0000       0.160760         4.3745
  39   0.0000       0.187642         5.1060

MULLIKEN ATOMIC CHARGES
-----------------------
   0 N :   -0.525855
   1 C :    0.383329
   2 O :   -0.383219
   3 N :   -0.395363
   4 C :   -0.012638
   5 C :   -0.271689
   6 C :   -0.016719
   7 C :   -0.104394
   8 O :   -0.464680
   9 H :    0.265817
  10 H :    0.248967
  11 H :    0.234313
  12 H :    0.122450
  13 H :    0.136128
  14 H :    0.131421
  15 H :    0.122882
  16 H :    0.092710
  17 H :    0.122806
  18 H :    0.313735
Sum of atomic charges:   -0.0000000

LOEWDIN ATOMIC CHARGES
----------------------
   0 N :   -0.071537
   1 C :   -0.567874
   2 O :    0.068275
   3 N :    0.090563
   4 C :   -0.241781
   5 C :   -0.203269
   6 C :   -0.204498
   7 C :   -0.328493
   8 O :   -0.052238
   9 H :    0.175400
  10 H :    0.164860
  11 H :    0.186054
  12 H :    0.143082
  13 H :    0.133459
  14 H :    0.138821
  15 H :    0.153838
  16 H :    0.119488
  17 H :    0.125691
  18 H :    0.170160

  Mayer bond orders larger than 0.1
B(  0-N ,  1-C ) :   1.0877 B(  0-N ,  9-H ) :   0.8690 B(  0-N , 10-H ) :   0.8723
B(  1-C ,  2-O ) :   1.9537 B(  1-C ,  3-N ) :   1.0762 B(  3-N ,  4-C ) :   0.8812
B(  3-N , 11-H ) :   0.8719 B(  4-C ,  5-C ) :   0.8919 B(  4-C ,  6-C ) :   0.8742
B(  4-C , 12-H ) :   0.9401 B(  5-C ,  6-C ) :   0.8785 B(  5-C , 13-H ) :   0.9295
B(  5-C , 14-H ) :   0.9242 B(  6-C ,  7-C ) :   0.9455 B(  6-C , 15-H ) :   0.9237
B(  7-C ,  8-O ) :   1.0192 B(  7-C , 16-H ) :   0.9200 B(  7-C , 17-H ) :   0.9322
B(  8-O , 18-H ) :   0.8503

MP2 TOTAL ENERGY:     -455.632929996 Eh
FINAL SINGLE POINT ENERGY      -455.632929996470

DIPOLE MOMENT
-------------
                                X             Y             Z
Electronic contribution:      2.55712       1.73623      -1.44345
Nuclear contribution   :     -2.92936      -0.71090       2.35407
                        -----------------------------------------
Total Dipole Moment    :     -0.37223       1.02534       0.91062
                        -----------------------------------------
Magnitude (a.u.)       :      1.42095
Magnitude (Debye)      :      3.61177

                             ****ORCA TERMINATED NORMALLY****
TOTAL RUN TIME: 0 days 0 hours 24 minutes 42 seconds 755 msec
