                         Program Version 3.0.3 - RELEASE   -
|  1> ! RI-MP2 RIJK def2-TZVP def2-TZVP/C def2-TZVP/JK TIGHTSCF
|  2> % maxcore 2000
|  3> % mp2 density relaxed end
|  4> *xyz 0 1
|  5>  N        0.0813185438    -1.1486133070     0.0370066854
|  6>  C        0.0330350001     0.0067057884     0.0175474389
|  7>  C       -0.0763897101     1.4318372641    -0.0099926081
|  8>  C        0.2724939828     2.2779781372    -1.1843228303
|  9>  N        1.1175206995     2.3931451467     0.0057368159
| 10>  C        0.3538848710     3.2695001674     0.9748261048
| 11>  C       -0.8139101769     2.2810127510     1.0129465600
| 12>  C       -2.2414423043     2.3816455608     1.3128622124
| 13>  O       -1.3087600005     1.7522452226     2.2130648502
| 14>  H        0.7656830704     1.7875093227    -2.0171826132
| 15>  H       -0.3946969510     3.0947150328    -1.4532856980
| 16>  H        0.8778684471     3.3117190710     1.9311968042
| 17>  H        0.1711237521     4.2803397317     0.5992408350
| 18>  H       -2.6556272916     3.3258783326     1.6618252724
| 19>  H       -2.9442548823     1.7067249781     0.8277247205
| 20> *
| 21>
| 22>                          ****END OF INPUT****

CARTESIAN COORDINATES (ANGSTROEM)
---------------------------------
  N      0.081319   -1.148613    0.037007
  C      0.033035    0.006706    0.017547
  C     -0.076390    1.431837   -0.009993
  C      0.272494    2.277978   -1.184323
  N      1.117521    2.393145    0.005737
  C      0.353885    3.269500    0.974826
  C     -0.813910    2.281013    1.012947
  C     -2.241442    2.381646    1.312862
  O     -1.308760    1.752245    2.213065
  H      0.765683    1.787509   -2.017183
  H     -0.394697    3.094715   -1.453286
  H      0.877868    3.311719    1.931197
  H      0.171124    4.280340    0.599241
  H     -2.655627    3.325878    1.661825
  H     -2.944255    1.706725    0.827725

 Total Charge           Charge          ....    0
 Multiplicity           Mult            ....    1
 Number of Electrons    NEL             ....   64
 Basis Dimension        Dim             ....  315

ORBITAL ENERGIES
----------------

  NO   OCC          E(Eh)            E(eV)
   0   2.0000     -20.597840      -560.4957
   1   2.0000     -15.610237      -424.7761
   2   2.0000     -15.581802      -424.0024
   3   2.0000     -11.333545      -308.4014
   4   2.0000     -11.327500      -308.2369
   5   2.0000     -11.309916      -307.7584
   6   2.0000     -11.303180      -307.5752
   7   2.0000     -11.291025      -307.2444
   8   2.0000     -11.282716      -307.0183
   9   2.0000      -1.448793       -39.4237
  10   2.0000      -1.334890       -36.3242
  11   2.0000      -1.223578       -33.2953
  12   2.0000      -1.032726       -28.1019
  13   2.0000      -0.991244       -26.9731
  14   2.0000      -0.940953       -25.6046
  15   2.0000      -0.876618       -23.8540
  16   2.0000      -0.825556       -22.4645
  17   2.0000      -0.741818       -20.1859
  18   2.0000      -0.716962       -19.5095
  19   2.0000      -0.674624       -18.3574
  20   2.0000      -0.662021       -18.0145
  21   2.0000      -0.611337       -16.6353
  22   2.0000      -0.584637       -15.9088
  23   2.0000      -0.573911       -15.6169
  24   2.0000      -0.546878       -14.8813
  25   2.0000      -0.537157       -14.6168
  26   2.0000      -0.515569       -14.0294
  27   2.0000      -0.499584       -13.5944
  28   2.0000      -0.477843       -13.0028
  29   2.0000      -0.456978       -12.4350
  30   2.0000      -0.452448       -12.3117
  31   2.0000      -0.396105       -10.7786
  32   0.0000       0.121967         3.3189
  33   0.0000       0.134499         3.6599
  34   0.0000       0.154014         4.1909
  35   0.0000       0.157863         4.2957
  36   0.0000       0.168352         4.5811

MULLIKEN ATOMIC CHARGES
-----------------------
   0 N :   -0.036238
   1 C :   -0.267691
   2 C :    0.208907
   3 C :   -0.139383
   4 N :   -0.204348
   5 C :   -0.121560
   6 C :    0.117459
   7 C :   -0.083698
   8 O :   -0.310730
   9 H :    0.155194
  10 H :    0.136432
  11 H :    0.146646
  12 H :    0.134527
  13 H :    0.127952
  14 H :    0.136532
Sum of atomic charges:   -0.0000000

LOEWDIN ATOMIC CHARGES
----------------------
   0 N :    0.089947
   1 C :   -0.142623
   2 C :   -0.203416
   3 C :   -0.193985
   4 N :    0.148133
   5 C :   -0.188196
   6 C :   -0.295911
   7 C :   -0.220611
   8 O :    0.197849
   9 H :    0.144728
  10 H :    0.134533
  11 H :    0.145015
  12 H :    0.130191
  13 H :    0.125758
  14 H :    0.128587

  Mayer bond orders larger than 0.1
B(  0-N ,  1-C ) :   2.8520 B(  1-C ,  2-C ) :   0.9292 B(  2-C ,  3-C ) :   0.9006
B(  2-C ,  4-N ) :   0.8621 B(  2-C ,  6-C ) :   0.8670 B(  3-C ,  4-N ) :   0.9071
B(  3-C ,  9-H ) :   0.9142 B(  3-C , 10-H ) :   0.9016 B(  4-N ,  5-C ) :   0.9119
B(  5-C ,  6-C ) :   0.9610 B(  5-C , 11-H ) :   0.9029 B(  5-C , 12-H ) :   0.9319
B(  6-C ,  7-C ) :   0.9816 B(  6-C ,  8-O ) :   0.9457 B(  7-C ,  8-O ) :   0.8925
B(  7-C , 13-H ) :   0.9173 B(  7-C , 14-H ) :   0.9047

MP2 TOTAL ENERGY:     -416.030972709 Eh
FINAL SINGLE POINT ENERGY      -416.030972709310

DIPOLE MOMENT
-------------
                                X             Y             Z
Electronic contribution:      1.36000      -5.09346       0.83410
Nuclear contribution   :     -2.17217       7.05660      -1.43398
                        -----------------------------------------
Total Dipole Moment    :     -0.81217       1.96314      -0.59989
                        -----------------------------------------
Magnitude (a.u.)       :      2.20758
Magnitude (Debye)      :      5.61122

                             ****ORCA TERMINATED NORMALLY****
TOTAL RUN TIME: 0 days 0 hours 15 minutes 38 seconds 454 msec
