                         Program Version 3.0.3 - RELEASE   -
|  1> ! RI-MP2 RIJK def2-TZVP def2-TZVP/C def2-TZVP/JK TIGHTSCF
|  2> % maxcore 2000
|  3> % mp2 density relaxed end
|  4> *xyz 0 1
|  5>  C        0.0008489100     1.4965533760     0.0448746867
|  6>  C       -0.0417667493     0.0048941755    -0.0216428407
|  7>  C       -0.0820971452    -0.7826778874    -1.1007944864
|  8>  C       -0.0165453801    -2.2339611939    -0.7460853037
|  9>  C        1.2803730454    -2.6563256966    -0.0837760106
| 10>  C        0.0851700036    -2.2675341808     0.7608507516
| 11>  C       -0.0062555808    -0.8270595741     1.2627961653
| 12>  O        1.0199760830    -0.4342480373     2.1690610004
| 13>  H        0.8639864847     1.8298243405     0.6319688744
| 14>  H        0.0550500990     1.9490341094    -0.9488520648
| 15>  H       -0.8872407885     1.8936653361     0.5543590079
| 16>  H       -0.1082432651    -0.4327426305    -2.1277986700
| 17>  H       -0.5902376554    -2.9651793089    -1.3041332986
| 18>  H        1.5426183253    -3.7093442678    -0.0907074862
| 19>  H        2.1269727067    -1.9815742396    -0.1735995123
| 20>  H       -0.3888440120    -3.0497503248     1.3406883656
| 21>  H       -0.9320976857    -0.6801297813     1.8351819756
| 22>  H        1.8587355245    -0.7147645544     1.7856017557
| 23> *
| 24>
| 25>                          ****END OF INPUT****

CARTESIAN COORDINATES (ANGSTROEM)
---------------------------------
  C      0.000849    1.496553    0.044875
  C     -0.041767    0.004894   -0.021643
  C     -0.082097   -0.782678   -1.100794
  C     -0.016545   -2.233961   -0.746085
  C      1.280373   -2.656326   -0.083776
  C      0.085170   -2.267534    0.760851
  C     -0.006256   -0.827060    1.262796
  O      1.019976   -0.434248    2.169061
  H      0.863986    1.829824    0.631969
  H      0.055050    1.949034   -0.948852
  H     -0.887241    1.893665    0.554359
  H     -0.108243   -0.432743   -2.127799
  H     -0.590238   -2.965179   -1.304133
  H      1.542618   -3.709344   -0.090707
  H      2.126973   -1.981574   -0.173600
  H     -0.388844   -3.049750    1.340688
  H     -0.932098   -0.680130    1.835182
  H      1.858736   -0.714765    1.785602

 Total Charge           Charge          ....    0
 Multiplicity           Mult            ....    1
 Number of Electrons    NEL             ....   60
 Basis Dimension        Dim             ....  308

ORBITAL ENERGIES
----------------

  NO   OCC          E(Eh)            E(eV)
   0   2.0000     -20.551844      -559.2441
   1   2.0000     -11.282400      -307.0097
   2   2.0000     -11.236969      -305.7735
   3   2.0000     -11.234222      -305.6987
   4   2.0000     -11.231606      -305.6275
   5   2.0000     -11.228464      -305.5420
   6   2.0000     -11.224634      -305.4378
   7   2.0000     -11.218587      -305.2733
   8   2.0000      -1.357903       -36.9504
   9   2.0000      -1.180559       -32.1246
  10   2.0000      -1.060059       -28.8457
  11   2.0000      -0.944911       -25.7123
  12   2.0000      -0.940673       -25.5970
  13   2.0000      -0.820157       -22.3176
  14   2.0000      -0.781355       -21.2617
  15   2.0000      -0.732048       -19.9200
  16   2.0000      -0.694823       -18.9071
  17   2.0000      -0.651793       -17.7362
  18   2.0000      -0.615222       -16.7410
  19   2.0000      -0.593689       -16.1551
  20   2.0000      -0.580647       -15.8002
  21   2.0000      -0.565149       -15.3785
  22   2.0000      -0.555946       -15.1281
  23   2.0000      -0.527810       -14.3624
  24   2.0000      -0.498306       -13.5596
  25   2.0000      -0.495741       -13.4898
  26   2.0000      -0.446484       -12.1494
  27   2.0000      -0.435010       -11.8372
  28   2.0000      -0.412163       -11.2155
  29   2.0000      -0.330396        -8.9905
  30   0.0000       0.139793         3.8040
  31   0.0000       0.148553         4.0423
  32   0.0000       0.156452         4.2573
  33   0.0000       0.162078         4.4104
  34   0.0000       0.184080         5.0091

MULLIKEN ATOMIC CHARGES
-----------------------
   0 C :   -0.429014
   1 C :   -0.041457
   2 C :   -0.190339
   3 C :   -0.021306
   4 C :   -0.320994
   5 C :   -0.113635
   6 C :    0.092337
   7 O :   -0.458048
   8 H :    0.146191
   9 H :    0.134360
  10 H :    0.135820
  11 H :    0.125539
  12 H :    0.132950
  13 H :    0.133493
  14 H :    0.132206
  15 H :    0.129506
  16 H :    0.101002
  17 H :    0.311390
Sum of atomic charges:    0.0000000

LOEWDIN ATOMIC CHARGES
----------------------
   0 C :   -0.275038
   1 C :   -0.171808
   2 C :   -0.115219
   3 C :   -0.184054
   4 C :   -0.201907
   5 C :   -0.173676
   6 C :   -0.274021
   7 O :   -0.018478
   8 H :    0.133934
   9 H :    0.128723
  10 H :    0.132951
  11 H :    0.139893
  12 H :    0.144454
  13 H :    0.134488
  14 H :    0.130820
  15 H :    0.145102
  16 H :    0.150651
  17 H :    0.173184

  Mayer bond orders larger than 0.1
B(  0-C ,  1-C ) :   0.9203 B(  0-C ,  8-H ) :   0.9281 B(  0-C ,  9-H ) :   0.9466
B(  0-C , 10-H ) :   0.9279 B(  1-C ,  2-C ) :   1.7481 B(  1-C ,  6-C ) :   0.9580
B(  2-C ,  3-C ) :   0.9119 B(  2-C , 11-H ) :   0.9249 B(  3-C ,  4-C ) :   0.8484
B(  3-C ,  5-C ) :   0.8727 B(  3-C , 12-H ) :   0.9218 B(  4-C ,  5-C ) :   0.8823
B(  4-C , 13-H ) :   0.9275 B(  4-C , 14-H ) :   0.9294 B(  5-C ,  6-C ) :   0.9274
B(  5-C , 15-H ) :   0.9306 B(  6-C ,  7-O ) :   0.9505 B(  6-C , 16-H ) :   0.9097
B(  7-O , 17-H ) :   0.8393

MP2 TOTAL ENERGY:     -347.195452652 Eh
FINAL SINGLE POINT ENERGY      -347.195452652263

DIPOLE MOMENT
-------------
                                X             Y             Z
Electronic contribution:     -0.33574      -1.63864       1.22038
Nuclear contribution   :      0.39074       1.33178      -1.76663
                        -----------------------------------------
Total Dipole Moment    :      0.05500      -0.30687      -0.54625
                        -----------------------------------------
Magnitude (a.u.)       :      0.62895
Magnitude (Debye)      :      1.59867

                             ****ORCA TERMINATED NORMALLY****
TOTAL RUN TIME: 0 days 0 hours 14 minutes 6 seconds 709 msec
