                         Program Version 3.0.3 - RELEASE   -
|  1> ! RI-MP2 RIJK def2-TZVP def2-TZVP/C def2-TZVP/JK TIGHTSCF
|  2> % maxcore 2000
|  3> % mp2 density relaxed end
|  4> *xyz 0 1
|  5>  C        0.0215424646     1.3326620247    -0.0463621848
|  6>  O       -0.0132018583    -0.0725919195    -0.1475643152
|  7>  C       -1.3103645076    -0.6062490969     0.0310984528
|  8>  C       -1.2080744529    -2.0978086464    -0.0196665106
|  9>  N       -2.2028889128    -2.9467480123    -0.1495314256
| 10>  C       -1.6205710348    -4.1942761144    -0.1054994190
| 11>  C       -0.2635361422    -4.0900052274     0.0481256525
| 12>  N       -0.0137176235    -2.7366323719     0.1077573109
| 13>  H        1.0581260384     1.6447716367    -0.1922835644
| 14>  H       -0.6059816722     1.8093865679    -0.8144867876
| 15>  H       -0.3208435570     1.6773722843     0.9415836372
| 16>  H       -1.7275122826    -0.2804890333     0.9997386076
| 17>  H       -2.0027351997    -0.2559818693    -0.7496211012
| 18>  H       -2.2120870573    -5.0930536259    -0.1911206579
| 19>  H        0.5252842773    -4.8205147497     0.1116573044
| 20>  H        0.8735301305    -2.2680195166     0.1826812808
| 21> *
| 22>
| 23>                          ****END OF INPUT****

CARTESIAN COORDINATES (ANGSTROEM)
---------------------------------
  C      0.021542    1.332662   -0.046362
  O     -0.013202   -0.072592   -0.147564
  C     -1.310365   -0.606249    0.031098
  C     -1.208074   -2.097809   -0.019667
  N     -2.202889   -2.946748   -0.149531
  C     -1.620571   -4.194276   -0.105499
  C     -0.263536   -4.090005    0.048126
  N     -0.013718   -2.736632    0.107757
  H      1.058126    1.644772   -0.192284
  H     -0.605982    1.809387   -0.814487
  H     -0.320844    1.677372    0.941584
  H     -1.727512   -0.280489    0.999739
  H     -2.002735   -0.255982   -0.749621
  H     -2.212087   -5.093054   -0.191121
  H      0.525284   -4.820515    0.111657
  H      0.873530   -2.268020    0.182681

 Total Charge           Charge          ....    0
 Multiplicity           Mult            ....    1
 Number of Electrons    NEL             ....   60
 Basis Dimension        Dim             ....  296

ORBITAL ENERGIES
----------------

  NO   OCC          E(Eh)            E(eV)
   0   2.0000     -20.576152      -559.9056
   1   2.0000     -15.607716      -424.7075
   2   2.0000     -15.533843      -422.6973
   3   2.0000     -11.296940      -307.4054
   4   2.0000     -11.292559      -307.2862
   5   2.0000     -11.285505      -307.0942
   6   2.0000     -11.250365      -306.1380
   7   2.0000     -11.235157      -305.7242
   8   2.0000      -1.398422       -38.0530
   9   2.0000      -1.332022       -36.2462
  10   2.0000      -1.158142       -31.5146
  11   2.0000      -1.041586       -28.3430
  12   2.0000      -0.959403       -26.1067
  13   2.0000      -0.897188       -24.4137
  14   2.0000      -0.807683       -21.9782
  15   2.0000      -0.791633       -21.5414
  16   2.0000      -0.731272       -19.8989
  17   2.0000      -0.684544       -18.6274
  18   2.0000      -0.663402       -18.0521
  19   2.0000      -0.631827       -17.1929
  20   2.0000      -0.603605       -16.4249
  21   2.0000      -0.596862       -16.2414
  22   2.0000      -0.577625       -15.7180
  23   2.0000      -0.554808       -15.0971
  24   2.0000      -0.536722       -14.6050
  25   2.0000      -0.504698       -13.7335
  26   2.0000      -0.447127       -12.1669
  27   2.0000      -0.430722       -11.7205
  28   2.0000      -0.391668       -10.6578
  29   2.0000      -0.308218        -8.3870
  30   0.0000       0.134216         3.6522
  31   0.0000       0.153747         4.1837
  32   0.0000       0.170470         4.6387
  33   0.0000       0.180087         4.9004
  34   0.0000       0.189975         5.1695

MULLIKEN ATOMIC CHARGES
-----------------------
   0 C :   -0.219497
   1 O :   -0.328702
   2 C :   -0.064499
   3 C :    0.203427
   4 N :   -0.300597
   5 C :   -0.101475
   6 C :   -0.093007
   7 N :   -0.251756
   8 H :    0.140318
   9 H :    0.120817
  10 H :    0.118277
  11 H :    0.112881
  12 H :    0.125076
  13 H :    0.131510
  14 H :    0.147361
  15 H :    0.259866
Sum of atomic charges:   -0.0000000

LOEWDIN ATOMIC CHARGES
----------------------
   0 C :   -0.354758
   1 O :    0.125350
   2 C :   -0.286162
   3 C :   -0.330773
   4 N :    0.102918
   5 C :   -0.265792
   6 C :   -0.246348
   7 N :    0.203758
   8 H :    0.114295
   9 H :    0.105251
  10 H :    0.103760
  11 H :    0.130896
  12 H :    0.135272
  13 H :    0.131218
  14 H :    0.133525
  15 H :    0.197590

  Mayer bond orders larger than 0.1
B(  0-C ,  1-O ) :   0.9135 B(  0-C ,  8-H ) :   0.9382 B(  0-C ,  9-H ) :   0.9377
B(  0-C , 10-H ) :   0.9386 B(  1-O ,  2-C ) :   0.9494 B(  2-C ,  3-C ) :   0.9420
B(  2-C , 11-H ) :   0.9176 B(  2-C , 12-H ) :   0.9286 B(  3-C ,  4-N ) :   1.5625
B(  3-C ,  7-N ) :   1.1673 B(  4-N ,  5-C ) :   1.2718 B(  5-C ,  6-C ) :   1.5211
B(  5-C , 13-H ) :   0.9410 B(  6-C ,  7-N ) :   1.1153 B(  6-C , 14-H ) :   0.9126
B(  7-N , 15-H ) :   0.8545

MP2 TOTAL ENERGY:     -379.310211361 Eh
FINAL SINGLE POINT ENERGY      -379.310211361215

DIPOLE MOMENT
-------------
                                X             Y             Z
Electronic contribution:     -0.68854      -5.87702      -0.28532
Nuclear contribution   :      1.78054       6.57775       0.52074
                        -----------------------------------------
Total Dipole Moment    :      1.09199       0.70073       0.23542
                        -----------------------------------------
Magnitude (a.u.)       :      1.31867
Magnitude (Debye)      :      3.35179

                             ****ORCA TERMINATED NORMALLY****
TOTAL RUN TIME: 0 days 0 hours 10 minutes 54 seconds 174 msec
