                         Program Version 3.0.3 - RELEASE   -
|  1> ! RI-MP2 RIJK def2-TZVP def2-TZVP/C def2-TZVP/JK TIGHTSCF
|  2> % maxcore 2000
|  3> % mp2 density relaxed end
|  4> *xyz 0 1
|  5>  C        0.0650441387     1.5692925300    -0.0030876664
|  6>  C       -0.0201490799     0.0700366678     0.0524939536
|  7>  C        1.1245321676    -0.8314961494    -0.3400566595
|  8>  C        0.5826623604    -0.9376194503     1.0619603232
|  9>  C        1.3841399607    -0.7176470602     2.3112688254
| 10>  C       -0.6949479363    -1.7615694120     0.9986779660
| 11>  O       -1.6528580284    -1.3790076894     2.0074030100
| 12>  C       -2.3169202320    -0.4710778423     1.1016560941
| 13>  C       -1.3073242964    -0.7496212619    -0.0277839080
| 14>  H        1.0594078598     1.9201418804     0.2921925794
| 15>  H       -0.1242242219     1.9403579135    -1.0179589545
| 16>  H       -0.6635978660     2.0434719449     0.6638034462
| 17>  H        0.9811674877    -1.6345964445    -1.0614371138
| 18>  H        2.0908746820    -0.3419313307    -0.4194931304
| 19>  H        2.0693830425     0.1297650490     2.2037968662
| 20>  H        0.7187251246    -0.5162573473     3.1566222116
| 21>  H        1.9878225632    -1.5990492251     2.5596472668
| 22>  H       -0.6333675411    -2.8485940296     0.8823597526
| 23>  H       -3.3381507854    -0.8089514103     0.8841185154
| 24>  H       -2.3592824155     0.5541970384     1.4900275611
| 25>  H       -1.7057669845    -1.0098259210    -1.0106026089
| 26> *
| 27>
| 28>                          ****END OF INPUT****

CARTESIAN COORDINATES (ANGSTROEM)
---------------------------------
  C      0.065044    1.569293   -0.003088
  C     -0.020149    0.070037    0.052494
  C      1.124532   -0.831496   -0.340057
  C      0.582662   -0.937619    1.061960
  C      1.384140   -0.717647    2.311269
  C     -0.694948   -1.761569    0.998678
  O     -1.652858   -1.379008    2.007403
  C     -2.316920   -0.471078    1.101656
  C     -1.307324   -0.749621   -0.027784
  H      1.059408    1.920142    0.292193
  H     -0.124224    1.940358   -1.017959
  H     -0.663598    2.043472    0.663803
  H      0.981167   -1.634596   -1.061437
  H      2.090875   -0.341931   -0.419493
  H      2.069383    0.129765    2.203797
  H      0.718725   -0.516257    3.156622
  H      1.987823   -1.599049    2.559647
  H     -0.633368   -2.848594    0.882360
  H     -3.338151   -0.808951    0.884119
  H     -2.359282    0.554197    1.490028
  H     -1.705767   -1.009826   -1.010603

 Total Charge           Charge          ....    0
 Multiplicity           Mult            ....    1
 Number of Electrons    NEL             ....   68
 Basis Dimension        Dim             ....  351

ORBITAL ENERGIES
----------------

  NO   OCC          E(Eh)            E(eV)
   0   2.0000     -20.542989      -559.0031
   1   2.0000     -11.279898      -306.9416
   2   2.0000     -11.275109      -306.8113
   3   2.0000     -11.239696      -305.8477
   4   2.0000     -11.234849      -305.7158
   5   2.0000     -11.233331      -305.6745
   6   2.0000     -11.225997      -305.4749
   7   2.0000     -11.221657      -305.3568
   8   2.0000     -11.214923      -305.1736
   9   2.0000      -1.376937       -37.4684
  10   2.0000      -1.187467       -32.3126
  11   2.0000      -1.008338       -27.4383
  12   2.0000      -0.983861       -26.7722
  13   2.0000      -0.949534       -25.8381
  14   2.0000      -0.919928       -25.0325
  15   2.0000      -0.797514       -21.7015
  16   2.0000      -0.789941       -21.4954
  17   2.0000      -0.680226       -18.5099
  18   2.0000      -0.671096       -18.2614
  19   2.0000      -0.665516       -18.1096
  20   2.0000      -0.638087       -17.3632
  21   2.0000      -0.584999       -15.9186
  22   2.0000      -0.580022       -15.7832
  23   2.0000      -0.572088       -15.5673
  24   2.0000      -0.562810       -15.3148
  25   2.0000      -0.548526       -14.9262
  26   2.0000      -0.532466       -14.4891
  27   2.0000      -0.524169       -14.2634
  28   2.0000      -0.493415       -13.4265
  29   2.0000      -0.476670       -12.9709
  30   2.0000      -0.428641       -11.6639
  31   2.0000      -0.418098       -11.3770
  32   2.0000      -0.386066       -10.5054
  33   2.0000      -0.364698        -9.9239
  34   0.0000       0.136789         3.7222
  35   0.0000       0.158059         4.3010
  36   0.0000       0.166376         4.5273
  37   0.0000       0.173393         4.7183
  38   0.0000       0.190493         5.1836

MULLIKEN ATOMIC CHARGES
-----------------------
   0 C :   -0.412174
   1 C :    0.029842
   2 C :   -0.286598
   3 C :    0.020301
   4 C :   -0.437864
   5 C :    0.113060
   6 O :   -0.352733
   7 C :   -0.026279
   8 C :   -0.134595
   9 H :    0.129800
  10 H :    0.138363
  11 H :    0.128301
  12 H :    0.129879
  13 H :    0.131513
  14 H :    0.125557
  15 H :    0.153691
  16 H :    0.134895
  17 H :    0.104663
  18 H :    0.099678
  19 H :    0.091879
  20 H :    0.118822
Sum of atomic charges:   -0.0000000

LOEWDIN ATOMIC CHARGES
----------------------
   0 C :   -0.271952
   1 C :   -0.196002
   2 C :   -0.163652
   3 C :   -0.197197
   4 C :   -0.271742
   5 C :   -0.194448
   6 O :    0.138099
   7 C :   -0.244340
   8 C :   -0.152780
   9 H :    0.130425
  10 H :    0.129747
  11 H :    0.126298
  12 H :    0.133970
  13 H :    0.143127
  14 H :    0.128245
  15 H :    0.134511
  16 H :    0.129276
  17 H :    0.127484
  18 H :    0.118765
  19 H :    0.116796
  20 H :    0.135370

  Mayer bond orders larger than 0.1
B(  0-C ,  1-C ) :   0.8905 B(  0-C ,  9-H ) :   0.9330 B(  0-C , 10-H ) :   0.9410
B(  0-C , 11-H ) :   0.9386 B(  1-C ,  2-C ) :   0.8621 B(  1-C ,  3-C ) :   0.8135
B(  1-C ,  8-C ) :   0.8837 B(  2-C ,  3-C ) :   0.8587 B(  2-C , 12-H ) :   0.9109
B(  2-C , 13-H ) :   0.9328 B(  3-C ,  4-C ) :   0.8886 B(  3-C ,  5-C ) :   0.8997
B(  4-C , 14-H ) :   0.9321 B(  4-C , 15-H ) :   0.9406 B(  4-C , 16-H ) :   0.9380
B(  5-C ,  6-O ) :   0.9077 B(  5-C ,  8-C ) :   0.9433 B(  5-C , 17-H ) :   0.9318
B(  6-O ,  7-C ) :   0.9424 B(  7-C ,  8-C ) :   0.9690 B(  7-C , 18-H ) :   0.9200
B(  7-C , 19-H ) :   0.9069 B(  8-C , 20-H ) :   0.9018

MP2 TOTAL ENERGY:     -386.372286037 Eh
FINAL SINGLE POINT ENERGY      -386.372286036867

DIPOLE MOMENT
-------------
                                X             Y             Z
Electronic contribution:     -3.52878      -3.99578       0.61882
Nuclear contribution   :      3.73613       4.31962      -1.20553
                        -----------------------------------------
Total Dipole Moment    :      0.20735       0.32383      -0.58671
                        -----------------------------------------
Magnitude (a.u.)       :      0.70149
Magnitude (Debye)      :      1.78305

                             ****ORCA TERMINATED NORMALLY****
TOTAL RUN TIME: 0 days 0 hours 18 minutes 33 seconds 49 msec
