                         Program Version 3.0.3 - RELEASE   -
|  1> ! RI-MP2 RIJK def2-TZVP def2-TZVP/C def2-TZVP/JK TIGHTSCF
|  2> % maxcore 2000
|  3> % mp2 density relaxed end
|  4> *xyz 0 1
|  5>  O        0.0235710200     0.9257357641     1.5842954822
|  6>  C       -0.0258503677     1.4160203975     0.4754999714
|  7>  C       -1.3765454414     1.8649553707    -0.0839157831
|  8>  O       -1.4353992141     2.0154732531    -1.4790406080
|  9>  C       -0.9177295906     3.2237856405    -1.9734962149
| 10>  C        0.6037627284     3.2807320860    -2.1173254732
| 11>  O        1.0997790487     4.1131506450    -2.8475972105
| 12>  C        1.4862827556     2.3361749596    -1.3812817199
| 13>  C        1.2267390438     1.5674878432    -0.3124512321
| 14>  H       -2.1028689790     1.0970151536     0.1958617864
| 15>  H       -1.6653021200     2.7938881970     0.4359195881
| 16>  H       -1.3332714682     3.3759660852    -2.9733565554
| 17>  H       -1.2306307440     4.0814973861    -1.3546678282
| 18>  H        2.5047306985     2.3705636366    -1.7604890354
| 19>  H        2.0445215399     1.0075691220     0.1346948026
| 20> *
| 21>
| 22>                          ****END OF INPUT****

CARTESIAN COORDINATES (ANGSTROEM)
---------------------------------
  O      0.023571    0.925736    1.584295
  C     -0.025850    1.416020    0.475500
  C     -1.376545    1.864955   -0.083916
  O     -1.435399    2.015473   -1.479041
  C     -0.917730    3.223786   -1.973496
  C      0.603763    3.280732   -2.117325
  O      1.099779    4.113151   -2.847597
  C      1.486283    2.336175   -1.381282
  C      1.226739    1.567488   -0.312451
  H     -2.102869    1.097015    0.195862
  H     -1.665302    2.793888    0.435920
  H     -1.333271    3.375966   -2.973357
  H     -1.230631    4.081497   -1.354668
  H      2.504731    2.370564   -1.760489
  H      2.044522    1.007569    0.134695

 Total Charge           Charge          ....    0
 Multiplicity           Mult            ....    1
 Number of Electrons    NEL             ....   66
 Basis Dimension        Dim             ....  315

ORBITAL ENERGIES
----------------

  NO   OCC          E(Eh)            E(eV)
   0   2.0000     -20.597730      -560.4927
   1   2.0000     -20.572376      -559.8028
   2   2.0000     -20.572376      -559.8028
   3   2.0000     -11.358274      -309.0743
   4   2.0000     -11.358271      -309.0743
   5   2.0000     -11.314399      -307.8805
   6   2.0000     -11.314376      -307.8798
   7   2.0000     -11.284902      -307.0778
   8   2.0000     -11.283262      -307.0332
   9   2.0000      -1.429802       -38.9069
  10   2.0000      -1.414168       -38.4815
  11   2.0000      -1.407825       -38.3089
  12   2.0000      -1.113828       -30.3088
  13   2.0000      -1.049266       -28.5520
  14   2.0000      -0.957669       -26.0595
  15   2.0000      -0.923629       -25.1332
  16   2.0000      -0.808769       -22.0077
  17   2.0000      -0.757886       -20.6231
  18   2.0000      -0.722624       -19.6636
  19   2.0000      -0.713411       -19.4129
  20   2.0000      -0.670169       -18.2362
  21   2.0000      -0.657228       -17.8841
  22   2.0000      -0.645465       -17.5640
  23   2.0000      -0.639268       -17.3954
  24   2.0000      -0.612091       -16.6558
  25   2.0000      -0.573472       -15.6050
  26   2.0000      -0.564192       -15.3524
  27   2.0000      -0.529371       -14.4049
  28   2.0000      -0.521083       -14.1794
  29   2.0000      -0.502530       -13.6745
  30   2.0000      -0.445191       -12.1143
  31   2.0000      -0.428821       -11.6688
  32   2.0000      -0.411679       -11.2024
  33   0.0000       0.033807         0.9199
  34   0.0000       0.122265         3.3270
  35   0.0000       0.131365         3.5746
  36   0.0000       0.164678         4.4811
  37   0.0000       0.170679         4.6444

MULLIKEN ATOMIC CHARGES
-----------------------
   0 O :   -0.272273
   1 C :    0.194511
   2 C :   -0.067440
   3 O :   -0.305504
   4 C :   -0.067459
   5 C :    0.194515
   6 O :   -0.272276
   7 C :   -0.144137
   8 C :   -0.144136
   9 H :    0.160237
  10 H :    0.127009
  11 H :    0.160238
  12 H :    0.127016
  13 H :    0.154850
  14 H :    0.154850
Sum of atomic charges:    0.0000000

LOEWDIN ATOMIC CHARGES
----------------------
   0 O :    0.167572
   1 C :   -0.319794
   2 C :   -0.288819
   3 O :    0.179202
   4 C :   -0.288824
   5 C :   -0.319794
   6 O :    0.167571
   7 C :   -0.102218
   8 C :   -0.102219
   9 H :    0.150241
  10 H :    0.139242
  11 H :    0.150243
  12 H :    0.139242
  13 H :    0.164179
  14 H :    0.164179

  Mayer bond orders larger than 0.1
B(  0-O ,  1-C ) :   1.9278 B(  1-C ,  2-C ) :   0.8653 B(  1-C ,  8-C ) :   0.9795
B(  2-C ,  3-O ) :   0.9246 B(  2-C ,  9-H ) :   0.9221 B(  2-C , 10-H ) :   0.9242
B(  3-O ,  4-C ) :   0.9246 B(  4-C ,  5-C ) :   0.8653 B(  4-C , 11-H ) :   0.9220
B(  4-C , 12-H ) :   0.9242 B(  5-C ,  6-O ) :   1.9278 B(  5-C ,  7-C ) :   0.9795
B(  7-C ,  8-C ) :   1.6232 B(  7-C , 13-H ) :   0.9152 B(  8-C , 14-H ) :   0.9152

MP2 TOTAL ENERGY:     -457.035972645 Eh
FINAL SINGLE POINT ENERGY      -457.035972644687

DIPOLE MOMENT
-------------
                                X             Y             Z
Electronic contribution:      1.68449      -0.71812      -0.10727
Nuclear contribution   :     -1.91031       0.77828       0.09566
                        -----------------------------------------
Total Dipole Moment    :     -0.22582       0.06016      -0.01161
                        -----------------------------------------
Magnitude (a.u.)       :      0.23398
Magnitude (Debye)      :      0.59474

                             ****ORCA TERMINATED NORMALLY****
TOTAL RUN TIME: 0 days 0 hours 14 minutes 53 seconds 389 msec
