                         Program Version 3.0.3 - RELEASE   -
|  1> ! RI-MP2 RIJK def2-TZVP def2-TZVP/C def2-TZVP/JK TIGHTSCF
|  2> % maxcore 2000
|  3> % mp2 density relaxed end
|  4> *xyz 0 1
|  5>  C       -0.3635233094     1.5196437106    -0.0646425885
|  6>  N        0.0620420144     0.1331102383     0.0591547708
|  7>  C        1.3494692038    -0.3999772210    -0.3212925252
|  8>  C        2.6232231715     0.4628781577    -0.3425032428
|  9>  C        2.9232635559     0.8343553787     1.1115092479
| 10>  N        1.9459093215     1.7438951670     1.7379831506
| 11>  C        1.8431825685     0.2863297150     1.9752270119
| 12>  C        0.8572843966    -0.4748854861     1.1063105597
| 13>  H        0.4378893587     2.2607555749    -0.0309387571
| 14>  H       -0.9117636758     1.6136534334    -1.0095593420
| 15>  H       -1.0589122170     1.7471681379     0.7487703897
| 16>  H        1.3201723660    -1.2448988830    -1.0083441231
| 17>  H        3.4454798438    -0.1402178034    -0.7419228385
| 18>  H        2.5318923430     1.3480567197    -0.9815665065
| 19>  H        3.9566082898     0.8890304583     1.4410490494
| 20>  H        2.3717729661     2.1841457680     2.5504218454
| 21>  H        2.0385726065    -0.0956417197     2.9718945613
| 22>  H        0.4367108960    -1.3794937165     1.5416447570
| 23> *
| 24>
| 25>                          ****END OF INPUT****

CARTESIAN COORDINATES (ANGSTROEM)
---------------------------------
  C     -0.363523    1.519644   -0.064643
  N      0.062042    0.133110    0.059155
  C      1.349469   -0.399977   -0.321293
  C      2.623223    0.462878   -0.342503
  C      2.923264    0.834355    1.111509
  N      1.945909    1.743895    1.737983
  C      1.843183    0.286330    1.975227
  C      0.857284   -0.474885    1.106311
  H      0.437889    2.260756   -0.030939
  H     -0.911764    1.613653   -1.009559
  H     -1.058912    1.747168    0.748770
  H      1.320172   -1.244899   -1.008344
  H      3.445480   -0.140218   -0.741923
  H      2.531892    1.348057   -0.981567
  H      3.956608    0.889030    1.441049
  H      2.371773    2.184146    2.550422
  H      2.038573   -0.095642    2.971895
  H      0.436711   -1.379494    1.541645

 Total Charge           Charge          ....    0
 Multiplicity           Mult            ....    1
 Number of Electrons    NEL             ....   60
 Basis Dimension        Dim             ....  308

ORBITAL ENERGIES
----------------

  NO   OCC          E(Eh)            E(eV)
   0   2.0000     -15.558814      -423.3768
   1   2.0000     -15.544694      -422.9926
   2   2.0000     -11.260695      -306.4191
   3   2.0000     -11.259471      -306.3858
   4   2.0000     -11.252558      -306.1977
   5   2.0000     -11.249502      -306.1145
   6   2.0000     -11.227580      -305.5180
   7   2.0000     -11.225455      -305.4602
   8   2.0000      -1.289567       -35.0909
   9   2.0000      -1.238477       -33.7007
  10   2.0000      -1.025362       -27.9015
  11   2.0000      -0.972457       -26.4619
  12   2.0000      -0.912033       -24.8177
  13   2.0000      -0.823675       -22.4133
  14   2.0000      -0.770992       -20.9798
  15   2.0000      -0.742836       -20.2136
  16   2.0000      -0.728146       -19.8139
  17   2.0000      -0.643889       -17.5211
  18   2.0000      -0.615053       -16.7364
  19   2.0000      -0.597499       -16.2588
  20   2.0000      -0.569349       -15.4928
  21   2.0000      -0.549522       -14.9532
  22   2.0000      -0.540025       -14.6948
  23   2.0000      -0.522813       -14.2265
  24   2.0000      -0.476234       -12.9590
  25   2.0000      -0.466253       -12.6874
  26   2.0000      -0.439163       -11.9502
  27   2.0000      -0.409112       -11.1325
  28   2.0000      -0.393981       -10.7208
  29   2.0000      -0.338157        -9.2017
  30   0.0000       0.133733         3.6391
  31   0.0000       0.161637         4.3984
  32   0.0000       0.170472         4.6388
  33   0.0000       0.179956         4.8969
  34   0.0000       0.195135         5.3099

MULLIKEN ATOMIC CHARGES
-----------------------
   0 C :   -0.273221
   1 N :   -0.209213
   2 C :   -0.051938
   3 C :   -0.217673
   4 C :   -0.030363
   5 N :   -0.391299
   6 C :   -0.090823
   7 C :   -0.070384
   8 H :    0.134787
   9 H :    0.127429
  10 H :    0.122874
  11 H :    0.122354
  12 H :    0.114922
  13 H :    0.126799
  14 H :    0.126139
  15 H :    0.214446
  16 H :    0.126364
  17 H :    0.118803
Sum of atomic charges:    0.0000000

LOEWDIN ATOMIC CHARGES
----------------------
   0 C :   -0.329914
   1 N :    0.124942
   2 C :   -0.225712
   3 C :   -0.219646
   4 C :   -0.245093
   5 N :    0.007948
   6 C :   -0.233545
   7 C :   -0.218705
   8 H :    0.107809
   9 H :    0.113610
  10 H :    0.119080
  11 H :    0.133828
  12 H :    0.146258
  13 H :    0.144029
  14 H :    0.132197
  15 H :    0.167397
  16 H :    0.136703
  17 H :    0.138814

  Mayer bond orders larger than 0.1
B(  0-C ,  1-N ) :   0.8731 B(  0-C ,  8-H ) :   0.9244 B(  0-C ,  9-H ) :   0.9339
B(  0-C , 10-H ) :   0.9391 B(  1-N ,  2-C ) :   0.9422 B(  1-N ,  7-C ) :   0.9587
B(  2-C ,  3-C ) :   0.9514 B(  2-C ,  7-C ) :   0.8844 B(  2-C , 11-H ) :   0.9241
B(  3-C ,  4-C ) :   0.9490 B(  3-C , 12-H ) :   0.9201 B(  3-C , 13-H ) :   0.9109
B(  4-C ,  5-N ) :   0.9104 B(  4-C ,  6-C ) :   0.9197 B(  4-C , 14-H ) :   0.9202
B(  5-N ,  6-C ) :   0.9494 B(  5-N , 15-H ) :   0.8723 B(  6-C ,  7-C ) :   0.9180
B(  6-C , 16-H ) :   0.9255 B(  7-C , 17-H ) :   0.9284

MP2 TOTAL ENERGY:     -343.316482192 Eh
FINAL SINGLE POINT ENERGY      -343.316482191666

DIPOLE MOMENT
-------------
                                X             Y             Z
Electronic contribution:      0.28501      -1.61285       1.47785
Nuclear contribution   :      0.57303       1.60772      -1.01314
                        -----------------------------------------
Total Dipole Moment    :      0.85803      -0.00513       0.46471
                        -----------------------------------------
Magnitude (a.u.)       :      0.97581
Magnitude (Debye)      :      2.48031

                             ****ORCA TERMINATED NORMALLY****
TOTAL RUN TIME: 0 days 0 hours 14 minutes 18 seconds 45 msec
