                         Program Version 3.0.3 - RELEASE   -
|  1> ! RI-MP2 RIJK def2-TZVP def2-TZVP/C def2-TZVP/JK TIGHTSCF
|  2> % maxcore 2000
|  3> % mp2 density relaxed end
|  4> *xyz 0 1
|  5>  O       -0.0209851372    -0.0452786171    -0.0174119659
|  6>  C        0.0309212543     1.1531866812     0.0859974371
|  7>  C        1.3108951380     1.9701762333     0.0431627362
|  8>  C        1.3662433454     2.7871447193    -1.2675233568
|  9>  C        2.5552293721     3.7552659618    -1.2559284871
| 10>  C        2.4363481425     4.8113224173    -0.1443986885
| 11>  C        1.9323003643     4.2405918311     1.1685046066
| 12>  O        0.5180422943     4.0078603401     1.2599569315
| 13>  C        1.3897556583     2.8732212163     1.2632809183
| 14>  H       -0.8915766150     1.7646964682     0.2084459017
| 15>  H        2.1477091522     1.2622834422     0.0737155707
| 16>  H        1.4425681792     2.0954572925    -2.1120293619
| 17>  H        0.4311792979     3.3465333487    -1.3884537600
| 18>  H        3.4777005674     3.1779325704    -1.1130856395
| 19>  H        2.6458777585     4.2506634225    -2.2280218766
| 20>  H        3.4075568370     5.2892893092     0.0224141984
| 21>  H        1.7451511512     5.6071888866    -0.4472690631
| 22>  H        2.3502870618     4.6783826309     2.0751380058
| 23>  H        1.4463584179     2.3567268856     2.2227412432
| 24> *
| 25>
| 26>                          ****END OF INPUT****

CARTESIAN COORDINATES (ANGSTROEM)
---------------------------------
  O     -0.020985   -0.045279   -0.017412
  C      0.030921    1.153187    0.085997
  C      1.310895    1.970176    0.043163
  C      1.366243    2.787145   -1.267523
  C      2.555229    3.755266   -1.255928
  C      2.436348    4.811322   -0.144399
  C      1.932300    4.240592    1.168505
  O      0.518042    4.007860    1.259957
  C      1.389756    2.873221    1.263281
  H     -0.891577    1.764696    0.208446
  H      2.147709    1.262283    0.073716
  H      1.442568    2.095457   -2.112029
  H      0.431179    3.346533   -1.388454
  H      3.477701    3.177933   -1.113086
  H      2.645878    4.250663   -2.228022
  H      3.407557    5.289289    0.022414
  H      1.745151    5.607189   -0.447269
  H      2.350287    4.678383    2.075138
  H      1.446358    2.356727    2.222741

 Total Charge           Charge          ....    0
 Multiplicity           Mult            ....    1
 Number of Electrons    NEL             ....   68
 Basis Dimension        Dim             ....  339

ORBITAL ENERGIES
----------------

  NO   OCC          E(Eh)            E(eV)
   0   2.0000     -20.575211      -559.8800
   1   2.0000     -20.558030      -559.4124
   2   2.0000     -11.329954      -308.3037
   3   2.0000     -11.299661      -307.4794
   4   2.0000     -11.297101      -307.4098
   5   2.0000     -11.251977      -306.1819
   6   2.0000     -11.241096      -305.8858
   7   2.0000     -11.239938      -305.8543
   8   2.0000     -11.238316      -305.8101
   9   2.0000      -1.421666       -38.6855
  10   2.0000      -1.396168       -37.9917
  11   2.0000      -1.115402       -30.3516
  12   2.0000      -1.049701       -28.5638
  13   2.0000      -0.970004       -26.3952
  14   2.0000      -0.884227       -24.0610
  15   2.0000      -0.862730       -23.4761
  16   2.0000      -0.797719       -21.7070
  17   2.0000      -0.761673       -20.7262
  18   2.0000      -0.722364       -19.6565
  19   2.0000      -0.666474       -18.1357
  20   2.0000      -0.646938       -17.6041
  21   2.0000      -0.640870       -17.4390
  22   2.0000      -0.618039       -16.8177
  23   2.0000      -0.592713       -16.1285
  24   2.0000      -0.579004       -15.7555
  25   2.0000      -0.546849       -14.8805
  26   2.0000      -0.540462       -14.7067
  27   2.0000      -0.532599       -14.4928
  28   2.0000      -0.492355       -13.3977
  29   2.0000      -0.485256       -13.2045
  30   2.0000      -0.467124       -12.7111
  31   2.0000      -0.460068       -12.5191
  32   2.0000      -0.445121       -12.1124
  33   2.0000      -0.403643       -10.9837
  34   0.0000       0.126296         3.4367
  35   0.0000       0.130466         3.5502
  36   0.0000       0.154311         4.1990
  37   0.0000       0.161295         4.3891
  38   0.0000       0.167717         4.5638

MULLIKEN ATOMIC CHARGES
-----------------------
   0 O :   -0.259184
   1 C :    0.048822
   2 C :    0.042835
   3 C :   -0.285144
   4 C :   -0.208940
   5 C :   -0.220229
   6 C :    0.020541
   7 O :   -0.338066
   8 C :   -0.027809
   9 H :    0.099106
  10 H :    0.099115
  11 H :    0.143276
  12 H :    0.129534
  13 H :    0.115858
  14 H :    0.133463
  15 H :    0.124773
  16 H :    0.123482
  17 H :    0.124156
  18 H :    0.134409
Sum of atomic charges:   -0.0000000

LOEWDIN ATOMIC CHARGES
----------------------
   0 O :    0.135848
   1 C :   -0.265673
   2 C :   -0.238910
   3 C :   -0.228207
   4 C :   -0.254523
   5 C :   -0.246977
   6 C :   -0.251025
   7 O :    0.163635
   8 C :   -0.242494
   9 H :    0.119119
  10 H :    0.165274
  11 H :    0.144255
  12 H :    0.147056
  13 H :    0.140740
  14 H :    0.139322
  15 H :    0.143895
  16 H :    0.148743
  17 H :    0.137869
  18 H :    0.142054

  Mayer bond orders larger than 0.1
B(  0-O ,  1-C ) :   1.9921 B(  1-C ,  2-C ) :   0.8434 B(  1-C ,  9-H ) :   0.9391
B(  2-C ,  3-C ) :   0.9069 B(  2-C ,  8-C ) :   0.8936 B(  2-C , 10-H ) :   0.8981
B(  3-C ,  4-C ) :   0.9120 B(  3-C , 11-H ) :   0.9312 B(  3-C , 12-H ) :   0.9193
B(  4-C ,  5-C ) :   0.9463 B(  4-C , 13-H ) :   0.9321 B(  4-C , 14-H ) :   0.9375
B(  5-C ,  6-C ) :   0.9099 B(  5-C , 15-H ) :   0.9281 B(  5-C , 16-H ) :   0.9227
B(  6-C ,  7-O ) :   0.8843 B(  6-C ,  8-C ) :   0.9617 B(  6-C , 17-H ) :   0.9252
B(  7-O ,  8-C ) :   0.8912 B(  8-C , 18-H ) :   0.9175

MP2 TOTAL ENERGY:     -422.326882592 Eh
FINAL SINGLE POINT ENERGY      -422.326882591872

DIPOLE MOMENT
-------------
                                X             Y             Z
Electronic contribution:     -4.29786      -4.29785       3.54399
Nuclear contribution   :      5.24687       5.17662      -3.68718
                        -----------------------------------------
Total Dipole Moment    :      0.94900       0.87877      -0.14319
                        -----------------------------------------
Magnitude (a.u.)       :      1.30129
Magnitude (Debye)      :      3.30761

                             ****ORCA TERMINATED NORMALLY****
TOTAL RUN TIME: 0 days 0 hours 17 minutes 32 seconds 180 msec
