                         Program Version 3.0.3 - RELEASE   -
|  1> ! RI-MP2 RIJK def2-TZVP def2-TZVP/C def2-TZVP/JK TIGHTSCF
|  2> % maxcore 2000
|  3> % mp2 density relaxed end
|  4> *xyz 0 1
|  5>  N       -0.0795537477     1.3230621968     0.1269898713
|  6>  C        0.0322533551     0.0772525747    -0.0558928039
|  7>  C       -1.2116105955    -0.7889903767    -0.1170619144
|  8>  C       -1.4293149409    -1.6076567608    -1.3709117655
|  9>  N       -2.4052183469    -1.3620139323    -2.1360663259
| 10>  O       -0.5760686973    -2.6450918401    -1.6236284429
| 11>  C        0.5870783370    -2.8134678483    -0.8169576472
| 12>  C        1.5496505930    -1.6385463018    -0.8996027217
| 13>  O        1.2614239886    -0.5286797363    -0.0502281089
| 14>  H        0.8484453756     1.7489389953     0.1846076945
| 15>  H       -1.2020063558    -1.4602888283     0.7517738525
| 16>  H       -2.0637073902    -0.1204242615    -0.0256258384
| 17>  H       -2.4159987022    -2.0245606730    -2.9148800660
| 18>  H        0.3252222650    -3.0300303501     0.2261865907
| 19>  H        1.0814709783    -3.6968924448    -1.2294483855
| 20>  H        2.5429899794    -1.9699142546    -0.5844128344
| 21>  H        1.6135934845    -1.3052259983    -1.9442201545
| 22> *
| 23>
| 24>                          ****END OF INPUT****

CARTESIAN COORDINATES (ANGSTROEM)
---------------------------------
  N     -0.079554    1.323062    0.126990
  C      0.032253    0.077253   -0.055893
  C     -1.211611   -0.788990   -0.117062
  C     -1.429315   -1.607657   -1.370912
  N     -2.405218   -1.362014   -2.136066
  O     -0.576069   -2.645092   -1.623628
  C      0.587078   -2.813468   -0.816958
  C      1.549651   -1.638546   -0.899603
  O      1.261424   -0.528680   -0.050228
  H      0.848445    1.748939    0.184608
  H     -1.202006   -1.460289    0.751774
  H     -2.063707   -0.120424   -0.025626
  H     -2.415999   -2.024561   -2.914880
  H      0.325222   -3.030030    0.226187
  H      1.081471   -3.696892   -1.229448
  H      2.542990   -1.969914   -0.584413
  H      1.613593   -1.305226   -1.944220

 Total Charge           Charge          ....    0
 Multiplicity           Mult            ....    1
 Number of Electrons    NEL             ....   68
 Basis Dimension        Dim             ....  327

ORBITAL ENERGIES
----------------

  NO   OCC          E(Eh)            E(eV)
   0   2.0000     -20.607433      -560.7568
   1   2.0000     -20.603202      -560.6416
   2   2.0000     -15.545212      -423.0067
   3   2.0000     -15.541107      -422.8950
   4   2.0000     -11.350824      -308.8716
   5   2.0000     -11.350552      -308.8642
   6   2.0000     -11.317187      -307.9563
   7   2.0000     -11.315714      -307.9162
   8   2.0000     -11.260788      -306.4216
   9   2.0000      -1.446611       -39.3643
  10   2.0000      -1.428285       -38.8656
  11   2.0000      -1.217363       -33.1261
  12   2.0000      -1.201261       -32.6880
  13   2.0000      -1.046135       -28.4668
  14   2.0000      -1.035615       -28.1805
  15   2.0000      -0.915234       -24.9048
  16   2.0000      -0.806001       -21.9324
  17   2.0000      -0.780978       -21.2515
  18   2.0000      -0.741300       -20.1718
  19   2.0000      -0.712746       -19.3948
  20   2.0000      -0.700083       -19.0502
  21   2.0000      -0.665725       -18.1153
  22   2.0000      -0.644132       -17.5277
  23   2.0000      -0.626452       -17.0466
  24   2.0000      -0.608570       -16.5600
  25   2.0000      -0.576322       -15.6825
  26   2.0000      -0.563151       -15.3241
  27   2.0000      -0.546572       -14.8730
  28   2.0000      -0.510675       -13.8962
  29   2.0000      -0.485401       -13.2084
  30   2.0000      -0.453265       -12.3340
  31   2.0000      -0.445854       -12.1323
  32   2.0000      -0.412237       -11.2175
  33   2.0000      -0.406396       -11.0586
  34   0.0000       0.120967         3.2917
  35   0.0000       0.147057         4.0016
  36   0.0000       0.155372         4.2279
  37   0.0000       0.164485         4.4759
  38   0.0000       0.176171         4.7939

MULLIKEN ATOMIC CHARGES
-----------------------
   0 N :   -0.348265
   1 C :    0.091479
   2 C :   -0.114915
   3 C :    0.115862
   4 N :   -0.356953
   5 O :   -0.253614
   6 C :   -0.108447
   7 C :   -0.056986
   8 O :   -0.269826
   9 H :    0.222341
  10 H :    0.147890
  11 H :    0.172958
  12 H :    0.220941
  13 H :    0.125617
  14 H :    0.147736
  15 H :    0.140056
  16 H :    0.124126
Sum of atomic charges:   -0.0000000

LOEWDIN ATOMIC CHARGES
----------------------
   0 N :   -0.033726
   1 C :   -0.405132
   2 C :   -0.185446
   3 C :   -0.411930
   4 N :   -0.043246
   5 O :    0.232635
   6 C :   -0.303935
   7 C :   -0.298875
   8 O :    0.223553
   9 H :    0.168803
  10 H :    0.161002
  11 H :    0.176290
  12 H :    0.168021
  13 H :    0.131662
  14 H :    0.143519
  15 H :    0.141325
  16 H :    0.135479

  Mayer bond orders larger than 0.1
B(  0-N ,  1-C ) :   2.0738 B(  0-N ,  9-H ) :   0.8567 B(  1-C ,  2-C ) :   0.8820
B(  1-C ,  8-O ) :   1.0596 B(  2-C ,  3-C ) :   0.8846 B(  2-C , 10-H ) :   0.9257
B(  2-C , 11-H ) :   0.8958 B(  3-C ,  4-N ) :   2.0660 B(  3-C ,  5-O ) :   1.0658
B(  4-N , 12-H ) :   0.8570 B(  5-O ,  6-C ) :   0.8902 B(  6-C ,  7-C ) :   0.9297
B(  6-C , 13-H ) :   0.9284 B(  6-C , 14-H ) :   0.9204 B(  7-C ,  8-O ) :   0.8857
B(  7-C , 15-H ) :   0.9219 B(  7-C , 16-H ) :   0.9245

MP2 TOTAL ENERGY:     -454.414892056 Eh
FINAL SINGLE POINT ENERGY      -454.414892056280

DIPOLE MOMENT
-------------
                                X             Y             Z
Electronic contribution:     -1.04589       1.34377      -0.48735
Nuclear contribution   :      2.37579      -2.65607       0.63983
                        -----------------------------------------
Total Dipole Moment    :      1.32990      -1.31230       0.15247
                        -----------------------------------------
Magnitude (a.u.)       :      1.87457
Magnitude (Debye)      :      4.76478

                             ****ORCA TERMINATED NORMALLY****
TOTAL RUN TIME: 0 days 0 hours 16 minutes 6 seconds 109 msec
