                         Program Version 3.0.3 - RELEASE   -
|  1> ! RI-MP2 RIJK def2-TZVP def2-TZVP/C def2-TZVP/JK TIGHTSCF
|  2> % maxcore 2000
|  3> % mp2 density relaxed end
|  4> *xyz 0 1
|  5>  C        0.0363060368     1.4823467387    -0.0725462788
|  6>  N        0.0405314932     0.0452177779     0.0893917330
|  7>  C        0.5388030547    -0.6435310753    -0.8452361639
|  8>  N        0.6025682902    -2.0265956236    -0.8289757072
|  9>  C        1.1394150993    -2.9577125328    -1.8475275658
| 10>  C        2.6339605447    -2.8438353271    -2.1078553841
| 11>  C        0.6653234966    -4.1243296771    -0.9347060056
| 12>  C        0.1445159673    -3.0396045961     0.0280845331
| 13>  O       -0.4288519796    -3.0187368338     1.0760545004
| 14>  H        0.5815181395     1.9461296644     0.7576792207
| 15>  H        0.4836948668     1.8272424315    -1.0200897770
| 16>  H       -0.9936312695     1.8539100758    -0.0201437065
| 17>  H        0.9703864758    -0.2186651050    -1.7655455488
| 18>  H        0.5780013234    -2.8947341465    -2.7867984877
| 19>  H        3.1985096806    -2.9216700822    -1.1733915554
| 20>  H        2.9608644554    -3.6439756128    -2.7795477508
| 21>  H        2.8855713721    -1.8890055654    -2.5808427306
| 22>  H       -0.1148162619    -4.7668058067    -1.3466569195
| 23>  H        1.4654330845    -4.7412258640    -0.5198474056
| 24> *
| 25>
| 26>                          ****END OF INPUT****

CARTESIAN COORDINATES (ANGSTROEM)
---------------------------------
  C      0.036306    1.482347   -0.072546
  N      0.040531    0.045218    0.089392
  C      0.538803   -0.643531   -0.845236
  N      0.602568   -2.026596   -0.828976
  C      1.139415   -2.957713   -1.847528
  C      2.633961   -2.843835   -2.107855
  C      0.665323   -4.124330   -0.934706
  C      0.144516   -3.039605    0.028085
  O     -0.428852   -3.018737    1.076055
  H      0.581518    1.946130    0.757679
  H      0.483695    1.827242   -1.020090
  H     -0.993631    1.853910   -0.020144
  H      0.970386   -0.218665   -1.765546
  H      0.578001   -2.894734   -2.786798
  H      3.198510   -2.921670   -1.173392
  H      2.960864   -3.643976   -2.779548
  H      2.885571   -1.889006   -2.580843
  H     -0.114816   -4.766806   -1.346657
  H      1.465433   -4.741226   -0.519847

 Total Charge           Charge          ....    0
 Multiplicity           Mult            ....    1
 Number of Electrons    NEL             ....   68
 Basis Dimension        Dim             ....  339

ORBITAL ENERGIES
----------------

  NO   OCC          E(Eh)            E(eV)
   0   2.0000     -20.534662      -558.7766
   1   2.0000     -15.599257      -424.4774
   2   2.0000     -15.546228      -423.0344
   3   2.0000     -11.358770      -309.0878
   4   2.0000     -11.316635      -307.9413
   5   2.0000     -11.296886      -307.4039
   6   2.0000     -11.254193      -306.2422
   7   2.0000     -11.245858      -306.0154
   8   2.0000     -11.241165      -305.8876
   9   2.0000      -1.397383       -38.0247
  10   2.0000      -1.301691       -35.4208
  11   2.0000      -1.219665       -33.1888
  12   2.0000      -1.060828       -28.8666
  13   2.0000      -1.005887       -27.3716
  14   2.0000      -0.934088       -25.4178
  15   2.0000      -0.860298       -23.4099
  16   2.0000      -0.833960       -22.6932
  17   2.0000      -0.723658       -19.6917
  18   2.0000      -0.699489       -19.0341
  19   2.0000      -0.666045       -18.1240
  20   2.0000      -0.660940       -17.9851
  21   2.0000      -0.624831       -17.0025
  22   2.0000      -0.599150       -16.3037
  23   2.0000      -0.592875       -16.1329
  24   2.0000      -0.587248       -15.9798
  25   2.0000      -0.561217       -15.2715
  26   2.0000      -0.547378       -14.8949
  27   2.0000      -0.538409       -14.6508
  28   2.0000      -0.527525       -14.3547
  29   2.0000      -0.503320       -13.6960
  30   2.0000      -0.468769       -12.7559
  31   2.0000      -0.434802       -11.8316
  32   2.0000      -0.399263       -10.8645
  33   2.0000      -0.356581        -9.7031
  34   0.0000       0.121509         3.3064
  35   0.0000       0.124937         3.3997
  36   0.0000       0.152177         4.1410
  37   0.0000       0.164129         4.4662
  38   0.0000       0.164355         4.4723

MULLIKEN ATOMIC CHARGES
-----------------------
   0 C :   -0.256588
   1 N :   -0.197403
   2 C :   -0.019020
   3 N :   -0.033826
   4 C :   -0.012461
   5 C :   -0.402915
   6 C :   -0.233746
   7 C :    0.174799
   8 O :   -0.265922
   9 H :    0.139979
  10 H :    0.086544
  11 H :    0.140473
  12 H :    0.079053
  13 H :    0.111772
  14 H :    0.137865
  15 H :    0.140301
  16 H :    0.134093
  17 H :    0.139919
  18 H :    0.137083
Sum of atomic charges:    0.0000000

LOEWDIN ATOMIC CHARGES
----------------------
   0 C :   -0.336809
   1 N :    0.077407
   2 C :   -0.294966
   3 N :    0.237846
   4 C :   -0.243405
   5 C :   -0.293770
   6 C :   -0.180870
   7 C :   -0.387524
   8 O :    0.147319
   9 H :    0.119133
  10 H :    0.100259
  11 H :    0.119327
  12 H :    0.120727
  13 H :    0.141979
  14 H :    0.129983
  15 H :    0.130895
  16 H :    0.124884
  17 H :    0.142848
  18 H :    0.144737

  Mayer bond orders larger than 0.1
B(  0-C ,  1-N ) :   0.8858 B(  0-C ,  9-H ) :   0.9313 B(  0-C , 10-H ) :   0.9242
B(  0-C , 11-H ) :   0.9313 B(  1-N ,  2-C ) :   1.8689 B(  2-C ,  3-N ) :   0.9966
B(  2-C , 12-H ) :   0.9144 B(  3-N ,  4-C ) :   0.9045 B(  3-N ,  7-C ) :   1.0003
B(  4-C ,  5-C ) :   0.9018 B(  4-C ,  6-C ) :   0.9147 B(  4-C , 13-H ) :   0.9239
B(  5-C , 14-H ) :   0.9323 B(  5-C , 15-H ) :   0.9310 B(  5-C , 16-H ) :   0.9349
B(  6-C ,  7-C ) :   0.9273 B(  6-C , 17-H ) :   0.9072 B(  6-C , 18-H ) :   0.9051
B(  7-C ,  8-O ) :   2.0394

MP2 TOTAL ENERGY:     -418.513368186 Eh
FINAL SINGLE POINT ENERGY      -418.513368186099

DIPOLE MOMENT
-------------
                                X             Y             Z
Electronic contribution:     -4.64223      -3.14557       5.00472
Nuclear contribution   :      5.58660       3.14419      -6.74488
                        -----------------------------------------
Total Dipole Moment    :      0.94437      -0.00139      -1.74016
                        -----------------------------------------
Magnitude (a.u.)       :      1.97990
Magnitude (Debye)      :      5.03251

                             ****ORCA TERMINATED NORMALLY****
TOTAL RUN TIME: 0 days 0 hours 16 minutes 20 seconds 318 msec
