                         Program Version 3.0.3 - RELEASE   -
|  1> ! RI-MP2 RIJK def2-TZVP def2-TZVP/C def2-TZVP/JK TIGHTSCF
|  2> % maxcore 2000
|  3> % mp2 density relaxed end
|  4> *xyz 0 1
|  5>  C        0.2538195084     1.6188774050    -0.1949649797
|  6>  C        0.0366661465     0.1280226708     0.0177955017
|  7>  C        0.8008789240    -0.8919134913    -0.8707796532
|  8>  N        1.1980691382    -1.7136617583     0.3267309329
|  9>  C        2.6206475084    -1.5070549361     0.7908509801
| 10>  C        3.7749527073    -1.4787967681    -0.1956923788
| 11>  C        2.1735112712    -0.2251270985     1.5236339110
| 12>  O        2.7326533790     0.7001346744     2.0357745315
| 13>  C        0.7056675583    -0.5869880747     1.2206594029
| 14>  H        1.3155060331     1.8809032537    -0.1689523438
| 15>  H       -0.1503149985     1.9308149731    -1.1641980829
| 16>  H       -0.2497655023     2.2060154808     0.5800502851
| 17>  H       -1.0346282804    -0.0937682319     0.0201558652
| 18>  H        0.1970578003    -1.4640271077    -1.5798965887
| 19>  H        1.6410230372    -0.4488854001    -1.4164874923
| 20>  H        2.8167648874    -2.2820973787     1.5456913074
| 21>  H        3.6960728867    -0.6606383244    -0.9157548461
| 22>  H        4.7127009204    -1.3445905811     0.3511855221
| 23>  H        3.8325954123    -2.4226766520    -0.7466546183
| 24>  H        0.0917949326    -0.8375110948     2.0910056038
| 25> *
| 26>
| 27>                          ****END OF INPUT****

CARTESIAN COORDINATES (ANGSTROEM)
---------------------------------
  C      0.253820    1.618877   -0.194965
  C      0.036666    0.128023    0.017796
  C      0.800879   -0.891913   -0.870780
  N      1.198069   -1.713662    0.326731
  C      2.620648   -1.507055    0.790851
  C      3.774953   -1.478797   -0.195692
  C      2.173511   -0.225127    1.523634
  O      2.732653    0.700135    2.035775
  C      0.705668   -0.586988    1.220659
  H      1.315506    1.880903   -0.168952
  H     -0.150315    1.930815   -1.164198
  H     -0.249766    2.206015    0.580050
  H     -1.034628   -0.093768    0.020156
  H      0.197058   -1.464027   -1.579897
  H      1.641023   -0.448885   -1.416487
  H      2.816765   -2.282097    1.545691
  H      3.696073   -0.660638   -0.915755
  H      4.712701   -1.344591    0.351186
  H      3.832595   -2.422677   -0.746655
  H      0.091795   -0.837511    2.091006

 Total Charge           Charge          ....    0
 Multiplicity           Mult            ....    1
 Number of Electrons    NEL             ....   68
 Basis Dimension        Dim             ....  345

ORBITAL ENERGIES
----------------

  NO   OCC          E(Eh)            E(eV)
   0   2.0000     -20.560525      -559.4803
   1   2.0000     -15.558038      -423.3557
   2   2.0000     -11.334021      -308.4144
   3   2.0000     -11.272812      -306.7488
   4   2.0000     -11.269512      -306.6590
   5   2.0000     -11.259059      -306.3746
   6   2.0000     -11.247461      -306.0590
   7   2.0000     -11.232001      -305.6383
   8   2.0000     -11.222974      -305.3927
   9   2.0000      -1.402934       -38.1758
  10   2.0000      -1.272493       -34.6263
  11   2.0000      -1.074099       -29.2277
  12   2.0000      -1.006722       -27.3943
  13   2.0000      -0.972086       -26.4518
  14   2.0000      -0.907373       -24.6909
  15   2.0000      -0.841272       -22.8922
  16   2.0000      -0.791234       -21.5306
  17   2.0000      -0.713502       -19.4154
  18   2.0000      -0.681122       -18.5343
  19   2.0000      -0.654000       -17.7963
  20   2.0000      -0.646599       -17.5949
  21   2.0000      -0.624432       -16.9917
  22   2.0000      -0.596349       -16.2275
  23   2.0000      -0.571386       -15.5482
  24   2.0000      -0.560904       -15.2630
  25   2.0000      -0.556284       -15.1373
  26   2.0000      -0.540746       -14.7144
  27   2.0000      -0.528625       -14.3846
  28   2.0000      -0.504153       -13.7187
  29   2.0000      -0.488457       -13.2916
  30   2.0000      -0.462535       -12.5862
  31   2.0000      -0.446856       -12.1596
  32   2.0000      -0.396213       -10.7815
  33   2.0000      -0.378504       -10.2996
  34   0.0000       0.113778         3.0960
  35   0.0000       0.144449         3.9307
  36   0.0000       0.148121         4.0306
  37   0.0000       0.161933         4.4064
  38   0.0000       0.178242         4.8502

MULLIKEN ATOMIC CHARGES
-----------------------
   0 C :   -0.415381
   1 C :   -0.056704
   2 C :   -0.207071
   3 N :   -0.173779
   4 C :    0.016957
   5 C :   -0.415010
   6 C :    0.062889
   7 O :   -0.243730
   8 C :   -0.008377
   9 H :    0.138023
  10 H :    0.133932
  11 H :    0.136600
  12 H :    0.111553
  13 H :    0.122894
  14 H :    0.114597
  15 H :    0.122824
  16 H :    0.126681
  17 H :    0.148141
  18 H :    0.149877
  19 H :    0.135084
Sum of atomic charges:    0.0000000

LOEWDIN ATOMIC CHARGES
----------------------
   0 C :   -0.294859
   1 C :   -0.240954
   2 C :   -0.221520
   3 N :    0.110547
   4 C :   -0.255341
   5 C :   -0.293109
   6 C :   -0.284019
   7 O :    0.169753
   8 C :   -0.166060
   9 H :    0.126055
  10 H :    0.126104
  11 H :    0.128623
  12 H :    0.152789
  13 H :    0.123540
  14 H :    0.124949
  15 H :    0.161651
  16 H :    0.122677
  17 H :    0.136481
  18 H :    0.132189
  19 H :    0.140505

  Mayer bond orders larger than 0.1
B(  0-C ,  1-C ) :   0.9012 B(  0-C ,  9-H ) :   0.9343 B(  0-C , 10-H ) :   0.9350
B(  0-C , 11-H ) :   0.9340 B(  1-C ,  2-C ) :   0.9410 B(  1-C ,  8-C ) :   0.9244
B(  1-C , 12-H ) :   0.9178 B(  2-C ,  3-N ) :   0.8939 B(  2-C , 13-H ) :   0.9220
B(  2-C , 14-H ) :   0.9251 B(  3-N ,  4-C ) :   0.9437 B(  3-N ,  8-C ) :   0.9704
B(  4-C ,  5-C ) :   0.9028 B(  4-C ,  6-C ) :   0.9076 B(  4-C , 15-H ) :   0.8842
B(  5-C , 16-H ) :   0.9339 B(  5-C , 17-H ) :   0.9282 B(  5-C , 18-H ) :   0.9360
B(  6-C ,  7-O ) :   2.0584 B(  6-C ,  8-C ) :   0.8875 B(  8-C , 19-H ) :   0.8793

MP2 TOTAL ENERGY:     -402.425887770 Eh
FINAL SINGLE POINT ENERGY      -402.425887769519

DIPOLE MOMENT
-------------
                                X             Y             Z
Electronic contribution:      0.54913      -1.10327       5.94652
Nuclear contribution   :     -0.81511       0.95519      -6.51058
                        -----------------------------------------
Total Dipole Moment    :     -0.26598      -0.14809      -0.56407
                        -----------------------------------------
Magnitude (a.u.)       :      0.64097
Magnitude (Debye)      :      1.62922

                             ****ORCA TERMINATED NORMALLY****
TOTAL RUN TIME: 0 days 0 hours 21 minutes 7 seconds 469 msec
