                         Program Version 3.0.3 - RELEASE   -
|  1> ! RI-MP2 RIJK def2-TZVP def2-TZVP/C def2-TZVP/JK TIGHTSCF
|  2> % maxcore 2000
|  3> % mp2 density relaxed end
|  4> *xyz 0 1
|  5>  C        0.0446805614     1.5479410818    -0.0127842627
|  6>  C        0.0106628660     0.0131249094     0.0502937230
|  7>  C        0.8127595479    -0.4726630033     1.2687801446
|  8>  C       -1.4491817029    -0.5507353050    -0.0008631657
|  9>  C       -2.2238088877    -0.0328606243    -1.2351239404
| 10>  C       -1.4461159227    -2.1105234938    -0.0465121419
| 11>  O       -2.7428716624    -2.6644767180    -0.1029636266
| 12>  C       -2.1831061319    -0.1668795804     1.2164238287
| 13>  N       -2.7738195653     0.0874888791     2.1782380655
| 14>  H        1.0799756383     1.8993232047     0.0286692620
| 15>  H       -0.3985083215     1.9383004963    -0.9316544449
| 16>  H       -0.4891266165     1.9876319129     0.8369653636
| 17>  H        0.4951447368    -0.3747993612    -0.8564311229
| 18>  H        0.9472260255    -1.5568728187     1.2857439015
| 19>  H        1.8102328180    -0.0232480967     1.2568689136
| 20>  H        0.3262037163    -0.1758264378     2.2039776952
| 21>  H       -1.6198494045    -0.1907473901    -2.1347118122
| 22>  H       -3.1551357684    -0.5910367845    -1.3420428257
| 23>  H       -2.4595958145     1.0292799449    -1.1565935640
| 24>  H       -0.9385030981    -2.4188215878    -0.9665933212
| 25>  H       -0.8842125083    -2.5115716121     0.8042714345
| 26>  H       -3.1721397854    -2.5043967253     0.7456464861
| 27> *
| 28>
| 29>                          ****END OF INPUT****

CARTESIAN COORDINATES (ANGSTROEM)
---------------------------------
  C      0.044681    1.547941   -0.012784
  C      0.010663    0.013125    0.050294
  C      0.812760   -0.472663    1.268780
  C     -1.449182   -0.550735   -0.000863
  C     -2.223809   -0.032861   -1.235124
  C     -1.446116   -2.110523   -0.046512
  O     -2.742872   -2.664477   -0.102964
  C     -2.183106   -0.166880    1.216424
  N     -2.773820    0.087489    2.178238
  H      1.079976    1.899323    0.028669
  H     -0.398508    1.938300   -0.931654
  H     -0.489127    1.987632    0.836965
  H      0.495145   -0.374799   -0.856431
  H      0.947226   -1.556873    1.285744
  H      1.810233   -0.023248    1.256869
  H      0.326204   -0.175826    2.203978
  H     -1.619849   -0.190747   -2.134712
  H     -3.155136   -0.591037   -1.342043
  H     -2.459596    1.029280   -1.156594
  H     -0.938503   -2.418822   -0.966593
  H     -0.884213   -2.511572    0.804271
  H     -3.172140   -2.504397    0.745646

 Total Charge           Charge          ....    0
 Multiplicity           Mult            ....    1
 Number of Electrons    NEL             ....   70
 Basis Dimension        Dim             ....  357

ORBITAL ENERGIES
----------------

  NO   OCC          E(Eh)            E(eV)
   0   2.0000     -20.570746      -559.7585
   1   2.0000     -15.571633      -423.7257
   2   2.0000     -11.299097      -307.4641
   3   2.0000     -11.289693      -307.2082
   4   2.0000     -11.272900      -306.7512
   5   2.0000     -11.258863      -306.3692
   6   2.0000     -11.235647      -305.7375
   7   2.0000     -11.228202      -305.5349
   8   2.0000     -11.227433      -305.5140
   9   2.0000      -1.379409       -37.5356
  10   2.0000      -1.223851       -33.3027
  11   2.0000      -1.135242       -30.8915
  12   2.0000      -1.038659       -28.2633
  13   2.0000      -0.959580       -26.1115
  14   2.0000      -0.929975       -25.3059
  15   2.0000      -0.879032       -23.9197
  16   2.0000      -0.819516       -22.3002
  17   2.0000      -0.709326       -19.3017
  18   2.0000      -0.682137       -18.5619
  19   2.0000      -0.661284       -17.9945
  20   2.0000      -0.628337       -17.0979
  21   2.0000      -0.607653       -16.5351
  22   2.0000      -0.597552       -16.2602
  23   2.0000      -0.576932       -15.6991
  24   2.0000      -0.562858       -15.3161
  25   2.0000      -0.556452       -15.1418
  26   2.0000      -0.546627       -14.8745
  27   2.0000      -0.538009       -14.6400
  28   2.0000      -0.515305       -14.0222
  29   2.0000      -0.503207       -13.6930
  30   2.0000      -0.494713       -13.4618
  31   2.0000      -0.490744       -13.3538
  32   2.0000      -0.476316       -12.9612
  33   2.0000      -0.450698       -12.2641
  34   2.0000      -0.435911       -11.8617
  35   0.0000       0.124128         3.3777
  36   0.0000       0.146923         3.9980
  37   0.0000       0.152951         4.1620
  38   0.0000       0.158049         4.3007
  39   0.0000       0.173495         4.7210

MULLIKEN ATOMIC CHARGES
-----------------------
   0 C :   -0.430744
   1 C :   -0.064687
   2 C :   -0.432500
   3 C :    0.279178
   4 C :   -0.444381
   5 C :   -0.047606
   6 O :   -0.471513
   7 C :   -0.364957
   8 N :   -0.033673
   9 H :    0.137574
  10 H :    0.142369
  11 H :    0.151329
  12 H :    0.099910
  13 H :    0.133683
  14 H :    0.139037
  15 H :    0.154911
  16 H :    0.140847
  17 H :    0.167423
  18 H :    0.156298
  19 H :    0.124850
  20 H :    0.131524
  21 H :    0.331130
Sum of atomic charges:    0.0000000

LOEWDIN ATOMIC CHARGES
----------------------
   0 C :   -0.283417
   1 C :   -0.250811
   2 C :   -0.286324
   3 C :   -0.279002
   4 C :   -0.245765
   5 C :   -0.290612
   6 O :   -0.024434
   7 C :   -0.169306
   8 N :    0.059902
   9 H :    0.127043
  10 H :    0.124482
  11 H :    0.132536
  12 H :    0.157708
  13 H :    0.121114
  14 H :    0.127842
  15 H :    0.133275
  16 H :    0.131485
  17 H :    0.136872
  18 H :    0.130320
  19 H :    0.138172
  20 H :    0.126557
  21 H :    0.182361

  Mayer bond orders larger than 0.1
B(  0-C ,  1-C ) :   0.9160 B(  0-C ,  9-H ) :   0.9371 B(  0-C , 10-H ) :   0.9383
B(  0-C , 11-H ) :   0.9272 B(  1-C ,  2-C ) :   0.9148 B(  1-C ,  3-C ) :   0.8329
B(  1-C , 12-H ) :   0.9198 B(  2-C , 13-H ) :   0.9388 B(  2-C , 14-H ) :   0.9367
B(  2-C , 15-H ) :   0.9259 B(  3-C ,  4-C ) :   0.8641 B(  3-C ,  5-C ) :   0.8518
B(  3-C ,  7-C ) :   0.8714 B(  4-C , 16-H ) :   0.9318 B(  4-C , 17-H ) :   0.9233
B(  4-C , 18-H ) :   0.9333 B(  5-C ,  6-O ) :   0.9435 B(  5-C , 19-H ) :   0.9214
B(  5-C , 20-H ) :   0.9338 B(  6-O , 21-H ) :   0.8358 B(  7-C ,  8-N ) :   2.8853

MP2 TOTAL ENERGY:     -403.689404959 Eh
FINAL SINGLE POINT ENERGY      -403.689404959425

DIPOLE MOMENT
-------------
                                X             Y             Z
Electronic contribution:     -7.14887      -3.05305       3.63096
Nuclear contribution   :      8.19763       3.04431      -4.38277
                        -----------------------------------------
Total Dipole Moment    :      1.04876      -0.00874      -0.75181
                        -----------------------------------------
Magnitude (a.u.)       :      1.29043
Magnitude (Debye)      :      3.28001

                             ****ORCA TERMINATED NORMALLY****
TOTAL RUN TIME: 0 days 0 hours 22 minutes 26 seconds 877 msec
