                         Program Version 3.0.3 - RELEASE   -
|  1> ! RI-MP2 RIJK def2-TZVP def2-TZVP/C def2-TZVP/JK TIGHTSCF
|  2> % maxcore 2000
|  3> % mp2 density relaxed end
|  4> *xyz 0 1
|  5>  C        0.0718339172     1.4441416490    -0.1800102065
|  6>  C       -0.0329797161    -0.0349646124     0.0595369188
|  7>  C       -1.2918164441    -0.7964789639    -0.3259269488
|  8>  N       -1.1156893609    -2.1130382565     0.2949659621
|  9>  C       -0.2847681114    -1.9703551902     1.4929113768
| 10>  C        0.4653173688    -3.2041745831     1.7749527585
| 11>  N        1.0457820183    -4.1675385164     2.0376075235
| 12>  C        0.5984467417    -0.7689831714     1.1629139599
| 13>  O        1.1595448690    -0.8144655208    -0.1432810729
| 14>  H        1.0243849730     1.8241743096     0.1959776608
| 15>  H        0.0170546135     1.6651309869    -1.2512513349
| 16>  H       -0.7434369470     1.9800203355     0.3166400868
| 17>  H       -2.1625833339    -0.2333407514     0.0506235881
| 18>  H       -1.4018607684    -0.9015957257    -1.4115423398
| 19>  H       -1.9823537440    -2.6012763613     0.4738872932
| 20>  H       -0.8436512376    -1.7140612702     2.4113782466
| 21>  H        1.2016408518    -0.3170220576     1.9448390976
| 22> *
| 23>
| 24>                          ****END OF INPUT****

CARTESIAN COORDINATES (ANGSTROEM)
---------------------------------
  C      0.071834    1.444142   -0.180010
  C     -0.032980   -0.034965    0.059537
  C     -1.291816   -0.796479   -0.325927
  N     -1.115689   -2.113038    0.294966
  C     -0.284768   -1.970355    1.492911
  C      0.465317   -3.204175    1.774953
  N      1.045782   -4.167539    2.037608
  C      0.598447   -0.768983    1.162914
  O      1.159545   -0.814466   -0.143281
  H      1.024385    1.824174    0.195978
  H      0.017055    1.665131   -1.251251
  H     -0.743437    1.980020    0.316640
  H     -2.162583   -0.233341    0.050624
  H     -1.401861   -0.901596   -1.411542
  H     -1.982354   -2.601276    0.473887
  H     -0.843651   -1.714061    2.411378
  H      1.201641   -0.317022    1.944839

 Total Charge           Charge          ....    0
 Multiplicity           Mult            ....    1
 Number of Electrons    NEL             ....   66
 Basis Dimension        Dim             ....  327

ORBITAL ENERGIES
----------------

  NO   OCC          E(Eh)            E(eV)
   0   2.0000     -20.582535      -560.0792
   1   2.0000     -15.574433      -423.8019
   2   2.0000     -15.568849      -423.6499
   3   2.0000     -11.323234      -308.1209
   4   2.0000     -11.312371      -307.8253
   5   2.0000     -11.310260      -307.7678
   6   2.0000     -11.279522      -306.9314
   7   2.0000     -11.269825      -306.6675
   8   2.0000     -11.244675      -305.9832
   9   2.0000      -1.438003       -39.1301
  10   2.0000      -1.249976       -34.0136
  11   2.0000      -1.210196       -32.9311
  12   2.0000      -1.057943       -28.7881
  13   2.0000      -1.025417       -27.9030
  14   2.0000      -0.950834       -25.8735
  15   2.0000      -0.869138       -23.6504
  16   2.0000      -0.798150       -21.7188
  17   2.0000      -0.747721       -20.3465
  18   2.0000      -0.706204       -19.2168
  19   2.0000      -0.650094       -17.6900
  20   2.0000      -0.646855       -17.6018
  21   2.0000      -0.625648       -17.0247
  22   2.0000      -0.599989       -16.3265
  23   2.0000      -0.581981       -15.8365
  24   2.0000      -0.574979       -15.6460
  25   2.0000      -0.553775       -15.0690
  26   2.0000      -0.543154       -14.7800
  27   2.0000      -0.528559       -14.3828
  28   2.0000      -0.473154       -12.8752
  29   2.0000      -0.465750       -12.6737
  30   2.0000      -0.458623       -12.4798
  31   2.0000      -0.429350       -11.6832
  32   2.0000      -0.403566       -10.9816
  33   0.0000       0.111825         3.0429
  34   0.0000       0.134703         3.6655
  35   0.0000       0.150331         4.0907
  36   0.0000       0.169814         4.6209
  37   0.0000       0.174162         4.7392

MULLIKEN ATOMIC CHARGES
-----------------------
   0 C :   -0.420042
   1 C :    0.174053
   2 C :   -0.111499
   3 N :   -0.387048
   4 C :    0.175602
   5 C :   -0.201744
   6 N :   -0.052483
   7 C :   -0.028598
   8 O :   -0.312618
   9 H :    0.150961
  10 H :    0.147615
  11 H :    0.136224
  12 H :    0.108944
  13 H :    0.125862
  14 H :    0.221593
  15 H :    0.129506
  16 H :    0.143670
Sum of atomic charges:    0.0000000

LOEWDIN ATOMIC CHARGES
----------------------
   0 C :   -0.262397
   1 C :   -0.316677
   2 C :   -0.244784
   3 N :    0.028152
   4 C :   -0.269115
   5 C :   -0.159055
   6 N :    0.068828
   7 C :   -0.214762
   8 O :    0.211648
   9 H :    0.137431
  10 H :    0.135333
  11 H :    0.133112
  12 H :    0.130897
  13 H :    0.139506
  14 H :    0.172471
  15 H :    0.165433
  16 H :    0.143978

  Mayer bond orders larger than 0.1
B(  0-C ,  1-C ) :   0.8871 B(  0-C ,  9-H ) :   0.9373 B(  0-C , 10-H ) :   0.9390
B(  0-C , 11-H ) :   0.9283 B(  1-C ,  2-C ) :   0.9638 B(  1-C ,  7-C ) :   0.9359
B(  1-C ,  8-O ) :   0.8802 B(  2-C ,  3-N ) :   0.9508 B(  2-C , 12-H ) :   0.9219
B(  2-C , 13-H ) :   0.9084 B(  3-N ,  4-C ) :   0.9363 B(  3-N , 14-H ) :   0.8763
B(  4-C ,  5-C ) :   0.8896 B(  4-C ,  7-C ) :   0.8666 B(  4-C , 15-H ) :   0.9122
B(  5-C ,  6-N ) :   2.8751 B(  7-C ,  8-O ) :   0.9426 B(  7-C , 16-H ) :   0.9217

MP2 TOTAL ENERGY:     -417.296511225 Eh
FINAL SINGLE POINT ENERGY      -417.296511224521

DIPOLE MOMENT
-------------
                                X             Y             Z
Electronic contribution:      3.47368      -7.82030       2.49793
Nuclear contribution   :     -4.99328       9.70376      -2.34077
                        -----------------------------------------
Total Dipole Moment    :     -1.51959       1.88346       0.15716
                        -----------------------------------------
Magnitude (a.u.)       :      2.42514
Magnitude (Debye)      :      6.16420

                             ****ORCA TERMINATED NORMALLY****
TOTAL RUN TIME: 0 days 0 hours 16 minutes 56 seconds 386 msec
