                         Program Version 3.0.3 - RELEASE   -
|  1> ! RI-MP2 RIJK def2-TZVP def2-TZVP/C def2-TZVP/JK TIGHTSCF
|  2> % maxcore 2000
|  3> % mp2 density relaxed end
|  4> *xyz 0 1
|  5>  C       -0.0385407260     1.5808210508    -0.0502429769
|  6>  C        1.5235636859     1.3630409363    -0.0076294315
|  7>  C        1.1894782395     0.1737240841     0.9738466135
|  8>  C       -0.0546434089     0.0066457505     0.0211499254
|  9>  C        0.6527911415    -0.3307616192    -1.2908016348
| 10>  C        1.6876804579     0.5717260776    -1.2915560545
| 11>  N        2.4295428027     0.3994239511    -2.4177090277
| 12>  C        1.8619165208    -0.6305785010    -3.1530069922
| 13>  C        0.7505849088    -1.1043178467    -2.4711187222
| 14>  H       -0.4230677477     2.0572556999     0.8580892774
| 15>  H       -0.4562192368     2.0490572083    -0.9443088561
| 16>  H        2.2187692934     2.1597821505     0.2534844831
| 17>  H        1.9018363517    -0.6528747738     1.0221701733
| 18>  H        0.9199363099     0.5184340029     1.9780564567
| 19>  H       -0.9418065775    -0.5455839050     0.3262003316
| 20>  H        3.2479887518     0.9151400859    -2.6899526870
| 21>  H        2.2953279008    -0.9353100418    -4.0917404503
| 22>  H        0.1121972221    -1.9069125901    -2.8085765279
| 23> *
| 24>
| 25>                          ****END OF INPUT****

CARTESIAN COORDINATES (ANGSTROEM)
---------------------------------
  C     -0.038541    1.580821   -0.050243
  C      1.523564    1.363041   -0.007629
  C      1.189478    0.173724    0.973847
  C     -0.054643    0.006646    0.021150
  C      0.652791   -0.330762   -1.290802
  C      1.687680    0.571726   -1.291556
  N      2.429543    0.399424   -2.417709
  C      1.861917   -0.630579   -3.153007
  C      0.750585   -1.104318   -2.471119
  H     -0.423068    2.057256    0.858089
  H     -0.456219    2.049057   -0.944309
  H      2.218769    2.159782    0.253484
  H      1.901836   -0.652875    1.022170
  H      0.919936    0.518434    1.978056
  H     -0.941807   -0.545584    0.326200
  H      3.247989    0.915140   -2.689953
  H      2.295328   -0.935310   -4.091740
  H      0.112197   -1.906913   -2.808577

 Total Charge           Charge          ....    0
 Multiplicity           Mult            ....    1
 Number of Electrons    NEL             ....   64
 Basis Dimension        Dim             ....  333

ORBITAL ENERGIES
----------------

  NO   OCC          E(Eh)            E(eV)
   0   2.0000     -15.602633      -424.5692
   1   2.0000     -11.247708      -306.0657
   2   2.0000     -11.238825      -305.8240
   3   2.0000     -11.238023      -305.8022
   4   2.0000     -11.235831      -305.7425
   5   2.0000     -11.226288      -305.4828
   6   2.0000     -11.226272      -305.4824
   7   2.0000     -11.208008      -304.9854
   8   2.0000     -11.190430      -304.5071
   9   2.0000      -1.285041       -34.9677
  10   2.0000      -1.173022       -31.9195
  11   2.0000      -1.027648       -27.9637
  12   2.0000      -0.952372       -25.9154
  13   2.0000      -0.898999       -24.4630
  14   2.0000      -0.892130       -24.2761
  15   2.0000      -0.791563       -21.5395
  16   2.0000      -0.778092       -21.1730
  17   2.0000      -0.713697       -19.4207
  18   2.0000      -0.684528       -18.6270
  19   2.0000      -0.649520       -17.6743
  20   2.0000      -0.595906       -16.2154
  21   2.0000      -0.585104       -15.9215
  22   2.0000      -0.571822       -15.5601
  23   2.0000      -0.535458       -14.5706
  24   2.0000      -0.529815       -14.4170
  25   2.0000      -0.507203       -13.8017
  26   2.0000      -0.473008       -12.8712
  27   2.0000      -0.454401       -12.3649
  28   2.0000      -0.450323       -12.2539
  29   2.0000      -0.442516       -12.0415
  30   2.0000      -0.333702        -9.0805
  31   2.0000      -0.262542        -7.1441
  32   0.0000       0.136306         3.7091
  33   0.0000       0.154096         4.1932
  34   0.0000       0.172995         4.7074
  35   0.0000       0.177794         4.8380
  36   0.0000       0.184657         5.0248

MULLIKEN ATOMIC CHARGES
-----------------------
   0 C :   -0.223933
   1 C :   -0.054972
   2 C :   -0.223924
   3 C :   -0.036888
   4 C :   -0.031590
   5 C :    0.005065
   6 N :   -0.290377
   7 C :   -0.044904
   8 C :   -0.317059
   9 H :    0.113099
  10 H :    0.117920
  11 H :    0.126754
  12 H :    0.117917
  13 H :    0.113092
  14 H :    0.126898
  15 H :    0.241909
  16 H :    0.139077
  17 H :    0.121917
Sum of atomic charges:    0.0000000

LOEWDIN ATOMIC CHARGES
----------------------
   0 C :   -0.177655
   1 C :   -0.166669
   2 C :   -0.177662
   3 C :   -0.158487
   4 C :   -0.132782
   5 C :   -0.190111
   6 N :    0.196818
   7 C :   -0.242138
   8 C :   -0.185856
   9 H :    0.129597
  10 H :    0.127517
  11 H :    0.131810
  12 H :    0.127516
  13 H :    0.129594
  14 H :    0.132783
  15 H :    0.190141
  16 H :    0.128467
  17 H :    0.137116

  Mayer bond orders larger than 0.1
B(  0-C ,  1-C ) :   0.9157 B(  0-C ,  3-C ) :   0.9080 B(  0-C ,  9-H ) :   0.9198
B(  0-C , 10-H ) :   0.9205 B(  1-C ,  2-C ) :   0.9157 B(  1-C ,  5-C ) :   0.9579
B(  1-C , 11-H ) :   0.9071 B(  2-C ,  3-C ) :   0.9080 B(  2-C , 12-H ) :   0.9205
B(  2-C , 13-H ) :   0.9198 B(  3-C ,  4-C ) :   0.9312 B(  3-C , 14-H ) :   0.9183
B(  4-C ,  5-C ) :   1.3897 B(  4-C ,  8-C ) :   1.2816 B(  5-C ,  6-N ) :   1.1263
B(  6-N ,  7-C ) :   1.1039 B(  6-N , 15-H ) :   0.8681 B(  7-C ,  8-C ) :   1.4721
B(  7-C , 16-H ) :   0.9193 B(  8-C , 17-H ) :   0.9281

MP2 TOTAL ENERGY:     -364.138907706 Eh
FINAL SINGLE POINT ENERGY      -364.138907706499

DIPOLE MOMENT
-------------
                                X             Y             Z
Electronic contribution:      1.68865      -0.90097      -3.26255
Nuclear contribution   :     -1.15642       1.38844       3.29435
                        -----------------------------------------
Total Dipole Moment    :      0.53223       0.48748       0.03180
                        -----------------------------------------
Magnitude (a.u.)       :      0.72244
Magnitude (Debye)      :      1.83629

                             ****ORCA TERMINATED NORMALLY****
TOTAL RUN TIME: 0 days 0 hours 20 minutes 14 seconds 919 msec
