                         Program Version 3.0.3 - RELEASE   -
|  1> ! RI-MP2 RIJK def2-TZVP def2-TZVP/C def2-TZVP/JK TIGHTSCF
|  2> % maxcore 2000
|  3> % mp2 density relaxed end
|  4> *xyz 0 1
|  5>  C        0.0035774727     1.5400201592    -0.0834838777
|  6>  C        0.0025785098     0.0330070497     0.0563823185
|  7>  O        0.0014798615    -0.5184314878     1.1424391358
|  8>  C        0.0031948299    -0.7496156449    -1.1946273508
|  9>  C        0.0024864712    -2.1287997030    -1.3560470748
| 10>  C        0.0017671095    -3.2616870294    -0.3871128592
| 11>  N        0.0031003837    -2.2732213389    -2.6974644421
| 12>  N        0.0039325056    -1.0785482497    -3.3463124195
| 13>  N        0.0042069232    -0.1638317301    -2.4349923772
| 14>  H        0.8791789015     1.8682996073    -0.6521505888
| 15>  H       -0.8717172639     1.8693321556    -0.6520485794
| 16>  H        0.0038258045     1.9903468277     0.9093728579
| 17>  H       -0.8787752226    -3.8991816510    -0.5235272736
| 18>  H        0.8904719084    -3.8902138917    -0.5121388774
| 19>  H       -0.0061605177    -2.8571175121     0.6243420770
| 20>  H        0.0027745827    -3.1240437111    -3.2389392686
| 21> *
| 22>
| 23>                          ****END OF INPUT****

CARTESIAN COORDINATES (ANGSTROEM)
---------------------------------
  C      0.003577    1.540020   -0.083484
  C      0.002579    0.033007    0.056382
  O      0.001480   -0.518431    1.142439
  C      0.003195   -0.749616   -1.194627
  C      0.002486   -2.128800   -1.356047
  C      0.001767   -3.261687   -0.387113
  N      0.003100   -2.273221   -2.697464
  N      0.003933   -1.078548   -3.346312
  N      0.004207   -0.163832   -2.434992
  H      0.879179    1.868300   -0.652151
  H     -0.871717    1.869332   -0.652049
  H      0.003826    1.990347    0.909373
  H     -0.878775   -3.899182   -0.523527
  H      0.890472   -3.890214   -0.512139
  H     -0.006161   -2.857118    0.624342
  H      0.002775   -3.124044   -3.238939

 Total Charge           Charge          ....    0
 Multiplicity           Mult            ....    1
 Number of Electrons    NEL             ....   66
 Basis Dimension        Dim             ....  321

ORBITAL ENERGIES
----------------

  NO   OCC          E(Eh)            E(eV)
   0   2.0000     -20.541819      -558.9713
   1   2.0000     -15.667175      -426.3255
   2   2.0000     -15.651925      -425.9105
   3   2.0000     -15.614704      -424.8977
   4   2.0000     -11.338736      -308.5427
   5   2.0000     -11.315116      -307.8999
   6   2.0000     -11.262151      -306.4587
   7   2.0000     -11.253962      -306.2359
   8   2.0000     -11.227243      -305.5088
   9   2.0000      -1.449532       -39.4438
  10   2.0000      -1.385348       -37.6972
  11   2.0000      -1.221995       -33.2522
  12   2.0000      -1.118385       -30.4328
  13   2.0000      -1.019070       -27.7303
  14   2.0000      -0.983317       -26.7574
  15   2.0000      -0.875759       -23.8306
  16   2.0000      -0.873288       -23.7634
  17   2.0000      -0.767585       -20.8871
  18   2.0000      -0.722370       -19.6567
  19   2.0000      -0.664925       -18.0935
  20   2.0000      -0.656487       -17.8639
  21   2.0000      -0.625356       -17.0168
  22   2.0000      -0.598566       -16.2878
  23   2.0000      -0.595021       -16.1913
  24   2.0000      -0.586732       -15.9658
  25   2.0000      -0.580567       -15.7980
  26   2.0000      -0.549100       -14.9418
  27   2.0000      -0.533760       -14.5243
  28   2.0000      -0.505331       -13.7507
  29   2.0000      -0.450516       -12.2592
  30   2.0000      -0.432907       -11.7800
  31   2.0000      -0.422451       -11.4955
  32   2.0000      -0.360992        -9.8231
  33   0.0000       0.103336         2.8119
  34   0.0000       0.115993         3.1563
  35   0.0000       0.130883         3.5615
  36   0.0000       0.150703         4.1008
  37   0.0000       0.158724         4.3191

MULLIKEN ATOMIC CHARGES
-----------------------
   0 C :   -0.370416
   1 C :    0.201116
   2 O :   -0.322719
   3 C :    0.001622
   4 C :    0.039695
   5 C :   -0.412820
   6 N :   -0.065390
   7 N :   -0.147674
   8 N :   -0.135493
   9 H :    0.151350
  10 H :    0.151316
  11 H :    0.148592
  12 H :    0.150312
  13 H :    0.150746
  14 H :    0.194205
  15 H :    0.265560
Sum of atomic charges:   -0.0000000

LOEWDIN ATOMIC CHARGES
----------------------
   0 C :   -0.269092
   1 C :   -0.324062
   2 O :    0.136525
   3 C :   -0.238259
   4 C :   -0.221211
   5 C :   -0.265536
   6 N :    0.150779
   7 N :   -0.037453
   8 N :    0.034541
   9 H :    0.142122
  10 H :    0.142135
  11 H :    0.131853
  12 H :    0.136691
  13 H :    0.136877
  14 H :    0.149714
  15 H :    0.194376

  Mayer bond orders larger than 0.1
B(  0-C ,  1-C ) :   0.9738 B(  0-C ,  9-H ) :   0.9085 B(  0-C , 10-H ) :   0.9085
B(  0-C , 11-H ) :   0.9361 B(  1-C ,  2-O ) :   1.9332 B(  1-C ,  3-C ) :   0.9263
B(  3-C ,  4-C ) :   1.3725 B(  3-C ,  8-N ) :   1.3565 B(  4-C ,  5-C ) :   0.8297
B(  4-C ,  6-N ) :   1.2427 B(  4-C ,  7-N ) :   0.1222 B(  5-C , 12-H ) :   0.9287
B(  5-C , 13-H ) :   0.9285 B(  5-C , 14-H ) :   0.9339 B(  6-N ,  7-N ) :   1.0176
B(  6-N , 15-H ) :   0.8591 B(  7-N ,  8-N ) :   1.3201

MP2 TOTAL ENERGY:     -433.374908561 Eh
FINAL SINGLE POINT ENERGY      -433.374908561188

DIPOLE MOMENT
-------------
                                X             Y             Z
Electronic contribution:      0.00057      -0.13597      -3.77155
Nuclear contribution   :     -0.00074      -1.21807       3.56695
                        -----------------------------------------
Total Dipole Moment    :     -0.00017      -1.35404      -0.20460
                        -----------------------------------------
Magnitude (a.u.)       :      1.36941
Magnitude (Debye)      :      3.48077

                             ****ORCA TERMINATED NORMALLY****
TOTAL RUN TIME: 0 days 0 hours 16 minutes 7 seconds 481 msec
