                         Program Version 3.0.3 - RELEASE   -
|  1> ! RI-MP2 RIJK def2-TZVP def2-TZVP/C def2-TZVP/JK TIGHTSCF
|  2> % maxcore 2000
|  3> % mp2 density relaxed end
|  4> *xyz 0 1
|  5>  C       -0.0118632247     1.5315187514     0.0836939733
|  6>  C       -0.0179573044     0.0339535446     0.0148509454
|  7>  C        1.1513154699    -0.7940185704    -0.3592143195
|  8>  C        0.6044178590    -0.9666834214     1.0680731141
|  9>  C        1.4097270676    -0.7165871716     2.2138607816
| 10>  N        2.0514368899    -0.4962590144     3.1519491708
| 11>  C       -0.6796459207    -1.7637129821     0.9998864307
| 12>  O       -1.1222561515    -2.6532127629     1.6609638228
| 13>  C       -1.2851888998    -0.8372028305    -0.0809909000
| 14>  H        0.9663962645     1.9091772962     0.3946675927
| 15>  H       -0.2407435997     1.9591494623    -0.8989554195
| 16>  H       -0.7608630587     1.8981953213     0.7922818304
| 17>  H        1.0570748411    -1.6235150851    -1.0544744412
| 18>  H        2.1133066156    -0.2922723203    -0.3859714743
| 19>  H       -2.1840617115    -0.3545042284     0.3139453791
| 20>  H       -1.5101698967    -1.2727362986    -1.0585170564
| 21> *
| 22>
| 23>                          ****END OF INPUT****

CARTESIAN COORDINATES (ANGSTROEM)
---------------------------------
  C     -0.011863    1.531519    0.083694
  C     -0.017957    0.033954    0.014851
  C      1.151315   -0.794019   -0.359214
  C      0.604418   -0.966683    1.068073
  C      1.409727   -0.716587    2.213861
  N      2.051437   -0.496259    3.151949
  C     -0.679646   -1.763713    0.999886
  O     -1.122256   -2.653213    1.660964
  C     -1.285189   -0.837203   -0.080991
  H      0.966396    1.909177    0.394668
  H     -0.240744    1.959149   -0.898955
  H     -0.760863    1.898195    0.792282
  H      1.057075   -1.623515   -1.054474
  H      2.113307   -0.292272   -0.385971
  H     -2.184062   -0.354504    0.313945
  H     -1.510170   -1.272736   -1.058517

 Total Charge           Charge          ....    0
 Multiplicity           Mult            ....    1
 Number of Electrons    NEL             ....   64
 Basis Dimension        Dim             ....  321

ORBITAL ENERGIES
----------------

  NO   OCC          E(Eh)            E(eV)
   0   2.0000     -20.570608      -559.7547
   1   2.0000     -15.577994      -423.8988
   2   2.0000     -11.362738      -309.1958
   3   2.0000     -11.304337      -307.6066
   4   2.0000     -11.303008      -307.5705
   5   2.0000     -11.287121      -307.1382
   6   2.0000     -11.283211      -307.0318
   7   2.0000     -11.271398      -306.7103
   8   2.0000     -11.256522      -306.3055
   9   2.0000      -1.417623       -38.5755
  10   2.0000      -1.252894       -34.0930
  11   2.0000      -1.215763       -33.0826
  12   2.0000      -1.024661       -27.8824
  13   2.0000      -1.021654       -27.8006
  14   2.0000      -0.940148       -25.5827
  15   2.0000      -0.819291       -22.2941
  16   2.0000      -0.800394       -21.7798
  17   2.0000      -0.699283       -19.0285
  18   2.0000      -0.682212       -18.5639
  19   2.0000      -0.662588       -18.0299
  20   2.0000      -0.630932       -17.1685
  21   2.0000      -0.613720       -16.7002
  22   2.0000      -0.594837       -16.1863
  23   2.0000      -0.584245       -15.8981
  24   2.0000      -0.567207       -15.4345
  25   2.0000      -0.557345       -15.1661
  26   2.0000      -0.527521       -14.3546
  27   2.0000      -0.510898       -13.9022
  28   2.0000      -0.497073       -13.5260
  29   2.0000      -0.462172       -12.5763
  30   2.0000      -0.418610       -11.3910
  31   2.0000      -0.402941       -10.9646
  32   0.0000       0.106919         2.9094
  33   0.0000       0.127543         3.4706
  34   0.0000       0.137231         3.7343
  35   0.0000       0.150087         4.0841
  36   0.0000       0.158311         4.3079

MULLIKEN ATOMIC CHARGES
-----------------------
   0 C :   -0.406866
   1 C :    0.007667
   2 C :   -0.243207
   3 C :    0.209467
   4 C :   -0.249435
   5 N :   -0.040971
   6 C :    0.067047
   7 O :   -0.227848
   8 C :   -0.169106
   9 H :    0.149175
  10 H :    0.151047
  11 H :    0.146364
  12 H :    0.156211
  13 H :    0.163452
  14 H :    0.142844
  15 H :    0.144160
Sum of atomic charges:   -0.0000000

LOEWDIN ATOMIC CHARGES
----------------------
   0 C :   -0.257568
   1 C :   -0.178949
   2 C :   -0.119116
   3 C :   -0.138427
   4 C :   -0.155088
   5 N :    0.079199
   6 C :   -0.273010
   7 O :    0.184556
   8 C :   -0.151969
   9 H :    0.138773
  10 H :    0.137250
  11 H :    0.135967
  12 H :    0.144574
  13 H :    0.155892
  14 H :    0.155193
  15 H :    0.142722

  Mayer bond orders larger than 0.1
B(  0-C ,  1-C ) :   0.9089 B(  0-C ,  9-H ) :   0.9301 B(  0-C , 10-H ) :   0.9329
B(  0-C , 11-H ) :   0.9308 B(  1-C ,  2-C ) :   0.9237 B(  1-C ,  3-C ) :   0.7652
B(  1-C ,  8-C ) :   0.9126 B(  2-C ,  3-C ) :   0.7829 B(  2-C , 12-H ) :   0.9094
B(  2-C , 13-H ) :   0.9266 B(  3-C ,  4-C ) :   0.9629 B(  3-C ,  6-C ) :   0.8030
B(  3-C ,  8-C ) :  -0.1409 B(  4-C ,  5-N ) :   2.8501 B(  6-C ,  7-O ) :   2.0809
B(  6-C ,  8-C ) :   0.9391 B(  8-C , 14-H ) :   0.8960 B(  8-C , 15-H ) :   0.8904

MP2 TOTAL ENERGY:     -400.062633234 Eh
FINAL SINGLE POINT ENERGY      -400.062633234030

DIPOLE MOMENT
-------------
                                X             Y             Z
Electronic contribution:      1.39120      -5.97705       6.04580
Nuclear contribution   :     -1.85006       6.90291      -8.05330
                        -----------------------------------------
Total Dipole Moment    :     -0.45886       0.92586      -2.00750
                        -----------------------------------------
Magnitude (a.u.)       :      2.25783
Magnitude (Debye)      :      5.73896

                             ****ORCA TERMINATED NORMALLY****
TOTAL RUN TIME: 0 days 0 hours 16 minutes 16 seconds 454 msec
