                         Program Version 3.0.3 - RELEASE   -
|  1> ! RI-MP2 RIJK def2-TZVP def2-TZVP/C def2-TZVP/JK TIGHTSCF
|  2> % maxcore 2000
|  3> % mp2 density relaxed end
|  4> *xyz 0 1
|  5>  C       -0.1942223418     1.3673201950     0.0746582404
|  6>  N        0.0053419719    -0.0796374127     0.0073190580
|  7>  C        0.7411156203    -0.5282231091    -1.1728847683
|  8>  C        1.2391009163    -1.9545249430    -1.0780003306
|  9>  C        0.1919992434    -3.0345041943    -0.8473540700
| 10>  C        0.6201536241    -2.6820782157    -2.2373438170
| 11>  O       -0.2225267208    -1.8010466301    -2.9554532457
| 12>  C       -0.2075130342    -0.5552297179    -2.3966270721
| 13>  O       -0.8715380916     0.3402026827    -2.8282580404
| 14>  H        0.7474122823     1.9442308037     0.0434133311
| 15>  H       -0.8115748511     1.6864276503    -0.7667011515
| 16>  H       -0.7185156795     1.6117152585     1.0025581644
| 17>  H        0.5092123242    -0.3945107242     0.8290833740
| 18>  H        1.5810623668     0.1442620466    -1.4281676034
| 19>  H        2.2653133242    -2.1369688892    -0.7846772550
| 20>  H        0.5400389911    -3.9781074828    -0.4423248491
| 21>  H       -0.7960232191    -2.7255431345    -0.5255116116
| 22>  H        1.1472653137    -3.3697767233    -2.8854057730
| 23> *
| 24>
| 25>                          ****END OF INPUT****

CARTESIAN COORDINATES (ANGSTROEM)
---------------------------------
  C     -0.194222    1.367320    0.074658
  N      0.005342   -0.079637    0.007319
  C      0.741116   -0.528223   -1.172885
  C      1.239101   -1.954525   -1.078000
  C      0.191999   -3.034504   -0.847354
  C      0.620154   -2.682078   -2.237344
  O     -0.222527   -1.801047   -2.955453
  C     -0.207513   -0.555230   -2.396627
  O     -0.871538    0.340203   -2.828258
  H      0.747412    1.944231    0.043413
  H     -0.811575    1.686428   -0.766701
  H     -0.718516    1.611715    1.002558
  H      0.509212   -0.394511    0.829083
  H      1.581062    0.144262   -1.428168
  H      2.265313   -2.136969   -0.784677
  H      0.540039   -3.978107   -0.442325
  H     -0.796023   -2.725543   -0.525512
  H      1.147265   -3.369777   -2.885406

 Total Charge           Charge          ....    0
 Multiplicity           Mult            ....    1
 Number of Electrons    NEL             ....   68
 Basis Dimension        Dim             ....  333

ORBITAL ENERGIES
----------------

  NO   OCC          E(Eh)            E(eV)
   0   2.0000     -20.605508      -560.7044
   1   2.0000     -20.542463      -558.9888
   2   2.0000     -15.560116      -423.4123
   3   2.0000     -11.377944      -309.6096
   4   2.0000     -11.308843      -307.7293
   5   2.0000     -11.290390      -307.2271
   6   2.0000     -11.256842      -306.3142
   7   2.0000     -11.248594      -306.0898
   8   2.0000     -11.243483      -305.9507
   9   2.0000      -1.464142       -39.8413
  10   2.0000      -1.372696       -37.3530
  11   2.0000      -1.226324       -33.3700
  12   2.0000      -1.153994       -31.4018
  13   2.0000      -1.006304       -27.3829
  14   2.0000      -0.895539       -24.3689
  15   2.0000      -0.873428       -23.7672
  16   2.0000      -0.825558       -22.4646
  17   2.0000      -0.768240       -20.9049
  18   2.0000      -0.730466       -19.8770
  19   2.0000      -0.676864       -18.4184
  20   2.0000      -0.658768       -17.9260
  21   2.0000      -0.650392       -17.6981
  22   2.0000      -0.630179       -17.1480
  23   2.0000      -0.609233       -16.5781
  24   2.0000      -0.591255       -16.0889
  25   2.0000      -0.585724       -15.9384
  26   2.0000      -0.548424       -14.9234
  27   2.0000      -0.536750       -14.6057
  28   2.0000      -0.519973       -14.1492
  29   2.0000      -0.493096       -13.4178
  30   2.0000      -0.446771       -12.1572
  31   2.0000      -0.440019       -11.9735
  32   2.0000      -0.416493       -11.3334
  33   2.0000      -0.383605       -10.4384
  34   0.0000       0.124413         3.3854
  35   0.0000       0.150297         4.0898
  36   0.0000       0.159170         4.3312
  37   0.0000       0.171090         4.6556
  38   0.0000       0.176460         4.8017

MULLIKEN ATOMIC CHARGES
-----------------------
   0 C :   -0.315761
   1 N :   -0.376238
   2 C :    0.082409
   3 C :   -0.195419
   4 C :   -0.276027
   5 C :    0.054451
   6 O :   -0.214183
   7 C :    0.216442
   8 O :   -0.284279
   9 H :    0.104239
  10 H :    0.169180
  11 H :    0.133480
  12 H :    0.209512
  13 H :    0.104642
  14 H :    0.143054
  15 H :    0.137806
  16 H :    0.167789
  17 H :    0.138905
Sum of atomic charges:    0.0000000

LOEWDIN ATOMIC CHARGES
----------------------
   0 C :   -0.344759
   1 N :   -0.022075
   2 C :   -0.258227
   3 C :   -0.188847
   4 C :   -0.192908
   5 C :   -0.248714
   6 O :    0.286470
   7 C :   -0.418597
   8 O :    0.149354
   9 H :    0.099453
  10 H :    0.124265
  11 H :    0.115456
  12 H :    0.173100
  13 H :    0.151745
  14 H :    0.147022
  15 H :    0.139558
  16 H :    0.147470
  17 H :    0.140234

  Mayer bond orders larger than 0.1
B(  0-C ,  1-N ) :   0.9119 B(  0-C ,  9-H ) :   0.9317 B(  0-C , 10-H ) :   0.9318
B(  0-C , 11-H ) :   0.9355 B(  1-N ,  2-C ) :   0.9098 B(  1-N , 12-H ) :   0.8809
B(  2-C ,  3-C ) :   0.9259 B(  2-C ,  7-C ) :   0.9033 B(  2-C , 13-H ) :   0.8854
B(  3-C ,  4-C ) :   0.8752 B(  3-C ,  5-C ) :   0.9127 B(  3-C , 14-H ) :   0.9153
B(  4-C ,  5-C ) :   0.8976 B(  4-C , 15-H ) :   0.9204 B(  4-C , 16-H ) :   0.9094
B(  5-C ,  6-O ) :   0.8889 B(  5-C , 17-H ) :   0.9381 B(  6-O ,  7-C ) :   1.1068
B(  7-C ,  8-O ) :   2.0145

MP2 TOTAL ENERGY:     -438.371871378 Eh
FINAL SINGLE POINT ENERGY      -438.371871377758

DIPOLE MOMENT
-------------
                                X             Y             Z
Electronic contribution:     -1.80771      -1.92375      -6.82092
Nuclear contribution   :      3.11943       1.24107       7.89385
                        -----------------------------------------
Total Dipole Moment    :      1.31172      -0.68268       1.07293
                        -----------------------------------------
Magnitude (a.u.)       :      1.82697
Magnitude (Debye)      :      4.64380

                             ****ORCA TERMINATED NORMALLY****
TOTAL RUN TIME: 0 days 0 hours 29 minutes 36 seconds 79 msec
