                         Program Version 3.0.3 - RELEASE   -
|  1> ! RI-MP2 RIJK def2-TZVP def2-TZVP/C def2-TZVP/JK TIGHTSCF
|  2> % maxcore 2000
|  3> % mp2 density relaxed end
|  4> *xyz 0 1
|  5>  C       -0.0156453775     1.4561014193     0.0102030693
|  6>  C        0.0040536122     0.0034126691     0.0023302426
|  7>  C        0.0191716668    -1.2016688639    -0.0042174427
|  8>  C        0.0380460391    -2.6315757083    -0.0118842688
|  9>  N        1.2442321434    -3.2262278190    -0.0220388210
| 10>  C        1.2439372568    -4.5574785817    -0.0292062392
| 11>  C        0.0737547970    -5.3088132408    -0.0265421997
| 12>  C       -1.1160253770    -4.5890234556    -0.0158615050
| 13>  N       -1.1518409927    -3.2582287478    -0.0084907363
| 14>  H        0.9988003893     1.8682956237     0.0027222497
| 15>  H       -0.5449095284     1.8457615521    -0.8664471481
| 16>  H       -0.5279860492     1.8363829423     0.9009200701
| 17>  H        2.2198614724    -5.0386197852    -0.0373970205
| 18>  H        0.0881986122    -6.3917946258    -0.0324570310
| 19>  H       -2.0787683443    -5.0960807684    -0.0130882194
| 20> *
| 21>
| 22>                          ****END OF INPUT****

CARTESIAN COORDINATES (ANGSTROEM)
---------------------------------
  C     -0.015645    1.456101    0.010203
  C      0.004054    0.003413    0.002330
  C      0.019172   -1.201669   -0.004217
  C      0.038046   -2.631576   -0.011884
  N      1.244232   -3.226228   -0.022039
  C      1.243937   -4.557479   -0.029206
  C      0.073755   -5.308813   -0.026542
  C     -1.116025   -4.589023   -0.015862
  N     -1.151841   -3.258229   -0.008491
  H      0.998800    1.868296    0.002722
  H     -0.544910    1.845762   -0.866447
  H     -0.527986    1.836383    0.900920
  H      2.219861   -5.038620   -0.037397
  H      0.088199   -6.391795   -0.032457
  H     -2.078768   -5.096081   -0.013088

 Total Charge           Charge          ....    0
 Multiplicity           Mult            ....    1
 Number of Electrons    NEL             ....   62
 Basis Dimension        Dim             ....  315

ORBITAL ENERGIES
----------------

  NO   OCC          E(Eh)            E(eV)
   0   2.0000     -15.574320      -423.7988
   1   2.0000     -15.574296      -423.7981
   2   2.0000     -11.338187      -308.5278
   3   2.0000     -11.298777      -307.4554
   4   2.0000     -11.298765      -307.4550
   5   2.0000     -11.251533      -306.1698
   6   2.0000     -11.248287      -306.0815
   7   2.0000     -11.241122      -305.8865
   8   2.0000     -11.223283      -305.4010
   9   2.0000      -1.317247       -35.8441
  10   2.0000      -1.197563       -32.5873
  11   2.0000      -1.095002       -29.7965
  12   2.0000      -1.054495       -28.6943
  13   2.0000      -0.972772       -26.4705
  14   2.0000      -0.896735       -24.4014
  15   2.0000      -0.894409       -24.3381
  16   2.0000      -0.763076       -20.7644
  17   2.0000      -0.708404       -19.2766
  18   2.0000      -0.673271       -18.3206
  19   2.0000      -0.635630       -17.2964
  20   2.0000      -0.599146       -16.3036
  21   2.0000      -0.597031       -16.2460
  22   2.0000      -0.595631       -16.2079
  23   2.0000      -0.591001       -16.0820
  24   2.0000      -0.582641       -15.8545
  25   2.0000      -0.485312       -13.2060
  26   2.0000      -0.427073       -11.6213
  27   2.0000      -0.424805       -11.5595
  28   2.0000      -0.414634       -11.2828
  29   2.0000      -0.384503       -10.4629
  30   2.0000      -0.341584        -9.2950
  31   0.0000       0.082363         2.2412
  32   0.0000       0.093261         2.5378
  33   0.0000       0.140177         3.8144
  34   0.0000       0.154207         4.1962
  35   0.0000       0.177686         4.8351

MULLIKEN ATOMIC CHARGES
-----------------------
   0 C :   -0.471961
   1 C :    0.085769
   2 C :    0.106180
   3 C :    0.013384
   4 N :   -0.233581
   5 C :   -0.039392
   6 C :   -0.104334
   7 C :   -0.039453
   8 N :   -0.234002
   9 H :    0.166826
  10 H :    0.165719
  11 H :    0.165710
  12 H :    0.137139
  13 H :    0.144855
  14 H :    0.137141
Sum of atomic charges:    0.0000000

LOEWDIN ATOMIC CHARGES
----------------------
   0 C :   -0.288895
   1 C :   -0.065833
   2 C :   -0.031708
   3 C :   -0.289857
   4 N :    0.172683
   5 C :   -0.194756
   6 C :   -0.147768
   7 C :   -0.194764
   8 N :    0.172633
   9 H :    0.143438
  10 H :    0.144212
  11 H :    0.144218
  12 H :    0.142422
  13 H :    0.151553
  14 H :    0.142421

  Mayer bond orders larger than 0.1
B(  0-C ,  1-C ) :   0.8597 B(  0-C ,  9-H ) :   0.9441 B(  0-C , 10-H ) :   0.9421
B(  0-C , 11-H ) :   0.9421 B(  1-C ,  2-C ) :   2.6536 B(  1-C ,  3-C ) :  -0.1386
B(  2-C ,  3-C ) :   1.1297 B(  3-C ,  4-N ) :   1.4048 B(  3-C ,  8-N ) :   1.4036
B(  4-N ,  5-C ) :   1.4098 B(  5-C ,  6-C ) :   1.3193 B(  5-C , 12-H ) :   0.9455
B(  6-C ,  7-C ) :   1.3195 B(  6-C , 13-H ) :   0.9100 B(  7-C ,  8-N ) :   1.4094
B(  7-C , 14-H ) :   0.9455

MP2 TOTAL ENERGY:     -378.998909500 Eh
FINAL SINGLE POINT ENERGY      -378.998909499965

DIPOLE MOMENT
-------------
                                X             Y             Z
Electronic contribution:      0.06949      -4.66408      -0.02525
Nuclear contribution   :     -0.06494       4.18128       0.02264
                        -----------------------------------------
Total Dipole Moment    :      0.00455      -0.48280      -0.00261
                        -----------------------------------------
Magnitude (a.u.)       :      0.48282
Magnitude (Debye)      :      1.22724

                             ****ORCA TERMINATED NORMALLY****
TOTAL RUN TIME: 0 days 0 hours 14 minutes 33 seconds 529 msec
