                         Program Version 3.0.3 - RELEASE   -
|  1> ! RI-MP2 RIJK def2-TZVP def2-TZVP/C def2-TZVP/JK TIGHTSCF
|  2> % maxcore 2000
|  3> % mp2 density relaxed end
|  4> *xyz 0 1
|  5>  C       -0.0079144087     1.5083332889    -0.0210502797
|  6>  N        1.2501609886     0.7435386409    -0.0206669672
|  7>  C       -0.0321380781     0.0234826155     0.0547950157
|  8>  C       -0.3169771081    -0.7268798167     1.3127290878
|  9>  C        0.0850893568    -0.1634889723     2.6691577071
| 10>  O       -0.0288268834    -1.2545833698     3.5820595238
| 11>  C        0.2808420010    -2.4520613762     2.8739905285
| 12>  C       -0.1984724916    -2.2046307254     1.4565886510
| 13>  N       -1.5185686703    -1.5771868258     1.3104746166
| 14>  H       -0.1756388636     2.1070313529     0.8699749821
| 15>  H       -0.3421522068     1.9747822747    -0.9439218621
| 16>  H        1.6322153134     0.6873916470    -0.9603285255
| 17>  H       -0.3802376136    -0.4965377038    -0.8348369299
| 18>  H        1.1129430752     0.2218565289     2.6133068198
| 19>  H       -0.5735167030     0.6313921226     3.0355338267
| 20>  H        1.3637185453    -2.6575883142     2.8728393287
| 21>  H       -0.2275387073    -3.2758550486     3.3869624137
| 22>  H        0.1198925640    -2.8628998519     0.6543973216
| 23>  H       -1.9785828798    -1.5285927865     2.2190112112
| 24> *
| 25>
| 26>                          ****END OF INPUT****

CARTESIAN COORDINATES (ANGSTROEM)
---------------------------------
  C     -0.007914    1.508333   -0.021050
  N      1.250161    0.743539   -0.020667
  C     -0.032138    0.023483    0.054795
  C     -0.316977   -0.726880    1.312729
  C      0.085089   -0.163489    2.669158
  O     -0.028827   -1.254583    3.582060
  C      0.280842   -2.452061    2.873991
  C     -0.198472   -2.204631    1.456589
  N     -1.518569   -1.577187    1.310475
  H     -0.175639    2.107031    0.869975
  H     -0.342152    1.974782   -0.943922
  H      1.632215    0.687392   -0.960329
  H     -0.380238   -0.496538   -0.834837
  H      1.112943    0.221857    2.613307
  H     -0.573517    0.631392    3.035534
  H      1.363719   -2.657588    2.872839
  H     -0.227539   -3.275855    3.386962
  H      0.119893   -2.862900    0.654397
  H     -1.978583   -1.528593    2.219011

 Total Charge           Charge          ....    0
 Multiplicity           Mult            ....    1
 Number of Electrons    NEL             ....   68
 Basis Dimension        Dim             ....  339

ORBITAL ENERGIES
----------------

  NO   OCC          E(Eh)            E(eV)
   0   2.0000     -20.559758      -559.4595
   1   2.0000     -15.564359      -423.5278
   2   2.0000     -15.558055      -423.3562
   3   2.0000     -11.281888      -306.9958
   4   2.0000     -11.277605      -306.8792
   5   2.0000     -11.269386      -306.6556
   6   2.0000     -11.267325      -306.5995
   7   2.0000     -11.261484      -306.4406
   8   2.0000     -11.260486      -306.4134
   9   2.0000      -1.389582       -37.8125
  10   2.0000      -1.275653       -34.7123
  11   2.0000      -1.251541       -34.0562
  12   2.0000      -1.005497       -27.3610
  13   2.0000      -0.961277       -26.1577
  14   2.0000      -0.906621       -24.6704
  15   2.0000      -0.870740       -23.6940
  16   2.0000      -0.817532       -22.2462
  17   2.0000      -0.760415       -20.6920
  18   2.0000      -0.709247       -19.2996
  19   2.0000      -0.702655       -19.1202
  20   2.0000      -0.666133       -18.1264
  21   2.0000      -0.639583       -17.4039
  22   2.0000      -0.619640       -16.8613
  23   2.0000      -0.584827       -15.9140
  24   2.0000      -0.556530       -15.1439
  25   2.0000      -0.534495       -14.5444
  26   2.0000      -0.509526       -13.8649
  27   2.0000      -0.505939       -13.7673
  28   2.0000      -0.497127       -13.5275
  29   2.0000      -0.456655       -12.4262
  30   2.0000      -0.442679       -12.0459
  31   2.0000      -0.430533       -11.7154
  32   2.0000      -0.414091       -11.2680
  33   2.0000      -0.373490       -10.1632
  34   0.0000       0.135577         3.6892
  35   0.0000       0.150324         4.0905
  36   0.0000       0.161928         4.4063
  37   0.0000       0.180727         4.9178
  38   0.0000       0.184474         5.0198

MULLIKEN ATOMIC CHARGES
-----------------------
   0 C :   -0.193297
   1 N :   -0.388865
   2 C :   -0.059705
   3 C :    0.133575
   4 C :   -0.032165
   5 O :   -0.334477
   6 C :   -0.020533
   7 C :   -0.153693
   8 N :   -0.384547
   9 H :    0.124408
  10 H :    0.130130
  11 H :    0.221419
  12 H :    0.139124
  13 H :    0.127006
  14 H :    0.116275
  15 H :    0.099571
  16 H :    0.121730
  17 H :    0.127615
  18 H :    0.226429
Sum of atomic charges:    0.0000000

LOEWDIN ATOMIC CHARGES
----------------------
   0 C :   -0.257034
   1 N :   -0.016787
   2 C :   -0.241705
   3 C :   -0.278940
   4 C :   -0.261412
   5 O :    0.145508
   6 C :   -0.293062
   7 C :   -0.238072
   8 N :    0.042697
   9 H :    0.125899
  10 H :    0.121412
  11 H :    0.165790
  12 H :    0.148640
  13 H :    0.136141
  14 H :    0.130476
  15 H :    0.127527
  16 H :    0.129152
  17 H :    0.141441
  18 H :    0.172327

  Mayer bond orders larger than 0.1
B(  0-C ,  1-N ) :   0.9336 B(  0-C ,  2-C ) :   0.9056 B(  0-C ,  9-H ) :   0.9185
B(  0-C , 10-H ) :   0.9248 B(  1-N ,  2-C ) :   0.9060 B(  1-N , 11-H ) :   0.8697
B(  2-C ,  3-C ) :   0.8763 B(  2-C , 12-H ) :   0.9364 B(  3-C ,  4-C ) :   0.9336
B(  3-C ,  7-C ) :   0.8890 B(  3-C ,  8-N ) :   0.8651 B(  4-C ,  5-O ) :   0.9108
B(  4-C , 13-H ) :   0.9280 B(  4-C , 14-H ) :   0.9155 B(  5-O ,  6-C ) :   0.9234
B(  6-C ,  7-C ) :   0.9688 B(  6-C , 15-H ) :   0.9232 B(  6-C , 16-H ) :   0.9158
B(  7-C ,  8-N ) :   0.9676 B(  7-C , 17-H ) :   0.9019 B(  8-N , 18-H ) :   0.8636

MP2 TOTAL ENERGY:     -418.451964991 Eh
FINAL SINGLE POINT ENERGY      -418.451964990549

DIPOLE MOMENT
-------------
                                X             Y             Z
Electronic contribution:     -0.78256      -1.38958       1.27400
Nuclear contribution   :      0.95823       1.45379      -1.89190
                        -----------------------------------------
Total Dipole Moment    :      0.17567       0.06421      -0.61790
                        -----------------------------------------
Magnitude (a.u.)       :      0.64559
Magnitude (Debye)      :      1.64096

                             ****ORCA TERMINATED NORMALLY****
TOTAL RUN TIME: 0 days 0 hours 16 minutes 46 seconds 738 msec
