                         Program Version 3.0.3 - RELEASE   -
|  1> ! RI-MP2 RIJK def2-TZVP def2-TZVP/C def2-TZVP/JK TIGHTSCF
|  2> % maxcore 2000
|  3> % mp2 density relaxed end
|  4> *xyz 0 1
|  5>  C       -0.1369780955     1.5453099930     0.1263293125
|  6>  C        0.4855902753     0.1780014900    -0.1779129190
|  7>  C        0.8885807802    -0.5551539304     1.0827037473
|  8>  N       -0.1711287439    -1.2177375031     1.8729906258
|  9>  C        0.8925132862    -2.0347565587     1.2600340640
| 10>  C        0.4012688835    -3.0252892007     0.2370644327
| 11>  O       -0.8419508156    -2.7000300880    -0.3149308800
| 12>  C        1.3635210289    -3.7052290395    -0.6856236914
| 13>  C        0.7113315305    -4.4925910084     0.4371983100
| 14>  H        0.5599566733     2.1911252667     0.6731663428
| 15>  H       -0.4185876024     2.0651040527    -0.7943307203
| 16>  H       -1.0368119076     1.4310455402     0.7391808757
| 17>  H       -0.2099386463    -0.4412148829    -0.7482817206
| 18>  H        1.3806022392     0.3050984887    -0.8006398885
| 19>  H        1.6447451220    -0.0312854663     1.6699179180
| 20>  H       -0.0326056876    -1.1014843192     2.8716169267
| 21>  H        1.6637026575    -2.4320764144     1.9178330942
| 22>  H       -1.3217487095    -2.2578227562     0.4031910893
| 23>  H        1.0128817897    -3.8898617187    -1.6947285648
| 24>  H        2.4186772968    -3.4643609152    -0.6081165277
| 25>  H        1.3234553532    -4.7958979208     1.2808823534
| 26>  H       -0.0727495478    -5.1890252487     0.1638596299
| 27> *
| 28>
| 29>                          ****END OF INPUT****

CARTESIAN COORDINATES (ANGSTROEM)
---------------------------------
  C     -0.136978    1.545310    0.126329
  C      0.485590    0.178001   -0.177913
  C      0.888581   -0.555154    1.082704
  N     -0.171129   -1.217738    1.872991
  C      0.892513   -2.034757    1.260034
  C      0.401269   -3.025289    0.237064
  O     -0.841951   -2.700030   -0.314931
  C      1.363521   -3.705229   -0.685624
  C      0.711332   -4.492591    0.437198
  H      0.559957    2.191125    0.673166
  H     -0.418588    2.065104   -0.794331
  H     -1.036812    1.431046    0.739181
  H     -0.209939   -0.441215   -0.748282
  H      1.380602    0.305098   -0.800640
  H      1.644745   -0.031285    1.669918
  H     -0.032606   -1.101484    2.871617
  H      1.663703   -2.432076    1.917833
  H     -1.321749   -2.257823    0.403191
  H      1.012882   -3.889862   -1.694729
  H      2.418677   -3.464361   -0.608117
  H      1.323455   -4.795898    1.280882
  H     -0.072750   -5.189025    0.163860

 Total Charge           Charge          ....    0
 Multiplicity           Mult            ....    1
 Number of Electrons    NEL             ....   70
 Basis Dimension        Dim             ....  357

ORBITAL ENERGIES
----------------

  NO   OCC          E(Eh)            E(eV)
   0   2.0000     -20.545985      -559.0847
   1   2.0000     -15.564511      -423.5319
   2   2.0000     -11.285591      -307.0965
   3   2.0000     -11.267570      -306.6062
   4   2.0000     -11.263376      -306.4920
   5   2.0000     -11.221170      -305.3436
   6   2.0000     -11.219400      -305.2954
   7   2.0000     -11.217459      -305.2426
   8   2.0000     -11.211153      -305.0710
   9   2.0000      -1.365536       -37.1581
  10   2.0000      -1.264114       -34.3983
  11   2.0000      -1.124107       -30.5885
  12   2.0000      -1.036526       -28.2053
  13   2.0000      -0.918934       -25.0055
  14   2.0000      -0.885075       -24.0841
  15   2.0000      -0.826255       -22.4835
  16   2.0000      -0.799950       -21.7677
  17   2.0000      -0.760305       -20.6890
  18   2.0000      -0.719379       -19.5753
  19   2.0000      -0.686252       -18.6739
  20   2.0000      -0.637559       -17.3489
  21   2.0000      -0.616820       -16.7845
  22   2.0000      -0.599526       -16.3139
  23   2.0000      -0.576177       -15.6786
  24   2.0000      -0.563633       -15.3372
  25   2.0000      -0.528701       -14.3867
  26   2.0000      -0.517995       -14.0954
  27   2.0000      -0.513560       -13.9747
  28   2.0000      -0.502095       -13.6627
  29   2.0000      -0.481199       -13.0941
  30   2.0000      -0.473383       -12.8814
  31   2.0000      -0.460440       -12.5292
  32   2.0000      -0.417337       -11.3563
  33   2.0000      -0.416372       -11.3301
  34   2.0000      -0.361393        -9.8340
  35   0.0000       0.127745         3.4761
  36   0.0000       0.153758         4.1840
  37   0.0000       0.156198         4.2504
  38   0.0000       0.174926         4.7600
  39   0.0000       0.186255         5.0682

MULLIKEN ATOMIC CHARGES
-----------------------
   0 C :   -0.401131
   1 C :   -0.232855
   2 C :    0.028070
   3 N :   -0.457704
   4 C :   -0.091506
   5 C :    0.279757
   6 O :   -0.483802
   7 C :   -0.295023
   8 C :   -0.305220
   9 H :    0.116139
  10 H :    0.134994
  11 H :    0.134044
  12 H :    0.146593
  13 H :    0.104458
  14 H :    0.121184
  15 H :    0.221010
  16 H :    0.126703
  17 H :    0.340284
  18 H :    0.135153
  19 H :    0.127452
  20 H :    0.118488
  21 H :    0.132914
Sum of atomic charges:   -0.0000000

LOEWDIN ATOMIC CHARGES
----------------------
   0 C :   -0.316839
   1 C :   -0.276593
   2 C :   -0.249127
   3 N :   -0.003350
   4 C :   -0.224288
   5 C :   -0.360914
   6 O :    0.026461
   7 C :   -0.205383
   8 C :   -0.212592
   9 H :    0.118231
  10 H :    0.121242
  11 H :    0.123369
  12 H :    0.147110
  13 H :    0.140529
  14 H :    0.139934
  15 H :    0.165196
  16 H :    0.146434
  17 H :    0.182726
  18 H :    0.140113
  19 H :    0.133009
  20 H :    0.128486
  21 H :    0.136245

  Mayer bond orders larger than 0.1
B(  0-C ,  1-C ) :   0.9137 B(  0-C ,  9-H ) :   0.9384 B(  0-C , 10-H ) :   0.9418
B(  0-C , 11-H ) :   0.9383 B(  1-C ,  2-C ) :   0.9060 B(  1-C , 12-H ) :   0.9318
B(  1-C , 13-H ) :   0.9316 B(  2-C ,  3-N ) :   0.8075 B(  2-C ,  4-C ) :   0.9199
B(  2-C , 14-H ) :   0.9213 B(  3-N ,  4-C ) :   0.9335 B(  3-N , 15-H ) :   0.8706
B(  4-C ,  5-C ) :   0.9207 B(  4-C , 16-H ) :   0.9096 B(  5-C ,  6-O ) :   0.9628
B(  5-C ,  7-C ) :   0.8748 B(  5-C ,  8-C ) :   0.8736 B(  6-O , 17-H ) :   0.8012
B(  7-C ,  8-C ) :   0.9210 B(  7-C , 18-H ) :   0.9212 B(  7-C , 19-H ) :   0.9240
B(  8-C , 20-H ) :   0.9181 B(  8-C , 21-H ) :   0.9214

MP2 TOTAL ENERGY:     -403.622239069 Eh
FINAL SINGLE POINT ENERGY      -403.622239069381

DIPOLE MOMENT
-------------
                                X             Y             Z
Electronic contribution:     -1.30749      -4.60000       1.13546
Nuclear contribution   :      2.01213       4.87181      -0.39180
                        -----------------------------------------
Total Dipole Moment    :      0.70464       0.27181       0.74365
                        -----------------------------------------
Magnitude (a.u.)       :      1.05992
Magnitude (Debye)      :      2.69409

                             ****ORCA TERMINATED NORMALLY****
TOTAL RUN TIME: 0 days 0 hours 28 minutes 39 seconds 249 msec
