                         Program Version 3.0.3 - RELEASE   -
|  1> ! RI-MP2 RIJK def2-TZVP def2-TZVP/C def2-TZVP/JK TIGHTSCF
|  2> % maxcore 2000
|  3> % mp2 density relaxed end
|  4> *xyz 0 1
|  5>  O       -0.0856418688     0.0358296568     0.1230570064
|  6>  C       -0.0417587008     1.2251536105     0.0299640091
|  7>  N       -1.0443857007     2.2124942481     0.0399034674
|  8>  C       -0.0790144096     3.3083772358    -0.0305065709
|  9>  C        0.9132246018     3.2415031016     1.0789008181
| 10>  C        1.0613939434     2.2882447241    -0.1294782233
| 11>  C        2.2073483943     2.2471952051    -0.9624293652
| 12>  C        3.1807480088     2.1869625842    -1.6665547712
| 13>  H       -1.8290994819     2.1936896074     0.6818869401
| 14>  H       -0.2494958948     4.1601349207    -0.6744909901
| 15>  H        1.6704740374     4.0187832188     1.1123481672
| 16>  H        0.6236866768     2.8347764984     2.0433645952
| 17>  H        4.0362046541     2.1299573085    -2.2929391529
| 18> *
| 19>
| 20>                          ****END OF INPUT****

CARTESIAN COORDINATES (ANGSTROEM)
---------------------------------
  O     -0.085642    0.035830    0.123057
  C     -0.041759    1.225154    0.029964
  N     -1.044386    2.212494    0.039903
  C     -0.079014    3.308377   -0.030507
  C      0.913225    3.241503    1.078901
  C      1.061394    2.288245   -0.129478
  C      2.207348    2.247195   -0.962429
  C      3.180748    2.186963   -1.666555
  H     -1.829099    2.193690    0.681887
  H     -0.249496    4.160135   -0.674491
  H      1.670474    4.018783    1.112348
  H      0.623687    2.834776    2.043365
  H      4.036205    2.129957   -2.292939

 Total Charge           Charge          ....    0
 Multiplicity           Mult            ....    1
 Number of Electrons    NEL             ....   56
 Basis Dimension        Dim             ....  278

ORBITAL ENERGIES
----------------

  NO   OCC          E(Eh)            E(eV)
   0   2.0000     -20.547893      -559.1366
   1   2.0000     -15.595460      -424.3741
   2   2.0000     -11.371361      -309.4305
   3   2.0000     -11.306855      -307.6752
   4   2.0000     -11.290480      -307.2296
   5   2.0000     -11.276037      -306.8366
   6   2.0000     -11.249340      -306.1101
   7   2.0000     -11.237832      -305.7969
   8   2.0000      -1.410006       -38.3682
   9   2.0000      -1.304761       -35.5044
  10   2.0000      -1.124357       -30.5953
  11   2.0000      -1.038091       -28.2479
  12   2.0000      -0.926426       -25.2093
  13   2.0000      -0.856034       -23.2939
  14   2.0000      -0.827188       -22.5089
  15   2.0000      -0.719102       -19.5678
  16   2.0000      -0.707610       -19.2551
  17   2.0000      -0.690450       -18.7881
  18   2.0000      -0.676610       -18.4115
  19   2.0000      -0.606015       -16.4905
  20   2.0000      -0.587144       -15.9770
  21   2.0000      -0.562785       -15.3142
  22   2.0000      -0.524431       -14.2705
  23   2.0000      -0.487117       -13.2551
  24   2.0000      -0.454335       -12.3631
  25   2.0000      -0.426248       -11.5988
  26   2.0000      -0.382210       -10.4005
  27   2.0000      -0.370426       -10.0798
  28   0.0000       0.132643         3.6094
  29   0.0000       0.140091         3.8121
  30   0.0000       0.148869         4.0509
  31   0.0000       0.158709         4.3187
  32   0.0000       0.166434         4.5289

MULLIKEN ATOMIC CHARGES
-----------------------
   0 O :   -0.267985
   1 C :    0.239798
   2 N :   -0.317436
   3 C :    0.005309
   4 C :   -0.220928
   5 C :   -0.189074
   6 C :   -0.041038
   7 C :   -0.100054
   8 H :    0.237738
   9 H :    0.157088
  10 H :    0.145419
  11 H :    0.153646
  12 H :    0.197517
Sum of atomic charges:    0.0000000

LOEWDIN ATOMIC CHARGES
----------------------
   0 O :    0.148866
   1 C :   -0.370782
   2 N :    0.114671
   3 C :   -0.183435
   4 C :   -0.146144
   5 C :   -0.153528
   6 C :   -0.075019
   7 C :   -0.070618
   8 H :    0.174506
   9 H :    0.143081
  10 H :    0.149063
  11 H :    0.140087
  12 H :    0.129250

  Mayer bond orders larger than 0.1
B(  0-O ,  1-C ) :   2.0555 B(  1-C ,  2-N ) :   1.1111 B(  1-C ,  5-C ) :   0.8220
B(  2-N ,  3-C ) :   0.9624 B(  2-N ,  8-H ) :   0.8518 B(  3-C ,  4-C ) :   0.9167
B(  3-C ,  5-C ) :   0.7991 B(  3-C ,  9-H ) :   0.9094 B(  4-C ,  5-C ) :   0.7826
B(  4-C , 10-H ) :   0.9166 B(  4-C , 11-H ) :   0.9143 B(  5-C ,  6-C ) :   1.2804
B(  5-C ,  7-C ) :  -0.1855 B(  6-C ,  7-C ) :   2.5956 B(  7-C , 12-H ) :   0.8733

MP2 TOTAL ENERGY:     -360.785561695 Eh
FINAL SINGLE POINT ENERGY      -360.785561694522

DIPOLE MOMENT
-------------
                                X             Y             Z
Electronic contribution:     -0.71661      -3.21055      -1.15650
Nuclear contribution   :      0.67125       4.67475       1.55623
                        -----------------------------------------
Total Dipole Moment    :     -0.04536       1.46420       0.39973
                        -----------------------------------------
Magnitude (a.u.)       :      1.51846
Magnitude (Debye)      :      3.85963

                             ****ORCA TERMINATED NORMALLY****
TOTAL RUN TIME: 0 days 0 hours 11 minutes 11 seconds 253 msec
