                         Program Version 3.0.3 - RELEASE   -
|  1> ! RI-MP2 RIJK def2-TZVP def2-TZVP/C def2-TZVP/JK TIGHTSCF
|  2> % maxcore 2000
|  3> % mp2 density relaxed end
|  4> *xyz 0 1
|  5>  C       -0.3874465342     1.3925619011    -0.0391923762
|  6>  N        0.0326674366    -0.0076317354     0.0214797971
|  7>  C        1.4238652744    -0.3328231110    -0.0604516694
|  8>  C        0.6847580379    -0.5350392702     1.2494493279
|  9>  C        1.0582970117     0.3685783882     2.3950552498
| 10>  O        1.5526805367     1.4591040320     2.2552299368
| 11>  C        0.2499970705    -1.8570174515     1.6428514731
| 12>  N       -0.0738251424    -2.9084122993     1.9973507085
| 13>  H        0.3200986951     2.0956870486     0.4118075681
| 14>  H       -0.5166322741     1.6373465384    -1.0971922765
| 15>  H       -1.3578598534     1.4889739351     0.4546642888
| 16>  H        1.6819828117    -1.2170616284    -0.6363478711
| 17>  H        2.1553566950     0.4738242461    -0.0471045704
| 18>  H        0.8307646045    -0.0488734836     3.3964572936
| 19> *
| 20>
| 21>                          ****END OF INPUT****

CARTESIAN COORDINATES (ANGSTROEM)
---------------------------------
  C     -0.387447    1.392562   -0.039192
  N      0.032667   -0.007632    0.021480
  C      1.423865   -0.332823   -0.060452
  C      0.684758   -0.535039    1.249449
  C      1.058297    0.368578    2.395055
  O      1.552681    1.459104    2.255230
  C      0.249997   -1.857017    1.642851
  N     -0.073825   -2.908412    1.997351
  H      0.320099    2.095687    0.411808
  H     -0.516632    1.637347   -1.097192
  H     -1.357860    1.488974    0.454664
  H      1.681983   -1.217062   -0.636348
  H      2.155357    0.473824   -0.047105
  H      0.830765   -0.048873    3.396457

 Total Charge           Charge          ....    0
 Multiplicity           Mult            ....    1
 Number of Electrons    NEL             ....   58
 Basis Dimension        Dim             ....  284

ORBITAL ENERGIES
----------------

  NO   OCC          E(Eh)            E(eV)
   0   2.0000     -20.589716      -560.2747
   1   2.0000     -15.615994      -424.9328
   2   2.0000     -15.587306      -424.1522
   3   2.0000     -11.370818      -309.4157
   4   2.0000     -11.335753      -308.4615
   5   2.0000     -11.307868      -307.7027
   6   2.0000     -11.288360      -307.1719
   7   2.0000     -11.270149      -306.6763
   8   2.0000      -1.432008       -38.9669
   9   2.0000      -1.325897       -36.0795
  10   2.0000      -1.230517       -33.4841
  11   2.0000      -1.055745       -28.7283
  12   2.0000      -0.979424       -26.6515
  13   2.0000      -0.868879       -23.6434
  14   2.0000      -0.838947       -22.8289
  15   2.0000      -0.770191       -20.9580
  16   2.0000      -0.697098       -18.9690
  17   2.0000      -0.674876       -18.3643
  18   2.0000      -0.638799       -17.3826
  19   2.0000      -0.627573       -17.0771
  20   2.0000      -0.608108       -16.5475
  21   2.0000      -0.572986       -15.5917
  22   2.0000      -0.562353       -15.3024
  23   2.0000      -0.537674       -14.6309
  24   2.0000      -0.520617       -14.1667
  25   2.0000      -0.497312       -13.5325
  26   2.0000      -0.463481       -12.6120
  27   2.0000      -0.445963       -12.1353
  28   2.0000      -0.411648       -11.2015
  29   0.0000       0.077937         2.1208
  30   0.0000       0.139269         3.7897
  31   0.0000       0.149254         4.0614
  32   0.0000       0.161006         4.3812
  33   0.0000       0.173958         4.7336

MULLIKEN ATOMIC CHARGES
-----------------------
   0 C :   -0.328177
   1 N :   -0.211996
   2 C :   -0.161395
   3 C :    0.226662
   4 C :    0.105106
   5 O :   -0.270859
   6 C :   -0.213189
   7 N :   -0.044506
   8 H :    0.157391
   9 H :    0.152023
  10 H :    0.148683
  11 H :    0.158624
  12 H :    0.155916
  13 H :    0.125716
Sum of atomic charges:    0.0000000

LOEWDIN ATOMIC CHARGES
----------------------
   0 C :   -0.310363
   1 N :    0.145198
   2 C :   -0.180088
   3 C :   -0.267569
   4 C :   -0.246727
   5 O :    0.149665
   6 C :   -0.149625
   7 N :    0.082144
   8 H :    0.117227
   9 H :    0.126354
  10 H :    0.124394
  11 H :    0.138954
  12 H :    0.139796
  13 H :    0.130639

  Mayer bond orders larger than 0.1
B(  0-C ,  1-N ) :   0.8577 B(  0-C ,  8-H ) :   0.9191 B(  0-C ,  9-H ) :   0.9279
B(  0-C , 10-H ) :   0.9367 B(  1-N ,  2-C ) :   0.9429 B(  1-N ,  3-C ) :   0.7838
B(  2-C ,  3-C ) :   0.8493 B(  2-C , 11-H ) :   0.9081 B(  2-C , 12-H ) :   0.9111
B(  3-C ,  4-C ) :   0.8949 B(  3-C ,  6-C ) :   0.8913 B(  4-C ,  5-O ) :   1.9157
B(  4-C , 13-H ) :   0.9435 B(  6-C ,  7-N ) :   2.8558

MP2 TOTAL ENERGY:     -378.062456360 Eh
FINAL SINGLE POINT ENERGY      -378.062456359770

DIPOLE MOMENT
-------------
                                X             Y             Z
Electronic contribution:      0.67709      -4.46896       3.71484
Nuclear contribution   :     -0.33193       5.42541      -4.26011
                        -----------------------------------------
Total Dipole Moment    :      0.34517       0.95645      -0.54527
                        -----------------------------------------
Magnitude (a.u.)       :      1.15380
Magnitude (Debye)      :      2.93273

                             ****ORCA TERMINATED NORMALLY****
TOTAL RUN TIME: 0 days 0 hours 12 minutes 59 seconds 184 msec
