                         Program Version 3.0.3 - RELEASE   -
|  1> ! RI-MP2 RIJK def2-TZVP def2-TZVP/C def2-TZVP/JK TIGHTSCF
|  2> % maxcore 2000
|  3> % mp2 density relaxed end
|  4> *xyz 0 1
|  5>  C        0.0458615550     1.5038715286     0.0527947160
|  6>  C        0.0402333297     0.0153153331    -0.0385942707
|  7>  C        0.0330610977    -0.8324226805    -1.1268749027
|  8>  O        0.0229731719    -0.5228834058    -2.4621923338
|  9>  C        0.0329783838    -2.1795756350    -0.6670277888
| 10>  C        0.0232830308    -3.4056485423    -1.5206609889
| 11>  O        0.1255330839    -4.5457608208    -0.6766586840
| 12>  C        0.0414545792    -2.1206258188     0.7066842048
| 13>  N        0.0464585370    -0.8023129949     1.0785529725
| 14>  H        0.9601118379     1.8986976991     0.5157877411
| 15>  H       -0.0209218116     1.9519190941    -0.9444058526
| 16>  H       -0.8057235553     1.8918042145     0.6268953750
| 17>  H        0.0679911095     0.4325628586    -2.5629995906
| 18>  H       -0.9011624340    -3.4424902564    -2.1216693289
| 19>  H        0.8574845070    -3.3677616475    -2.2411675021
| 20>  H        0.0753864007    -5.3280240023    -1.2324740981
| 21>  H        0.0482129993    -2.9176690249     1.4300064467
| 22>  H        0.0606125175    -0.4708255790     2.0261540653
| 23> *
| 24>
| 25>                          ****END OF INPUT****

CARTESIAN COORDINATES (ANGSTROEM)
---------------------------------
  C      0.045862    1.503872    0.052795
  C      0.040233    0.015315   -0.038594
  C      0.033061   -0.832423   -1.126875
  O      0.022973   -0.522883   -2.462192
  C      0.032978   -2.179576   -0.667028
  C      0.023283   -3.405649   -1.520661
  O      0.125533   -4.545761   -0.676659
  C      0.041455   -2.120626    0.706684
  N      0.046459   -0.802313    1.078553
  H      0.960112    1.898698    0.515788
  H     -0.020922    1.951919   -0.944406
  H     -0.805724    1.891804    0.626895
  H      0.067991    0.432563   -2.563000
  H     -0.901162   -3.442490   -2.121669
  H      0.857485   -3.367762   -2.241168
  H      0.075386   -5.328024   -1.232474
  H      0.048213   -2.917669    1.430006
  H      0.060613   -0.470826    2.026154

 Total Charge           Charge          ....    0
 Multiplicity           Mult            ....    1
 Number of Electrons    NEL             ....   68
 Basis Dimension        Dim             ....  333

ORBITAL ENERGIES
----------------

  NO   OCC          E(Eh)            E(eV)
   0   2.0000     -20.572957      -559.8186
   1   2.0000     -20.548748      -559.1599
   2   2.0000     -15.589508      -424.2121
   3   2.0000     -11.271218      -306.7054
   4   2.0000     -11.263960      -306.5079
   5   2.0000     -11.243686      -305.9562
   6   2.0000     -11.241716      -305.9026
   7   2.0000     -11.237224      -305.7804
   8   2.0000     -11.202175      -304.8267
   9   2.0000      -1.385026       -37.6885
  10   2.0000      -1.352549       -36.8047
  11   2.0000      -1.278113       -34.7792
  12   2.0000      -1.048564       -28.5329
  13   2.0000      -1.026850       -27.9420
  14   2.0000      -0.932361       -25.3708
  15   2.0000      -0.896769       -24.4023
  16   2.0000      -0.795708       -21.6523
  17   2.0000      -0.742083       -20.1931
  18   2.0000      -0.713126       -19.4051
  19   2.0000      -0.678401       -18.4602
  20   2.0000      -0.663340       -18.0504
  21   2.0000      -0.627369       -17.0716
  22   2.0000      -0.600546       -16.3417
  23   2.0000      -0.579780       -15.7766
  24   2.0000      -0.574633       -15.6366
  25   2.0000      -0.569159       -15.4876
  26   2.0000      -0.558879       -15.2079
  27   2.0000      -0.544828       -14.8255
  28   2.0000      -0.521713       -14.1965
  29   2.0000      -0.505631       -13.7589
  30   2.0000      -0.489554       -13.3214
  31   2.0000      -0.446566       -12.1517
  32   2.0000      -0.315412        -8.5828
  33   2.0000      -0.277052        -7.5390
  34   0.0000       0.123919         3.3720
  35   0.0000       0.143046         3.8925
  36   0.0000       0.147592         4.0162
  37   0.0000       0.173312         4.7160
  38   0.0000       0.183290         4.9876

MULLIKEN ATOMIC CHARGES
-----------------------
   0 C :   -0.434402
   1 C :    0.106245
   2 C :    0.031590
   3 O :   -0.445390
   4 C :    0.027333
   5 C :   -0.078913
   6 O :   -0.473162
   7 C :   -0.107461
   8 N :   -0.272012
   9 H :    0.149246
  10 H :    0.109768
  11 H :    0.147346
  12 H :    0.319660
  13 H :    0.106961
  14 H :    0.108880
  15 H :    0.313445
  16 H :    0.152434
  17 H :    0.238433
Sum of atomic charges:    0.0000000

LOEWDIN ATOMIC CHARGES
----------------------
   0 C :   -0.289454
   1 C :   -0.261174
   2 C :   -0.269917
   3 O :    0.049563
   4 C :   -0.180138
   5 C :   -0.301716
   6 O :   -0.045660
   7 C :   -0.208082
   8 N :    0.187418
   9 H :    0.129391
  10 H :    0.127749
  11 H :    0.130131
  12 H :    0.184867
  13 H :    0.123891
  14 H :    0.124568
  15 H :    0.171345
  16 H :    0.138105
  17 H :    0.189114

  Mayer bond orders larger than 0.1
B(  0-C ,  1-C ) :   0.8451 B(  0-C ,  9-H ) :   0.9382 B(  0-C , 10-H ) :   0.9527
B(  0-C , 11-H ) :   0.9391 B(  1-C ,  2-C ) :   1.4339 B(  1-C ,  8-N ) :   1.0743
B(  2-C ,  3-O ) :   1.1187 B(  2-C ,  4-C ) :   1.2427 B(  3-O , 12-H ) :   0.8368
B(  4-C ,  5-C ) :   0.9049 B(  4-C ,  6-O ) :  -0.1254 B(  4-C ,  7-C ) :   1.4864
B(  5-C ,  6-O ) :   1.0411 B(  5-C , 13-H ) :   0.9328 B(  5-C , 14-H ) :   0.9346
B(  6-O , 15-H ) :   0.8505 B(  7-C ,  8-N ) :   1.1538 B(  7-C , 16-H ) :   0.9044
B(  8-N , 17-H ) :   0.8781

MP2 TOTAL ENERGY:     -438.392034327 Eh
FINAL SINGLE POINT ENERGY      -438.392034326946

DIPOLE MOMENT
-------------
                                X             Y             Z
Electronic contribution:      0.04602      -2.83097      -0.18776
Nuclear contribution   :     -0.07523       3.55489       0.45572
                        -----------------------------------------
Total Dipole Moment    :     -0.02921       0.72392       0.26796
                        -----------------------------------------
Magnitude (a.u.)       :      0.77247
Magnitude (Debye)      :      1.96346

                             ****ORCA TERMINATED NORMALLY****
TOTAL RUN TIME: 0 days 0 hours 15 minutes 26 seconds 37 msec
