                         Program Version 3.0.3 - RELEASE   -
|  1> ! RI-MP2 RIJK def2-TZVP def2-TZVP/C def2-TZVP/JK TIGHTSCF
|  2> % maxcore 2000
|  3> % mp2 density relaxed end
|  4> *xyz 0 1
|  5>  O        0.0151169480     0.0276600565     0.0468637421
|  6>  C       -0.0020454933     1.2283752669     0.0256708128
|  7>  C       -1.2564097527     2.1362283756     0.0211789525
|  8>  C       -0.6320395018     3.5525398414     0.0367464328
|  9>  C        0.6200896218     3.3382017213    -0.8496170427
| 10>  C        1.2066280291     2.1855935743    -0.0019875688
| 11>  C        1.1734812481     2.7979058398     1.4092934357
| 12>  O        1.3186459805     4.2218036532     1.4680793236
| 13>  C       -0.0043785921     3.6772013319     1.4302139982
| 14>  H       -1.8374043129     1.9462749622    -0.8874971940
| 15>  H       -1.9009835404     1.9094535449     0.8760504915
| 16>  H       -1.3015442646     4.3598400677    -0.2610186948
| 17>  H        0.3643427274     3.0244064349    -1.8649159821
| 18>  H        1.2739004627     4.2075067618    -0.8847367075
| 19>  H        2.1382899390     1.7199064065    -0.3171032545
| 20>  H        1.5344568475     2.2421619955     2.2682204119
| 21>  H       -0.6155350961     3.8406104056     2.3130939833
| 22> *
| 23>
| 24>                          ****END OF INPUT****

CARTESIAN COORDINATES (ANGSTROEM)
---------------------------------
  O      0.015117    0.027660    0.046864
  C     -0.002045    1.228375    0.025671
  C     -1.256410    2.136228    0.021179
  C     -0.632040    3.552540    0.036746
  C      0.620090    3.338202   -0.849617
  C      1.206628    2.185594   -0.001988
  C      1.173481    2.797906    1.409293
  O      1.318646    4.221804    1.468079
  C     -0.004379    3.677201    1.430214
  H     -1.837404    1.946275   -0.887497
  H     -1.900984    1.909454    0.876050
  H     -1.301544    4.359840   -0.261019
  H      0.364343    3.024406   -1.864916
  H      1.273900    4.207507   -0.884737
  H      2.138290    1.719906   -0.317103
  H      1.534457    2.242162    2.268220
  H     -0.615535    3.840610    2.313094

 Total Charge           Charge          ....    0
 Multiplicity           Mult            ....    1
 Number of Electrons    NEL             ....   66
 Basis Dimension        Dim             ....  327

ORBITAL ENERGIES
----------------

  NO   OCC          E(Eh)            E(eV)
   0   2.0000     -20.581604      -560.0539
   1   2.0000     -20.554236      -559.3092
   2   2.0000     -11.338098      -308.5253
   3   2.0000     -11.301244      -307.5225
   4   2.0000     -11.298357      -307.4439
   5   2.0000     -11.256852      -306.3145
   6   2.0000     -11.254526      -306.2512
   7   2.0000     -11.248987      -306.1005
   8   2.0000     -11.242307      -305.9187
   9   2.0000      -1.429827       -38.9076
  10   2.0000      -1.398223       -38.0476
  11   2.0000      -1.168566       -31.7983
  12   2.0000      -1.015077       -27.6217
  13   2.0000      -0.957469       -26.0541
  14   2.0000      -0.943882       -25.6843
  15   2.0000      -0.823524       -22.4092
  16   2.0000      -0.790443       -21.5090
  17   2.0000      -0.741229       -20.1699
  18   2.0000      -0.732592       -19.9348
  19   2.0000      -0.681161       -18.5353
  20   2.0000      -0.659422       -17.9438
  21   2.0000      -0.614137       -16.7115
  22   2.0000      -0.598144       -16.2763
  23   2.0000      -0.582881       -15.8610
  24   2.0000      -0.553724       -15.0676
  25   2.0000      -0.548716       -14.9313
  26   2.0000      -0.541746       -14.7417
  27   2.0000      -0.521780       -14.1984
  28   2.0000      -0.492301       -13.3962
  29   2.0000      -0.475363       -12.9353
  30   2.0000      -0.468233       -12.7413
  31   2.0000      -0.429233       -11.6800
  32   2.0000      -0.394717       -10.7408
  33   0.0000       0.131447         3.5769
  34   0.0000       0.136572         3.7163
  35   0.0000       0.156548         4.2599
  36   0.0000       0.163450         4.4477
  37   0.0000       0.170150         4.6300

MULLIKEN ATOMIC CHARGES
-----------------------
   0 O :   -0.252254
   1 C :    0.069864
   2 C :   -0.292034
   3 C :    0.039679
   4 C :   -0.334052
   5 C :    0.059988
   6 C :   -0.037385
   7 O :   -0.321018
   8 C :   -0.056471
   9 H :    0.147393
  10 H :    0.140352
  11 H :    0.138615
  12 H :    0.139042
  13 H :    0.147522
  14 H :    0.141697
  15 H :    0.138035
  16 H :    0.131026
Sum of atomic charges:   -0.0000000

LOEWDIN ATOMIC CHARGES
----------------------
   0 O :    0.160729
   1 C :   -0.283236
   2 C :   -0.193315
   3 C :   -0.206240
   4 C :   -0.189863
   5 C :   -0.178102
   6 C :   -0.224796
   7 O :    0.181095
   8 C :   -0.233146
   9 H :    0.152399
  10 H :    0.149346
  11 H :    0.144952
  12 H :    0.142877
  13 H :    0.146374
  14 H :    0.150859
  15 H :    0.141086
  16 H :    0.138981

  Mayer bond orders larger than 0.1
B(  0-O ,  1-C ) :   2.0543 B(  1-C ,  2-C ) :   0.9246 B(  1-C ,  5-C ) :   0.8243
B(  2-C ,  3-C ) :   0.8631 B(  2-C ,  5-C ) :  -0.1229 B(  2-C ,  9-H ) :   0.8991
B(  2-C , 10-H ) :   0.9118 B(  3-C ,  4-C ) :   0.9083 B(  3-C ,  8-C ) :   0.8292
B(  3-C , 11-H ) :   0.9089 B(  4-C ,  5-C ) :   0.9191 B(  4-C , 12-H ) :   0.9320
B(  4-C , 13-H ) :   0.8992 B(  5-C ,  6-C ) :   0.8175 B(  5-C , 14-H ) :   0.9060
B(  6-C ,  7-O ) :   0.9292 B(  6-C ,  8-C ) :   0.9695 B(  6-C , 15-H ) :   0.9298
B(  7-O ,  8-C ) :   0.9442 B(  8-C , 16-H ) :   0.9365

MP2 TOTAL ENERGY:     -421.135900874 Eh
FINAL SINGLE POINT ENERGY      -421.135900873945

DIPOLE MOMENT
-------------
                                X             Y             Z
Electronic contribution:      1.91001      -1.96558       1.74918
Nuclear contribution   :     -2.38344       2.53576      -1.86967
                        -----------------------------------------
Total Dipole Moment    :     -0.47342       0.57018      -0.12050
                        -----------------------------------------
Magnitude (a.u.)       :      0.75083
Magnitude (Debye)      :      1.90847

                             ****ORCA TERMINATED NORMALLY****
TOTAL RUN TIME: 0 days 0 hours 17 minutes 43 seconds 10 msec
