                         Program Version 3.0.3 - RELEASE   -
|  1> ! RI-MP2 RIJK def2-TZVP def2-TZVP/C def2-TZVP/JK TIGHTSCF
|  2> % maxcore 2000
|  3> % mp2 density relaxed end
|  4> *xyz 0 1
|  5>  C        0.2808155463     1.3885979940    -0.7254353330
|  6>  C       -0.0103983388     0.3279756894     0.3216098809
|  7>  O        0.7510127111     0.0909511836     1.2320589128
|  8>  C       -1.3248970734    -0.3825411897     0.1802277423
|  9>  N       -1.3894476637    -1.7742591703     0.6960789788
| 10>  C       -2.1287377243    -0.7533141879     1.3935844538
| 11>  C       -1.8985566402    -0.3144498222     2.8421525922
| 12>  C       -3.3745562875     0.1863138036     2.8668989952
| 13>  C       -3.6472589653    -0.5822986263     1.5385567586
| 14>  H        1.2218991450     1.8889860498    -0.4954094315
| 15>  H        0.3406411232     0.9305568310    -1.7199820979
| 16>  H       -0.5311654071     2.1242930326    -0.7644208143
| 17>  H       -1.8932658062    -0.1515370104    -0.7187885835
| 18>  H       -2.0085707987    -2.3200268232     0.0992248295
| 19>  H       -1.7294438398    -1.1771931165     3.4924004052
| 20>  H       -1.1075651068     0.4139831944     3.0209981463
| 21>  H       -3.9777768057    -0.1063951549     3.7278239815
| 22>  H       -3.4501351359     1.2688694198     2.7406746182
| 23>  H       -4.1743808216    -0.0501687105     0.7420751732
| 24>  H       -4.1477551107    -1.5417202466     1.7084507719
| 25> *
| 26>
| 27>                          ****END OF INPUT****

CARTESIAN COORDINATES (ANGSTROEM)
---------------------------------
  C      0.280816    1.388598   -0.725435
  C     -0.010398    0.327976    0.321610
  O      0.751013    0.090951    1.232059
  C     -1.324897   -0.382541    0.180228
  N     -1.389448   -1.774259    0.696079
  C     -2.128738   -0.753314    1.393584
  C     -1.898557   -0.314450    2.842153
  C     -3.374556    0.186314    2.866899
  C     -3.647259   -0.582299    1.538557
  H      1.221899    1.888986   -0.495409
  H      0.340641    0.930557   -1.719982
  H     -0.531165    2.124293   -0.764421
  H     -1.893266   -0.151537   -0.718789
  H     -2.008571   -2.320027    0.099225
  H     -1.729444   -1.177193    3.492400
  H     -1.107565    0.413983    3.020998
  H     -3.977777   -0.106395    3.727824
  H     -3.450135    1.268869    2.740675
  H     -4.174381   -0.050169    0.742075
  H     -4.147755   -1.541720    1.708451

 Total Charge           Charge          ....    0
 Multiplicity           Mult            ....    1
 Number of Electrons    NEL             ....   68
 Basis Dimension        Dim             ....  345

ORBITAL ENERGIES
----------------

  NO   OCC          E(Eh)            E(eV)
   0   2.0000     -20.536870      -558.8367
   1   2.0000     -15.568139      -423.6306
   2   2.0000     -11.327185      -308.2284
   3   2.0000     -11.276313      -306.8441
   4   2.0000     -11.267423      -306.6022
   5   2.0000     -11.235293      -305.7279
   6   2.0000     -11.234203      -305.6982
   7   2.0000     -11.227750      -305.5226
   8   2.0000     -11.219610      -305.3011
   9   2.0000      -1.382546       -37.6210
  10   2.0000      -1.274946       -34.6930
  11   2.0000      -1.110535       -30.2192
  12   2.0000      -1.022158       -27.8143
  13   2.0000      -0.919095       -25.0098
  14   2.0000      -0.909699       -24.7542
  15   2.0000      -0.861783       -23.4503
  16   2.0000      -0.765615       -20.8334
  17   2.0000      -0.724550       -19.7160
  18   2.0000      -0.690788       -18.7973
  19   2.0000      -0.660257       -17.9665
  20   2.0000      -0.644937       -17.5496
  21   2.0000      -0.612143       -16.6573
  22   2.0000      -0.603303       -16.4167
  23   2.0000      -0.580237       -15.7891
  24   2.0000      -0.552441       -15.0327
  25   2.0000      -0.543508       -14.7896
  26   2.0000      -0.521409       -14.1883
  27   2.0000      -0.511519       -13.9191
  28   2.0000      -0.487765       -13.2728
  29   2.0000      -0.463417       -12.6102
  30   2.0000      -0.450850       -12.2683
  31   2.0000      -0.436492       -11.8775
  32   2.0000      -0.413071       -11.2402
  33   2.0000      -0.383585       -10.4379
  34   0.0000       0.123071         3.3489
  35   0.0000       0.131561         3.5800
  36   0.0000       0.145462         3.9582
  37   0.0000       0.153307         4.1717
  38   0.0000       0.174630         4.7519

MULLIKEN ATOMIC CHARGES
-----------------------
   0 C :   -0.420799
   1 C :    0.178151
   2 O :   -0.285819
   3 C :   -0.129151
   4 N :   -0.371267
   5 C :    0.121520
   6 C :   -0.191982
   7 C :   -0.238764
   8 C :   -0.202695
   9 H :    0.154408
  10 H :    0.145874
  11 H :    0.142696
  12 H :    0.139158
  13 H :    0.223109
  14 H :    0.118316
  15 H :    0.143267
  16 H :    0.121965
  17 H :    0.115228
  18 H :    0.119516
  19 H :    0.117266
Sum of atomic charges:    0.0000000

LOEWDIN ATOMIC CHARGES
----------------------
   0 C :   -0.280259
   1 C :   -0.345819
   2 O :    0.161207
   3 C :   -0.210847
   4 N :    0.051454
   5 C :   -0.269159
   6 C :   -0.190757
   7 C :   -0.230928
   8 C :   -0.206039
   9 H :    0.133160
  10 H :    0.137134
  11 H :    0.135237
  12 H :    0.143862
  13 H :    0.172514
  14 H :    0.141995
  15 H :    0.134593
  16 H :    0.125066
  17 H :    0.131970
  18 H :    0.127910
  19 H :    0.137706

  Mayer bond orders larger than 0.1
B(  0-C ,  1-C ) :   0.9232 B(  0-C ,  9-H ) :   0.9402 B(  0-C , 10-H ) :   0.9151
B(  0-C , 11-H ) :   0.9151 B(  1-C ,  2-O ) :   2.0189 B(  1-C ,  3-C ) :   0.8672
B(  3-C ,  4-N ) :   0.9558 B(  3-C ,  5-C ) :   0.8622 B(  3-C , 12-H ) :   0.9159
B(  4-N ,  5-C ) :   0.9106 B(  4-N , 13-H ) :   0.8612 B(  5-C ,  6-C ) :   0.8969
B(  5-C ,  8-C ) :   0.8918 B(  6-C ,  7-C ) :   0.9420 B(  6-C , 14-H ) :   0.9180
B(  6-C , 15-H ) :   0.9252 B(  7-C ,  8-C ) :   0.9529 B(  7-C , 16-H ) :   0.9334
B(  7-C , 17-H ) :   0.9252 B(  8-C , 18-H ) :   0.9205 B(  8-C , 19-H ) :   0.9111

MP2 TOTAL ENERGY:     -402.432075400 Eh
FINAL SINGLE POINT ENERGY      -402.432075399715

DIPOLE MOMENT
-------------
                                X             Y             Z
Electronic contribution:      4.45600      -2.72764      -0.16314
Nuclear contribution   :     -5.71620       3.14705      -0.64766
                        -----------------------------------------
Total Dipole Moment    :     -1.26020       0.41941      -0.81080
                        -----------------------------------------
Magnitude (a.u.)       :      1.55609
Magnitude (Debye)      :      3.95526

                             ****ORCA TERMINATED NORMALLY****
TOTAL RUN TIME: 0 days 0 hours 19 minutes 24 seconds 104 msec
