                         Program Version 3.0.3 - RELEASE   -
|  1> ! RI-MP2 RIJK def2-TZVP def2-TZVP/C def2-TZVP/JK TIGHTSCF
|  2> % maxcore 2000
|  3> % mp2 density relaxed end
|  4> *xyz 0 1
|  5>  O       -0.6974882728     1.3507998760    -0.5673837254
|  6>  C       -0.3739948962     0.0076221051    -0.3600368005
|  7>  C       -0.1383624295    -0.4892121430     1.0458204410
|  8>  C       -1.4052149330    -0.8593926809     0.3043268029
|  9>  C       -2.7648689421    -0.2648281561     0.6867947460
| 10>  C       -3.7535772267    -1.0686061997    -0.1399604052
| 11>  N       -3.3849463616    -1.1523896505    -1.5709882753
| 12>  C       -3.0818477622    -2.2828800829    -0.6663977971
| 13>  C       -1.6376736104    -2.2900332926    -0.1974969311
| 14>  H        0.0793901147     1.8782570182    -0.3561822895
| 15>  H        0.2051451054    -0.4483203211    -1.1638403691
| 16>  H        0.6114375216    -1.2562251514     1.2152241866
| 17>  H       -0.2290169670     0.2430877480     1.8426274754
| 18>  H       -2.9785551096    -0.4177376564     1.7525040537
| 19>  H       -2.8025785859     0.8072335060     0.4799395525
| 20>  H       -4.8050973538    -1.0685465733     0.1294191661
| 21>  H       -4.2162954537    -1.3768077353    -2.1124231889
| 22>  H       -3.6107727415    -3.2212496140    -0.8005911697
| 23>  H       -0.9337503979    -2.5726582657    -0.9879361391
| 24>  H       -1.5256657279    -3.0136407804     0.6207084965
| 25> *
| 26>
| 27>                          ****END OF INPUT****

CARTESIAN COORDINATES (ANGSTROEM)
---------------------------------
  O     -0.697488    1.350800   -0.567384
  C     -0.373995    0.007622   -0.360037
  C     -0.138362   -0.489212    1.045820
  C     -1.405215   -0.859393    0.304327
  C     -2.764869   -0.264828    0.686795
  C     -3.753577   -1.068606   -0.139960
  N     -3.384946   -1.152390   -1.570988
  C     -3.081848   -2.282880   -0.666398
  C     -1.637674   -2.290033   -0.197497
  H      0.079390    1.878257   -0.356182
  H      0.205145   -0.448320   -1.163840
  H      0.611438   -1.256225    1.215224
  H     -0.229017    0.243088    1.842627
  H     -2.978555   -0.417738    1.752504
  H     -2.802579    0.807234    0.479940
  H     -4.805097   -1.068547    0.129419
  H     -4.216295   -1.376808   -2.112423
  H     -3.610773   -3.221250   -0.800591
  H     -0.933750   -2.572658   -0.987936
  H     -1.525666   -3.013641    0.620708

 Total Charge           Charge          ....    0
 Multiplicity           Mult            ....    1
 Number of Electrons    NEL             ....   68
 Basis Dimension        Dim             ....  345

ORBITAL ENERGIES
----------------

  NO   OCC          E(Eh)            E(eV)
   0   2.0000     -20.554203      -559.3083
   1   2.0000     -15.547308      -423.0638
   2   2.0000     -11.271716      -306.7190
   3   2.0000     -11.250358      -306.1378
   4   2.0000     -11.249329      -306.1098
   5   2.0000     -11.229471      -305.5695
   6   2.0000     -11.221194      -305.3442
   7   2.0000     -11.217739      -305.2502
   8   2.0000     -11.214321      -305.1572
   9   2.0000      -1.364032       -37.1172
  10   2.0000      -1.261399       -34.3244
  11   2.0000      -1.134873       -30.8815
  12   2.0000      -1.004864       -27.3438
  13   2.0000      -0.967218       -26.3193
  14   2.0000      -0.846097       -23.0235
  15   2.0000      -0.820541       -22.3281
  16   2.0000      -0.769820       -20.9479
  17   2.0000      -0.739192       -20.1144
  18   2.0000      -0.702690       -19.1212
  19   2.0000      -0.683816       -18.6076
  20   2.0000      -0.640412       -17.4265
  21   2.0000      -0.618299       -16.8248
  22   2.0000      -0.579531       -15.7699
  23   2.0000      -0.567698       -15.4479
  24   2.0000      -0.558228       -15.1901
  25   2.0000      -0.536509       -14.5991
  26   2.0000      -0.506607       -13.7855
  27   2.0000      -0.498993       -13.5783
  28   2.0000      -0.467917       -12.7327
  29   2.0000      -0.459096       -12.4926
  30   2.0000      -0.445808       -12.1311
  31   2.0000      -0.393963       -10.7203
  32   2.0000      -0.387427       -10.5424
  33   2.0000      -0.364928        -9.9302
  34   0.0000       0.138912         3.7800
  35   0.0000       0.147711         4.0194
  36   0.0000       0.163162         4.4399
  37   0.0000       0.170964         4.6522
  38   0.0000       0.187298         5.0967

MULLIKEN ATOMIC CHARGES
-----------------------
   0 O :   -0.465727
   1 C :   -0.033136
   2 C :   -0.351468
   3 C :    0.172187
   4 C :   -0.176829
   5 C :   -0.094644
   6 N :   -0.384708
   7 C :   -0.072717
   8 C :   -0.185370
   9 H :    0.322286
  10 H :    0.096499
  11 H :    0.123338
  12 H :    0.137070
  13 H :    0.103827
  14 H :    0.135591
  15 H :    0.123623
  16 H :    0.211598
  17 H :    0.125247
  18 H :    0.108827
  19 H :    0.104505
Sum of atomic charges:   -0.0000000

LOEWDIN ATOMIC CHARGES
----------------------
   0 O :    0.001208
   1 C :   -0.302237
   2 C :   -0.205948
   3 C :   -0.208760
   4 C :   -0.189486
   5 C :   -0.246437
   6 N :    0.005742
   7 C :   -0.250943
   8 C :   -0.191270
   9 H :    0.179399
  10 H :    0.131220
  11 H :    0.132816
  12 H :    0.137464
  13 H :    0.142372
  14 H :    0.149218
  15 H :    0.132459
  16 H :    0.166321
  17 H :    0.131933
  18 H :    0.142077
  19 H :    0.142853

  Mayer bond orders larger than 0.1
B(  0-O ,  1-C ) :   1.0551 B(  0-O ,  3-C ) :  -0.1085 B(  0-O ,  9-H ) :   0.8409
B(  1-C ,  2-C ) :   0.9220 B(  1-C ,  3-C ) :   0.8264 B(  1-C , 10-H ) :   0.9528
B(  2-C ,  3-C ) :   0.8362 B(  2-C , 11-H ) :   0.9132 B(  2-C , 12-H ) :   0.9234
B(  3-C ,  4-C ) :   0.9577 B(  3-C ,  8-C ) :   0.9362 B(  4-C ,  5-C ) :   0.9509
B(  4-C , 13-H ) :   0.9243 B(  4-C , 14-H ) :   0.8870 B(  5-C ,  6-N ) :   0.9458
B(  5-C ,  7-C ) :   0.9245 B(  5-C , 15-H ) :   0.9306 B(  6-N ,  7-C ) :   0.9242
B(  6-N , 16-H ) :   0.8687 B(  7-C ,  8-C ) :   0.9534 B(  7-C , 17-H ) :   0.9289
B(  8-C , 18-H ) :   0.8995 B(  8-C , 19-H ) :   0.9212

MP2 TOTAL ENERGY:     -402.429479700 Eh
FINAL SINGLE POINT ENERGY      -402.429479700204

DIPOLE MOMENT
-------------
                                X             Y             Z
Electronic contribution:     -0.53122       1.73171      -1.95451
Nuclear contribution   :      0.58871      -2.17820       2.41240
                        -----------------------------------------
Total Dipole Moment    :      0.05748      -0.44649       0.45789
                        -----------------------------------------
Magnitude (a.u.)       :      0.64213
Magnitude (Debye)      :      1.63215

                             ****ORCA TERMINATED NORMALLY****
TOTAL RUN TIME: 0 days 0 hours 17 minutes 57 seconds 295 msec
