                         Program Version 3.0.3 - RELEASE   -
|  1> ! RI-MP2 RIJK def2-TZVP def2-TZVP/C def2-TZVP/JK TIGHTSCF
|  2> % maxcore 2000
|  3> % mp2 density relaxed end
|  4> *xyz 0 1
|  5>  N       -0.0584799712     1.3698876319     0.3287767919
|  6>  C        0.1914099155     0.0322967088     0.0634534006
|  7>  O        1.2933624501    -0.4360926964    -0.0504806479
|  8>  N       -1.0080691903    -0.7136912108     0.0175296660
|  9>  C       -1.1507951853    -2.0356293398    -0.3869664276
| 10>  O       -0.2712383055    -2.7086183025    -0.8725299730
| 11>  C       -2.5394657757    -2.5774942499    -0.1845479672
| 12>  C       -3.1161146514    -3.3479682751    -1.3299943786
| 13>  N       -2.6611501392    -4.0381395004    -0.1297214527
| 14>  H        0.7662429273     1.9449486085     0.2428662512
| 15>  H       -0.8990557242     1.7885089121    -0.0399390804
| 16>  H       -1.8311463051    -0.2708269273     0.3966694311
| 17>  H       -3.2037328457    -2.0320206969     0.4818318339
| 18>  H       -4.1912434373    -3.3346576320    -1.4837068259
| 19>  H       -2.5078030246    -3.4119360404    -2.2275785800
| 20>  H       -1.7280130975    -4.4131649198    -0.3071489014
| 21> *
| 22>
| 23>                          ****END OF INPUT****

CARTESIAN COORDINATES (ANGSTROEM)
---------------------------------
  N     -0.058480    1.369888    0.328777
  C      0.191410    0.032297    0.063453
  O      1.293362   -0.436093   -0.050481
  N     -1.008069   -0.713691    0.017530
  C     -1.150795   -2.035629   -0.386966
  O     -0.271238   -2.708618   -0.872530
  C     -2.539466   -2.577494   -0.184548
  C     -3.116115   -3.347968   -1.329994
  N     -2.661150   -4.038140   -0.129721
  H      0.766243    1.944949    0.242866
  H     -0.899056    1.788509   -0.039939
  H     -1.831146   -0.270827    0.396669
  H     -3.203733   -2.032021    0.481832
  H     -4.191243   -3.334658   -1.483707
  H     -2.507803   -3.411936   -2.227579
  H     -1.728013   -4.413165   -0.307149

 Total Charge           Charge          ....    0
 Multiplicity           Mult            ....    1
 Number of Electrons    NEL             ....   68
 Basis Dimension        Dim             ....  321

ORBITAL ENERGIES
----------------

  NO   OCC          E(Eh)            E(eV)
   0   2.0000     -20.542654      -558.9940
   1   2.0000     -20.534358      -558.7683
   2   2.0000     -15.624340      -425.1599
   3   2.0000     -15.600154      -424.5018
   4   2.0000     -15.576434      -423.8563
   5   2.0000     -11.402348      -310.2737
   6   2.0000     -11.377657      -309.6018
   7   2.0000     -11.286110      -307.1107
   8   2.0000     -11.278015      -306.8904
   9   2.0000      -1.426564       -38.8188
  10   2.0000      -1.399161       -38.0731
  11   2.0000      -1.282323       -34.8938
  12   2.0000      -1.269603       -34.5477
  13   2.0000      -1.212658       -32.9981
  14   2.0000      -0.969218       -26.3738
  15   2.0000      -0.896340       -24.3907
  16   2.0000      -0.849147       -23.1065
  17   2.0000      -0.793081       -21.5808
  18   2.0000      -0.768599       -20.9146
  19   2.0000      -0.745940       -20.2981
  20   2.0000      -0.689210       -18.7544
  21   2.0000      -0.669892       -18.2287
  22   2.0000      -0.650268       -17.6947
  23   2.0000      -0.633066       -17.2266
  24   2.0000      -0.628133       -17.0924
  25   2.0000      -0.580250       -15.7894
  26   2.0000      -0.563422       -15.3315
  27   2.0000      -0.509521       -13.8648
  28   2.0000      -0.495699       -13.4887
  29   2.0000      -0.480687       -13.0802
  30   2.0000      -0.446981       -12.1630
  31   2.0000      -0.438765       -11.9394
  32   2.0000      -0.433729       -11.8024
  33   2.0000      -0.409889       -11.1536
  34   0.0000       0.102302         2.7838
  35   0.0000       0.129721         3.5299
  36   0.0000       0.139175         3.7871
  37   0.0000       0.170608         4.6425
  38   0.0000       0.176400         4.8001

MULLIKEN ATOMIC CHARGES
-----------------------
   0 N :   -0.530182
   1 C :    0.381946
   2 O :   -0.300021
   3 N :   -0.333004
   4 C :    0.277062
   5 O :   -0.318813
   6 C :   -0.079785
   7 C :   -0.161552
   8 N :   -0.365291
   9 H :    0.272558
  10 H :    0.253706
  11 H :    0.241818
  12 H :    0.133938
  13 H :    0.131857
  14 H :    0.149553
  15 H :    0.246211
Sum of atomic charges:    0.0000000

LOEWDIN ATOMIC CHARGES
----------------------
   0 N :   -0.061122
   1 C :   -0.535778
   2 O :    0.124536
   3 N :    0.134426
   4 C :   -0.418187
   5 O :    0.138458
   6 C :   -0.260838
   7 C :   -0.249672
   8 N :    0.008819
   9 H :    0.179682
  10 H :    0.167156
  11 H :    0.195213
  12 H :    0.140862
  13 H :    0.126419
  14 H :    0.131049
  15 H :    0.178976

  Mayer bond orders larger than 0.1
B(  0-N ,  1-C ) :   1.0935 B(  0-N ,  9-H ) :   0.8653 B(  0-N , 10-H ) :   0.8685
B(  1-C ,  2-O ) :   2.0307 B(  1-C ,  3-N ) :   0.9468 B(  3-N ,  4-C ) :   1.0447
B(  3-N , 11-H ) :   0.8681 B(  4-C ,  5-O ) :   1.9020 B(  4-C ,  6-C ) :   0.9569
B(  6-C ,  7-C ) :   0.9225 B(  6-C ,  8-N ) :   0.9601 B(  6-C , 12-H ) :   0.8903
B(  7-C ,  8-N ) :   0.9153 B(  7-C , 13-H ) :   0.9260 B(  7-C , 14-H ) :   0.9114
B(  8-N , 15-H ) :   0.8613

MP2 TOTAL ENERGY:     -470.491502202 Eh
FINAL SINGLE POINT ENERGY      -470.491502202366

DIPOLE MOMENT
-------------
                                X             Y             Z
Electronic contribution:      4.65220       0.56844       0.73918
Nuclear contribution   :     -6.15159       1.19045      -0.88452
                        -----------------------------------------
Total Dipole Moment    :     -1.49939       1.75890      -0.14534
                        -----------------------------------------
Magnitude (a.u.)       :      2.31582
Magnitude (Debye)      :      5.88634

                             ****ORCA TERMINATED NORMALLY****
TOTAL RUN TIME: 0 days 0 hours 14 minutes 13 seconds 552 msec
