                         Program Version 3.0.3 - RELEASE   -
|  1> ! RI-MP2 RIJK def2-TZVP def2-TZVP/C def2-TZVP/JK TIGHTSCF
|  2> % maxcore 2000
|  3> % mp2 density relaxed end
|  4> *xyz 0 1
|  5>  C       -0.1241580158     1.6195129698     0.0036629247
|  6>  N       -0.2475301605     0.2136205648    -0.3743707311
|  7>  C       -0.1579500073    -0.7512345573     0.7188718232
|  8>  C       -1.4648499302    -0.4586698674     0.0678994375
|  9>  C        1.3161396905     2.0361586837     0.0116101176
| 10>  N        1.8082825635     2.6893639057     1.0378384661
| 11>  O        3.1428534929     2.9357935584     0.7264926787
| 12>  C        3.4072596955     2.4112997660    -0.4797379306
| 13>  C        2.3014911518     1.8235738008    -0.9971316406
| 14>  H       -0.6722335742     2.2115663104    -0.7399994308
| 15>  H       -0.5591037454     1.8460317091     0.9907387241
| 16>  H        0.3777390895    -1.6685738882     0.4940078936
| 17>  H       -0.0036515115    -0.3664215521     1.7252895033
| 18>  H       -2.1874660316     0.1192224544     0.6418586989
| 19>  H       -1.9004582564    -1.1581184412    -0.6396814993
| 20>  H        4.4197368599     2.5347471335    -0.8322310706
| 21>  H        2.1862154492     1.3076436495    -1.9346565849
| 22> *
| 23>
| 24>                          ****END OF INPUT****

CARTESIAN COORDINATES (ANGSTROEM)
---------------------------------
  C     -0.124158    1.619513    0.003663
  N     -0.247530    0.213621   -0.374371
  C     -0.157950   -0.751235    0.718872
  C     -1.464850   -0.458670    0.067899
  C      1.316140    2.036159    0.011610
  N      1.808283    2.689364    1.037838
  O      3.142853    2.935794    0.726493
  C      3.407260    2.411300   -0.479738
  C      2.301491    1.823574   -0.997132
  H     -0.672234    2.211566   -0.739999
  H     -0.559104    1.846032    0.990739
  H      0.377739   -1.668574    0.494008
  H     -0.003652   -0.366422    1.725290
  H     -2.187466    0.119222    0.641859
  H     -1.900458   -1.158118   -0.639681
  H      4.419737    2.534747   -0.832231
  H      2.186215    1.307644   -1.934657

 Total Charge           Charge          ....    0
 Multiplicity           Mult            ....    1
 Number of Electrons    NEL             ....   66
 Basis Dimension        Dim             ....  327

ORBITAL ENERGIES
----------------

  NO   OCC          E(Eh)            E(eV)
   0   2.0000     -20.639435      -561.6276
   1   2.0000     -15.615351      -424.9153
   2   2.0000     -15.571513      -423.7224
   3   2.0000     -11.311661      -307.8059
   4   2.0000     -11.280468      -306.9571
   5   2.0000     -11.273593      -306.7701
   6   2.0000     -11.262822      -306.4770
   7   2.0000     -11.260629      -306.4173
   8   2.0000     -11.233534      -305.6800
   9   2.0000      -1.489210       -40.5235
  10   2.0000      -1.285356       -34.9763
  11   2.0000      -1.170162       -31.8417
  12   2.0000      -1.068910       -29.0865
  13   2.0000      -1.011722       -27.5304
  14   2.0000      -0.854997       -23.2657
  15   2.0000      -0.851003       -23.1570
  16   2.0000      -0.824314       -22.4307
  17   2.0000      -0.774712       -21.0810
  18   2.0000      -0.725289       -19.7361
  19   2.0000      -0.682021       -18.5587
  20   2.0000      -0.662189       -18.0191
  21   2.0000      -0.650099       -17.6901
  22   2.0000      -0.614165       -16.7123
  23   2.0000      -0.602620       -16.3981
  24   2.0000      -0.564264       -15.3544
  25   2.0000      -0.550505       -14.9800
  26   2.0000      -0.534318       -14.5395
  27   2.0000      -0.479240       -13.0408
  28   2.0000      -0.477101       -12.9826
  29   2.0000      -0.466286       -12.6883
  30   2.0000      -0.413810       -11.2603
  31   2.0000      -0.388341       -10.5673
  32   2.0000      -0.365445        -9.9443
  33   0.0000       0.125532         3.4159
  34   0.0000       0.148030         4.0281
  35   0.0000       0.168813         4.5936
  36   0.0000       0.170427         4.6376
  37   0.0000       0.177027         4.8171

MULLIKEN ATOMIC CHARGES
-----------------------
   0 C :   -0.143391
   1 N :   -0.232415
   2 C :   -0.190479
   3 C :   -0.172700
   4 C :    0.107513
   5 N :   -0.115927
   6 O :   -0.105750
   7 C :    0.011361
   8 C :   -0.257682
   9 H :    0.133459
  10 H :    0.125497
  11 H :    0.132002
  12 H :    0.137153
  13 H :    0.122727
  14 H :    0.131324
  15 H :    0.160284
  16 H :    0.157023
Sum of atomic charges:   -0.0000000

LOEWDIN ATOMIC CHARGES
----------------------
   0 C :   -0.254478
   1 N :    0.091781
   2 C :   -0.263587
   3 C :   -0.267345
   4 C :   -0.282107
   5 N :    0.057750
   6 O :    0.273613
   7 C :   -0.262832
   8 C :   -0.167044
   9 H :    0.145932
  10 H :    0.138399
  11 H :    0.125270
  12 H :    0.126600
  13 H :    0.123381
  14 H :    0.124976
  15 H :    0.137850
  16 H :    0.151843

  Mayer bond orders larger than 0.1
B(  0-C ,  1-N ) :   0.8885 B(  0-C ,  4-C ) :   0.9227 B(  0-C ,  9-H ) :   0.8999
B(  0-C , 10-H ) :   0.9372 B(  1-N ,  2-C ) :   0.8804 B(  1-N ,  3-C ) :   0.8969
B(  2-C ,  3-C ) :   0.9419 B(  2-C , 11-H ) :   0.9303 B(  2-C , 12-H ) :   0.9232
B(  3-C , 13-H ) :   0.9245 B(  3-C , 14-H ) :   0.9250 B(  4-C ,  5-N ) :   1.6135
B(  4-C ,  8-C ) :   1.1942 B(  5-N ,  6-O ) :   0.8871 B(  5-N ,  7-C ) :   0.1009
B(  6-O ,  7-C ) :   1.1173 B(  7-C ,  8-C ) :   1.5608 B(  7-C , 15-H ) :   0.9204
B(  8-C , 16-H ) :   0.9080

MP2 TOTAL ENERGY:     -417.249891850 Eh
FINAL SINGLE POINT ENERGY      -417.249891849681

DIPOLE MOMENT
-------------
                                X             Y             Z
Electronic contribution:      6.49611       5.40052       0.45363
Nuclear contribution   :     -6.71083      -5.89211      -1.02123
                        -----------------------------------------
Total Dipole Moment    :     -0.21473      -0.49159      -0.56760
                        -----------------------------------------
Magnitude (a.u.)       :      0.78099
Magnitude (Debye)      :      1.98512

                             ****ORCA TERMINATED NORMALLY****
TOTAL RUN TIME: 0 days 0 hours 16 minutes 19 seconds 876 msec
