                         Program Version 3.0.3 - RELEASE   -
|  1> ! RI-MP2 RIJK def2-TZVP def2-TZVP/C def2-TZVP/JK TIGHTSCF
|  2> % maxcore 2000
|  3> % mp2 density relaxed end
|  4> *xyz 0 1
|  5>  C        0.0479627487     1.3009982528    -0.6939759395
|  6>  C       -0.0672903185     0.2520657858     0.4271564189
|  7>  C       -1.3915976800    -0.3561784833     0.5099585814
|  8>  C       -2.4957285463    -0.8352003499     0.5647884047
|  9>  C       -3.8155385476    -1.4530952667     0.6262755244
| 10>  C       -3.8144288882    -2.9188532751     0.1468981136
| 11>  C       -5.2109346097    -3.5578891865     0.2218059818
| 12>  C       -5.2206498541    -4.9536500427    -0.3582912295
| 13>  O       -5.5817137830    -5.9433995539     0.2236538969
| 14>  H        1.0553637579     1.7273098147    -0.7162276158
| 15>  H       -0.1578411313     0.8514568170    -1.6692364121
| 16>  H       -0.6671459921     2.1137082077    -0.5402907724
| 17>  H        0.6844712268    -0.5326402632     0.2719044253
| 18>  H        0.1807992172     0.7172032241     1.3899969488
| 19>  H       -4.1986996732    -1.4097932568     1.6545758235
| 20>  H       -4.5248904671    -0.8760061540     0.0173422881
| 21>  H       -3.4402900651    -2.9565205116    -0.8829084078
| 22>  H       -3.1094068491    -3.4947672657     0.7560055424
| 23>  H       -5.5816409528    -3.6041213193     1.2501753090
| 24>  H       -5.9153863919    -2.9519907013    -0.3678245355
| 25>  H       -4.8484324607    -5.0118714219    -1.4090598361
| 26> *
| 27>
| 28>                          ****END OF INPUT****

CARTESIAN COORDINATES (ANGSTROEM)
---------------------------------
  C      0.047963    1.300998   -0.693976
  C     -0.067290    0.252066    0.427156
  C     -1.391598   -0.356178    0.509959
  C     -2.495729   -0.835200    0.564788
  C     -3.815539   -1.453095    0.626276
  C     -3.814429   -2.918853    0.146898
  C     -5.210935   -3.557889    0.221806
  C     -5.220650   -4.953650   -0.358291
  O     -5.581714   -5.943400    0.223654
  H      1.055364    1.727310   -0.716228
  H     -0.157841    0.851457   -1.669236
  H     -0.667146    2.113708   -0.540291
  H      0.684471   -0.532640    0.271904
  H      0.180799    0.717203    1.389997
  H     -4.198700   -1.409793    1.654576
  H     -4.524890   -0.876006    0.017342
  H     -3.440290   -2.956521   -0.882908
  H     -3.109407   -3.494767    0.756006
  H     -5.581641   -3.604121    1.250175
  H     -5.915386   -2.951991   -0.367825
  H     -4.848432   -5.011871   -1.409060

 Total Charge           Charge          ....    0
 Multiplicity           Mult            ....    1
 Number of Electrons    NEL             ....   68
 Basis Dimension        Dim             ....  351

ORBITAL ENERGIES
----------------

  NO   OCC          E(Eh)            E(eV)
   0   2.0000     -20.558051      -559.4130
   1   2.0000     -11.333066      -308.3884
   2   2.0000     -11.258284      -306.3535
   3   2.0000     -11.251540      -306.1700
   4   2.0000     -11.247660      -306.0644
   5   2.0000     -11.245458      -306.0045
   6   2.0000     -11.225570      -305.4633
   7   2.0000     -11.223205      -305.3989
   8   2.0000     -11.219260      -305.2916
   9   2.0000      -1.396807       -38.0091
  10   2.0000      -1.107191       -30.1282
  11   2.0000      -1.074342       -29.2343
  12   2.0000      -1.024111       -27.8675
  13   2.0000      -0.960508       -26.1367
  14   2.0000      -0.875479       -23.8230
  15   2.0000      -0.847795       -23.0697
  16   2.0000      -0.795625       -21.6501
  17   2.0000      -0.686535       -18.6816
  18   2.0000      -0.670043       -18.2328
  19   2.0000      -0.647280       -17.6134
  20   2.0000      -0.637692       -17.3525
  21   2.0000      -0.625061       -17.0088
  22   2.0000      -0.613606       -16.6971
  23   2.0000      -0.581219       -15.8158
  24   2.0000      -0.554635       -15.0924
  25   2.0000      -0.548110       -14.9148
  26   2.0000      -0.530539       -14.4367
  27   2.0000      -0.522427       -14.2160
  28   2.0000      -0.511556       -13.9201
  29   2.0000      -0.504584       -13.7304
  30   2.0000      -0.493646       -13.4328
  31   2.0000      -0.422206       -11.4888
  32   2.0000      -0.369241       -10.0475
  33   2.0000      -0.368523       -10.0280
  34   0.0000       0.121729         3.3124
  35   0.0000       0.133629         3.6362
  36   0.0000       0.139862         3.8059
  37   0.0000       0.158815         4.3216
  38   0.0000       0.165823         4.5123

MULLIKEN ATOMIC CHARGES
-----------------------
   0 C :   -0.359480
   1 C :   -0.301350
   2 C :    0.075796
   3 C :    0.006175
   4 C :   -0.406049
   5 C :   -0.236323
   6 C :   -0.145908
   7 C :    0.097815
   8 O :   -0.262841
   9 H :    0.131764
  10 H :    0.128140
  11 H :    0.129590
  12 H :    0.140247
  13 H :    0.140617
  14 H :    0.146857
  15 H :    0.142140
  16 H :    0.122722
  17 H :    0.134718
  18 H :    0.122782
  19 H :    0.122507
  20 H :    0.070083
Sum of atomic charges:   -0.0000000

LOEWDIN ATOMIC CHARGES
----------------------
   0 C :   -0.300388
   1 C :   -0.278875
   2 C :   -0.082303
   3 C :   -0.086210
   4 C :   -0.252683
   5 C :   -0.247108
   6 C :   -0.263179
   7 C :   -0.297182
   8 O :    0.131690
   9 H :    0.120746
  10 H :    0.123501
  11 H :    0.123858
  12 H :    0.152572
  13 H :    0.152802
  14 H :    0.156020
  15 H :    0.154325
  16 H :    0.141986
  17 H :    0.144723
  18 H :    0.145277
  19 H :    0.151167
  20 H :    0.109260

  Mayer bond orders larger than 0.1
B(  0-C ,  1-C ) :   0.9394 B(  0-C ,  9-H ) :   0.9392 B(  0-C , 10-H ) :   0.9356
B(  0-C , 11-H ) :   0.9354 B(  1-C ,  2-C ) :   0.9376 B(  1-C , 12-H ) :   0.9398
B(  1-C , 13-H ) :   0.9426 B(  2-C ,  3-C ) :   2.6551 B(  2-C ,  4-C ) :  -0.1350
B(  3-C ,  4-C ) :   1.0574 B(  4-C ,  5-C ) :   0.9484 B(  4-C , 14-H ) :   0.9309
B(  4-C , 15-H ) :   0.9263 B(  5-C ,  6-C ) :   0.9079 B(  5-C , 16-H ) :   0.9296
B(  5-C , 17-H ) :   0.9211 B(  6-C ,  7-C ) :   0.8803 B(  6-C , 18-H ) :   0.9030
B(  6-C , 19-H ) :   0.9137 B(  7-C ,  8-O ) :   2.0064 B(  7-C , 20-H ) :   0.9383

MP2 TOTAL ENERGY:     -386.388943298 Eh
FINAL SINGLE POINT ENERGY      -386.388943298235

DIPOLE MOMENT
-------------
                                X             Y             Z
Electronic contribution:     -5.73116      -8.11888       1.75095
Nuclear contribution   :      6.13318       9.13413      -2.10450
                        -----------------------------------------
Total Dipole Moment    :      0.40202       1.01525      -0.35355
                        -----------------------------------------
Magnitude (a.u.)       :      1.14776
Magnitude (Debye)      :      2.91737

                             ****ORCA TERMINATED NORMALLY****
TOTAL RUN TIME: 0 days 0 hours 14 minutes 19 seconds 270 msec
