                         Program Version 3.0.3 - RELEASE   -
|  1> ! RI-MP2 RIJK def2-TZVP def2-TZVP/C def2-TZVP/JK TIGHTSCF
|  2> % maxcore 2000
|  3> % mp2 density relaxed end
|  4> *xyz 0 1
|  5>  C        0.0773312286     1.5184094986     0.0094710494
|  6>  C       -0.0495613558    -0.0031017034     0.0031763047
|  7>  C       -1.4986103792    -0.4816086515     0.0121587210
|  8>  O       -2.4333321826     0.2933548289     0.0237169573
|  9>  C       -1.7357839370    -1.9372388536     0.0066662110
| 10>  C       -2.9329347759    -2.6384259783     0.0124236548
| 11>  C       -2.5603517075    -3.9911402432     0.0026280186
| 12>  N       -1.2317373834    -4.1397702847    -0.0084852314
| 13>  N       -0.7568021486    -2.8899972908    -0.0057675883
| 14>  H        1.1291118765     1.8166939946     0.0027288852
| 15>  H       -0.4139917212     1.9523470435    -0.8645333893
| 16>  H       -0.4003366150     1.9439252488     0.8951039072
| 17>  H        0.4464913096    -0.4323132771    -0.8791939174
| 18>  H        0.4600158317    -0.4406544726     0.8736776393
| 19>  H       -3.9180432839    -2.2032505712     0.0222919040
| 20>  H       -3.1927261897    -4.8662927532     0.0030705137
| 21>  H        0.2398593736    -2.7511688947    -0.0126726698
| 22> *
| 23>
| 24>                          ****END OF INPUT****

CARTESIAN COORDINATES (ANGSTROEM)
---------------------------------
  C      0.077331    1.518409    0.009471
  C     -0.049561   -0.003102    0.003176
  C     -1.498610   -0.481609    0.012159
  O     -2.433332    0.293355    0.023717
  C     -1.735784   -1.937239    0.006666
  C     -2.932935   -2.638426    0.012424
  C     -2.560352   -3.991140    0.002628
  N     -1.231737   -4.139770   -0.008485
  N     -0.756802   -2.889997   -0.005768
  H      1.129112    1.816694    0.002729
  H     -0.413992    1.952347   -0.864533
  H     -0.400337    1.943925    0.895104
  H      0.446491   -0.432313   -0.879194
  H      0.460016   -0.440654    0.873678
  H     -3.918043   -2.203251    0.022292
  H     -3.192726   -4.866293    0.003071
  H      0.239859   -2.751169   -0.012673

 Total Charge           Charge          ....    0
 Multiplicity           Mult            ....    1
 Number of Electrons    NEL             ....   66
 Basis Dimension        Dim             ....  327

ORBITAL ENERGIES
----------------

  NO   OCC          E(Eh)            E(eV)
   0   2.0000     -20.556057      -559.3587
   1   2.0000     -15.657263      -426.0558
   2   2.0000     -15.606998      -424.6880
   3   2.0000     -11.349741      -308.8421
   4   2.0000     -11.286881      -307.1317
   5   2.0000     -11.263022      -306.4824
   6   2.0000     -11.256948      -306.3171
   7   2.0000     -11.238312      -305.8100
   8   2.0000     -11.228003      -305.5295
   9   2.0000      -1.402943       -38.1760
  10   2.0000      -1.389457       -37.8090
  11   2.0000      -1.120806       -30.4987
  12   2.0000      -1.076427       -29.2911
  13   2.0000      -1.059294       -28.8248
  14   2.0000      -0.924272       -25.1507
  15   2.0000      -0.851175       -23.1616
  16   2.0000      -0.813898       -22.1473
  17   2.0000      -0.799275       -21.7494
  18   2.0000      -0.714683       -19.4475
  19   2.0000      -0.651729       -17.7344
  20   2.0000      -0.644283       -17.5318
  21   2.0000      -0.634819       -17.2743
  22   2.0000      -0.620435       -16.8829
  23   2.0000      -0.609927       -16.5969
  24   2.0000      -0.588596       -16.0165
  25   2.0000      -0.541981       -14.7480
  26   2.0000      -0.537408       -14.6236
  27   2.0000      -0.527580       -14.3562
  28   2.0000      -0.503513       -13.7013
  29   2.0000      -0.478097       -13.0097
  30   2.0000      -0.433417       -11.7939
  31   2.0000      -0.377659       -10.2766
  32   2.0000      -0.356460        -9.6998
  33   0.0000       0.078376         2.1327
  34   0.0000       0.115198         3.1347
  35   0.0000       0.146043         3.9740
  36   0.0000       0.179770         4.8918
  37   0.0000       0.180928         4.9233

MULLIKEN ATOMIC CHARGES
-----------------------
   0 C :   -0.378730
   1 C :   -0.249062
   2 C :    0.127212
   3 O :   -0.295484
   4 C :    0.125066
   5 C :   -0.171031
   6 C :   -0.080517
   7 N :   -0.232380
   8 N :   -0.093896
   9 H :    0.135648
  10 H :    0.138855
  11 H :    0.138875
  12 H :    0.134476
  13 H :    0.134498
  14 H :    0.161065
  15 H :    0.142496
  16 H :    0.262909
Sum of atomic charges:   -0.0000000

LOEWDIN ATOMIC CHARGES
----------------------
   0 C :   -0.307205
   1 C :   -0.269519
   2 C :   -0.309329
   3 O :    0.161385
   4 C :   -0.218665
   5 C :   -0.142600
   6 C :   -0.258859
   7 N :    0.030292
   8 N :    0.157416
   9 H :    0.122396
  10 H :    0.129008
  11 H :    0.129011
  12 H :    0.148607
  13 H :    0.148629
  14 H :    0.151626
  15 H :    0.136274
  16 H :    0.191532

  Mayer bond orders larger than 0.1
B(  0-C ,  1-C ) :   0.9471 B(  0-C ,  9-H ) :   0.9390 B(  0-C , 10-H ) :   0.9365
B(  0-C , 11-H ) :   0.9365 B(  1-C ,  2-C ) :   0.9407 B(  1-C ,  4-C ) :  -0.1101
B(  1-C , 12-H ) :   0.9069 B(  1-C , 13-H ) :   0.9068 B(  2-C ,  3-O ) :   1.9883
B(  2-C ,  4-C ) :   0.9016 B(  4-C ,  5-C ) :   1.3630 B(  4-C ,  7-N ) :   0.1093
B(  4-C ,  8-N ) :   1.1496 B(  5-C ,  6-C ) :   1.3314 B(  5-C , 14-H ) :   0.9169
B(  6-C ,  7-N ) :   1.4723 B(  6-C , 15-H ) :   0.9361 B(  7-N ,  8-N ) :   1.0862
B(  8-N , 16-H ) :   0.8642

MP2 TOTAL ENERGY:     -417.340896339 Eh
FINAL SINGLE POINT ENERGY      -417.340896339128

DIPOLE MOMENT
-------------
                                X             Y             Z
Electronic contribution:     -4.49536      -6.67788       0.00245
Nuclear contribution   :      5.38895       6.77522      -0.00904
                        -----------------------------------------
Total Dipole Moment    :      0.89359       0.09734      -0.00659
                        -----------------------------------------
Magnitude (a.u.)       :      0.89890
Magnitude (Debye)      :      2.28482

                             ****ORCA TERMINATED NORMALLY****
TOTAL RUN TIME: 0 days 0 hours 15 minutes 14 seconds 111 msec
