                         Program Version 3.0.3 - RELEASE   -
|  1> ! RI-MP2 RIJK def2-TZVP def2-TZVP/C def2-TZVP/JK TIGHTSCF
|  2> % maxcore 2000
|  3> % mp2 density relaxed end
|  4> *xyz 0 1
|  5>  C        0.1006936816     1.5748152837     0.2023917570
|  6>  C        0.0991887027     0.0790243835     0.0974996877
|  7>  C       -1.1477986302    -0.8008146049     0.0002150757
|  8>  O       -0.5073091475    -1.8655876065     0.7755318201
|  9>  C        0.6327991083    -1.0357857501     0.9588916582
| 10>  C        1.2621215877    -0.8013369640    -0.4128966123
| 11>  O        1.0776795350    -1.7373348235    -1.4264147369
| 12>  C        2.6337446982    -0.2391175185    -0.3853866879
| 13>  O        3.0278791274     0.5963322181     0.3974716022
| 14>  H        1.0911819443     1.9432731905     0.4724808299
| 15>  H       -0.1888035581     2.0306523438    -0.7511873398
| 16>  H       -0.6119238753     1.9081952533     0.9648879161
| 17>  H       -1.9992633570    -0.3975770151     0.5561477528
| 18>  H       -1.4581053781    -1.1403320363    -0.9921738354
| 19>  H        1.1869937670    -1.0851928553     1.8892098256
| 20>  H        0.6058156330    -2.4828749157    -1.0291547929
| 21>  H        3.2961829310    -0.6895247629    -1.1542425899
| 22> *
| 23>
| 24>                          ****END OF INPUT****

CARTESIAN COORDINATES (ANGSTROEM)
---------------------------------
  C      0.100694    1.574815    0.202392
  C      0.099189    0.079024    0.097500
  C     -1.147799   -0.800815    0.000215
  O     -0.507309   -1.865588    0.775532
  C      0.632799   -1.035786    0.958892
  C      1.262122   -0.801337   -0.412897
  O      1.077680   -1.737335   -1.426415
  C      2.633745   -0.239118   -0.385387
  O      3.027879    0.596332    0.397472
  H      1.091182    1.943273    0.472481
  H     -0.188804    2.030652   -0.751187
  H     -0.611924    1.908195    0.964888
  H     -1.999263   -0.397577    0.556148
  H     -1.458105   -1.140332   -0.992174
  H      1.186994   -1.085193    1.889210
  H      0.605816   -2.482875   -1.029155
  H      3.296183   -0.689525   -1.154243

 Total Charge           Charge          ....    0
 Multiplicity           Mult            ....    1
 Number of Electrons    NEL             ....   68
 Basis Dimension        Dim             ....  327

ORBITAL ENERGIES
----------------

  NO   OCC          E(Eh)            E(eV)
   0   2.0000     -20.582715      -560.0841
   1   2.0000     -20.579782      -560.0043
   2   2.0000     -20.561674      -559.5116
   3   2.0000     -11.341447      -308.6165
   4   2.0000     -11.312518      -307.8293
   5   2.0000     -11.309858      -307.7569
   6   2.0000     -11.303447      -307.5824
   7   2.0000     -11.269130      -306.6486
   8   2.0000     -11.231159      -305.6154
   9   2.0000      -1.433202       -38.9994
  10   2.0000      -1.400812       -38.1180
  11   2.0000      -1.380147       -37.5557
  12   2.0000      -1.137929       -30.9646
  13   2.0000      -1.004844       -27.3432
  14   2.0000      -0.947030       -25.7700
  15   2.0000      -0.921377       -25.0719
  16   2.0000      -0.789108       -21.4727
  17   2.0000      -0.753208       -20.4958
  18   2.0000      -0.734552       -19.9882
  19   2.0000      -0.706218       -19.2172
  20   2.0000      -0.661581       -18.0025
  21   2.0000      -0.646670       -17.5968
  22   2.0000      -0.631968       -17.1967
  23   2.0000      -0.619742       -16.8640
  24   2.0000      -0.589496       -16.0410
  25   2.0000      -0.575382       -15.6569
  26   2.0000      -0.567558       -15.4440
  27   2.0000      -0.552815       -15.0429
  28   2.0000      -0.527935       -14.3658
  29   2.0000      -0.501168       -13.6375
  30   2.0000      -0.490552       -13.3486
  31   2.0000      -0.444940       -12.1074
  32   2.0000      -0.401916       -10.9367
  33   2.0000      -0.389532       -10.5997
  34   0.0000       0.113468         3.0876
  35   0.0000       0.140110         3.8126
  36   0.0000       0.146623         3.9898
  37   0.0000       0.177549         4.8314
  38   0.0000       0.179300         4.8790

MULLIKEN ATOMIC CHARGES
-----------------------
   0 C :   -0.419459
   1 C :   -0.019939
   2 C :   -0.046312
   3 O :   -0.346827
   4 C :    0.052108
   5 C :    0.181115
   6 O :   -0.465558
   7 C :    0.048975
   8 O :   -0.301489
   9 H :    0.177182
  10 H :    0.141435
  11 H :    0.133040
  12 H :    0.123939
  13 H :    0.134896
  14 H :    0.148899
  15 H :    0.346468
  16 H :    0.111526
Sum of atomic charges:   -0.0000000

LOEWDIN ATOMIC CHARGES
----------------------
   0 C :   -0.268613
   1 C :   -0.192304
   2 C :   -0.200604
   3 O :    0.145691
   4 C :   -0.192670
   5 C :   -0.319054
   6 O :    0.038454
   7 C :   -0.254958
   8 O :    0.123933
   9 H :    0.140816
  10 H :    0.133048
  11 H :    0.131058
  12 H :    0.132221
  13 H :    0.125826
  14 H :    0.141190
  15 H :    0.191163
  16 H :    0.124802

  Mayer bond orders larger than 0.1
B(  0-C ,  1-C ) :   0.8704 B(  0-C ,  9-H ) :   0.9274 B(  0-C , 10-H ) :   0.9325
B(  0-C , 11-H ) :   0.9335 B(  1-C ,  2-C ) :   0.9545 B(  1-C ,  4-C ) :   0.8964
B(  1-C ,  5-C ) :   0.7810 B(  2-C ,  3-O ) :   0.8896 B(  2-C , 12-H ) :   0.9153
B(  2-C , 13-H ) :   0.9188 B(  3-O ,  4-C ) :   0.9469 B(  4-C ,  5-C ) :   0.8449
B(  4-C , 14-H ) :   0.8963 B(  5-C ,  6-O ) :   1.0140 B(  5-C ,  7-C ) :   0.9117
B(  6-O , 15-H ) :   0.8103 B(  7-C ,  8-O ) :   1.9298 B(  7-C , 16-H ) :   0.9584

MP2 TOTAL ENERGY:     -458.186528363 Eh
FINAL SINGLE POINT ENERGY      -458.186528363232

DIPOLE MOMENT
-------------
                                X             Y             Z
Electronic contribution:      3.40523      -3.73989       0.08486
Nuclear contribution   :     -4.18410       3.73177      -0.12961
                        -----------------------------------------
Total Dipole Moment    :     -0.77888      -0.00812      -0.04475
                        -----------------------------------------
Magnitude (a.u.)       :      0.78020
Magnitude (Debye)      :      1.98312

                             ****ORCA TERMINATED NORMALLY****
TOTAL RUN TIME: 0 days 0 hours 17 minutes 39 seconds 641 msec
