                         Program Version 3.0.3 - RELEASE   -
|  1> ! RI-MP2 RIJK def2-TZVP def2-TZVP/C def2-TZVP/JK TIGHTSCF
|  2> % maxcore 2000
|  3> % mp2 density relaxed end
|  4> *xyz 0 1
|  5>  C        0.0110602461     1.5158891589     0.0659987480
|  6>  C        1.5203870343     1.9100631016     0.0963628564
|  7>  C        2.1679811163     0.6490669201     0.5958813103
|  8>  C        1.3357903686    -0.3935976969     0.5983654008
|  9>  C       -0.0385657552    -0.0431725583     0.1010161477
| 10>  C        2.0121839460    -1.6778089420     0.9886373330
| 11>  C        3.3874508908    -1.1754556761     1.5277053926
| 12>  C        3.5711059854     0.2753889685     0.9839840048
| 13>  H       -0.4812527968     1.9109528853     0.9599669336
| 14>  H       -0.5143724497     1.9332012448    -0.7970005212
| 15>  H        1.8939281865     2.1777185558    -0.9031402820
| 16>  H        1.7065729054     2.7839567732     0.7324039884
| 17>  H       -0.8479431594    -0.4166354449     0.7400289925
| 18>  H       -0.2190541405    -0.4696693150    -0.8968332834
| 19>  H        1.4607227612    -2.2570214433     1.7391734272
| 20>  H        2.1308086235    -2.3424816329     0.1201203532
| 21>  H        3.3559778049    -1.1477305588     2.6212643771
| 22>  H        4.2134921268    -1.8354124576     1.2500148837
| 23>  H        4.2435168893     0.3045635601     0.1138140821
| 24>  H        4.0153663930     0.9437315333     1.7315479251
| 25> *
| 26>
| 27>                          ****END OF INPUT****

CARTESIAN COORDINATES (ANGSTROEM)
---------------------------------
  C      0.011060    1.515889    0.065999
  C      1.520387    1.910063    0.096363
  C      2.167981    0.649067    0.595881
  C      1.335790   -0.393598    0.598365
  C     -0.038566   -0.043173    0.101016
  C      2.012184   -1.677809    0.988637
  C      3.387451   -1.175456    1.527705
  C      3.571106    0.275389    0.983984
  H     -0.481253    1.910953    0.959967
  H     -0.514372    1.933201   -0.797001
  H      1.893928    2.177719   -0.903140
  H      1.706573    2.783957    0.732404
  H     -0.847943   -0.416635    0.740029
  H     -0.219054   -0.469669   -0.896833
  H      1.460723   -2.257021    1.739173
  H      2.130809   -2.342482    0.120120
  H      3.355978   -1.147731    2.621264
  H      4.213492   -1.835412    1.250015
  H      4.243517    0.304564    0.113814
  H      4.015366    0.943732    1.731548

 Total Charge           Charge          ....    0
 Multiplicity           Mult            ....    1
 Number of Electrons    NEL             ....   60
 Basis Dimension        Dim             ....  320

ORBITAL ENERGIES
----------------

  NO   OCC          E(Eh)            E(eV)
   0   2.0000     -11.219207      -305.2901
   1   2.0000     -11.219200      -305.2899
   2   2.0000     -11.219122      -305.2878
   3   2.0000     -11.219121      -305.2878
   4   2.0000     -11.217582      -305.2459
   5   2.0000     -11.217580      -305.2459
   6   2.0000     -11.207195      -304.9633
   7   2.0000     -11.205446      -304.9157
   8   2.0000      -1.150397       -31.3039
   9   2.0000      -1.058355       -28.7993
  10   2.0000      -0.976569       -26.5738
  11   2.0000      -0.928567       -25.2676
  12   2.0000      -0.909390       -24.7458
  13   2.0000      -0.795434       -21.6448
  14   2.0000      -0.779758       -21.2183
  15   2.0000      -0.657596       -17.8941
  16   2.0000      -0.648469       -17.6457
  17   2.0000      -0.642483       -17.4828
  18   2.0000      -0.611853       -16.6494
  19   2.0000      -0.557085       -15.1590
  20   2.0000      -0.544226       -14.8091
  21   2.0000      -0.533339       -14.5129
  22   2.0000      -0.496259       -13.5039
  23   2.0000      -0.486090       -13.2272
  24   2.0000      -0.480544       -13.0763
  25   2.0000      -0.479359       -13.0440
  26   2.0000      -0.462745       -12.5919
  27   2.0000      -0.460888       -12.5414
  28   2.0000      -0.445643       -12.1266
  29   2.0000      -0.314237        -8.5508
  30   0.0000       0.135450         3.6858
  31   0.0000       0.153954         4.1893
  32   0.0000       0.161864         4.4045
  33   0.0000       0.175265         4.7692
  34   0.0000       0.177144         4.8203

MULLIKEN ATOMIC CHARGES
-----------------------
   0 C :   -0.224551
   1 C :   -0.207117
   2 C :   -0.049712
   3 C :   -0.049712
   4 C :   -0.207117
   5 C :   -0.207104
   6 C :   -0.224554
   7 C :   -0.207104
   8 H :    0.109215
   9 H :    0.118861
  10 H :    0.110458
  11 H :    0.119747
  12 H :    0.119747
  13 H :    0.110458
  14 H :    0.119750
  15 H :    0.110456
  16 H :    0.109207
  17 H :    0.118864
  18 H :    0.110456
  19 H :    0.119750
Sum of atomic charges:   -0.0000000

LOEWDIN ATOMIC CHARGES
----------------------
   0 C :   -0.228362
   1 C :   -0.219478
   2 C :   -0.142236
   3 C :   -0.142236
   4 C :   -0.219478
   5 C :   -0.219479
   6 C :   -0.228372
   7 C :   -0.219479
   8 H :    0.135246
   9 H :    0.128151
  10 H :    0.137979
  11 H :    0.135102
  12 H :    0.135101
  13 H :    0.137979
  14 H :    0.135101
  15 H :    0.137981
  16 H :    0.135251
  17 H :    0.128149
  18 H :    0.137981
  19 H :    0.135101

  Mayer bond orders larger than 0.1
B(  0-C ,  1-C ) :   0.9499 B(  0-C ,  4-C ) :   0.9499 B(  0-C ,  8-H ) :   0.9295
B(  0-C ,  9-H ) :   0.9383 B(  1-C ,  2-C ) :   0.9199 B(  1-C , 10-H ) :   0.9049
B(  1-C , 11-H ) :   0.9337 B(  2-C ,  3-C ) :   1.6770 B(  2-C ,  7-C ) :   0.9199
B(  3-C ,  4-C ) :   0.9199 B(  3-C ,  5-C ) :   0.9199 B(  4-C , 12-H ) :   0.9337
B(  4-C , 13-H ) :   0.9049 B(  5-C ,  6-C ) :   0.9499 B(  5-C , 14-H ) :   0.9337
B(  5-C , 15-H ) :   0.9049 B(  6-C ,  7-C ) :   0.9499 B(  6-C , 16-H ) :   0.9295
B(  6-C , 17-H ) :   0.9383 B(  7-C , 18-H ) :   0.9049 B(  7-C , 19-H ) :   0.9337

MP2 TOTAL ENERGY:     -311.320854846 Eh
FINAL SINGLE POINT ENERGY      -311.320854845701

DIPOLE MOMENT
-------------
                                X             Y             Z
Electronic contribution:      0.00466      -0.00376      -0.01752
Nuclear contribution   :      0.00556      -0.00449      -0.02130
                        -----------------------------------------
Total Dipole Moment    :      0.01022      -0.00825      -0.03883
                        -----------------------------------------
Magnitude (a.u.)       :      0.04099
Magnitude (Debye)      :      0.10418

                             ****ORCA TERMINATED NORMALLY****
TOTAL RUN TIME: 0 days 0 hours 12 minutes 9 seconds 697 msec
