                         Program Version 3.0.3 - RELEASE   -
|  1> ! RI-MP2 RIJK def2-TZVP def2-TZVP/C def2-TZVP/JK TIGHTSCF
|  2> % maxcore 2000
|  3> % mp2 density relaxed end
|  4> *xyz 0 1
|  5>  C        0.0516556117     1.4896092698    -0.3085659576
|  6>  C        0.0426984302     0.0276510639     0.1550786322
|  7>  O        0.5743808604    -0.0931741629     1.4684837530
|  8>  C       -1.3480439059    -0.5842318553     0.1159966630
|  9>  O       -2.2072170192     0.0073565474     1.0721981939
| 10>  C       -1.9644550131    -1.0908360250    -1.1625752596
| 11>  C       -1.5738694507    -2.0570227745    -0.0549873150
| 12>  C       -0.4563744353    -3.0615741928    -0.2242449194
| 13>  H        1.0617485824     1.8981744442    -0.2257858112
| 14>  H       -0.2806074262     1.5813206818    -1.3481120328
| 15>  H       -0.6038333871     2.1031268938     0.3204926626
| 16>  H        0.7082011351    -0.5494143893    -0.4952367123
| 17>  H       -0.1550113574     0.1253681152     2.0628125282
| 18>  H       -2.5069838771     0.8535058029     0.7212726808
| 19>  H       -3.0194026957    -0.8964780492    -1.3241345437
| 20>  H       -1.3569007241    -1.0773284471    -2.0630046337
| 21>  H       -2.4139107306    -2.4138113425     0.5347088097
| 22>  H        0.3224283341    -2.7007212511    -0.9025076233
| 23>  H        0.0193233197    -3.2888375434     0.7350798247
| 24>  H       -0.8423730712    -3.9970009059    -0.6431584495
| 25> *
| 26>
| 27>                          ****END OF INPUT****

CARTESIAN COORDINATES (ANGSTROEM)
---------------------------------
  C      0.051656    1.489609   -0.308566
  C      0.042698    0.027651    0.155079
  O      0.574381   -0.093174    1.468484
  C     -1.348044   -0.584232    0.115997
  O     -2.207217    0.007357    1.072198
  C     -1.964455   -1.090836   -1.162575
  C     -1.573869   -2.057023   -0.054987
  C     -0.456374   -3.061574   -0.224245
  H      1.061749    1.898174   -0.225786
  H     -0.280607    1.581321   -1.348112
  H     -0.603833    2.103127    0.320493
  H      0.708201   -0.549414   -0.495237
  H     -0.155011    0.125368    2.062813
  H     -2.506984    0.853506    0.721273
  H     -3.019403   -0.896478   -1.324135
  H     -1.356901   -1.077328   -2.063005
  H     -2.413911   -2.413811    0.534709
  H      0.322428   -2.700721   -0.902508
  H      0.019323   -3.288838    0.735080
  H     -0.842373   -3.997001   -0.643158

 Total Charge           Charge          ....    0
 Multiplicity           Mult            ....    1
 Number of Electrons    NEL             ....   64
 Basis Dimension        Dim             ....  320

ORBITAL ENERGIES
----------------

  NO   OCC          E(Eh)            E(eV)
   0   2.0000     -20.571140      -559.7692
   1   2.0000     -20.544982      -559.0574
   2   2.0000     -11.286470      -307.1205
   3   2.0000     -11.281297      -306.9797
   4   2.0000     -11.232754      -305.6588
   5   2.0000     -11.229493      -305.5700
   6   2.0000     -11.219175      -305.2893
   7   2.0000     -11.217786      -305.2515
   8   2.0000      -1.385720       -37.7074
   9   2.0000      -1.347567       -36.6692
  10   2.0000      -1.142346       -31.0848
  11   2.0000      -1.016779       -27.6680
  12   2.0000      -0.962264       -26.1845
  13   2.0000      -0.876474       -23.8501
  14   2.0000      -0.815559       -22.1925
  15   2.0000      -0.766992       -20.8709
  16   2.0000      -0.702585       -19.1183
  17   2.0000      -0.676636       -18.4122
  18   2.0000      -0.646072       -17.5805
  19   2.0000      -0.622040       -16.9266
  20   2.0000      -0.602676       -16.3996
  21   2.0000      -0.581012       -15.8101
  22   2.0000      -0.562388       -15.3034
  23   2.0000      -0.552334       -15.0298
  24   2.0000      -0.545730       -14.8501
  25   2.0000      -0.527267       -14.3477
  26   2.0000      -0.516746       -14.0614
  27   2.0000      -0.501011       -13.6332
  28   2.0000      -0.476072       -12.9546
  29   2.0000      -0.449725       -12.2376
  30   2.0000      -0.403874       -10.9900
  31   2.0000      -0.396333       -10.7848
  32   0.0000       0.129015         3.5107
  33   0.0000       0.150367         4.0917
  34   0.0000       0.163524         4.4497
  35   0.0000       0.178291         4.8516
  36   0.0000       0.194374         5.2892

MULLIKEN ATOMIC CHARGES
-----------------------
   0 C :   -0.397794
   1 C :    0.129898
   2 O :   -0.478974
   3 C :    0.136228
   4 O :   -0.484875
   5 C :   -0.360369
   6 C :   -0.034112
   7 C :   -0.396221
   8 H :    0.147095
   9 H :    0.129397
  10 H :    0.099544
  11 H :    0.071778
  12 H :    0.327835
  13 H :    0.325850
  14 H :    0.139157
  15 H :    0.124335
  16 H :    0.123173
  17 H :    0.116381
  18 H :    0.144430
  19 H :    0.137246
Sum of atomic charges:   -0.0000000

LOEWDIN ATOMIC CHARGES
----------------------
   0 C :   -0.299996
   1 C :   -0.343069
   2 O :   -0.018222
   3 C :   -0.343385
   4 O :    0.015221
   5 C :   -0.195892
   6 C :   -0.209115
   7 C :   -0.290077
   8 H :    0.128238
   9 H :    0.124920
  10 H :    0.117125
  11 H :    0.147563
  12 H :    0.178805
  13 H :    0.179235
  14 H :    0.135427
  15 H :    0.136552
  16 H :    0.156143
  17 H :    0.123215
  18 H :    0.130863
  19 H :    0.126449

  Mayer bond orders larger than 0.1
B(  0-C ,  1-C ) :   0.8916 B(  0-C ,  8-H ) :   0.9416 B(  0-C ,  9-H ) :   0.9335
B(  0-C , 10-H ) :   0.9276 B(  1-C ,  2-O ) :   0.9169 B(  1-C ,  3-C ) :   0.9749
B(  1-C , 11-H ) :   0.9191 B(  2-O , 12-H ) :   0.8261 B(  3-C ,  4-O ) :   0.9227
B(  3-C ,  5-C ) :   0.8827 B(  3-C ,  6-C ) :   0.8380 B(  4-O , 13-H ) :   0.8377
B(  5-C ,  6-C ) :   0.9151 B(  5-C , 14-H ) :   0.9176 B(  5-C , 15-H ) :   0.9151
B(  6-C ,  7-C ) :   0.9147 B(  6-C , 16-H ) :   0.9228 B(  7-C , 17-H ) :   0.9343
B(  7-C , 18-H ) :   0.9382 B(  7-C , 19-H ) :   0.9364

MP2 TOTAL ENERGY:     -385.501508247 Eh
FINAL SINGLE POINT ENERGY      -385.501508246797

DIPOLE MOMENT
-------------
                                X             Y             Z
Electronic contribution:     -1.52112       1.04208       3.72446
Nuclear contribution   :      1.02147      -0.73552      -4.39356
                        -----------------------------------------
Total Dipole Moment    :     -0.49965       0.30655      -0.66910
                        -----------------------------------------
Magnitude (a.u.)       :      0.88956
Magnitude (Debye)      :      2.26109

                             ****ORCA TERMINATED NORMALLY****
TOTAL RUN TIME: 0 days 0 hours 13 minutes 8 seconds 950 msec
