                         Program Version 3.0.3 - RELEASE   -
|  1> ! RI-MP2 RIJK def2-TZVP def2-TZVP/C def2-TZVP/JK TIGHTSCF
|  2> % maxcore 2000
|  3> % mp2 density relaxed end
|  4> *xyz 0 1
|  5>  N       -0.0329160741     1.2912116737    -0.0049597832
|  6>  C        0.0109314537    -0.0764834674     0.1922077019
|  7>  O        1.0350522056    -0.7085985124     0.3589210804
|  8>  N       -1.2246109238    -0.6896602246     0.1619094018
|  9>  C       -2.5154047654    -0.3003397354    -0.4214913788
| 10>  C       -2.9252938141    -1.7973048940    -0.3846302295
| 11>  C       -1.4442826658    -2.1275353752     0.0141017923
| 12>  C       -0.6778953848    -2.7831921728    -1.0532821679
| 13>  N       -0.1387258054    -3.3281989078    -1.9177679591
| 14>  H        0.8296532965     1.7563343435     0.2326939095
| 15>  H       -0.8703347474     1.7920410333     0.2485573328
| 16>  H       -3.1106608017     0.3743818151     0.2031846923
| 17>  H       -2.4327869797     0.1219684752    -1.4299963435
| 18>  H       -3.6335349143    -2.0418728484     0.4063257862
| 19>  H       -3.2570847150    -2.2275982431    -1.3273843886
| 20>  H       -1.3121949242    -2.6956757097     0.9395782335
| 21> *
| 22>
| 23>                          ****END OF INPUT****

CARTESIAN COORDINATES (ANGSTROEM)
---------------------------------
  N     -0.032916    1.291212   -0.004960
  C      0.010931   -0.076483    0.192208
  O      1.035052   -0.708599    0.358921
  N     -1.224611   -0.689660    0.161909
  C     -2.515405   -0.300340   -0.421491
  C     -2.925294   -1.797305   -0.384630
  C     -1.444283   -2.127535    0.014102
  C     -0.677895   -2.783192   -1.053282
  N     -0.138726   -3.328199   -1.917768
  H      0.829653    1.756334    0.232694
  H     -0.870335    1.792041    0.248557
  H     -3.110661    0.374382    0.203185
  H     -2.432787    0.121968   -1.429996
  H     -3.633535   -2.041873    0.406326
  H     -3.257085   -2.227598   -1.327384
  H     -1.312195   -2.695676    0.939578

 Total Charge           Charge          ....    0
 Multiplicity           Mult            ....    1
 Number of Electrons    NEL             ....   66
 Basis Dimension        Dim             ....  321

ORBITAL ENERGIES
----------------

  NO   OCC          E(Eh)            E(eV)
   0   2.0000     -20.520162      -558.3820
   1   2.0000     -15.602527      -424.5663
   2   2.0000     -15.591492      -424.2661
   3   2.0000     -15.569908      -423.6787
   4   2.0000     -11.385937      -309.8271
   5   2.0000     -11.330008      -308.3052
   6   2.0000     -11.300764      -307.5094
   7   2.0000     -11.272768      -306.7476
   8   2.0000     -11.270137      -306.6760
   9   2.0000      -1.405367       -38.2420
  10   2.0000      -1.297185       -35.2982
  11   2.0000      -1.222034       -33.2532
  12   2.0000      -1.209874       -32.9223
  13   2.0000      -1.054268       -28.6881
  14   2.0000      -0.997241       -27.1363
  15   2.0000      -0.867346       -23.6017
  16   2.0000      -0.815981       -22.2040
  17   2.0000      -0.759884       -20.6775
  18   2.0000      -0.731445       -19.9036
  19   2.0000      -0.702230       -19.1087
  20   2.0000      -0.650015       -17.6878
  21   2.0000      -0.634175       -17.2568
  22   2.0000      -0.610778       -16.6201
  23   2.0000      -0.594938       -16.1891
  24   2.0000      -0.562695       -15.3117
  25   2.0000      -0.556207       -15.1352
  26   2.0000      -0.544173       -14.8077
  27   2.0000      -0.533084       -14.5059
  28   2.0000      -0.467302       -12.7159
  29   2.0000      -0.456157       -12.4127
  30   2.0000      -0.448506       -12.2045
  31   2.0000      -0.430999       -11.7281
  32   2.0000      -0.408659       -11.1202
  33   0.0000       0.108728         2.9586
  34   0.0000       0.126045         3.4299
  35   0.0000       0.147100         4.0028
  36   0.0000       0.157229         4.2784
  37   0.0000       0.166069         4.5190

MULLIKEN ATOMIC CHARGES
-----------------------
   0 N :   -0.513216
   1 C :    0.336346
   2 O :   -0.371133
   3 N :   -0.133368
   4 C :   -0.183384
   5 C :   -0.245533
   6 C :    0.148811
   7 C :   -0.220371
   8 N :   -0.049228
   9 H :    0.268056
  10 H :    0.254815
  11 H :    0.125227
  12 H :    0.137574
  13 H :    0.139044
  14 H :    0.157590
  15 H :    0.148771
Sum of atomic charges:    0.0000000

LOEWDIN ATOMIC CHARGES
----------------------
   0 N :   -0.049109
   1 C :   -0.558921
   2 O :    0.080428
   3 N :    0.194691
   4 C :   -0.229152
   5 C :   -0.182530
   6 C :   -0.212597
   7 C :   -0.164441
   8 N :    0.074339
   9 H :    0.178986
  10 H :    0.168813
  11 H :    0.123241
  12 H :    0.131616
  13 H :    0.138481
  14 H :    0.140474
  15 H :    0.165683

  Mayer bond orders larger than 0.1
B(  0-N ,  1-C ) :   1.0978 B(  0-N ,  9-H ) :   0.8664 B(  0-N , 10-H ) :   0.8671
B(  1-C ,  2-O ) :   1.9401 B(  1-C ,  3-N ) :   1.0834 B(  3-N ,  4-C ) :   0.9082
B(  3-N ,  6-C ) :   0.9092 B(  4-C ,  5-C ) :   0.9573 B(  4-C , 11-H ) :   0.9178
B(  4-C , 12-H ) :   0.9111 B(  5-C ,  6-C ) :   0.8764 B(  5-C , 13-H ) :   0.9244
B(  5-C , 14-H ) :   0.9277 B(  6-C ,  7-C ) :   0.9492 B(  6-C , 15-H ) :   0.9008
B(  7-C ,  8-N ) :   2.8453

MP2 TOTAL ENERGY:     -433.378060931 Eh
FINAL SINGLE POINT ENERGY      -433.378060930641

DIPOLE MOMENT
-------------
                                X             Y             Z
Electronic contribution:      5.17832      -3.00629      -0.50878
Nuclear contribution   :     -7.25282       4.48907       1.39698
                        -----------------------------------------
Total Dipole Moment    :     -2.07451       1.48278       0.88820
                        -----------------------------------------
Magnitude (a.u.)       :      2.70021
Magnitude (Debye)      :      6.86338

                             ****ORCA TERMINATED NORMALLY****
TOTAL RUN TIME: 0 days 0 hours 16 minutes 38 seconds 99 msec
