                         Program Version 3.0.3 - RELEASE   -
|  1> ! RI-MP2 RIJK def2-TZVP def2-TZVP/C def2-TZVP/JK TIGHTSCF
|  2> % maxcore 2000
|  3> % mp2 density relaxed end
|  4> *xyz 0 1
|  5>  C        0.0430309301     1.5725372893     0.0204341700
|  6>  C       -0.0039254191     0.0754145849    -0.0474454973
|  7>  N       -0.0602928947    -0.7377076034     1.0448971509
|  8>  O       -0.0736077505    -0.2015900505     2.1697351138
|  9>  C        0.0053037474    -0.6427192909    -1.2423819643
| 10>  N        0.0556203960    -0.1721083113    -2.5228978350
| 11>  H        0.0937527055     0.8050815944    -2.7518731987
| 12>  C        0.0458783591    -1.2328418226    -3.4309296411
| 13>  C       -0.0111758323    -2.3687224680    -2.7027680530
| 14>  N       -0.0355502490    -2.0003807319    -1.3673192779
| 15>  H        0.9567649843     1.9954198818    -0.4183845631
| 16>  H       -0.8158729753     2.0532150242    -0.4669416554
| 17>  H        0.0223573007     1.8310400770     1.0830365368
| 18>  H        0.0801214382    -1.0746518782    -4.4937782394
| 19>  H       -0.0363476140    -3.3985834926    -3.0124093179
| 20>  H       -0.0769328465    -2.5726509623    -0.5376095783
| 21> *
| 22>
| 23>                          ****END OF INPUT****

CARTESIAN COORDINATES (ANGSTROEM)
---------------------------------
  C      0.043031    1.572537    0.020434
  C     -0.003925    0.075415   -0.047445
  N     -0.060293   -0.737708    1.044897
  O     -0.073608   -0.201590    2.169735
  C      0.005304   -0.642719   -1.242382
  N      0.055620   -0.172108   -2.522898
  H      0.093753    0.805082   -2.751873
  C      0.045878   -1.232842   -3.430930
  C     -0.011176   -2.368722   -2.702768
  N     -0.035550   -2.000381   -1.367319
  H      0.956765    1.995420   -0.418385
  H     -0.815873    2.053215   -0.466942
  H      0.022357    1.831040    1.083037
  H      0.080121   -1.074652   -4.493778
  H     -0.036348   -3.398583   -3.012409
  H     -0.076933   -2.572651   -0.537610

 Total Charge           Charge          ....    0
 Multiplicity           Mult            ....    1
 Number of Electrons    NEL             ....   66
 Basis Dimension        Dim             ....  321

ORBITAL ENERGIES
----------------

  NO   OCC          E(Eh)            E(eV)
   0   2.0000     -20.519795      -558.3720
   1   2.0000     -15.640451      -425.5983
   2   2.0000     -15.639811      -425.5809
   3   2.0000     -15.629060      -425.2884
   4   2.0000     -11.356610      -309.0291
   5   2.0000     -11.300713      -307.5080
   6   2.0000     -11.297354      -307.4166
   7   2.0000     -11.224155      -305.4248
   8   2.0000     -11.215001      -305.1757
   9   2.0000      -1.411092       -38.3978
  10   2.0000      -1.385865       -37.7113
  11   2.0000      -1.228107       -33.4185
  12   2.0000      -1.120153       -30.4809
  13   2.0000      -1.032567       -28.0976
  14   2.0000      -0.950750       -25.8712
  15   2.0000      -0.901924       -24.5426
  16   2.0000      -0.855895       -23.2901
  17   2.0000      -0.821948       -22.3663
  18   2.0000      -0.709451       -19.3052
  19   2.0000      -0.691981       -18.8298
  20   2.0000      -0.655580       -17.8392
  21   2.0000      -0.655060       -17.8251
  22   2.0000      -0.645974       -17.5779
  23   2.0000      -0.634892       -17.2763
  24   2.0000      -0.591132       -16.0855
  25   2.0000      -0.573653       -15.6099
  26   2.0000      -0.525524       -14.3002
  27   2.0000      -0.521027       -14.1779
  28   2.0000      -0.518702       -14.1146
  29   2.0000      -0.481685       -13.1073
  30   2.0000      -0.397600       -10.8192
  31   2.0000      -0.347647        -9.4600
  32   2.0000      -0.271984        -7.4011
  33   0.0000       0.112128         3.0512
  34   0.0000       0.114378         3.1124
  35   0.0000       0.145124         3.9490
  36   0.0000       0.145316         3.9543
  37   0.0000       0.155080         4.2199

MULLIKEN ATOMIC CHARGES
-----------------------
   0 C :   -0.495568
   1 C :    0.021122
   2 N :   -0.054641
   3 O :   -0.381100
   4 C :    0.265137
   5 N :   -0.281399
   6 H :    0.270494
   7 C :   -0.081798
   8 C :   -0.072525
   9 N :   -0.252719
  10 H :    0.130099
  11 H :    0.130091
  12 H :    0.180852
  13 H :    0.171850
  14 H :    0.172315
  15 H :    0.277790
Sum of atomic charges:   -0.0000000

LOEWDIN ATOMIC CHARGES
----------------------
   0 C :   -0.305861
   1 C :   -0.347490
   2 N :   -0.072674
   3 O :   -0.107220
   4 C :   -0.232819
   5 N :    0.202008
   6 H :    0.202719
   7 C :   -0.221431
   8 C :   -0.213879
   9 N :    0.211638
  10 H :    0.123287
  11 H :    0.123285
  12 H :    0.144444
  13 H :    0.142676
  14 H :    0.145082
  15 H :    0.206235

  Mayer bond orders larger than 0.1
B(  0-C ,  1-C ) :   0.8758 B(  0-C , 10-H ) :   0.9306 B(  0-C , 11-H ) :   0.9306
B(  0-C , 12-H ) :   0.9247 B(  1-C ,  2-N ) :   1.3600 B(  1-C ,  3-O ) :   0.1405
B(  1-C ,  4-C ) :   1.2465 B(  2-N ,  3-O ) :   1.3197 B(  4-C ,  5-N ) :   1.1744
B(  4-C ,  9-N ) :   1.1870 B(  5-N ,  6-H ) :   0.8651 B(  5-N ,  7-C ) :   1.0438
B(  7-C ,  8-C ) :   1.6330 B(  7-C , 13-H ) :   0.9141 B(  8-C ,  9-N ) :   1.0831
B(  8-C , 14-H ) :   0.9165 B(  9-N , 15-H ) :   0.8367

MP2 TOTAL ENERGY:     -433.305802636 Eh
FINAL SINGLE POINT ENERGY      -433.305802636292

DIPOLE MOMENT
-------------
                                X             Y             Z
Electronic contribution:     -0.16163      -3.89209       1.27105
Nuclear contribution   :      0.23850       3.62549      -4.40296
                        -----------------------------------------
Total Dipole Moment    :      0.07687      -0.26660      -3.13191
                        -----------------------------------------
Magnitude (a.u.)       :      3.14418
Magnitude (Debye)      :      7.99187

                             ****ORCA TERMINATED NORMALLY****
TOTAL RUN TIME: 0 days 0 hours 16 minutes 39 seconds 74 msec
