                         Program Version 3.0.3 - RELEASE   -
|  1> ! RI-MP2 RIJK def2-TZVP def2-TZVP/C def2-TZVP/JK TIGHTSCF
|  2> % maxcore 2000
|  3> % mp2 density relaxed end
|  4> *xyz 0 1
|  5>  C       -0.0930069423     1.6251019601    -0.0390701414
|  6>  C        0.0949152291     0.1010677911     0.0347168342
|  7>  C       -1.0420652837    -0.6067588761    -0.5271864553
|  8>  N       -1.9543353629    -1.1579108677    -0.9778189343
|  9>  C        1.3606844635    -0.7302368929    -0.2029441279
| 10>  C        2.6502239584    -0.1658934283     0.4550799634
| 11>  N        2.3447982660     1.1122053377     1.1425488700
| 12>  C        2.0039420637    -0.1816266790     1.7821908459
| 13>  C        0.6959924340    -0.7462736127     1.1619039774
| 14>  H        0.6968979052     2.0913425120    -0.6262752802
| 15>  H       -1.0559191710     1.8480180794    -0.5067464240
| 16>  H       -0.0748762747     2.0726273180     0.9537022390
| 17>  H        1.3765969869    -1.5107149125    -0.9522728607
| 18>  H        3.6572855188    -0.4234144321     0.1560924113
| 19>  H        3.2137215146     1.4334434886     1.5695034499
| 20>  H        2.3919780940    -0.4542637850     2.7542926284
| 21>  H        0.1230504105    -1.5409212408     1.6214308343
| 22> *
| 23>
| 24>                          ****END OF INPUT****

CARTESIAN COORDINATES (ANGSTROEM)
---------------------------------
  C     -0.093007    1.625102   -0.039070
  C      0.094915    0.101068    0.034717
  C     -1.042065   -0.606759   -0.527186
  N     -1.954335   -1.157911   -0.977819
  C      1.360684   -0.730237   -0.202944
  C      2.650224   -0.165893    0.455080
  N      2.344798    1.112205    1.142549
  C      2.003942   -0.181627    1.782191
  C      0.695992   -0.746274    1.161904
  H      0.696898    2.091343   -0.626275
  H     -1.055919    1.848018   -0.506746
  H     -0.074876    2.072627    0.953702
  H      1.376597   -1.510715   -0.952273
  H      3.657286   -0.423414    0.156092
  H      3.213722    1.433443    1.569503
  H      2.391978   -0.454264    2.754293
  H      0.123050   -1.540921    1.621431

 Total Charge           Charge          ....    0
 Multiplicity           Mult            ....    1
 Number of Electrons    NEL             ....   64
 Basis Dimension        Dim             ....  327

ORBITAL ENERGIES
----------------

  NO   OCC          E(Eh)            E(eV)
   0   2.0000     -15.581616      -423.9973
   1   2.0000     -15.560211      -423.4149
   2   2.0000     -11.296342      -307.3891
   3   2.0000     -11.286522      -307.1219
   4   2.0000     -11.285745      -307.1007
   5   2.0000     -11.265958      -306.5623
   6   2.0000     -11.265935      -306.5617
   7   2.0000     -11.265303      -306.5445
   8   2.0000     -11.225313      -305.4563
   9   2.0000      -1.310987       -35.6738
  10   2.0000      -1.215977       -33.0884
  11   2.0000      -1.161839       -31.6153
  12   2.0000      -1.012128       -27.5414
  13   2.0000      -0.919354       -25.0169
  14   2.0000      -0.901350       -24.5270
  15   2.0000      -0.822784       -22.3891
  16   2.0000      -0.760727       -20.7004
  17   2.0000      -0.753410       -20.5013
  18   2.0000      -0.673310       -18.3217
  19   2.0000      -0.625804       -17.0290
  20   2.0000      -0.611221       -16.6322
  21   2.0000      -0.585804       -15.9405
  22   2.0000      -0.574142       -15.6232
  23   2.0000      -0.538135       -14.6434
  24   2.0000      -0.534240       -14.5374
  25   2.0000      -0.524310       -14.2672
  26   2.0000      -0.504637       -13.7319
  27   2.0000      -0.476215       -12.9585
  28   2.0000      -0.458552       -12.4778
  29   2.0000      -0.430540       -11.7156
  30   2.0000      -0.405747       -11.0409
  31   2.0000      -0.355246        -9.6667
  32   0.0000       0.123561         3.3623
  33   0.0000       0.144460         3.9310
  34   0.0000       0.156871         4.2687
  35   0.0000       0.159479         4.3397
  36   0.0000       0.174561         4.7500

MULLIKEN ATOMIC CHARGES
-----------------------
   0 C :   -0.344906
   1 C :    0.128572
   2 C :   -0.241956
   3 N :   -0.050287
   4 C :   -0.071127
   5 C :   -0.122384
   6 N :   -0.375312
   7 C :   -0.122384
   8 C :   -0.071135
   9 H :    0.138221
  10 H :    0.147741
  11 H :    0.138137
  12 H :    0.161995
  13 H :    0.151848
  14 H :    0.219138
  15 H :    0.151849
  16 H :    0.161991
Sum of atomic charges:   -0.0000000

LOEWDIN ATOMIC CHARGES
----------------------
   0 C :   -0.249756
   1 C :   -0.191789
   2 C :   -0.152965
   3 N :    0.059397
   4 C :   -0.107623
   5 C :   -0.204873
   6 N :    0.021275
   7 C :   -0.204900
   8 C :   -0.107623
   9 H :    0.131751
  10 H :    0.131232
  11 H :    0.131752
  12 H :    0.149246
  13 H :    0.135109
  14 H :    0.175405
  15 H :    0.135112
  16 H :    0.149248

  Mayer bond orders larger than 0.1
B(  0-C ,  1-C ) :   0.8504 B(  0-C ,  9-H ) :   0.9389 B(  0-C , 10-H ) :   0.9246
B(  0-C , 11-H ) :   0.9388 B(  1-C ,  2-C ) :   0.8898 B(  1-C ,  4-C ) :   0.8408
B(  1-C ,  8-C ) :   0.8407 B(  2-C ,  3-N ) :   2.8937 B(  4-C ,  5-C ) :   0.8677
B(  4-C ,  8-C ) :   0.9218 B(  4-C , 12-H ) :   0.9173 B(  5-C ,  6-N ) :   0.9436
B(  5-C ,  7-C ) :   1.0035 B(  5-C , 13-H ) :   0.9212 B(  6-N ,  7-C ) :   0.9436
B(  6-N , 14-H ) :   0.8694 B(  7-C ,  8-C ) :   0.8677 B(  7-C , 15-H ) :   0.9212
B(  8-C , 16-H ) :   0.9173

MP2 TOTAL ENERGY:     -380.107169373 Eh
FINAL SINGLE POINT ENERGY      -380.107169372623

DIPOLE MOMENT
-------------
                                X             Y             Z
Electronic contribution:     -2.54882      -3.37056      -1.28036
Nuclear contribution   :      4.43817       3.64624       2.20353
                        -----------------------------------------
Total Dipole Moment    :      1.88935       0.27569       0.92317
                        -----------------------------------------
Magnitude (a.u.)       :      2.12082
Magnitude (Debye)      :      5.39070

                             ****ORCA TERMINATED NORMALLY****
TOTAL RUN TIME: 0 days 0 hours 19 minutes 53 seconds 175 msec
