                         Program Version 3.0.3 - RELEASE   -
|  1> ! RI-MP2 RIJK def2-TZVP def2-TZVP/C def2-TZVP/JK TIGHTSCF
|  2> % maxcore 2000
|  3> % mp2 density relaxed end
|  4> *xyz 0 1
|  5>  C       -0.2668472692     1.6209077415    -0.0414515099
|  6>  C        0.0192521628     0.1276543557    -0.0188910012
|  7>  C        1.1264424538    -0.5488205420    -0.8747875883
|  8>  C        2.4115335859     0.2049825359    -0.4950006440
|  9>  C        2.3732712576    -0.2750237991     0.9743348290
| 10>  O        3.1614872758     0.3422539924     1.9384397265
| 11>  C        2.4868924059    -1.7862592533     0.7562329917
| 12>  N        1.1100031264    -1.7155552226     0.1567958622
| 13>  C        0.8022681942    -0.5569020655     1.1023206906
| 14>  H        0.6087477773     2.2308002110     0.1982350499
| 15>  H       -0.6333744336     1.9371875389    -1.0243702676
| 16>  H       -1.0420225544     1.8676050307     0.6919685550
| 17>  H       -0.9094066616    -0.4343734435    -0.1634999844
| 18>  H        0.9640118994    -0.8231737009    -1.9168553567
| 19>  H        3.3081929221    -0.1405872880    -1.0163299646
| 20>  H        2.3357218377     1.2879679843    -0.6249462280
| 21>  H        3.0943672479     1.2967189386     1.8323563965
| 22>  H        3.2879607419    -2.1691672521     0.1158057798
| 23>  H        2.4292861253    -2.3706891001     1.6786608067
| 24>  H        0.4097470048    -0.7887416020     2.0942321265
| 25> *
| 26>
| 27>                          ****END OF INPUT****

CARTESIAN COORDINATES (ANGSTROEM)
---------------------------------
  C     -0.266847    1.620908   -0.041452
  C      0.019252    0.127654   -0.018891
  C      1.126442   -0.548821   -0.874788
  C      2.411534    0.204983   -0.495001
  C      2.373271   -0.275024    0.974335
  O      3.161487    0.342254    1.938440
  C      2.486892   -1.786259    0.756233
  N      1.110003   -1.715555    0.156796
  C      0.802268   -0.556902    1.102321
  H      0.608748    2.230800    0.198235
  H     -0.633374    1.937188   -1.024370
  H     -1.042023    1.867605    0.691969
  H     -0.909407   -0.434373   -0.163500
  H      0.964012   -0.823174   -1.916855
  H      3.308193   -0.140587   -1.016330
  H      2.335722    1.287968   -0.624946
  H      3.094367    1.296719    1.832356
  H      3.287961   -2.169167    0.115806
  H      2.429286   -2.370689    1.678661
  H      0.409747   -0.788742    2.094232

 Total Charge           Charge          ....    0
 Multiplicity           Mult            ....    1
 Number of Electrons    NEL             ....   68
 Basis Dimension        Dim             ....  345

ORBITAL ENERGIES
----------------

  NO   OCC          E(Eh)            E(eV)
   0   2.0000     -20.567934      -559.6819
   1   2.0000     -15.552267      -423.1987
   2   2.0000     -11.293309      -307.3066
   3   2.0000     -11.263077      -306.4839
   4   2.0000     -11.256914      -306.3162
   5   2.0000     -11.244426      -305.9764
   6   2.0000     -11.234005      -305.6928
   7   2.0000     -11.228037      -305.5304
   8   2.0000     -11.223313      -305.4019
   9   2.0000      -1.380373       -37.5619
  10   2.0000      -1.285794       -34.9882
  11   2.0000      -1.059382       -28.8273
  12   2.0000      -1.006706       -27.3939
  13   2.0000      -0.964648       -26.2494
  14   2.0000      -0.913160       -24.8484
  15   2.0000      -0.823974       -22.4215
  16   2.0000      -0.775165       -21.0933
  17   2.0000      -0.727825       -19.8051
  18   2.0000      -0.713562       -19.4170
  19   2.0000      -0.653618       -17.7858
  20   2.0000      -0.636660       -17.3244
  21   2.0000      -0.630637       -17.1605
  22   2.0000      -0.594748       -16.1839
  23   2.0000      -0.568002       -15.4561
  24   2.0000      -0.561605       -15.2820
  25   2.0000      -0.546516       -14.8714
  26   2.0000      -0.528182       -14.3726
  27   2.0000      -0.493672       -13.4335
  28   2.0000      -0.481503       -13.1024
  29   2.0000      -0.462179       -12.5765
  30   2.0000      -0.446536       -12.1509
  31   2.0000      -0.431361       -11.7379
  32   2.0000      -0.410199       -11.1621
  33   2.0000      -0.368078       -10.0159
  34   0.0000       0.121632         3.3098
  35   0.0000       0.148066         4.0291
  36   0.0000       0.159248         4.3334
  37   0.0000       0.180800         4.9198
  38   0.0000       0.190681         5.1887

MULLIKEN ATOMIC CHARGES
-----------------------
   0 C :   -0.405427
   1 C :   -0.082391
   2 C :    0.008021
   3 C :   -0.328231
   4 C :    0.143403
   5 O :   -0.442119
   6 C :   -0.149715
   7 N :   -0.211612
   8 C :   -0.102143
   9 H :    0.112038
  10 H :    0.138288
  11 H :    0.140005
  12 H :    0.108260
  13 H :    0.128090
  14 H :    0.127873
  15 H :    0.132073
  16 H :    0.321054
  17 H :    0.113010
  18 H :    0.121346
  19 H :    0.128176
Sum of atomic charges:   -0.0000000

LOEWDIN ATOMIC CHARGES
----------------------
   0 C :   -0.297394
   1 C :   -0.234233
   2 C :   -0.183297
   3 C :   -0.209916
   4 C :   -0.350401
   5 O :    0.022476
   6 C :   -0.222964
   7 N :    0.126304
   8 C :   -0.162999
   9 H :    0.117449
  10 H :    0.127838
  11 H :    0.128617
  12 H :    0.161595
  13 H :    0.129463
  14 H :    0.138416
  15 H :    0.134106
  16 H :    0.180429
  17 H :    0.122505
  18 H :    0.138446
  19 H :    0.133561

  Mayer bond orders larger than 0.1
B(  0-C ,  1-C ) :   0.9034 B(  0-C ,  9-H ) :   0.9357 B(  0-C , 10-H ) :   0.9365
B(  0-C , 11-H ) :   0.9372 B(  1-C ,  2-C ) :   0.9250 B(  1-C ,  8-C ) :   0.9297
B(  1-C , 12-H ) :   0.9002 B(  2-C ,  3-C ) :   0.9051 B(  2-C ,  7-N ) :   0.9090
B(  2-C , 13-H ) :   0.9022 B(  3-C ,  4-C ) :   0.9175 B(  3-C , 14-H ) :   0.9218
B(  3-C , 15-H ) :   0.9363 B(  4-C ,  5-O ) :   1.0449 B(  4-C ,  6-C ) :   0.9359
B(  4-C ,  8-C ) :   0.8340 B(  5-O , 16-H ) :   0.8368 B(  6-C ,  7-N ) :   0.9317
B(  6-C , 17-H ) :   0.9228 B(  6-C , 18-H ) :   0.9212 B(  7-N ,  8-C ) :   0.9317
B(  8-C , 19-H ) :   0.8988

MP2 TOTAL ENERGY:     -402.416837264 Eh
FINAL SINGLE POINT ENERGY      -402.416837263865

DIPOLE MOMENT
-------------
                                X             Y             Z
Electronic contribution:      2.41412      -3.41344       2.21920
Nuclear contribution   :     -2.44983       4.35117      -2.51107
                        -----------------------------------------
Total Dipole Moment    :     -0.03570       0.93772      -0.29188
                        -----------------------------------------
Magnitude (a.u.)       :      0.98275
Magnitude (Debye)      :      2.49794

                             ****ORCA TERMINATED NORMALLY****
TOTAL RUN TIME: 0 days 0 hours 19 minutes 37 seconds 564 msec
