                         Program Version 3.0.3 - RELEASE   -
|  1> ! RI-MP2 RIJK def2-TZVP def2-TZVP/C def2-TZVP/JK TIGHTSCF
|  2> % maxcore 2000
|  3> % mp2 density relaxed end
|  4> *xyz 0 1
|  5>  C        0.0707094586     1.4132789351     0.0806255430
|  6>  N        0.0669670082    -0.0348059385    -0.0043680563
|  7>  C        0.6653170107    -0.6690939017    -1.0734190604
|  8>  O        1.0614631572    -0.0910947400    -2.0728107209
|  9>  N        0.7724903651    -2.0366332520    -0.9274341383
| 10>  C       -0.1336596336    -2.9568776427    -0.2171302377
| 11>  C        0.2078417747    -4.0443792195    -1.2718104437
| 12>  C        0.9719791507    -2.9460457441    -2.0640896580
| 13>  H        0.9092368959     1.8003669904     0.6750618187
| 14>  H        0.1640964090     1.8008587205    -0.9341531172
| 15>  H       -0.8649602815     1.7714703978     0.5209848664
| 16>  H        0.0077414586    -0.5474259807     0.8607155045
| 17>  H        0.1587285632    -3.1774493975     0.8162930031
| 18>  H       -1.1806876805    -2.6278982982    -0.2249480722
| 19>  H        0.8479388599    -4.8397957273    -0.8881846459
| 20>  H       -0.6468173266    -4.4887115278    -1.7819482164
| 21>  H        0.4737987040    -2.5998540833    -2.9757205161
| 22>  H        2.0212859466    -3.1506956307    -2.2950435126
| 23> *
| 24>
| 25>                          ****END OF INPUT****

CARTESIAN COORDINATES (ANGSTROEM)
---------------------------------
  C      0.070709    1.413279    0.080626
  N      0.066967   -0.034806   -0.004368
  C      0.665317   -0.669094   -1.073419
  O      1.061463   -0.091095   -2.072811
  N      0.772490   -2.036633   -0.927434
  C     -0.133660   -2.956878   -0.217130
  C      0.207842   -4.044379   -1.271810
  C      0.971979   -2.946046   -2.064090
  H      0.909237    1.800367    0.675062
  H      0.164096    1.800859   -0.934153
  H     -0.864960    1.771470    0.520985
  H      0.007741   -0.547426    0.860716
  H      0.158729   -3.177449    0.816293
  H     -1.180688   -2.627898   -0.224948
  H      0.847939   -4.839796   -0.888185
  H     -0.646817   -4.488712   -1.781948
  H      0.473799   -2.599854   -2.975721
  H      2.021286   -3.150696   -2.295044

 Total Charge           Charge          ....    0
 Multiplicity           Mult            ....    1
 Number of Electrons    NEL             ....   62
 Basis Dimension        Dim             ....  308

ORBITAL ENERGIES
----------------

  NO   OCC          E(Eh)            E(eV)
   0   2.0000     -20.498535      -557.7935
   1   2.0000     -15.573863      -423.7863
   2   2.0000     -15.568666      -423.6449
   3   2.0000     -11.360287      -309.1291
   4   2.0000     -11.274668      -306.7993
   5   2.0000     -11.260989      -306.4271
   6   2.0000     -11.251461      -306.1678
   7   2.0000     -11.238675      -305.8199
   8   2.0000      -1.381320       -37.5876
   9   2.0000      -1.260592       -34.3025
  10   2.0000      -1.214860       -33.0580
  11   2.0000      -1.028096       -27.9759
  12   2.0000      -0.942832       -25.6558
  13   2.0000      -0.921113       -25.0648
  14   2.0000      -0.820235       -22.3197
  15   2.0000      -0.760396       -20.6914
  16   2.0000      -0.730100       -19.8670
  17   2.0000      -0.682597       -18.5744
  18   2.0000      -0.645150       -17.5554
  19   2.0000      -0.618605       -16.8331
  20   2.0000      -0.606459       -16.5026
  21   2.0000      -0.567039       -15.4299
  22   2.0000      -0.558628       -15.2010
  23   2.0000      -0.553152       -15.0520
  24   2.0000      -0.538068       -14.6416
  25   2.0000      -0.522002       -14.2044
  26   2.0000      -0.498750       -13.5717
  27   2.0000      -0.476623       -12.9696
  28   2.0000      -0.427411       -11.6305
  29   2.0000      -0.391559       -10.6549
  30   2.0000      -0.374180       -10.1820
  31   0.0000       0.126130         3.4322
  32   0.0000       0.145104         3.9485
  33   0.0000       0.164318         4.4713
  34   0.0000       0.175081         4.7642
  35   0.0000       0.180330         4.9070

MULLIKEN ATOMIC CHARGES
-----------------------
   0 C :   -0.285663
   1 N :   -0.356681
   2 C :    0.326545
   3 O :   -0.415096
   4 N :   -0.121885
   5 C :   -0.179018
   6 C :   -0.226969
   7 C :   -0.132787
   8 H :    0.126885
   9 H :    0.173935
  10 H :    0.130949
  11 H :    0.235028
  12 H :    0.114275
  13 H :    0.121037
  14 H :    0.124939
  15 H :    0.125656
  16 H :    0.122217
  17 H :    0.116634
Sum of atomic charges:    0.0000000

LOEWDIN ATOMIC CHARGES
----------------------
   0 C :   -0.319582
   1 N :    0.054614
   2 C :   -0.542107
   3 O :    0.052293
   4 N :    0.160411
   5 C :   -0.243787
   6 C :   -0.234442
   7 C :   -0.222539
   8 H :    0.110504
   9 H :    0.133702
  10 H :    0.113421
  11 H :    0.180619
  12 H :    0.118967
  13 H :    0.123875
  14 H :    0.131751
  15 H :    0.128973
  16 H :    0.128812
  17 H :    0.124515

  Mayer bond orders larger than 0.1
B(  0-C ,  1-N ) :   0.8800 B(  0-C ,  8-H ) :   0.9382 B(  0-C ,  9-H ) :   0.9284
B(  0-C , 10-H ) :   0.9347 B(  1-N ,  2-C ) :   1.1128 B(  1-N , 11-H ) :   0.8728
B(  2-C ,  3-O ) :   1.8928 B(  2-C ,  4-N ) :   1.1002 B(  4-N ,  5-C ) :   0.9076
B(  4-N ,  7-C ) :   0.9080 B(  5-C ,  6-C ) :   0.9520 B(  5-C , 12-H ) :   0.9174
B(  5-C , 13-H ) :   0.9122 B(  6-C ,  7-C ) :   0.9381 B(  6-C , 14-H ) :   0.9245
B(  6-C , 15-H ) :   0.9311 B(  7-C , 16-H ) :   0.9226 B(  7-C , 17-H ) :   0.9275

MP2 TOTAL ENERGY:     -380.502028469 Eh
FINAL SINGLE POINT ENERGY      -380.502028468734

DIPOLE MOMENT
-------------
                                X             Y             Z
Electronic contribution:      1.88688       1.31101      -1.83396
Nuclear contribution   :     -2.49608      -2.12347       2.94823
                        -----------------------------------------
Total Dipole Moment    :     -0.60920      -0.81246       1.11427
                        -----------------------------------------
Magnitude (a.u.)       :      1.50759
Magnitude (Debye)      :      3.83198

                             ****ORCA TERMINATED NORMALLY****
TOTAL RUN TIME: 0 days 0 hours 12 minutes 22 seconds 183 msec
