                         Program Version 3.0.3 - RELEASE   -
|  1> ! RI-MP2 RIJK def2-TZVP def2-TZVP/C def2-TZVP/JK TIGHTSCF
|  2> % maxcore 2000
|  3> % mp2 density relaxed end
|  4> *xyz 0 1
|  5>  N       -0.1698317665    -1.1297232296    -0.1564977945
|  6>  C       -0.0928504791     0.0119650171    -0.0010233622
|  7>  C        0.0146266097     1.4559858474     0.2254410657
|  8>  N        1.2878203090     1.9702908270    -0.2685839828
|  9>  C        1.4463500212     3.3946365899    -0.0906399508
| 10>  C        1.7794592039     4.0157411267     1.2996297674
| 11>  O        2.9512119667     4.6573254552     0.7618157046
| 12>  C        2.8137214044     3.9749134421    -0.4999013373
| 13>  H       -0.7977685343     1.9527034973    -0.3197557473
| 14>  H       -0.1692564163     1.6423140229     1.2986382810
| 15>  H        2.0563176987     1.4676371498     0.1654498083
| 16>  H        0.6052269970     3.8965483177    -0.5785554693
| 17>  H        1.0700997069     4.7395102766     1.7171948033
| 18>  H        2.0304149173     3.2713412355     2.0707257136
| 19>  H        3.5880372851     3.2081085583    -0.6462588758
| 20>  H        2.8305635962     4.6634997461    -1.3511411540
| 21> *
| 22>
| 23>                          ****END OF INPUT****

CARTESIAN COORDINATES (ANGSTROEM)
---------------------------------
  N     -0.169832   -1.129723   -0.156498
  C     -0.092850    0.011965   -0.001023
  C      0.014627    1.455986    0.225441
  N      1.287820    1.970291   -0.268584
  C      1.446350    3.394637   -0.090640
  C      1.779459    4.015741    1.299630
  O      2.951212    4.657325    0.761816
  C      2.813721    3.974913   -0.499901
  H     -0.797769    1.952703   -0.319756
  H     -0.169256    1.642314    1.298638
  H      2.056318    1.467637    0.165450
  H      0.605227    3.896548   -0.578555
  H      1.070100    4.739510    1.717195
  H      2.030415    3.271341    2.070726
  H      3.588037    3.208109   -0.646259
  H      2.830564    4.663500   -1.351141

 Total Charge           Charge          ....    0
 Multiplicity           Mult            ....    1
 Number of Electrons    NEL             ....   60
 Basis Dimension        Dim             ....  296

ORBITAL ENERGIES
----------------

  NO   OCC          E(Eh)            E(eV)
   0   2.0000     -20.563318      -559.5563
   1   2.0000     -15.586860      -424.1400
   2   2.0000     -15.579691      -423.9449
   3   2.0000     -11.323509      -308.1283
   4   2.0000     -11.293820      -307.3205
   5   2.0000     -11.293035      -307.2991
   6   2.0000     -11.286222      -307.1137
   7   2.0000     -11.281278      -306.9792
   8   2.0000      -1.395015       -37.9603
   9   2.0000      -1.258196       -34.2372
  10   2.0000      -1.220189       -33.2030
  11   2.0000      -1.041056       -28.3286
  12   2.0000      -0.956751       -26.0345
  13   2.0000      -0.950121       -25.8541
  14   2.0000      -0.807128       -21.9631
  15   2.0000      -0.734424       -19.9847
  16   2.0000      -0.708708       -19.2849
  17   2.0000      -0.684271       -18.6199
  18   2.0000      -0.667804       -18.1719
  19   2.0000      -0.634373       -17.2622
  20   2.0000      -0.605486       -16.4761
  21   2.0000      -0.577941       -15.7266
  22   2.0000      -0.574438       -15.6313
  23   2.0000      -0.557748       -15.1771
  24   2.0000      -0.522211       -14.2101
  25   2.0000      -0.491217       -13.3667
  26   2.0000      -0.469074       -12.7641
  27   2.0000      -0.468567       -12.7504
  28   2.0000      -0.431546       -11.7430
  29   2.0000      -0.403333       -10.9753
  30   0.0000       0.113329         3.0838
  31   0.0000       0.138826         3.7777
  32   0.0000       0.145494         3.9591
  33   0.0000       0.157253         4.2791
  34   0.0000       0.165103         4.4927

MULLIKEN ATOMIC CHARGES
-----------------------
   0 N :   -0.054274
   1 C :   -0.156284
   2 C :   -0.066380
   3 N :   -0.308922
   4 C :   -0.117980
   5 C :   -0.009535
   6 O :   -0.321295
   7 C :    0.006606
   8 H :    0.154193
   9 H :    0.147420
  10 H :    0.216074
  11 H :    0.113076
  12 H :    0.105369
  13 H :    0.085216
  14 H :    0.096398
  15 H :    0.110319
Sum of atomic charges:    0.0000000

LOEWDIN ATOMIC CHARGES
----------------------
   0 N :    0.067049
   1 C :   -0.187903
   2 C :   -0.288018
   3 N :    0.012961
   4 C :   -0.301142
   5 C :   -0.267226
   6 O :    0.112889
   7 C :   -0.250844
   8 H :    0.159438
   9 H :    0.144712
  10 H :    0.179631
  11 H :    0.145378
  12 H :    0.116610
  13 H :    0.115553
  14 H :    0.120560
  15 H :    0.120353

  Mayer bond orders larger than 0.1
B(  0-N ,  1-C ) :   2.8620 B(  1-C ,  2-C ) :   0.9268 B(  2-C ,  3-N ) :   0.9758
B(  2-C ,  8-H ) :   0.8973 B(  2-C ,  9-H ) :   0.9107 B(  3-N ,  4-C ) :   0.9833
B(  3-N , 10-H ) :   0.8674 B(  4-C ,  5-C ) :   0.9574 B(  4-C ,  7-C ) :   0.9727
B(  4-C , 11-H ) :   0.9207 B(  5-C ,  6-O ) :   0.9630 B(  5-C , 12-H ) :   0.9121
B(  5-C , 13-H ) :   0.8930 B(  6-O ,  7-C ) :   0.9538 B(  7-C , 14-H ) :   0.9025
B(  7-C , 15-H ) :   0.9213

MP2 TOTAL ENERGY:     -379.253839997 Eh
FINAL SINGLE POINT ENERGY      -379.253839997321

DIPOLE MOMENT
-------------
                                X             Y             Z
Electronic contribution:     -1.06552      -4.47675      -0.60685
Nuclear contribution   :      0.77898       5.53347       0.88825
                        -----------------------------------------
Total Dipole Moment    :     -0.28654       1.05671       0.28140
                        -----------------------------------------
Magnitude (a.u.)       :      1.13046
Magnitude (Debye)      :      2.87340

                             ****ORCA TERMINATED NORMALLY****
TOTAL RUN TIME: 0 days 0 hours 10 minutes 57 seconds 0 msec
