                         Program Version 3.0.3 - RELEASE   -
|  1> ! RI-MP2 RIJK def2-TZVP def2-TZVP/C def2-TZVP/JK TIGHTSCF
|  2> % maxcore 2000
|  3> % mp2 density relaxed end
|  4> *xyz 0 1
|  5>  C       -0.8221950667     1.7390806388     0.6217348206
|  6>  C       -0.3962381380     0.2997561913     0.3182781368
|  7>  O        0.5398500597    -0.1603174808     1.2946875358
|  8>  C       -1.6149862889    -0.6230212129     0.1611020068
|  9>  C       -1.3842185505    -2.1019594056    -0.2517469980
| 10>  C       -0.7752658243    -2.9227791799     0.9017423198
| 11>  C       -2.7593563641    -2.7014693486    -0.6066770268
| 12>  C       -0.4669118232    -2.1938281086    -1.4849072535
| 13>  H        0.0596664425     2.3716013566     0.7543520104
| 14>  H       -1.4315687234     2.1551918687    -0.1870030231
| 15>  H       -1.4168893813     1.7835783732     1.5430300120
| 16>  H        0.1765919204     0.2996119134    -0.6157847925
| 17>  H        0.0843403879    -0.1897719704     2.1437000447
| 18>  H       -2.1861788528    -0.6056811599     1.1024377112
| 19>  H       -2.2692787231    -0.1582958588    -0.5891800942
| 20>  H       -1.4228048090    -2.8934386717     1.7865035019
| 21>  H       -0.6688845318    -3.9734575323     0.6088473818
| 22>  H        0.2063727034    -2.5399611959     1.1849470987
| 23>  H       -3.2123200098    -2.1858784821    -1.4610626974
| 24>  H       -2.6679039097    -3.7619525168    -0.8660594446
| 25>  H       -3.4549398672    -2.6244977402     0.2368510665
| 26>  H        0.5512928242    -1.8649874980    -1.2572780171
| 27>  H       -0.4059318796    -3.2285919705    -1.8394109806
| 28>  H       -0.8455235748    -1.5827067690    -2.3126150691
| 29> *
| 30>
| 31>                          ****END OF INPUT****

CARTESIAN COORDINATES (ANGSTROEM)
---------------------------------
  C     -0.822195    1.739081    0.621735
  C     -0.396238    0.299756    0.318278
  O      0.539850   -0.160317    1.294688
  C     -1.614986   -0.623021    0.161102
  C     -1.384219   -2.101959   -0.251747
  C     -0.775266   -2.922779    0.901742
  C     -2.759356   -2.701469   -0.606677
  C     -0.466912   -2.193828   -1.484907
  H      0.059666    2.371601    0.754352
  H     -1.431569    2.155192   -0.187003
  H     -1.416889    1.783578    1.543030
  H      0.176592    0.299612   -0.615785
  H      0.084340   -0.189772    2.143700
  H     -2.186179   -0.605681    1.102438
  H     -2.269279   -0.158296   -0.589180
  H     -1.422805   -2.893439    1.786504
  H     -0.668885   -3.973458    0.608847
  H      0.206373   -2.539961    1.184947
  H     -3.212320   -2.185878   -1.461063
  H     -2.667904   -3.761953   -0.866059
  H     -3.454940   -2.624498    0.236851
  H      0.551293   -1.864987   -1.257278
  H     -0.405932   -3.228592   -1.839411
  H     -0.845524   -1.582707   -2.312615

 Total Charge           Charge          ....    0
 Multiplicity           Mult            ....    1
 Number of Electrons    NEL             ....   66
 Basis Dimension        Dim             ....  344

ORBITAL ENERGIES
----------------

  NO   OCC          E(Eh)            E(eV)
   0   2.0000     -20.549503      -559.1804
   1   2.0000     -11.276695      -306.8545
   2   2.0000     -11.232864      -305.6618
   3   2.0000     -11.218980      -305.2840
   4   2.0000     -11.215597      -305.1919
   5   2.0000     -11.208661      -305.0032
   6   2.0000     -11.206972      -304.9572
   7   2.0000     -11.201375      -304.8049
   8   2.0000      -1.355713       -36.8908
   9   2.0000      -1.103985       -30.0410
  10   2.0000      -1.026211       -27.9246
  11   2.0000      -0.927775       -25.2461
  12   2.0000      -0.925520       -25.1847
  13   2.0000      -0.922843       -25.1118
  14   2.0000      -0.818424       -22.2704
  15   2.0000      -0.735439       -20.0123
  16   2.0000      -0.655605       -17.8399
  17   2.0000      -0.643617       -17.5137
  18   2.0000      -0.619097       -16.8465
  19   2.0000      -0.602639       -16.3987
  20   2.0000      -0.596614       -16.2347
  21   2.0000      -0.571456       -15.5501
  22   2.0000      -0.550331       -14.9753
  23   2.0000      -0.543025       -14.7765
  24   2.0000      -0.529994       -14.4219
  25   2.0000      -0.517716       -14.0878
  26   2.0000      -0.508681       -13.8419
  27   2.0000      -0.502522       -13.6743
  28   2.0000      -0.477129       -12.9834
  29   2.0000      -0.470424       -12.8009
  30   2.0000      -0.450663       -12.2632
  31   2.0000      -0.443325       -12.0635
  32   2.0000      -0.416408       -11.3310
  33   0.0000       0.123796         3.3687
  34   0.0000       0.152676         4.1545
  35   0.0000       0.163625         4.4525
  36   0.0000       0.178585         4.8596
  37   0.0000       0.189565         5.1583

MULLIKEN ATOMIC CHARGES
-----------------------
   0 C :   -0.386176
   1 C :    0.093287
   2 O :   -0.474633
   3 C :   -0.340138
   4 C :    0.207092
   5 C :   -0.466759
   6 C :   -0.403006
   7 C :   -0.454232
   8 H :    0.147125
   9 H :    0.124798
  10 H :    0.113279
  11 H :    0.099710
  12 H :    0.311912
  13 H :    0.114843
  14 H :    0.117352
  15 H :    0.118906
  16 H :    0.123601
  17 H :    0.162463
  18 H :    0.125611
  19 H :    0.129806
  20 H :    0.126934
  21 H :    0.149998
  22 H :    0.131031
  23 H :    0.127197
Sum of atomic charges:    0.0000000

LOEWDIN ATOMIC CHARGES
----------------------
   0 C :   -0.305170
   1 C :   -0.370831
   2 O :   -0.023504
   3 C :   -0.222020
   4 C :   -0.346030
   5 C :   -0.280695
   6 C :   -0.276204
   7 C :   -0.274090
   8 H :    0.125652
   9 H :    0.124616
  10 H :    0.120029
  11 H :    0.144998
  12 H :    0.172466
  13 H :    0.141551
  14 H :    0.149944
  15 H :    0.121163
  16 H :    0.123367
  17 H :    0.126901
  18 H :    0.122505
  19 H :    0.124085
  20 H :    0.123847
  21 H :    0.127516
  22 H :    0.125911
  23 H :    0.123995

  Mayer bond orders larger than 0.1
B(  0-C ,  1-C ) :   0.9360 B(  0-C ,  8-H ) :   0.9451 B(  0-C ,  9-H ) :   0.9351
B(  0-C , 10-H ) :   0.9235 B(  1-C ,  2-O ) :   0.8932 B(  1-C ,  3-C ) :   0.9374
B(  1-C , 11-H ) :   0.9278 B(  2-O , 12-H ) :   0.8422 B(  3-C ,  4-C ) :   0.8750
B(  3-C , 13-H ) :   0.9246 B(  3-C , 14-H ) :   0.9235 B(  4-C ,  5-C ) :   0.8915
B(  4-C ,  6-C ) :   0.9102 B(  4-C ,  7-C ) :   0.8885 B(  5-C , 15-H ) :   0.9373
B(  5-C , 16-H ) :   0.9335 B(  5-C , 17-H ) :   0.9334 B(  6-C , 18-H ) :   0.9341
B(  6-C , 19-H ) :   0.9386 B(  6-C , 20-H ) :   0.9356 B(  7-C , 21-H ) :   0.9389
B(  7-C , 22-H ) :   0.9334 B(  7-C , 23-H ) :   0.9353

MP2 TOTAL ENERGY:     -350.820656672 Eh
FINAL SINGLE POINT ENERGY      -350.820656671568

DIPOLE MOMENT
-------------
                                X             Y             Z
Electronic contribution:      3.07544       1.99321       2.01026
Nuclear contribution   :     -3.61524      -1.81140      -1.94279
                        -----------------------------------------
Total Dipole Moment    :     -0.53979       0.18181       0.06746
                        -----------------------------------------
Magnitude (a.u.)       :      0.57357
Magnitude (Debye)      :      1.45791

                             ****ORCA TERMINATED NORMALLY****
TOTAL RUN TIME: 0 days 0 hours 16 minutes 35 seconds 43 msec
