                         Program Version 3.0.3 - RELEASE   -
|  1> ! RI-MP2 RIJK def2-TZVP def2-TZVP/C def2-TZVP/JK TIGHTSCF
|  2> % maxcore 2000
|  3> % mp2 density relaxed end
|  4> *xyz 0 1
|  5>  C        0.1706244157     1.4346380707    -0.5531275166
|  6>  C       -0.0945514695     0.0454807841    -0.0184996375
|  7>  C       -1.5618720236    -0.3251664134     0.2092918162
|  8>  C       -2.1314172322     0.4665968570     1.3745498685
|  9>  O       -2.5771318670     1.5891334637     1.2493922421
| 10>  C       -2.0820266569    -0.1733700864     2.7491876194
| 11>  O       -2.5669063743     0.6846736228     3.7366358054
| 12>  C        0.8809496151    -1.0326859408    -0.2385362674
| 13>  O        0.7787017223    -0.3906169743     1.0362659887
| 14>  H       -0.3097757677     2.1925155171     0.0714124849
| 15>  H        1.2452791046     1.6286443833    -0.5791145068
| 16>  H       -0.2306040569     1.5372084076    -1.5669684624
| 17>  H       -2.1435140189    -0.0906004839    -0.6871861789
| 18>  H       -1.6371272761    -1.3970830606     0.4139086568
| 19>  H       -2.6650900280    -1.1102772492     2.7065520789
| 20>  H       -1.0363683597    -0.4705602255     2.9341693447
| 21>  H       -2.8330720675     1.4888474126     3.2628947977
| 22>  H        0.5487906466    -2.0695870743    -0.2698325404
| 23>  H        1.7959736841    -0.8236436205    -0.7910325835
| 24> *
| 25>
| 26>                          ****END OF INPUT****

CARTESIAN COORDINATES (ANGSTROEM)
---------------------------------
  C      0.170624    1.434638   -0.553128
  C     -0.094551    0.045481   -0.018500
  C     -1.561872   -0.325166    0.209292
  C     -2.131417    0.466597    1.374550
  O     -2.577132    1.589133    1.249392
  C     -2.082027   -0.173370    2.749188
  O     -2.566906    0.684674    3.736636
  C      0.880950   -1.032686   -0.238536
  O      0.778702   -0.390617    1.036266
  H     -0.309776    2.192516    0.071412
  H      1.245279    1.628644   -0.579115
  H     -0.230604    1.537208   -1.566968
  H     -2.143514   -0.090600   -0.687186
  H     -1.637127   -1.397083    0.413909
  H     -2.665090   -1.110277    2.706552
  H     -1.036368   -0.470560    2.934169
  H     -2.833072    1.488847    3.262895
  H      0.548791   -2.069587   -0.269833
  H      1.795974   -0.823644   -0.791033

 Total Charge           Charge          ....    0
 Multiplicity           Mult            ....    1
 Number of Electrons    NEL             ....   70
 Basis Dimension        Dim             ....  339

ORBITAL ENERGIES
----------------

  NO   OCC          E(Eh)            E(eV)
   0   2.0000     -20.581558      -560.0527
   1   2.0000     -20.565292      -559.6100
   2   2.0000     -20.552424      -559.2599
   3   2.0000     -11.346217      -308.7463
   4   2.0000     -11.316374      -307.9342
   5   2.0000     -11.297092      -307.4095
   6   2.0000     -11.288122      -307.1654
   7   2.0000     -11.260081      -306.4024
   8   2.0000     -11.231945      -305.6368
   9   2.0000      -1.427609       -38.8472
  10   2.0000      -1.415472       -38.5170
  11   2.0000      -1.358036       -36.9540
  12   2.0000      -1.080468       -29.4010
  13   2.0000      -1.008463       -27.4417
  14   2.0000      -0.951601       -25.8944
  15   2.0000      -0.923511       -25.1300
  16   2.0000      -0.806222       -21.9384
  17   2.0000      -0.766409       -20.8551
  18   2.0000      -0.717500       -19.5242
  19   2.0000      -0.692116       -18.8334
  20   2.0000      -0.669710       -18.2237
  21   2.0000      -0.662713       -18.0333
  22   2.0000      -0.639358       -17.3978
  23   2.0000      -0.614293       -16.7158
  24   2.0000      -0.597096       -16.2478
  25   2.0000      -0.577733       -15.7209
  26   2.0000      -0.568722       -15.4757
  27   2.0000      -0.542210       -14.7543
  28   2.0000      -0.536851       -14.6085
  29   2.0000      -0.522835       -14.2271
  30   2.0000      -0.511121       -13.9083
  31   2.0000      -0.464353       -12.6357
  32   2.0000      -0.459707       -12.5093
  33   2.0000      -0.448465       -12.2034
  34   2.0000      -0.418857       -11.3977
  35   0.0000       0.121254         3.2995
  36   0.0000       0.136749         3.7211
  37   0.0000       0.155779         4.2390
  38   0.0000       0.164384         4.4731
  39   0.0000       0.180423         4.9095

MULLIKEN ATOMIC CHARGES
-----------------------
   0 C :   -0.431650
   1 C :    0.142198
   2 C :   -0.172742
   3 C :    0.190562
   4 O :   -0.326970
   5 C :   -0.050897
   6 O :   -0.486696
   7 C :   -0.070298
   8 O :   -0.343261
   9 H :    0.164142
  10 H :    0.141795
  11 H :    0.134555
  12 H :    0.139481
  13 H :    0.137664
  14 H :    0.110830
  15 H :    0.149735
  16 H :    0.333967
  17 H :    0.115616
  18 H :    0.121968
Sum of atomic charges:    0.0000000

LOEWDIN ATOMIC CHARGES
----------------------
   0 C :   -0.260699
   1 C :   -0.343709
   2 C :   -0.186840
   3 C :   -0.321622
   4 O :    0.139269
   5 C :   -0.338858
   6 O :   -0.033020
   7 C :   -0.241940
   8 O :    0.160882
   9 H :    0.136528
  10 H :    0.133973
  11 H :    0.133549
  12 H :    0.159733
  13 H :    0.155581
  14 H :    0.136492
  15 H :    0.144363
  16 H :    0.181694
  17 H :    0.120936
  18 H :    0.123688

  Mayer bond orders larger than 0.1
B(  0-C ,  1-C ) :   0.9270 B(  0-C ,  9-H ) :   0.9263 B(  0-C , 10-H ) :   0.9337
B(  0-C , 11-H ) :   0.9328 B(  1-C ,  2-C ) :   0.8921 B(  1-C ,  7-C ) :   0.9751
B(  1-C ,  8-O ) :   0.8283 B(  2-C ,  3-C ) :   0.8771 B(  2-C , 12-H ) :   0.9125
B(  2-C , 13-H ) :   0.9240 B(  3-C ,  4-O ) :   1.8921 B(  3-C ,  5-C ) :   0.9593
B(  5-C ,  6-O ) :   1.0032 B(  5-C , 14-H ) :   0.8923 B(  5-C , 15-H ) :   0.9089
B(  6-O , 16-H ) :   0.8069 B(  7-C ,  8-O ) :   0.9028 B(  7-C , 17-H ) :   0.8998
B(  7-C , 18-H ) :   0.9178

MP2 TOTAL ENERGY:     -459.423734051 Eh
FINAL SINGLE POINT ENERGY      -459.423734051320

DIPOLE MOMENT
-------------
                                X             Y             Z
Electronic contribution:     -2.57469       0.98059       3.77657
Nuclear contribution   :      2.89972      -1.74976      -5.20029
                        -----------------------------------------
Total Dipole Moment    :      0.32503      -0.76917      -1.42372
                        -----------------------------------------
Magnitude (a.u.)       :      1.65053
Magnitude (Debye)      :      4.19531

                             ****ORCA TERMINATED NORMALLY****
TOTAL RUN TIME: 0 days 0 hours 17 minutes 25 seconds 999 msec
