                         Program Version 3.0.3 - RELEASE   -
|  1> ! RI-MP2 RIJK def2-TZVP def2-TZVP/C def2-TZVP/JK TIGHTSCF
|  2> % maxcore 2000
|  3> % mp2 density relaxed end
|  4> *xyz 0 1
|  5>  N        0.0320257870     1.3756273629    -0.6473389055
|  6>  C        0.0336359899     0.0406978178    -0.1438571929
|  7>  C        0.5901285915    -1.0193355262    -1.1413847514
|  8>  C       -0.8069245615    -1.7035429011    -1.2339545217
|  9>  C       -1.2864057138    -0.8442592810    -0.0427815618
| 10>  N       -0.7737004425    -1.3634749557     1.2581532104
| 11>  C        0.2605048282    -0.2994871544     1.3502542089
| 12>  C       -2.6175656810    -0.2853742753    -0.0253113104
| 13>  N       -3.6785857767     0.1762429147     0.0137483168
| 14>  H       -0.2729566822     2.0488695468     0.0478798851
| 15>  H        0.9535429493     1.6496942833    -0.9719439777
| 16>  H        0.9421099331    -0.5857723329    -2.0791370694
| 17>  H        1.3762185304    -1.6467177033    -0.7172586273
| 18>  H       -1.3300641193    -1.4495140501    -2.1582582857
| 19>  H       -0.8513089469    -2.7799702775    -1.0638242284
| 20>  H       -1.4608023477    -1.3602405537     2.0026009752
| 21>  H        1.2517564807    -0.6595461868     1.6496312734
| 22>  H       -0.0213413086     0.5458542925     1.9949326926
| 23> *
| 24>
| 25>                          ****END OF INPUT****

CARTESIAN COORDINATES (ANGSTROEM)
---------------------------------
  N      0.032026    1.375627   -0.647339
  C      0.033636    0.040698   -0.143857
  C      0.590129   -1.019336   -1.141385
  C     -0.806925   -1.703543   -1.233955
  C     -1.286406   -0.844259   -0.042782
  N     -0.773700   -1.363475    1.258153
  C      0.260505   -0.299487    1.350254
  C     -2.617566   -0.285374   -0.025311
  N     -3.678586    0.176243    0.013748
  H     -0.272957    2.048870    0.047880
  H      0.953543    1.649694   -0.971944
  H      0.942110   -0.585772   -2.079137
  H      1.376219   -1.646718   -0.717259
  H     -1.330064   -1.449514   -2.158258
  H     -0.851309   -2.779970   -1.063824
  H     -1.460802   -1.360241    2.002601
  H      1.251756   -0.659546    1.649631
  H     -0.021341    0.545854    1.994933

 Total Charge           Charge          ....    0
 Multiplicity           Mult            ....    1
 Number of Electrons    NEL             ....   66
 Basis Dimension        Dim             ....  333

ORBITAL ENERGIES
----------------

  NO   OCC          E(Eh)            E(eV)
   0   2.0000     -15.570268      -423.6885
   1   2.0000     -15.567321      -423.6083
   2   2.0000     -15.563394      -423.5015
   3   2.0000     -11.300936      -307.5141
   4   2.0000     -11.291175      -307.2485
   5   2.0000     -11.269737      -306.6651
   6   2.0000     -11.269167      -306.6496
   7   2.0000     -11.242140      -305.9142
   8   2.0000     -11.240611      -305.8726
   9   2.0000      -1.281557       -34.8729
  10   2.0000      -1.212633       -32.9974
  11   2.0000      -1.192659       -32.4539
  12   2.0000      -1.085956       -29.5504
  13   2.0000      -0.975936       -26.5566
  14   2.0000      -0.919296       -25.0153
  15   2.0000      -0.859973       -23.4011
  16   2.0000      -0.788898       -21.4670
  17   2.0000      -0.728419       -19.8213
  18   2.0000      -0.685618       -18.6566
  19   2.0000      -0.653308       -17.7774
  20   2.0000      -0.636602       -17.3228
  21   2.0000      -0.612478       -16.6664
  22   2.0000      -0.588959       -16.0264
  23   2.0000      -0.571865       -15.5612
  24   2.0000      -0.557818       -15.1790
  25   2.0000      -0.532935       -14.5019
  26   2.0000      -0.501554       -13.6480
  27   2.0000      -0.491337       -13.3700
  28   2.0000      -0.480414       -13.0727
  29   2.0000      -0.454256       -12.3609
  30   2.0000      -0.441018       -12.0007
  31   2.0000      -0.404790       -11.0149
  32   2.0000      -0.375986       -10.2311
  33   0.0000       0.120514         3.2793
  34   0.0000       0.129997         3.5374
  35   0.0000       0.154020         4.1911
  36   0.0000       0.165418         4.5013
  37   0.0000       0.168109         4.5745

MULLIKEN ATOMIC CHARGES
-----------------------
   0 N :   -0.534663
   1 C :    0.135353
   2 C :   -0.270551
   3 C :   -0.202841
   4 C :    0.241625
   5 N :   -0.338948
   6 C :   -0.160359
   7 C :   -0.256891
   8 N :   -0.041550
   9 H :    0.239875
  10 H :    0.244447
  11 H :    0.124018
  12 H :    0.125817
  13 H :    0.134261
  14 H :    0.119919
  15 H :    0.221311
  16 H :    0.111095
  17 H :    0.108080
Sum of atomic charges:    0.0000000

LOEWDIN ATOMIC CHARGES
----------------------
   0 N :   -0.103715
   1 C :   -0.282038
   2 C :   -0.186077
   3 C :   -0.175449
   4 C :   -0.246173
   5 N :    0.037455
   6 C :   -0.238753
   7 C :   -0.159628
   8 N :    0.068756
   9 H :    0.161774
  10 H :    0.164960
  11 H :    0.134523
  12 H :    0.137680
  13 H :    0.143996
  14 H :    0.134807
  15 H :    0.164908
  16 H :    0.121135
  17 H :    0.121840

  Mayer bond orders larger than 0.1
B(  0-N ,  1-C ) :   1.0660 B(  0-N ,  9-H ) :   0.8772 B(  0-N , 10-H ) :   0.8716
B(  1-C ,  2-C ) :   0.9253 B(  1-C ,  4-C ) :   0.8052 B(  1-C ,  6-C ) :   1.0082
B(  2-C ,  3-C ) :   0.9919 B(  2-C , 11-H ) :   0.9232 B(  2-C , 12-H ) :   0.9005
B(  3-C ,  4-C ) :   0.8966 B(  3-C , 13-H ) :   0.9110 B(  3-C , 14-H ) :   0.9122
B(  4-C ,  5-N ) :   1.1365 B(  4-C ,  7-C ) :   0.8960 B(  5-N ,  6-C ) :   0.9670
B(  5-N , 15-H ) :   0.8779 B(  6-C , 16-H ) :   0.9131 B(  6-C , 17-H ) :   0.9126
B(  7-C ,  8-N ) :   2.8802

MP2 TOTAL ENERGY:     -397.413401306 Eh
FINAL SINGLE POINT ENERGY      -397.413401305916

DIPOLE MOMENT
-------------
                                X             Y             Z
Electronic contribution:     -6.22771       0.55948       0.97008
Nuclear contribution   :      7.89615      -0.47011      -0.70246
                        -----------------------------------------
Total Dipole Moment    :      1.66844       0.08937       0.26762
                        -----------------------------------------
Magnitude (a.u.)       :      1.69213
Magnitude (Debye)      :      4.30105

                             ****ORCA TERMINATED NORMALLY****
TOTAL RUN TIME: 0 days 0 hours 19 minutes 2 seconds 885 msec
