                         Program Version 3.0.3 - RELEASE   -
|  1> ! RI-MP2 RIJK def2-TZVP def2-TZVP/C def2-TZVP/JK TIGHTSCF
|  2> % maxcore 2000
|  3> % mp2 density relaxed end
|  4> *xyz 0 1
|  5>  C       -0.0638608608     1.5356010332     0.0073589228
|  6>  C       -0.0241045053     0.0064216416     0.0326354106
|  7>  C        0.8090892619    -0.5411944323     1.2082747389
|  8>  C        0.8062475754    -2.0425590709     1.2444593216
|  9>  N       -0.3009597004    -2.6538596415     1.7039917061
| 10>  C       -0.2619721248    -3.9762592679     1.6940587006
| 11>  C        0.8655170553    -4.6529320639     1.2289441036
| 12>  N        1.9298078733    -3.9943212843     0.7816468126
| 13>  N        1.9022342193    -2.6652113265     0.7893101011
| 14>  H        0.9431498359     1.9572340200    -0.0829658295
| 15>  H       -0.6553251300     1.9005176227    -0.8378586620
| 16>  H       -0.5099078265     1.9353716582     0.9246859655
| 17>  H       -1.0414090929    -0.3952683949     0.1057753461
| 18>  H        0.3966066392    -0.3718748505    -0.9068895597
| 19>  H        1.8436475581    -0.1973532785     1.1271886521
| 20>  H        0.3902479624    -0.1691708299     2.1498054529
| 21>  H       -1.1357107594    -4.5109848006     2.0609258655
| 22>  H        0.9253376093    -5.7363748140     1.2113504212
| 23> *
| 24>
| 25>                          ****END OF INPUT****

CARTESIAN COORDINATES (ANGSTROEM)
---------------------------------
  C     -0.063861    1.535601    0.007359
  C     -0.024105    0.006422    0.032635
  C      0.809089   -0.541194    1.208275
  C      0.806248   -2.042559    1.244459
  N     -0.300960   -2.653860    1.703992
  C     -0.261972   -3.976259    1.694059
  C      0.865517   -4.652932    1.228944
  N      1.929808   -3.994321    0.781647
  N      1.902234   -2.665211    0.789310
  H      0.943150    1.957234   -0.082966
  H     -0.655325    1.900518   -0.837859
  H     -0.509908    1.935372    0.924686
  H     -1.041409   -0.395268    0.105775
  H      0.396607   -0.371875   -0.906890
  H      1.843648   -0.197353    1.127189
  H      0.390248   -0.169171    2.149805
  H     -1.135711   -4.510985    2.060926
  H      0.925338   -5.736375    1.211350

 Total Charge           Charge          ....    0
 Multiplicity           Mult            ....    1
 Number of Electrons    NEL             ....   66
 Basis Dimension        Dim             ....  333

ORBITAL ENERGIES
----------------

  NO   OCC          E(Eh)            E(eV)
   0   2.0000     -15.634460      -425.4353
   1   2.0000     -15.609363      -424.7524
   2   2.0000     -15.595681      -424.3800
   3   2.0000     -11.322024      -308.0879
   4   2.0000     -11.310918      -307.7857
   5   2.0000     -11.285141      -307.0843
   6   2.0000     -11.233201      -305.6709
   7   2.0000     -11.228796      -305.5511
   8   2.0000     -11.217559      -305.2453
   9   2.0000      -1.375487       -37.4289
  10   2.0000      -1.251938       -34.0670
  11   2.0000      -1.140784       -31.0423
  12   2.0000      -1.062500       -28.9121
  13   2.0000      -0.967205       -26.3190
  14   2.0000      -0.944386       -25.6980
  15   2.0000      -0.878531       -23.9060
  16   2.0000      -0.811604       -22.0849
  17   2.0000      -0.744566       -20.2607
  18   2.0000      -0.715517       -19.4702
  19   2.0000      -0.660086       -17.9619
  20   2.0000      -0.633713       -17.2442
  21   2.0000      -0.612281       -16.6610
  22   2.0000      -0.603749       -16.4288
  23   2.0000      -0.562989       -15.3197
  24   2.0000      -0.543174       -14.7805
  25   2.0000      -0.523388       -14.2421
  26   2.0000      -0.510232       -13.8841
  27   2.0000      -0.489320       -13.3151
  28   2.0000      -0.482661       -13.1339
  29   2.0000      -0.474179       -12.9031
  30   2.0000      -0.452450       -12.3118
  31   2.0000      -0.400959       -10.9106
  32   2.0000      -0.383723       -10.4416
  33   0.0000       0.064858         1.7649
  34   0.0000       0.104807         2.8519
  35   0.0000       0.141636         3.8541
  36   0.0000       0.158182         4.3043
  37   0.0000       0.177732         4.8363

MULLIKEN ATOMIC CHARGES
-----------------------
   0 C :   -0.386829
   1 C :   -0.233725
   2 C :   -0.188631
   3 C :    0.176032
   4 N :   -0.242383
   5 C :   -0.018015
   6 C :   -0.032317
   7 N :   -0.153693
   8 N :   -0.106578
   9 H :    0.126694
  10 H :    0.135303
  11 H :    0.124759
  12 H :    0.123254
  13 H :    0.122453
  14 H :    0.134831
  15 H :    0.122656
  16 H :    0.145286
  17 H :    0.150901
Sum of atomic charges:   -0.0000000

LOEWDIN ATOMIC CHARGES
----------------------
   0 C :   -0.318694
   1 C :   -0.284268
   2 C :   -0.227568
   3 C :   -0.303748
   4 N :    0.174961
   5 C :   -0.202573
   6 C :   -0.220256
   7 N :    0.063418
   8 N :    0.086679
   9 H :    0.121921
  10 H :    0.122311
  11 H :    0.121280
  12 H :    0.138184
  13 H :    0.138333
  14 H :    0.149941
  15 H :    0.149547
  16 H :    0.144109
  17 H :    0.146422

  Mayer bond orders larger than 0.1
B(  0-C ,  1-C ) :   0.9161 B(  0-C ,  9-H ) :   0.9383 B(  0-C , 10-H ) :   0.9409
B(  0-C , 11-H ) :   0.9394 B(  1-C ,  2-C ) :   0.9167 B(  1-C , 12-H ) :   0.9334
B(  1-C , 13-H ) :   0.9310 B(  2-C ,  3-C ) :   0.9234 B(  2-C , 14-H ) :   0.9251
B(  2-C , 15-H ) :   0.9205 B(  3-C ,  4-N ) :   1.3118 B(  3-C ,  8-N ) :   1.5019
B(  4-N ,  5-C ) :   1.4339 B(  5-C ,  6-C ) :   1.2780 B(  5-C , 16-H ) :   0.9259
B(  6-C ,  7-N ) :   1.4656 B(  6-C , 17-H ) :   0.9240 B(  7-N ,  8-N ) :   1.0906

MP2 TOTAL ENERGY:     -397.445421649 Eh
FINAL SINGLE POINT ENERGY      -397.445421648963

DIPOLE MOMENT
-------------
                                X             Y             Z
Electronic contribution:      3.25220     -12.24467       2.87885
Nuclear contribution   :     -4.13119      12.03348      -2.60326
                        -----------------------------------------
Total Dipole Moment    :     -0.87899      -0.21120       0.27559
                        -----------------------------------------
Magnitude (a.u.)       :      0.94508
Magnitude (Debye)      :      2.40220

                             ****ORCA TERMINATED NORMALLY****
TOTAL RUN TIME: 0 days 0 hours 17 minutes 7 seconds 424 msec
