                         Program Version 3.0.3 - RELEASE   -
|  1> ! RI-MP2 RIJK def2-TZVP def2-TZVP/C def2-TZVP/JK TIGHTSCF
|  2> % maxcore 2000
|  3> % mp2 density relaxed end
|  4> *xyz 0 1
|  5>  C       -0.0977881421     1.4621274027     0.0485722088
|  6>  C        0.1042082006    -0.0179036514    -0.0382148248
|  7>  C        0.1007842319    -0.8725462264    -1.2966506381
|  8>  C       -0.2196595668    -2.0310656562    -0.3257856560
|  9>  C        1.0438406146    -2.2155913788     0.5473808164
| 10>  C        0.6849732686    -0.8388513228     1.0705385526
| 11>  N       -0.7765059906    -0.9897760545     0.7133879751
| 12>  C       -1.0202661021    -3.1557974975    -0.7359859322
| 13>  N       -1.6495803197    -4.0644604204    -1.0754893855
| 14>  H        0.7908596531     1.9973539945    -0.3039438498
| 15>  H       -0.9510993713     1.7769274915    -0.5603351768
| 16>  H       -0.2896606611     1.7659235411     1.0819559299
| 17>  H       -0.7604553381    -0.6353197475    -1.9255257187
| 18>  H        1.0046024409    -0.9555791102    -1.9078094631
| 19>  H        0.8866055881    -2.9819176557     1.3089852595
| 20>  H        1.9967180311    -2.3776062322     0.0351982150
| 21>  H        0.9764114329    -0.3976631461     2.0164251076
| 22> *
| 23>
| 24>                          ****END OF INPUT****

CARTESIAN COORDINATES (ANGSTROEM)
---------------------------------
  C     -0.097788    1.462127    0.048572
  C      0.104208   -0.017904   -0.038215
  C      0.100784   -0.872546   -1.296651
  C     -0.219660   -2.031066   -0.325786
  C      1.043841   -2.215591    0.547381
  C      0.684973   -0.838851    1.070539
  N     -0.776506   -0.989776    0.713388
  C     -1.020266   -3.155797   -0.735986
  N     -1.649580   -4.064460   -1.075489
  H      0.790860    1.997354   -0.303944
  H     -0.951099    1.776927   -0.560335
  H     -0.289661    1.765924    1.081956
  H     -0.760455   -0.635320   -1.925526
  H      1.004602   -0.955579   -1.907809
  H      0.886606   -2.981918    1.308985
  H      1.996718   -2.377606    0.035198
  H      0.976411   -0.397663    2.016425

 Total Charge           Charge          ....    0
 Multiplicity           Mult            ....    1
 Number of Electrons    NEL             ....   64
 Basis Dimension        Dim             ....  327

ORBITAL ENERGIES
----------------

  NO   OCC          E(Eh)            E(eV)
   0   2.0000     -15.587900      -424.1683
   1   2.0000     -15.576817      -423.8668
   2   2.0000     -11.322351      -308.0968
   3   2.0000     -11.292412      -307.2821
   4   2.0000     -11.285021      -307.0810
   5   2.0000     -11.275193      -306.8136
   6   2.0000     -11.262994      -306.4816
   7   2.0000     -11.261575      -306.4430
   8   2.0000     -11.240359      -305.8657
   9   2.0000      -1.344037       -36.5731
  10   2.0000      -1.220628       -33.2150
  11   2.0000      -1.059272       -28.8243
  12   2.0000      -1.032135       -28.0858
  13   2.0000      -0.986611       -26.8470
  14   2.0000      -0.930225       -25.3127
  15   2.0000      -0.813063       -22.1246
  16   2.0000      -0.755294       -20.5526
  17   2.0000      -0.727512       -19.7966
  18   2.0000      -0.656642       -17.8681
  19   2.0000      -0.644032       -17.5250
  20   2.0000      -0.596609       -16.2346
  21   2.0000      -0.586305       -15.9542
  22   2.0000      -0.582452       -15.8493
  23   2.0000      -0.560217       -15.2443
  24   2.0000      -0.558448       -15.1962
  25   2.0000      -0.541705       -14.7406
  26   2.0000      -0.518790       -14.1170
  27   2.0000      -0.488609       -13.2957
  28   2.0000      -0.454386       -12.3645
  29   2.0000      -0.438201       -11.9241
  30   2.0000      -0.423649       -11.5281
  31   2.0000      -0.398944       -10.8558
  32   0.0000       0.125566         3.4168
  33   0.0000       0.134208         3.6520
  34   0.0000       0.152540         4.1508
  35   0.0000       0.154254         4.1975
  36   0.0000       0.164891         4.4869

MULLIKEN ATOMIC CHARGES
-----------------------
   0 C :   -0.424082
   1 C :    0.053217
   2 C :   -0.130524
   3 C :    0.149304
   4 C :   -0.169891
   5 C :   -0.138903
   6 N :   -0.195943
   7 C :   -0.210169
   8 N :   -0.037356
   9 H :    0.140837
  10 H :    0.141688
  11 H :    0.146430
  12 H :    0.132968
  13 H :    0.128901
  14 H :    0.139729
  15 H :    0.127965
  16 H :    0.145828
Sum of atomic charges:    0.0000000

LOEWDIN ATOMIC CHARGES
----------------------
   0 C :   -0.264823
   1 C :   -0.266646
   2 C :   -0.141260
   3 C :   -0.223561
   4 C :   -0.164870
   5 C :   -0.184894
   6 N :    0.190098
   7 C :   -0.146323
   8 N :    0.082476
   9 H :    0.133687
  10 H :    0.133217
  11 H :    0.137548
  12 H :    0.152903
  13 H :    0.135690
  14 H :    0.151916
  15 H :    0.134738
  16 H :    0.140105

  Mayer bond orders larger than 0.1
B(  0-C ,  1-C ) :   0.8706 B(  0-C ,  9-H ) :   0.9378 B(  0-C , 10-H ) :   0.9377
B(  0-C , 11-H ) :   0.9361 B(  1-C ,  2-C ) :   0.9289 B(  1-C ,  5-C ) :   0.9123
B(  1-C ,  6-N ) :   0.8416 B(  2-C ,  3-C ) :   0.9268 B(  2-C , 12-H ) :   0.9075
B(  2-C , 13-H ) :   0.8970 B(  3-C ,  4-C ) :   0.9345 B(  3-C ,  6-N ) :   0.9564
B(  3-C ,  7-C ) :   0.8763 B(  4-C ,  5-C ) :   0.9567 B(  4-C , 14-H ) :   0.9181
B(  4-C , 15-H ) :   0.9012 B(  5-C ,  6-N ) :   0.9007 B(  5-C , 16-H ) :   0.9048
B(  7-C ,  8-N ) :   2.8717

MP2 TOTAL ENERGY:     -380.159831363 Eh
FINAL SINGLE POINT ENERGY      -380.159831362807

DIPOLE MOMENT
-------------
                                X             Y             Z
Electronic contribution:     -3.41144      -7.26035      -0.53677
Nuclear contribution   :      4.86222       8.58135       0.64069
                        -----------------------------------------
Total Dipole Moment    :      1.45079       1.32100       0.10393
                        -----------------------------------------
Magnitude (a.u.)       :      1.96485
Magnitude (Debye)      :      4.99425

                             ****ORCA TERMINATED NORMALLY****
TOTAL RUN TIME: 0 days 0 hours 18 minutes 22 seconds 408 msec
