                         Program Version 3.0.3 - RELEASE   -
|  1> ! RI-MP2 RIJK def2-TZVP def2-TZVP/C def2-TZVP/JK TIGHTSCF
|  2> % maxcore 2000
|  3> % mp2 density relaxed end
|  4> *xyz 0 1
|  5>  O       -0.2498098013     0.2266076872     0.5348970490
|  6>  C        0.0503977953     1.1156451563    -0.2154082265
|  7>  C        1.3480235907     1.8986116486    -0.1083040271
|  8>  O        1.3668835464     2.8585726206    -1.1427438607
|  9>  C        2.4980967873     3.6535519175    -1.1746135302
| 10>  C        3.9871335727     3.2753047957    -1.3964459432
| 11>  N        4.0167716375     4.8088549999    -1.3134843639
| 12>  C        2.7550087787     4.7640850236    -2.1965134663
| 13>  C        3.0508101784     4.6585177529    -0.1286491836
| 14>  H       -0.6003437805     1.4416179716    -1.0560749858
| 15>  H        1.3980981610     2.3651909420     0.8878363400
| 16>  H        2.1921338815     1.1954772750    -0.1832539638
| 17>  H        4.5346776083     2.7893040968    -0.5853548267
| 18>  H        4.2793488333     2.8863476357    -2.3747814101
| 19>  H        2.9569892908     4.4761264170    -3.2306946677
| 20>  H        2.1484534132     5.6705444499    -2.1359580204
| 21>  H        2.4691908814     5.5604953841     0.0762330791
| 22>  H        3.5316455254     4.2710248356     0.7727521379
| 23> *
| 24>
| 25>                          ****END OF INPUT****

CARTESIAN COORDINATES (ANGSTROEM)
---------------------------------
  O     -0.249810    0.226608    0.534897
  C      0.050398    1.115645   -0.215408
  C      1.348024    1.898612   -0.108304
  O      1.366884    2.858573   -1.142744
  C      2.498097    3.653552   -1.174614
  C      3.987134    3.275305   -1.396446
  N      4.016772    4.808855   -1.313484
  C      2.755009    4.764085   -2.196513
  C      3.050810    4.658518   -0.128649
  H     -0.600344    1.441618   -1.056075
  H      1.398098    2.365191    0.887836
  H      2.192134    1.195477   -0.183254
  H      4.534678    2.789304   -0.585355
  H      4.279349    2.886348   -2.374781
  H      2.956989    4.476126   -3.230695
  H      2.148453    5.670544   -2.135958
  H      2.469191    5.560495    0.076233
  H      3.531646    4.271025    0.772752

 Total Charge           Charge          ....    0
 Multiplicity           Mult            ....    1
 Number of Electrons    NEL             ....   68
 Basis Dimension        Dim             ....  333

ORBITAL ENERGIES
----------------

  NO   OCC          E(Eh)            E(eV)
   0   2.0000     -20.590722      -560.3020
   1   2.0000     -20.568005      -559.6839
   2   2.0000     -15.585043      -424.0906
   3   2.0000     -11.342718      -308.6510
   4   2.0000     -11.320174      -308.0376
   5   2.0000     -11.308459      -307.7188
   6   2.0000     -11.271915      -306.7244
   7   2.0000     -11.271906      -306.7242
   8   2.0000     -11.270053      -306.6737
   9   2.0000      -1.422540       -38.7093
  10   2.0000      -1.405526       -38.2463
  11   2.0000      -1.306863       -35.5615
  12   2.0000      -1.021329       -27.7918
  13   2.0000      -0.940756       -25.5993
  14   2.0000      -0.939852       -25.5747
  15   2.0000      -0.904696       -24.6180
  16   2.0000      -0.817740       -22.2518
  17   2.0000      -0.771700       -20.9990
  18   2.0000      -0.718458       -19.5502
  19   2.0000      -0.683382       -18.5958
  20   2.0000      -0.679517       -18.4906
  21   2.0000      -0.650237       -17.6938
  22   2.0000      -0.648708       -17.6523
  23   2.0000      -0.641315       -17.4511
  24   2.0000      -0.581986       -15.8366
  25   2.0000      -0.562911       -15.3176
  26   2.0000      -0.525926       -14.3112
  27   2.0000      -0.511223       -13.9111
  28   2.0000      -0.496307       -13.5052
  29   2.0000      -0.492419       -13.3994
  30   2.0000      -0.470506       -12.8031
  31   2.0000      -0.435376       -11.8472
  32   2.0000      -0.433783       -11.8038
  33   2.0000      -0.401907       -10.9365
  34   0.0000       0.118325         3.2198
  35   0.0000       0.127981         3.4825
  36   0.0000       0.154447         4.2027
  37   0.0000       0.164953         4.4886
  38   0.0000       0.170242         4.6325

MULLIKEN ATOMIC CHARGES
-----------------------
   0 O :   -0.261586
   1 C :    0.078070
   2 C :   -0.006281
   3 O :   -0.289364
   4 C :    0.071568
   5 C :   -0.185035
   6 N :   -0.195084
   7 C :   -0.130739
   8 C :   -0.185007
   9 H :    0.104159
  10 H :    0.128515
  11 H :    0.128465
  12 H :    0.126019
  13 H :    0.124157
  14 H :    0.120980
  15 H :    0.120983
  16 H :    0.124165
  17 H :    0.126015
Sum of atomic charges:    0.0000000

LOEWDIN ATOMIC CHARGES
----------------------
   0 O :    0.139462
   1 C :   -0.286609
   2 C :   -0.311551
   3 O :    0.208705
   4 C :   -0.367704
   5 C :   -0.215411
   6 N :    0.099251
   7 C :   -0.198602
   8 C :   -0.215411
   9 H :    0.115194
  10 H :    0.136824
  11 H :    0.136836
  12 H :    0.125175
  13 H :    0.126535
  14 H :    0.127795
  15 H :    0.127795
  16 H :    0.126536
  17 H :    0.125181

  Mayer bond orders larger than 0.1
B(  0-O ,  1-C ) :   1.9902 B(  1-C ,  2-C ) :   0.8876 B(  1-C ,  9-H ) :   0.9359
B(  2-C ,  3-O ) :   0.8682 B(  2-C , 10-H ) :   0.8975 B(  2-C , 11-H ) :   0.8975
B(  3-O ,  4-C ) :   0.9673 B(  4-C ,  5-C ) :   0.9168 B(  4-C ,  7-C ) :   0.9500
B(  4-C ,  8-C ) :   0.9167 B(  5-C ,  6-N ) :   0.9195 B(  5-C , 12-H ) :   0.9220
B(  5-C , 13-H ) :   0.9284 B(  6-N ,  7-C ) :   0.9207 B(  6-N ,  8-C ) :   0.9195
B(  7-C , 14-H ) :   0.9273 B(  7-C , 15-H ) :   0.9273 B(  8-C , 16-H ) :   0.9284
B(  8-C , 17-H ) :   0.9220

MP2 TOTAL ENERGY:     -438.278880536 Eh
FINAL SINGLE POINT ENERGY      -438.278880535595

DIPOLE MOMENT
-------------
                                X             Y             Z
Electronic contribution:     -3.89233      -3.18907       0.60463
Nuclear contribution   :      4.08384       3.47754      -0.77880
                        -----------------------------------------
Total Dipole Moment    :      0.19151       0.28847      -0.17417
                        -----------------------------------------
Magnitude (a.u.)       :      0.38759
Magnitude (Debye)      :      0.98518

                             ****ORCA TERMINATED NORMALLY****
TOTAL RUN TIME: 0 days 0 hours 14 minutes 42 seconds 204 msec
