                         Program Version 3.0.3 - RELEASE   -
|  1> ! RI-MP2 RIJK def2-TZVP def2-TZVP/C def2-TZVP/JK TIGHTSCF
|  2> % maxcore 2000
|  3> % mp2 density relaxed end
|  4> *xyz 0 1
|  5>  C        0.0597196394     1.5272486141    -0.0262140080
|  6>  N        1.2764807875     0.6892938171     0.0393798743
|  7>  C       -0.0432077438     0.0567978364     0.0281481833
|  8>  C       -0.4781289532    -0.8098631085     1.2216943771
|  9>  C       -1.1538531965    -1.9779553485     0.4658250675
| 10>  C       -2.4628348251    -1.4772374522    -0.1739383401
| 11>  O       -1.9663213920    -0.6381645704    -1.2325799637
| 12>  C       -0.5476890942    -0.7728486087    -1.1520237622
| 13>  O       -0.3341532381    -2.0991994617    -0.7156645304
| 14>  H       -0.1324934620     2.1213737024     0.8631268313
| 15>  H       -0.1896799990     2.0234015778    -0.9615659137
| 16>  H        1.7144724117     0.6289447913    -0.8778220718
| 17>  H        0.3973745317    -1.1517194882     1.7776520594
| 18>  H       -1.1582074190    -0.2995674573     1.9085581557
| 19>  H       -1.2092811194    -2.9314072104     0.9875586863
| 20>  H       -3.0559166668    -2.2937015107    -0.6004591052
| 21>  H       -3.0846674070    -0.8938178986     0.5131897472
| 22>  H       -0.0991446744    -0.5883422538    -2.1294470470
| 23> *
| 24>
| 25>                          ****END OF INPUT****

CARTESIAN COORDINATES (ANGSTROEM)
---------------------------------
  C      0.059720    1.527249   -0.026214
  N      1.276481    0.689294    0.039380
  C     -0.043208    0.056798    0.028148
  C     -0.478129   -0.809863    1.221694
  C     -1.153853   -1.977955    0.465825
  C     -2.462835   -1.477237   -0.173938
  O     -1.966321   -0.638165   -1.232580
  C     -0.547689   -0.772849   -1.152024
  O     -0.334153   -2.099199   -0.715665
  H     -0.132493    2.121374    0.863127
  H     -0.189680    2.023402   -0.961566
  H      1.714472    0.628945   -0.877822
  H      0.397375   -1.151719    1.777652
  H     -1.158207   -0.299567    1.908558
  H     -1.209281   -2.931407    0.987559
  H     -3.055917   -2.293702   -0.600459
  H     -3.084667   -0.893818    0.513190
  H     -0.099145   -0.588342   -2.129447

 Total Charge           Charge          ....    0
 Multiplicity           Mult            ....    1
 Number of Electrons    NEL             ....   68
 Basis Dimension        Dim             ....  333

ORBITAL ENERGIES
----------------

  NO   OCC          E(Eh)            E(eV)
   0   2.0000     -20.570026      -559.7389
   1   2.0000     -20.564233      -559.5812
   2   2.0000     -15.562242      -423.4701
   3   2.0000     -11.339429      -308.5615
   4   2.0000     -11.295175      -307.3573
   5   2.0000     -11.283976      -307.0526
   6   2.0000     -11.269936      -306.6705
   7   2.0000     -11.259552      -306.3880
   8   2.0000     -11.234530      -305.7071
   9   2.0000      -1.452062       -39.5126
  10   2.0000      -1.332909       -36.2703
  11   2.0000      -1.266832       -34.4723
  12   2.0000      -1.056649       -28.7529
  13   2.0000      -1.005456       -27.3598
  14   2.0000      -0.889079       -24.1931
  15   2.0000      -0.874041       -23.7839
  16   2.0000      -0.826840       -22.4995
  17   2.0000      -0.774819       -21.0839
  18   2.0000      -0.733482       -19.9591
  19   2.0000      -0.714191       -19.4341
  20   2.0000      -0.648374       -17.6432
  21   2.0000      -0.639238       -17.3946
  22   2.0000      -0.620215       -16.8769
  23   2.0000      -0.584775       -15.9125
  24   2.0000      -0.567221       -15.4349
  25   2.0000      -0.559274       -15.2186
  26   2.0000      -0.539182       -14.6719
  27   2.0000      -0.515591       -14.0299
  28   2.0000      -0.489405       -13.3174
  29   2.0000      -0.482490       -13.1292
  30   2.0000      -0.474884       -12.9223
  31   2.0000      -0.438539       -11.9332
  32   2.0000      -0.429946       -11.6994
  33   2.0000      -0.391876       -10.6635
  34   0.0000       0.136988         3.7276
  35   0.0000       0.146774         3.9939
  36   0.0000       0.166901         4.5416
  37   0.0000       0.177748         4.8368
  38   0.0000       0.187692         5.1073

MULLIKEN ATOMIC CHARGES
-----------------------
   0 C :   -0.224488
   1 N :   -0.376447
   2 C :    0.041433
   3 C :   -0.219112
   4 C :    0.017631
   5 C :   -0.053147
   6 O :   -0.320324
   7 C :    0.226668
   8 O :   -0.303234
   9 H :    0.123015
  10 H :    0.133293
  11 H :    0.218415
  12 H :    0.133379
  13 H :    0.124323
  14 H :    0.140696
  15 H :    0.109191
  16 H :    0.102602
  17 H :    0.126107
Sum of atomic charges:    0.0000000

LOEWDIN ATOMIC CHARGES
----------------------
   0 C :   -0.237531
   1 N :    0.008516
   2 C :   -0.288981
   3 C :   -0.185188
   4 C :   -0.283385
   5 C :   -0.267770
   6 O :    0.160678
   7 C :   -0.352591
   8 O :    0.205424
   9 H :    0.127628
  10 H :    0.126045
  11 H :    0.166009
  12 H :    0.148230
  13 H :    0.141160
  14 H :    0.142551
  15 H :    0.123738
  16 H :    0.125458
  17 H :    0.140009

  Mayer bond orders larger than 0.1
B(  0-C ,  1-N ) :   0.9500 B(  0-C ,  2-C ) :   0.9124 B(  0-C ,  9-H ) :   0.9133
B(  0-C , 10-H ) :   0.9211 B(  1-N ,  2-C ) :   0.8926 B(  1-N , 11-H ) :   0.8683
B(  2-C ,  3-C ) :   0.8855 B(  2-C ,  7-C ) :   0.9640 B(  3-C ,  4-C ) :   0.9566
B(  3-C , 12-H ) :   0.9088 B(  3-C , 13-H ) :   0.9217 B(  4-C ,  5-C ) :   0.9583
B(  4-C ,  8-O ) :   0.9130 B(  4-C , 14-H ) :   0.9104 B(  5-C ,  6-O ) :   0.9290
B(  5-C , 15-H ) :   0.9283 B(  5-C , 16-H ) :   0.9096 B(  6-O ,  7-C ) :   0.9747
B(  7-C ,  8-O ) :   1.0039 B(  7-C , 17-H ) :   0.8987

MP2 TOTAL ENERGY:     -438.345825627 Eh
FINAL SINGLE POINT ENERGY      -438.345825626748

DIPOLE MOMENT
-------------
                                X             Y             Z
Electronic contribution:      0.58506      -1.95617      -2.74761
Nuclear contribution   :     -0.99743       2.05837       3.01178
                        -----------------------------------------
Total Dipole Moment    :     -0.41238       0.10219       0.26417
                        -----------------------------------------
Magnitude (a.u.)       :      0.50029
Magnitude (Debye)      :      1.27163

                             ****ORCA TERMINATED NORMALLY****
TOTAL RUN TIME: 0 days 0 hours 17 minutes 56 seconds 229 msec
