                         Program Version 3.0.3 - RELEASE   -
|  1> ! RI-MP2 RIJK def2-TZVP def2-TZVP/C def2-TZVP/JK TIGHTSCF
|  2> % maxcore 2000
|  3> % mp2 density relaxed end
|  4> *xyz 0 1
|  5>  C        0.0454215553     1.4715938429     0.1591932641
|  6>  C       -0.0000788412    -0.0108948873     0.0118594505
|  7>  C       -1.1786305433    -0.7233900939    -0.0295543129
|  8>  C       -1.1529865269    -2.1102915305    -0.1653579740
|  9>  N       -2.2541384855    -2.9274583069    -0.2863214287
| 10>  H       -3.0982208231    -2.5823937227     0.1444990572
| 11>  H       -2.0780794067    -3.9047321837    -0.1017070806
| 12>  O       -0.0045394896    -2.7370703683    -0.2525815391
| 13>  C        1.1886762391    -2.0873812170    -0.2274130804
| 14>  H        2.0193233146    -2.7708814810    -0.3186206418
| 15>  C        1.3066811099    -0.6845773401    -0.0918522144
| 16>  O        2.3802264770    -0.0590228944    -0.0590625121
| 17>  H        0.6400365337     1.7314470359     1.0424574948
| 18>  H        0.5947472709     1.9036572288    -0.6850451977
| 19>  H       -0.9472570078     1.9219929874     0.2299834933
| 20>  H       -2.1414033664    -0.2265555291     0.0365151119
| 21> *
| 22>
| 23>                          ****END OF INPUT****

CARTESIAN COORDINATES (ANGSTROEM)
---------------------------------
  C      0.045422    1.471594    0.159193
  C     -0.000079   -0.010895    0.011859
  C     -1.178631   -0.723390   -0.029554
  C     -1.152987   -2.110292   -0.165358
  N     -2.254138   -2.927458   -0.286321
  H     -3.098221   -2.582394    0.144499
  H     -2.078079   -3.904732   -0.101707
  O     -0.004539   -2.737070   -0.252582
  C      1.188676   -2.087381   -0.227413
  H      2.019323   -2.770881   -0.318621
  C      1.306681   -0.684577   -0.091852
  O      2.380226   -0.059023   -0.059063
  H      0.640037    1.731447    1.042457
  H      0.594747    1.903657   -0.685045
  H     -0.947257    1.921993    0.229983
  H     -2.141403   -0.226556    0.036515

 Total Charge           Charge          ....    0
 Multiplicity           Mult            ....    1
 Number of Electrons    NEL             ....   66
 Basis Dimension        Dim             ....  321

ORBITAL ENERGIES
----------------

  NO   OCC          E(Eh)            E(eV)
   0   2.0000     -20.674056      -562.5697
   1   2.0000     -20.446459      -556.3764
   2   2.0000     -15.622008      -425.0964
   3   2.0000     -11.398981      -310.1820
   4   2.0000     -11.289957      -307.2154
   5   2.0000     -11.282842      -307.0217
   6   2.0000     -11.280180      -306.9493
   7   2.0000     -11.261082      -306.4296
   8   2.0000     -11.231050      -305.6124
   9   2.0000      -1.513356       -41.1805
  10   2.0000      -1.299599       -35.3639
  11   2.0000      -1.267916       -34.5017
  12   2.0000      -1.127690       -30.6860
  13   2.0000      -1.029497       -28.0140
  14   2.0000      -0.991044       -26.9677
  15   2.0000      -0.886649       -24.1270
  16   2.0000      -0.847658       -23.0659
  17   2.0000      -0.765559       -20.8319
  18   2.0000      -0.751374       -20.4459
  19   2.0000      -0.696980       -18.9658
  20   2.0000      -0.687477       -18.7072
  21   2.0000      -0.661150       -17.9908
  22   2.0000      -0.636524       -17.3207
  23   2.0000      -0.605500       -16.4765
  24   2.0000      -0.579349       -15.7649
  25   2.0000      -0.565100       -15.3772
  26   2.0000      -0.532576       -14.4921
  27   2.0000      -0.526895       -14.3375
  28   2.0000      -0.524691       -14.2776
  29   2.0000      -0.484931       -13.1957
  30   2.0000      -0.402230       -10.9452
  31   2.0000      -0.368990       -10.0407
  32   2.0000      -0.265297        -7.2191
  33   0.0000       0.055022         1.4972
  34   0.0000       0.104359         2.8397
  35   0.0000       0.144369         3.9285
  36   0.0000       0.151531         4.1234
  37   0.0000       0.160443         4.3659

MULLIKEN ATOMIC CHARGES
-----------------------
   0 C :   -0.387714
   1 C :    0.020927
   2 C :   -0.236583
   3 C :    0.365123
   4 N :   -0.494393
   5 H :    0.265401
   6 H :    0.266183
   7 O :   -0.157629
   8 C :   -0.062916
   9 H :    0.146804
  10 C :    0.145052
  11 O :   -0.445059
  12 H :    0.155410
  13 H :    0.156539
  14 H :    0.121904
  15 H :    0.140950
Sum of atomic charges:    0.0000000

LOEWDIN ATOMIC CHARGES
----------------------
   0 C :   -0.258548
   1 C :   -0.117690
   2 C :   -0.124428
   3 C :   -0.359313
   4 N :   -0.043735
   5 H :    0.179059
   6 H :    0.178540
   7 O :    0.420836
   8 C :   -0.172710
   9 H :    0.138498
  10 C :   -0.417982
  11 O :    0.003343
  12 H :    0.146749
  13 H :    0.147187
  14 H :    0.123235
  15 H :    0.156959

  Mayer bond orders larger than 0.1
B(  0-C ,  1-C ) :   0.9322 B(  0-C , 12-H ) :   0.9094 B(  0-C , 13-H ) :   0.9096
B(  0-C , 14-H ) :   0.9483 B(  1-C ,  2-C ) :   1.4044 B(  1-C , 10-C ) :   0.9745
B(  1-C , 11-O ) :  -0.1001 B(  2-C ,  3-C ) :   1.2970 B(  2-C , 15-H ) :   0.8833
B(  3-C ,  4-N ) :   1.0765 B(  3-C ,  7-O ) :   1.1716 B(  4-N ,  5-H ) :   0.8687
B(  4-N ,  6-H ) :   0.8626 B(  7-O ,  8-C ) :   1.0258 B(  8-C ,  9-H ) :   0.9209
B(  8-C , 10-C ) :   1.2088 B( 10-C , 11-O ) :   1.8876

MP2 TOTAL ENERGY:     -437.171027555 Eh
FINAL SINGLE POINT ENERGY      -437.171027555206

DIPOLE MOMENT
-------------
                                X             Y             Z
Electronic contribution:      2.36894      -4.81201      -0.66627
Nuclear contribution   :     -4.88388       3.61771       0.99402
                        -----------------------------------------
Total Dipole Moment    :     -2.51494      -1.19431       0.32775
                        -----------------------------------------
Magnitude (a.u.)       :      2.80334
Magnitude (Debye)      :      7.12552

                             ****ORCA TERMINATED NORMALLY****
TOTAL RUN TIME: 0 days 0 hours 17 minutes 33 seconds 352 msec
