                         Program Version 3.0.3 - RELEASE   -
|  1> ! RI-MP2 RIJK def2-TZVP def2-TZVP/C def2-TZVP/JK TIGHTSCF
|  2> % maxcore 2000
|  3> % mp2 density relaxed end
|  4> *xyz 0 1
|  5>  C       -0.1130470038     1.7856920484    -0.4608688386
|  6>  C       -0.2181274345     0.2958629488    -0.1207318625
|  7>  C        0.7532179588    -0.5890495181    -0.9063332793
|  8>  C        2.2610543699    -0.3139170747    -0.6290255295
|  9>  C        2.8948219374    -1.6719536738    -0.7524811112
| 10>  C        1.9818186053    -2.6546997593    -0.7629921797
| 11>  C        0.5770459137    -2.1107718891    -0.6458770060
| 12>  C        2.3062018343    -4.0796787906    -0.8365522967
| 13>  O        1.4842217356    -4.9701614824    -0.8132723883
| 14>  H        0.8829544451     2.1814318684    -0.2352125548
| 15>  H       -0.3053006285     1.9620936695    -1.5252525347
| 16>  H       -0.8382951123     2.3739693223     0.1094908242
| 17>  H       -0.0439723258     0.1484703473     0.9541428203
| 18>  H       -1.2426639738    -0.0480973547    -0.3113687718
| 19>  H        0.5853786586    -0.4163082453    -1.9775336947
| 20>  H        2.6989107091     0.4231707112    -1.3109507248
| 21>  H        2.4192059278     0.0815871565     0.3867487381
| 22>  H        3.9686598891    -1.8286847618    -0.7925832884
| 23>  H        0.1796925972    -2.3053500581     0.3600639181
| 24>  H       -0.1163365259    -2.5876363439    -1.3445186603
| 25>  H        3.3940276828    -4.3030005304    -0.9210868493
| 26> *
| 27>
| 28>                          ****END OF INPUT****

CARTESIAN COORDINATES (ANGSTROEM)
---------------------------------
  C     -0.113047    1.785692   -0.460869
  C     -0.218127    0.295863   -0.120732
  C      0.753218   -0.589050   -0.906333
  C      2.261054   -0.313917   -0.629026
  C      2.894822   -1.671954   -0.752481
  C      1.981819   -2.654700   -0.762992
  C      0.577046   -2.110772   -0.645877
  C      2.306202   -4.079679   -0.836552
  O      1.484222   -4.970161   -0.813272
  H      0.882954    2.181432   -0.235213
  H     -0.305301    1.962094   -1.525253
  H     -0.838295    2.373969    0.109491
  H     -0.043972    0.148470    0.954143
  H     -1.242664   -0.048097   -0.311369
  H      0.585379   -0.416308   -1.977534
  H      2.698911    0.423171   -1.310951
  H      2.419206    0.081587    0.386749
  H      3.968660   -1.828685   -0.792583
  H      0.179693   -2.305350    0.360064
  H     -0.116337   -2.587636   -1.344519
  H      3.394028   -4.303001   -0.921087

 Total Charge           Charge          ....    0
 Multiplicity           Mult            ....    1
 Number of Electrons    NEL             ....   68
 Basis Dimension        Dim             ....  351

ORBITAL ENERGIES
----------------

  NO   OCC          E(Eh)            E(eV)
   0   2.0000     -20.547563      -559.1276
   1   2.0000     -11.326666      -308.2143
   2   2.0000     -11.258073      -306.3477
   3   2.0000     -11.239392      -305.8394
   4   2.0000     -11.239048      -305.8301
   5   2.0000     -11.236301      -305.7553
   6   2.0000     -11.227934      -305.5276
   7   2.0000     -11.226100      -305.4777
   8   2.0000     -11.219058      -305.2861
   9   2.0000      -1.383709       -37.6526
  10   2.0000      -1.157338       -31.4928
  11   2.0000      -1.058960       -28.8158
  12   2.0000      -0.984102       -26.7788
  13   2.0000      -0.970343       -26.4044
  14   2.0000      -0.868432       -23.6312
  15   2.0000      -0.833488       -22.6804
  16   2.0000      -0.774677       -21.0800
  17   2.0000      -0.733475       -19.9589
  18   2.0000      -0.691395       -18.8138
  19   2.0000      -0.647689       -17.6245
  20   2.0000      -0.637112       -17.3367
  21   2.0000      -0.600952       -16.3527
  22   2.0000      -0.587434       -15.9849
  23   2.0000      -0.564903       -15.3718
  24   2.0000      -0.551387       -15.0040
  25   2.0000      -0.539381       -14.6773
  26   2.0000      -0.529021       -14.3954
  27   2.0000      -0.518817       -14.1177
  28   2.0000      -0.506719       -13.7885
  29   2.0000      -0.471713       -12.8360
  30   2.0000      -0.467469       -12.7205
  31   2.0000      -0.459782       -12.5113
  32   2.0000      -0.419934       -11.4270
  33   2.0000      -0.361734        -9.8433
  34   0.0000       0.089203         2.4273
  35   0.0000       0.128148         3.4871
  36   0.0000       0.155553         4.2328
  37   0.0000       0.157593         4.2883
  38   0.0000       0.160373         4.3640

MULLIKEN ATOMIC CHARGES
-----------------------
   0 C :   -0.397119
   1 C :   -0.227135
   2 C :   -0.037987
   3 C :   -0.221564
   4 C :   -0.145261
   5 C :    0.033227
   6 C :   -0.214282
   7 C :    0.039580
   8 O :   -0.281365
   9 H :    0.127350
  10 H :    0.125360
  11 H :    0.137411
  12 H :    0.109688
  13 H :    0.119739
  14 H :    0.094357
  15 H :    0.136625
  16 H :    0.122007
  17 H :    0.141128
  18 H :    0.121801
  19 H :    0.140476
  20 H :    0.075964
Sum of atomic charges:    0.0000000

LOEWDIN ATOMIC CHARGES
----------------------
   0 C :   -0.317111
   1 C :   -0.279535
   2 C :   -0.225421
   3 C :   -0.216866
   4 C :   -0.091354
   5 C :   -0.174183
   6 C :   -0.179761
   7 C :   -0.277027
   8 O :    0.123600
   9 H :    0.120264
  10 H :    0.121611
  11 H :    0.121853
  12 H :    0.136802
  13 H :    0.139752
  14 H :    0.154855
  15 H :    0.140659
  16 H :    0.148808
  17 H :    0.142337
  18 H :    0.149365
  19 H :    0.145478
  20 H :    0.115877

  Mayer bond orders larger than 0.1
B(  0-C ,  1-C ) :   0.9198 B(  0-C ,  9-H ) :   0.9385 B(  0-C , 10-H ) :   0.9382
B(  0-C , 11-H ) :   0.9420 B(  1-C ,  2-C ) :   0.9277 B(  1-C , 12-H ) :   0.9253
B(  1-C , 13-H ) :   0.9378 B(  2-C ,  3-C ) :   0.9307 B(  2-C ,  6-C ) :   0.9311
B(  2-C , 14-H ) :   0.9281 B(  3-C ,  4-C ) :   0.9477 B(  3-C , 15-H ) :   0.9269
B(  3-C , 16-H ) :   0.8973 B(  4-C ,  5-C ) :   1.6537 B(  4-C , 17-H ) :   0.9170
B(  5-C ,  6-C ) :   0.9275 B(  5-C ,  7-C ) :   0.8774 B(  5-C ,  8-O ) :  -0.1084
B(  5-C , 20-H ) :  -0.1102 B(  6-C , 18-H ) :   0.9072 B(  6-C , 19-H ) :   0.9199
B(  7-C ,  8-O ) :   1.9888 B(  7-C , 20-H ) :   0.9877

MP2 TOTAL ENERGY:     -386.440228430 Eh
FINAL SINGLE POINT ENERGY      -386.440228430202

DIPOLE MOMENT
-------------
                                X             Y             Z
Electronic contribution:      4.14348     -12.40790      -1.11805
Nuclear contribution   :     -3.71341      13.67054       1.15107
                        -----------------------------------------
Total Dipole Moment    :      0.43007       1.26264       0.03302
                        -----------------------------------------
Magnitude (a.u.)       :      1.33428
Magnitude (Debye)      :      3.39148

                             ****ORCA TERMINATED NORMALLY****
TOTAL RUN TIME: 0 days 0 hours 29 minutes 44 seconds 888 msec
