                         Program Version 3.0.3 - RELEASE   -
|  1> ! RI-MP2 RIJK def2-TZVP def2-TZVP/C def2-TZVP/JK TIGHTSCF
|  2> % maxcore 2000
|  3> % mp2 density relaxed end
|  4> *xyz 0 1
|  5>  N        0.0501349611    -1.1517837657     0.2012317992
|  6>  C        0.0113988487    -0.0044125118     0.0702664859
|  7>  C       -0.0237875417     1.4469300565    -0.1095948863
|  8>  C        1.3704145209     2.0533840104    -0.0710042570
|  9>  C        1.6126545278     3.5551850437    -0.1129415067
| 10>  C        0.4585014024     4.5118803825     0.1927206133
| 11>  C        0.3426568692     4.4183452121     1.7290295891
| 12>  O        0.8671850037     3.1333264349     2.0896491635
| 13>  C        1.8569448684     2.7844667210     1.1571186351
| 14>  H       -0.5257674128     1.6612903596    -1.0605945751
| 15>  H       -0.6346603730     1.8747007991     0.6915217979
| 16>  H        2.1227995033     1.4677412854    -0.5910225972
| 17>  H        2.4322258780     3.9092839872    -0.7263385759
| 18>  H        0.6925712266     5.5277867737    -0.1345749636
| 19>  H       -0.4738180384     4.2191913559    -0.3015093755
| 20>  H        0.9337483271     5.2099969350     2.2118947878
| 21>  H       -0.6829221297     4.4740825524     2.1036883658
| 22>  H        2.8374750883     2.5927335581     1.5809233200
| 23> *
| 24>
| 25>                          ****END OF INPUT****

CARTESIAN COORDINATES (ANGSTROEM)
---------------------------------
  N      0.050135   -1.151784    0.201232
  C      0.011399   -0.004413    0.070266
  C     -0.023788    1.446930   -0.109595
  C      1.370415    2.053384   -0.071004
  C      1.612655    3.555185   -0.112942
  C      0.458501    4.511880    0.192721
  C      0.342657    4.418345    1.729030
  O      0.867185    3.133326    2.089649
  C      1.856945    2.784467    1.157119
  H     -0.525767    1.661290   -1.060595
  H     -0.634660    1.874701    0.691522
  H      2.122800    1.467741   -0.591023
  H      2.432226    3.909284   -0.726339
  H      0.692571    5.527787   -0.134575
  H     -0.473818    4.219191   -0.301509
  H      0.933748    5.209997    2.211895
  H     -0.682922    4.474083    2.103688
  H      2.837475    2.592734    1.580923

 Total Charge           Charge          ....    0
 Multiplicity           Mult            ....    1
 Number of Electrons    NEL             ....   66
 Basis Dimension        Dim             ....  333

ORBITAL ENERGIES
----------------

  NO   OCC          E(Eh)            E(eV)
   0   2.0000     -20.571698      -559.7843
   1   2.0000     -15.563005      -423.4909
   2   2.0000     -11.295264      -307.3598
   3   2.0000     -11.291522      -307.2579
   4   2.0000     -11.281969      -306.9980
   5   2.0000     -11.268468      -306.6306
   6   2.0000     -11.260820      -306.4225
   7   2.0000     -11.253260      -306.2168
   8   2.0000     -11.248682      -306.0922
   9   2.0000      -1.401097       -38.1258
  10   2.0000      -1.213923       -33.0325
  11   2.0000      -1.161234       -31.5988
  12   2.0000      -1.052080       -28.6286
  13   2.0000      -1.026197       -27.9242
  14   2.0000      -0.875870       -23.8336
  15   2.0000      -0.807267       -21.9669
  16   2.0000      -0.792826       -21.5739
  17   2.0000      -0.737514       -20.0688
  18   2.0000      -0.686453       -18.6793
  19   2.0000      -0.678557       -18.4645
  20   2.0000      -0.639983       -17.4148
  21   2.0000      -0.609170       -16.5764
  22   2.0000      -0.604699       -16.4547
  23   2.0000      -0.585857       -15.9420
  24   2.0000      -0.563120       -15.3233
  25   2.0000      -0.548388       -14.9224
  26   2.0000      -0.526434       -14.3250
  27   2.0000      -0.495036       -13.4706
  28   2.0000      -0.479883       -13.0583
  29   2.0000      -0.460533       -12.5317
  30   2.0000      -0.452298       -12.3076
  31   2.0000      -0.421049       -11.4573
  32   2.0000      -0.400802       -10.9064
  33   0.0000       0.123104         3.3498
  34   0.0000       0.142175         3.8688
  35   0.0000       0.149925         4.0797
  36   0.0000       0.164993         4.4897
  37   0.0000       0.182633         4.9697

MULLIKEN ATOMIC CHARGES
-----------------------
   0 N :   -0.055654
   1 C :   -0.205170
   2 C :   -0.117172
   3 C :   -0.155677
   4 C :   -0.096540
   5 C :   -0.265207
   6 C :   -0.039856
   7 O :   -0.329205
   8 C :    0.042371
   9 H :    0.158981
  10 H :    0.167040
  11 H :    0.139381
  12 H :    0.142659
  13 H :    0.136488
  14 H :    0.123779
  15 H :    0.103006
  16 H :    0.118972
  17 H :    0.131805
Sum of atomic charges:   -0.0000000

LOEWDIN ATOMIC CHARGES
----------------------
   0 N :    0.054766
   1 C :   -0.185275
   2 C :   -0.223639
   3 C :   -0.176586
   4 C :   -0.180366
   5 C :   -0.237555
   6 C :   -0.284257
   7 O :    0.177726
   8 C :   -0.255159
   9 H :    0.165510
  10 H :    0.172633
  11 H :    0.160648
  12 H :    0.147748
  13 H :    0.142291
  14 H :    0.137034
  15 H :    0.121983
  16 H :    0.125667
  17 H :    0.136832

  Mayer bond orders larger than 0.1
B(  0-N ,  1-C ) :   2.8897 B(  1-C ,  2-C ) :   0.9540 B(  2-C ,  3-C ) :   0.8817
B(  2-C ,  9-H ) :   0.9087 B(  2-C , 10-H ) :   0.8924 B(  3-C ,  4-C ) :   0.8699
B(  3-C ,  8-C ) :   0.8869 B(  3-C , 11-H ) :   0.9235 B(  4-C ,  5-C ) :   0.9095
B(  4-C ,  8-C ) :   0.8444 B(  4-C , 12-H ) :   0.9209 B(  5-C ,  6-C ) :   0.9728
B(  5-C , 13-H ) :   0.9271 B(  5-C , 14-H ) :   0.9210 B(  6-C ,  7-O ) :   0.9097
B(  6-C , 15-H ) :   0.9233 B(  6-C , 16-H ) :   0.9284 B(  7-O ,  8-C ) :   0.9666
B(  8-C , 17-H ) :   0.9377

MP2 TOTAL ENERGY:     -401.254375303 Eh
FINAL SINGLE POINT ENERGY      -401.254375302701

DIPOLE MOMENT
-------------
                                X             Y             Z
Electronic contribution:      0.01293      -7.02655       0.96084
Nuclear contribution   :      0.18807       9.09413      -1.53731
                        -----------------------------------------
Total Dipole Moment    :      0.20099       2.06758      -0.57647
                        -----------------------------------------
Magnitude (a.u.)       :      2.15583
Magnitude (Debye)      :      5.47969

                             ****ORCA TERMINATED NORMALLY****
TOTAL RUN TIME: 0 days 0 hours 16 minutes 29 seconds 983 msec
