                         Program Version 3.0.3 - RELEASE   -
|  1> ! RI-MP2 RIJK def2-TZVP def2-TZVP/C def2-TZVP/JK TIGHTSCF
|  2> % maxcore 2000
|  3> % mp2 density relaxed end
|  4> *xyz 0 1
|  5>  O        0.5278736239     0.9240933772     0.6851478814
|  6>  C       -0.0435174011    -0.1792275871     0.0370570834
|  7>  C       -1.5861536131    -0.1455493498    -0.1978485044
|  8>  C       -1.3465932570    -0.5537053986    -1.6634870705
|  9>  C       -1.9445648955    -1.6393374225    -2.4596080102
| 10>  O       -2.1589793248    -0.2661053654    -2.7772226514
| 11>  C        0.1263228151    -0.2175109274    -1.5005461086
| 12>  O        1.0275450554     0.1094327869    -2.2174736828
| 13>  H        1.3022367622     1.1858447998     0.1716268534
| 14>  H        0.2690588785    -1.1298564542     0.4958190638
| 15>  H       -2.1925600269    -0.8149148999     0.4123703088
| 16>  H       -1.9606845241     0.8779769655    -0.1227008239
| 17>  H       -1.3285093123    -2.1930333560    -3.1659379100
| 18>  H       -2.8044116203    -2.1694754786    -2.0524381091
| 19> *
| 20>
| 21>                          ****END OF INPUT****

CARTESIAN COORDINATES (ANGSTROEM)
---------------------------------
  O      0.527874    0.924093    0.685148
  C     -0.043517   -0.179228    0.037057
  C     -1.586154   -0.145549   -0.197849
  C     -1.346593   -0.553705   -1.663487
  C     -1.944565   -1.639337   -2.459608
  O     -2.158979   -0.266105   -2.777223
  C      0.126323   -0.217511   -1.500546
  O      1.027545    0.109433   -2.217474
  H      1.302237    1.185845    0.171627
  H      0.269059   -1.129856    0.495819
  H     -2.192560   -0.814915    0.412370
  H     -1.960685    0.877977   -0.122701
  H     -1.328509   -2.193033   -3.165938
  H     -2.804412   -2.169475   -2.052438

 Total Charge           Charge          ....    0
 Multiplicity           Mult            ....    1
 Number of Electrons    NEL             ....   60
 Basis Dimension        Dim             ....  284

ORBITAL ENERGIES
----------------

  NO   OCC          E(Eh)            E(eV)
   0   2.0000     -20.599493      -560.5407
   1   2.0000     -20.579882      -560.0071
   2   2.0000     -20.579719      -560.0026
   3   2.0000     -11.350319      -308.8579
   4   2.0000     -11.319989      -308.0326
   5   2.0000     -11.312421      -307.8266
   6   2.0000     -11.311435      -307.7998
   7   2.0000     -11.255482      -306.2772
   8   2.0000      -1.448045       -39.4033
   9   2.0000      -1.419735       -38.6330
  10   2.0000      -1.385248       -37.6945
  11   2.0000      -1.137574       -30.9550
  12   2.0000      -0.940854       -25.6019
  13   2.0000      -0.892858       -24.2959
  14   2.0000      -0.882619       -24.0173
  15   2.0000      -0.760842       -20.7036
  16   2.0000      -0.726338       -19.7647
  17   2.0000      -0.698759       -19.0142
  18   2.0000      -0.693836       -18.8802
  19   2.0000      -0.668928       -18.2024
  20   2.0000      -0.622601       -16.9418
  21   2.0000      -0.586041       -15.9470
  22   2.0000      -0.576571       -15.6893
  23   2.0000      -0.563822       -15.3424
  24   2.0000      -0.549528       -14.9534
  25   2.0000      -0.530516       -14.4361
  26   2.0000      -0.486801       -13.2465
  27   2.0000      -0.464539       -12.6408
  28   2.0000      -0.453225       -12.3329
  29   2.0000      -0.410704       -11.1758
  30   0.0000       0.096045         2.6135
  31   0.0000       0.140356         3.8193
  32   0.0000       0.156856         4.2683
  33   0.0000       0.161425         4.3926
  34   0.0000       0.175648         4.7796

MULLIKEN ATOMIC CHARGES
-----------------------
   0 O :   -0.473888
   1 C :    0.105066
   2 C :   -0.184987
   3 C :    0.123959
   4 C :   -0.087481
   5 O :   -0.309244
   6 C :    0.080768
   7 O :   -0.239940
   8 H :    0.336446
   9 H :    0.109559
  10 H :    0.138181
  11 H :    0.134941
  12 H :    0.138505
  13 H :    0.128115
Sum of atomic charges:   -0.0000000

LOEWDIN ATOMIC CHARGES
----------------------
   0 O :   -0.006696
   1 C :   -0.294358
   2 C :   -0.168132
   3 C :   -0.287043
   4 C :   -0.220263
   5 O :    0.200086
   6 C :   -0.275357
   7 O :    0.178802
   8 H :    0.189096
   9 H :    0.142451
  10 H :    0.135259
  11 H :    0.152514
  12 H :    0.127791
  13 H :    0.125850

  Mayer bond orders larger than 0.1
B(  0-O ,  1-C ) :   0.9852 B(  0-O ,  8-H ) :   0.8292 B(  1-C ,  2-C ) :   0.9023
B(  1-C ,  6-C ) :   0.8773 B(  1-C ,  9-H ) :   0.9105 B(  2-C ,  3-C ) :   0.9374
B(  2-C , 10-H ) :   0.9157 B(  2-C , 11-H ) :   0.8883 B(  3-C ,  4-C ) :   0.9381
B(  3-C ,  5-O ) :   0.8877 B(  3-C ,  6-C ) :   0.8414 B(  4-C ,  5-O ) :   0.9065
B(  4-C , 12-H ) :   0.9103 B(  4-C , 13-H ) :   0.9176 B(  6-C ,  7-O ) :   2.0590

MP2 TOTAL ENERGY:     -418.976032790 Eh
FINAL SINGLE POINT ENERGY      -418.976032789697

DIPOLE MOMENT
-------------
                                X             Y             Z
Electronic contribution:      2.28876       1.75717      -2.59181
Nuclear contribution   :     -2.62855      -2.73397       3.03499
                        -----------------------------------------
Total Dipole Moment    :     -0.33979      -0.97680       0.44318
                        -----------------------------------------
Magnitude (a.u.)       :      1.12517
Magnitude (Debye)      :      2.85994

                             ****ORCA TERMINATED NORMALLY****
TOTAL RUN TIME: 0 days 0 hours 9 minutes 39 seconds 94 msec
