                         Program Version 3.0.3 - RELEASE   -
|  1> ! RI-MP2 RIJK def2-TZVP def2-TZVP/C def2-TZVP/JK TIGHTSCF
|  2> % maxcore 2000
|  3> % mp2 density relaxed end
|  4> *xyz 0 1
|  5>  C       -0.0129483271     1.5596490161    -0.0746529173
|  6>  C        1.4697990990     1.8525994658     0.0590339891
|  7>  C        2.2956382598     0.7164958534    -0.5168014592
|  8>  C        2.1336976106     0.8483721376     0.9837214727
|  9>  C        1.1706841534    -0.3663482529     0.9862392410
| 10>  C        0.0392666025     0.0495520314     0.0636096084
| 11>  C        1.3318515851    -0.4976110593    -0.5144205446
| 12>  H       -0.6046295341     2.0310446248     0.7185237487
| 13>  H       -0.4150774860     1.8762949963    -1.0439081006
| 14>  H        1.8598476467     2.8626068269     0.0122400248
| 15>  H        3.1747198197     0.8465311877    -1.1325609799
| 16>  H        2.8646771473     1.0990492749     1.7398200031
| 17>  H        1.0949757398    -1.1334197084     1.7443440998
| 18>  H       -0.8557044957    -0.5600774400     0.0209390639
| 19>  H        1.4034159891    -1.3846631643    -1.1283198096
| 20> *
| 21>
| 22>                          ****END OF INPUT****

CARTESIAN COORDINATES (ANGSTROEM)
---------------------------------
  C     -0.012948    1.559649   -0.074653
  C      1.469799    1.852599    0.059034
  C      2.295638    0.716496   -0.516801
  C      2.133698    0.848372    0.983721
  C      1.170684   -0.366348    0.986239
  C      0.039267    0.049552    0.063610
  C      1.331852   -0.497611   -0.514421
  H     -0.604630    2.031045    0.718524
  H     -0.415077    1.876295   -1.043908
  H      1.859848    2.862607    0.012240
  H      3.174720    0.846531   -1.132561
  H      2.864677    1.099049    1.739820
  H      1.094976   -1.133420    1.744344
  H     -0.855704   -0.560077    0.020939
  H      1.403416   -1.384663   -1.128320

 Total Charge           Charge          ....    0
 Multiplicity           Mult            ....    1
 Number of Electrons    NEL             ....   50
 Basis Dimension        Dim             ....  265

ORBITAL ENERGIES
----------------

  NO   OCC          E(Eh)            E(eV)
   0   2.0000     -11.226830      -305.4976
   1   2.0000     -11.226626      -305.4920
   2   2.0000     -11.225922      -305.4729
   3   2.0000     -11.225776      -305.4689
   4   2.0000     -11.225589      -305.4638
   5   2.0000     -11.225234      -305.4542
   6   2.0000     -11.217092      -305.2326
   7   2.0000      -1.238884       -33.7118
   8   2.0000      -1.044446       -28.4208
   9   2.0000      -0.987735       -26.8776
  10   2.0000      -0.865559       -23.5530
  11   2.0000      -0.768874       -20.9221
  12   2.0000      -0.754441       -20.5294
  13   2.0000      -0.715057       -19.4577
  14   2.0000      -0.713223       -19.4078
  15   2.0000      -0.597260       -16.2523
  16   2.0000      -0.589403       -16.0385
  17   2.0000      -0.585567       -15.9341
  18   2.0000      -0.537673       -14.6308
  19   2.0000      -0.487498       -13.2655
  20   2.0000      -0.482812       -13.1380
  21   2.0000      -0.438196       -11.9239
  22   2.0000      -0.398180       -10.8350
  23   2.0000      -0.386941       -10.5292
  24   2.0000      -0.333228        -9.0676
  25   0.0000       0.153005         4.1635
  26   0.0000       0.177322         4.8252
  27   0.0000       0.177429         4.8281
  28   0.0000       0.178570         4.8591
  29   0.0000       0.204451         5.5634

MULLIKEN ATOMIC CHARGES
-----------------------
   0 C :   -0.131187
   1 C :   -0.170132
   2 C :   -0.135104
   3 C :   -0.135095
   4 C :   -0.135104
   5 C :   -0.170132
   6 C :   -0.135096
   7 H :    0.108315
   8 H :    0.108314
   9 H :    0.126072
  10 H :    0.135775
  11 H :    0.135763
  12 H :    0.135775
  13 H :    0.126072
  14 H :    0.135763
Sum of atomic charges:    0.0000000

LOEWDIN ATOMIC CHARGES
----------------------
   0 C :   -0.211149
   1 C :   -0.176538
   2 C :   -0.138428
   3 C :   -0.138440
   4 C :   -0.138428
   5 C :   -0.176537
   6 C :   -0.138440
   7 H :    0.140898
   8 H :    0.140897
   9 H :    0.146931
  10 H :    0.135579
  11 H :    0.135573
  12 H :    0.135579
  13 H :    0.146931
  14 H :    0.135573

  Mayer bond orders larger than 0.1
B(  0-C ,  1-C ) :   0.9569 B(  0-C ,  5-C ) :   0.9569 B(  0-C ,  7-H ) :   0.9162
B(  0-C ,  8-H ) :   0.9162 B(  1-C ,  2-C ) :   0.8684 B(  1-C ,  3-C ) :   0.8683
B(  1-C ,  9-H ) :   0.9313 B(  2-C ,  3-C ) :   0.9015 B(  2-C ,  6-C ) :   0.9117
B(  2-C , 10-H ) :   0.9290 B(  3-C ,  4-C ) :   0.9117 B(  3-C , 11-H ) :   0.9290
B(  4-C ,  5-C ) :   0.8684 B(  4-C ,  6-C ) :   0.9015 B(  4-C , 12-H ) :   0.9290
B(  5-C ,  6-C ) :   0.8683 B(  5-C , 13-H ) :   0.9313 B(  6-C , 14-H ) :   0.9290

MP2 TOTAL ENERGY:     -270.828958937 Eh
FINAL SINGLE POINT ENERGY      -270.828958936882

DIPOLE MOMENT
-------------
                                X             Y             Z
Electronic contribution:      0.95394      -0.75642       0.16901
Nuclear contribution   :     -0.95003       0.75333      -0.16831
                        -----------------------------------------
Total Dipole Moment    :      0.00390      -0.00310       0.00069
                        -----------------------------------------
Magnitude (a.u.)       :      0.00503
Magnitude (Debye)      :      0.01279

                             ****ORCA TERMINATED NORMALLY****
TOTAL RUN TIME: 0 days 0 hours 8 minutes 35 seconds 948 msec
