                         Program Version 3.0.3 - RELEASE   -
|  1> ! RI-MP2 RIJK def2-TZVP def2-TZVP/C def2-TZVP/JK TIGHTSCF
|  2> % maxcore 2000
|  3> % mp2 density relaxed end
|  4> *xyz 0 1
|  5>  C        0.0293541296     1.4136977324     0.0492213743
|  6>  N        0.0225970143    -0.0342173003     0.0131338313
|  7>  N       -0.1742793616    -0.7126778434    -1.1086654419
|  8>  C       -0.1611651275    -1.9871172110    -0.7107749423
|  9>  C        0.0497983662    -2.0289816470     0.6770258280
| 10>  N        0.1575860697    -0.7674366936     1.1125413276
| 11>  C        0.1475434170    -3.1844440356     1.5886939043
| 12>  C        1.1789829146    -3.2004451537     2.6666494848
| 13>  N       -0.2381421399    -3.0333211136     3.0044904316
| 14>  H        0.8946676686     1.7597574300     0.6175099897
| 15>  H        0.0857333095     1.7672948391    -0.9790484692
| 16>  H       -0.8834071030     1.7890452285     0.5208199355
| 17>  H       -0.2943340603    -2.7917281155    -1.4160714283
| 18>  H       -0.1529456206    -4.1300817919     1.1456822909
| 19>  H        1.6194045678    -4.1444944387     2.9758489662
| 20>  H        1.8350690802    -2.3369155730     2.7280422283
| 21>  H       -0.4257816845    -2.0466928726     3.1740105691
| 22> *
| 23>
| 24>                          ****END OF INPUT****

CARTESIAN COORDINATES (ANGSTROEM)
---------------------------------
  C      0.029354    1.413698    0.049221
  N      0.022597   -0.034217    0.013134
  N     -0.174279   -0.712678   -1.108665
  C     -0.161165   -1.987117   -0.710775
  C      0.049798   -2.028982    0.677026
  N      0.157586   -0.767437    1.112541
  C      0.147543   -3.184444    1.588694
  C      1.178983   -3.200445    2.666649
  N     -0.238142   -3.033321    3.004490
  H      0.894668    1.759757    0.617510
  H      0.085733    1.767295   -0.979048
  H     -0.883407    1.789045    0.520820
  H     -0.294334   -2.791728   -1.416071
  H     -0.152946   -4.130082    1.145682
  H      1.619405   -4.144494    2.975849
  H      1.835069   -2.336916    2.728042
  H     -0.425782   -2.046693    3.174011

 Total Charge           Charge          ....    0
 Multiplicity           Mult            ....    1
 Number of Electrons    NEL             ....   66
 Basis Dimension        Dim             ....  327

ORBITAL ENERGIES
----------------

  NO   OCC          E(Eh)            E(eV)
   0   2.0000     -15.684470      -426.7961
   1   2.0000     -15.616280      -424.9406
   2   2.0000     -15.608852      -424.7384
   3   2.0000     -15.559899      -423.4064
   4   2.0000     -11.282329      -307.0078
   5   2.0000     -11.272243      -306.7333
   6   2.0000     -11.270945      -306.6980
   7   2.0000     -11.260979      -306.4268
   8   2.0000     -11.258251      -306.3526
   9   2.0000      -1.451068       -39.4856
  10   2.0000      -1.268257       -34.5110
  11   2.0000      -1.190543       -32.3963
  12   2.0000      -1.141580       -31.0640
  13   2.0000      -0.983181       -26.7537
  14   2.0000      -0.904641       -24.6165
  15   2.0000      -0.870688       -23.6926
  16   2.0000      -0.829325       -22.5671
  17   2.0000      -0.781399       -21.2629
  18   2.0000      -0.730160       -19.8687
  19   2.0000      -0.683229       -18.5916
  20   2.0000      -0.669464       -18.2170
  21   2.0000      -0.642356       -17.4794
  22   2.0000      -0.614273       -16.7152
  23   2.0000      -0.579610       -15.7720
  24   2.0000      -0.573891       -15.6164
  25   2.0000      -0.541451       -14.7336
  26   2.0000      -0.518566       -14.1109
  27   2.0000      -0.490451       -13.3458
  28   2.0000      -0.480089       -13.0639
  29   2.0000      -0.470986       -12.8162
  30   2.0000      -0.426107       -11.5950
  31   2.0000      -0.391756       -10.6602
  32   2.0000      -0.340847        -9.2749
  33   0.0000       0.122963         3.3460
  34   0.0000       0.145966         3.9719
  35   0.0000       0.162100         4.4110
  36   0.0000       0.176382         4.7996
  37   0.0000       0.182421         4.9639

MULLIKEN ATOMIC CHARGES
-----------------------
   0 C :   -0.320378
   1 N :    0.217908
   2 N :   -0.232684
   3 C :   -0.150209
   4 C :    0.108497
   5 N :   -0.285956
   6 C :   -0.083081
   7 C :   -0.147817
   8 N :   -0.362756
   9 H :    0.159106
  10 H :    0.172825
  11 H :    0.153451
  12 H :    0.143077
  13 H :    0.133932
  14 H :    0.125014
  15 H :    0.136005
  16 H :    0.233067
Sum of atomic charges:   -0.0000000

LOEWDIN ATOMIC CHARGES
----------------------
   0 C :   -0.271916
   1 N :    0.107295
   2 N :    0.041848
   3 C :   -0.247416
   4 C :   -0.278685
   5 N :    0.063112
   6 C :   -0.248613
   7 C :   -0.255591
   8 N :   -0.005552
   9 H :    0.128269
  10 H :    0.133397
  11 H :    0.126569
  12 H :    0.139303
  13 H :    0.149826
  14 H :    0.123816
  15 H :    0.125516
  16 H :    0.168820

  Mayer bond orders larger than 0.1
B(  0-C ,  1-N ) :   0.8601 B(  0-C ,  9-H ) :   0.9292 B(  0-C , 10-H ) :   0.9257
B(  0-C , 11-H ) :   0.9278 B(  1-N ,  2-N ) :   1.1313 B(  1-N ,  5-N ) :   1.0968
B(  2-N ,  3-C ) :   1.4463 B(  3-C ,  4-C ) :   1.3511 B(  3-C , 12-H ) :   0.9327
B(  4-C ,  5-N ) :   1.3489 B(  4-C ,  6-C ) :   0.9572 B(  6-C ,  7-C ) :   0.9197
B(  6-C ,  8-N ) :   0.9306 B(  6-C , 13-H ) :   0.9203 B(  7-C ,  8-N ) :   0.9087
B(  7-C , 14-H ) :   0.9263 B(  7-C , 15-H ) :   0.9143 B(  8-N , 16-H ) :   0.8756

MP2 TOTAL ENERGY:     -413.464267495 Eh
FINAL SINGLE POINT ENERGY      -413.464267495483

DIPOLE MOMENT
-------------
                                X             Y             Z
Electronic contribution:     -1.25576      -0.81259      -2.31589
Nuclear contribution   :      1.63874       1.49443       2.02921
                        -----------------------------------------
Total Dipole Moment    :      0.38298       0.68184      -0.28669
                        -----------------------------------------
Magnitude (a.u.)       :      0.83293
Magnitude (Debye)      :      2.11713

                             ****ORCA TERMINATED NORMALLY****
TOTAL RUN TIME: 0 days 0 hours 16 minutes 48 seconds 47 msec
