                         Program Version 3.0.3 - RELEASE   -
|  1> ! RI-MP2 RIJK def2-TZVP def2-TZVP/C def2-TZVP/JK TIGHTSCF
|  2> % maxcore 2000
|  3> % mp2 density relaxed end
|  4> *xyz 0 1
|  5>  C       -0.2891608883     1.4982905046    -0.1289937420
|  6>  C       -0.0213718419     0.0126116056    -0.0347306242
|  7>  C        1.3516366293    -0.6237725431    -0.2408822809
|  8>  C        2.5789653986     0.2446309164    -0.0881864897
|  9>  C        2.5059488261     0.7693775943     1.3492559675
| 10>  O        3.2379200462     1.5404322389     1.8949996301
| 11>  O        1.4157125318     0.2317770799     1.9752556327
| 12>  C        0.6915974582    -0.6462554427     1.1185130632
| 13>  C        0.1829306715    -1.8582347601     1.8432979250
| 14>  H        0.4880389948     2.1000699158     0.3472231798
| 15>  H       -0.3618915312     1.8134355299    -1.1753031564
| 16>  H       -1.2354741781     1.7481059519     0.3614347370
| 17>  H       -0.8266287176    -0.6000483401    -0.4343348283
| 18>  H        1.4189121244    -1.5256331947    -0.8379243615
| 19>  H        3.5058083165    -0.3252069174    -0.2065655823
| 20>  H        2.6374892979     1.0967746929    -0.7718023655
| 21>  H       -0.5230659235    -1.5760412731     2.6309338731
| 22>  H       -0.3319825703    -2.5251222394     1.1463201775
| 23>  H        1.0071549758    -2.4101176595     2.3064441947
| 24> *
| 25>
| 26>                          ****END OF INPUT****

CARTESIAN COORDINATES (ANGSTROEM)
---------------------------------
  C     -0.289161    1.498291   -0.128994
  C     -0.021372    0.012612   -0.034731
  C      1.351637   -0.623773   -0.240882
  C      2.578965    0.244631   -0.088186
  C      2.505949    0.769378    1.349256
  O      3.237920    1.540432    1.895000
  O      1.415713    0.231777    1.975256
  C      0.691597   -0.646255    1.118513
  C      0.182931   -1.858235    1.843298
  H      0.488039    2.100070    0.347223
  H     -0.361892    1.813436   -1.175303
  H     -1.235474    1.748106    0.361435
  H     -0.826629   -0.600048   -0.434335
  H      1.418912   -1.525633   -0.837924
  H      3.505808   -0.325207   -0.206566
  H      2.637489    1.096775   -0.771802
  H     -0.523066   -1.576041    2.630934
  H     -0.331983   -2.525122    1.146320
  H      1.007155   -2.410118    2.306444

 Total Charge           Charge          ....    0
 Multiplicity           Mult            ....    1
 Number of Electrons    NEL             ....   68
 Basis Dimension        Dim             ....  339

ORBITAL ENERGIES
----------------

  NO   OCC          E(Eh)            E(eV)
   0   2.0000     -20.600474      -560.5674
   1   2.0000     -20.540153      -558.9260
   2   2.0000     -11.378419      -309.6225
   3   2.0000     -11.307078      -307.6812
   4   2.0000     -11.256434      -306.3031
   5   2.0000     -11.251280      -306.1629
   6   2.0000     -11.250250      -306.1349
   7   2.0000     -11.234784      -305.7140
   8   2.0000     -11.230974      -305.6103
   9   2.0000      -1.459645       -39.7189
  10   2.0000      -1.369881       -37.2763
  11   2.0000      -1.167665       -31.7738
  12   2.0000      -1.043905       -28.4061
  13   2.0000      -1.005949       -27.3733
  14   2.0000      -0.945241       -25.7213
  15   2.0000      -0.834230       -22.7006
  16   2.0000      -0.797909       -21.7122
  17   2.0000      -0.761112       -20.7109
  18   2.0000      -0.694933       -18.9101
  19   2.0000      -0.668992       -18.2042
  20   2.0000      -0.648068       -17.6348
  21   2.0000      -0.616896       -16.7866
  22   2.0000      -0.608125       -16.5479
  23   2.0000      -0.589317       -16.0361
  24   2.0000      -0.575843       -15.6695
  25   2.0000      -0.563893       -15.3443
  26   2.0000      -0.558498       -15.1975
  27   2.0000      -0.554992       -15.1021
  28   2.0000      -0.539302       -14.6752
  29   2.0000      -0.512450       -13.9445
  30   2.0000      -0.482387       -13.1264
  31   2.0000      -0.438804       -11.9405
  32   2.0000      -0.416323       -11.3287
  33   2.0000      -0.396761       -10.7964
  34   0.0000       0.121681         3.3111
  35   0.0000       0.145281         3.9533
  36   0.0000       0.156497         4.2585
  37   0.0000       0.163442         4.4475
  38   0.0000       0.176509         4.8031

MULLIKEN ATOMIC CHARGES
-----------------------
   0 C :   -0.405696
   1 C :   -0.149345
   2 C :   -0.135451
   3 C :   -0.251304
   4 C :    0.198669
   5 O :   -0.275275
   6 O :   -0.225607
   7 C :    0.236276
   8 C :   -0.394359
   9 H :    0.148479
  10 H :    0.136529
  11 H :    0.142237
  12 H :    0.123417
  13 H :    0.139757
  14 H :    0.150545
  15 H :    0.149019
  16 H :    0.146219
  17 H :    0.128030
  18 H :    0.137860
Sum of atomic charges:   -0.0000000

LOEWDIN ATOMIC CHARGES
----------------------
   0 C :   -0.283937
   1 C :   -0.191622
   2 C :   -0.169278
   3 C :   -0.207071
   4 C :   -0.454019
   5 O :    0.141008
   6 O :    0.305040
   7 C :   -0.291105
   8 C :   -0.262626
   9 H :    0.133601
  10 H :    0.128837
  11 H :    0.131228
  12 H :    0.157086
  13 H :    0.148147
  14 H :    0.158633
  15 H :    0.156770
  16 H :    0.133872
  17 H :    0.133481
  18 H :    0.131956

  Mayer bond orders larger than 0.1
B(  0-C ,  1-C ) :   0.8942 B(  0-C ,  9-H ) :   0.9328 B(  0-C , 10-H ) :   0.9348
B(  0-C , 11-H ) :   0.9358 B(  1-C ,  2-C ) :   0.8551 B(  1-C ,  7-C ) :   0.8922
B(  1-C , 12-H ) :   0.9215 B(  2-C ,  3-C ) :   0.9422 B(  2-C ,  7-C ) :   0.8410
B(  2-C , 13-H ) :   0.9156 B(  3-C ,  4-C ) :   0.9504 B(  3-C , 14-H ) :   0.9070
B(  3-C , 15-H ) :   0.9040 B(  4-C ,  5-O ) :   2.0547 B(  4-C ,  6-O ) :   1.0936
B(  6-O ,  7-C ) :   0.8973 B(  7-C ,  8-C ) :   0.9000 B(  8-C , 16-H ) :   0.9375
B(  8-C , 17-H ) :   0.9331 B(  8-C , 18-H ) :   0.9322

MP2 TOTAL ENERGY:     -422.360008440 Eh
FINAL SINGLE POINT ENERGY      -422.360008440289

DIPOLE MOMENT
-------------
                                X             Y             Z
Electronic contribution:      5.94565       2.45668       3.95842
Nuclear contribution   :     -6.77167      -3.45020      -5.07826
                        -----------------------------------------
Total Dipole Moment    :     -0.82602      -0.99351      -1.11984
                        -----------------------------------------
Magnitude (a.u.)       :      1.70980
Magnitude (Debye)      :      4.34597

                             ****ORCA TERMINATED NORMALLY****
TOTAL RUN TIME: 0 days 0 hours 19 minutes 4 seconds 438 msec
