                         Program Version 3.0.3 - RELEASE   -
|  1> ! RI-MP2 RIJK def2-TZVP def2-TZVP/C def2-TZVP/JK TIGHTSCF
|  2> % maxcore 2000
|  3> % mp2 density relaxed end
|  4> *xyz 0 1
|  5>  C       -0.0258656782     1.5107811977     0.0541779671
|  6>  C        0.0070561279     0.0154448713    -0.0103254223
|  7>  C        0.0162779638    -0.7496142928    -1.1090662234
|  8>  C        0.0627956170    -2.2283351064    -0.7904221646
|  9>  C        0.0297350180    -2.2721016363     0.7399302592
| 10>  C        0.0151355133    -0.8257244495     1.2254014849
| 11>  C       -1.1748104554    -1.7497468145     1.4918505079
| 12>  C       -2.5149269067    -1.5535611463     0.8127652031
| 13>  C       -1.2972291416    -2.2375575967     2.9258980738
| 14>  H        0.8271751453     1.9002757568     0.6245523095
| 15>  H        0.0013942164     1.9592298789    -0.9427067512
| 16>  H       -0.9288112711     1.8673845564     0.5658369706
| 17>  H       -0.0337706222    -0.3725666651    -2.1255635036
| 18>  H       -0.7746673500    -2.7758201488    -1.2450208670
| 19>  H        0.9767259733    -2.6973640550    -1.1793433063
| 20>  H        0.6384704508    -3.0174737349     1.2407088810
| 21>  H        0.5914591769    -0.4933924858     2.0849340520
| 22>  H       -2.4193423604    -1.1176249381    -0.1833795972
| 23>  H       -3.0393585796    -2.5118472522     0.7140112287
| 24>  H       -3.1554202128    -0.8917927041     1.4080565295
| 25>  H       -1.8643102873    -1.5255447410     3.5372638400
| 26>  H       -1.8198547845    -3.2007979216     2.9698315939
| 27>  H       -0.3155727428    -2.3703904321     3.3916273944
| 28> *
| 29>
| 30>                          ****END OF INPUT****

CARTESIAN COORDINATES (ANGSTROEM)
---------------------------------
  C     -0.025866    1.510781    0.054178
  C      0.007056    0.015445   -0.010325
  C      0.016278   -0.749614   -1.109066
  C      0.062796   -2.228335   -0.790422
  C      0.029735   -2.272102    0.739930
  C      0.015136   -0.825724    1.225401
  C     -1.174810   -1.749747    1.491851
  C     -2.514927   -1.553561    0.812765
  C     -1.297229   -2.237558    2.925898
  H      0.827175    1.900276    0.624552
  H      0.001394    1.959230   -0.942707
  H     -0.928811    1.867385    0.565837
  H     -0.033771   -0.372567   -2.125564
  H     -0.774667   -2.775820   -1.245021
  H      0.976726   -2.697364   -1.179343
  H      0.638470   -3.017474    1.240709
  H      0.591459   -0.493392    2.084934
  H     -2.419342   -1.117625   -0.183380
  H     -3.039359   -2.511847    0.714011
  H     -3.155420   -0.891793    1.408057
  H     -1.864310   -1.525545    3.537264
  H     -1.819855   -3.200798    2.969832
  H     -0.315573   -2.370390    3.391627

 Total Charge           Charge          ....    0
 Multiplicity           Mult            ....    1
 Number of Electrons    NEL             ....   68
 Basis Dimension        Dim             ....  363

ORBITAL ENERGIES
----------------

  NO   OCC          E(Eh)            E(eV)
   0   2.0000     -11.234793      -305.7143
   1   2.0000     -11.225663      -305.4658
   2   2.0000     -11.220957      -305.3378
   3   2.0000     -11.220681      -305.3303
   4   2.0000     -11.219923      -305.3096
   5   2.0000     -11.218873      -305.2810
   6   2.0000     -11.212910      -305.1188
   7   2.0000     -11.209168      -305.0170
   8   2.0000     -11.207232      -304.9643
   9   2.0000      -1.180750       -32.1298
  10   2.0000      -1.065334       -28.9892
  11   2.0000      -0.998257       -27.1639
  12   2.0000      -0.957057       -26.0428
  13   2.0000      -0.927852       -25.2481
  14   2.0000      -0.896196       -24.3867
  15   2.0000      -0.782783       -21.3006
  16   2.0000      -0.741106       -20.1665
  17   2.0000      -0.693642       -18.8749
  18   2.0000      -0.653852       -17.7922
  19   2.0000      -0.613989       -16.7075
  20   2.0000      -0.591782       -16.1032
  21   2.0000      -0.575965       -15.6728
  22   2.0000      -0.561257       -15.2726
  23   2.0000      -0.558485       -15.1971
  24   2.0000      -0.549854       -14.9623
  25   2.0000      -0.536266       -14.5925
  26   2.0000      -0.528847       -14.3907
  27   2.0000      -0.506122       -13.7723
  28   2.0000      -0.492287       -13.3958
  29   2.0000      -0.486914       -13.2496
  30   2.0000      -0.455577       -12.3969
  31   2.0000      -0.409759       -11.1501
  32   2.0000      -0.383628       -10.4391
  33   2.0000      -0.315359        -8.5814
  34   0.0000       0.133000         3.6191
  35   0.0000       0.155967         4.2441
  36   0.0000       0.163510         4.4493
  37   0.0000       0.168484         4.5847
  38   0.0000       0.172679         4.6988

MULLIKEN ATOMIC CHARGES
-----------------------
   0 C :   -0.457451
   1 C :    0.004486
   2 C :   -0.236838
   3 C :   -0.155455
   4 C :   -0.149762
   5 C :   -0.098251
   6 C :    0.109443
   7 C :   -0.408184
   8 C :   -0.421667
   9 H :    0.139512
  10 H :    0.136163
  11 H :    0.139702
  12 H :    0.115045
  13 H :    0.121846
  14 H :    0.119689
  15 H :    0.125580
  16 H :    0.122785
  17 H :    0.150746
  18 H :    0.127980
  19 H :    0.125641
  20 H :    0.130464
  21 H :    0.129799
  22 H :    0.128727
Sum of atomic charges:   -0.0000000

LOEWDIN ATOMIC CHARGES
----------------------
   0 C :   -0.271510
   1 C :   -0.176754
   2 C :   -0.144097
   3 C :   -0.221400
   4 C :   -0.147636
   5 C :   -0.126964
   6 C :   -0.250693
   7 C :   -0.264301
   8 C :   -0.265522
   9 H :    0.131021
  10 H :    0.129317
  11 H :    0.130952
  12 H :    0.134963
  13 H :    0.142736
  14 H :    0.141301
  15 H :    0.144483
  16 H :    0.146646
  17 H :    0.133488
  18 H :    0.127483
  19 H :    0.127227
  20 H :    0.125688
  21 H :    0.126219
  22 H :    0.127352

  Mayer bond orders larger than 0.1
B(  0-C ,  1-C ) :   0.8892 B(  0-C ,  9-H ) :   0.9367 B(  0-C , 10-H ) :   0.9508
B(  0-C , 11-H ) :   0.9309 B(  1-C ,  2-C ) :   1.7309 B(  1-C ,  5-C ) :   0.9120
B(  2-C ,  3-C ) :   0.9781 B(  2-C , 12-H ) :   0.9345 B(  3-C ,  4-C ) :   0.9596
B(  3-C , 13-H ) :   0.9072 B(  3-C , 14-H ) :   0.9116 B(  4-C ,  5-C ) :   0.8480
B(  4-C ,  6-C ) :   0.8629 B(  4-C , 15-H ) :   0.9271 B(  5-C ,  6-C ) :   0.8383
B(  5-C , 16-H ) :   0.9176 B(  6-C ,  7-C ) :   0.9139 B(  6-C ,  8-C ) :   0.8828
B(  7-C , 17-H ) :   0.9327 B(  7-C , 18-H ) :   0.9363 B(  7-C , 19-H ) :   0.9373
B(  8-C , 20-H ) :   0.9434 B(  8-C , 21-H ) :   0.9393 B(  8-C , 22-H ) :   0.9314

MP2 TOTAL ENERGY:     -350.516725558 Eh
FINAL SINGLE POINT ENERGY      -350.516725557590

DIPOLE MOMENT
-------------
                                X             Y             Z
Electronic contribution:      3.06988      -0.35202      -2.05939
Nuclear contribution   :     -3.08861       0.37216       2.11927
                        -----------------------------------------
Total Dipole Moment    :     -0.01873       0.02015       0.05987
                        -----------------------------------------
Magnitude (a.u.)       :      0.06589
Magnitude (Debye)      :      0.16748

                             ****ORCA TERMINATED NORMALLY****
TOTAL RUN TIME: 0 days 0 hours 22 minutes 59 seconds 735 msec
