                         Program Version 3.0.3 - RELEASE   -
|  1> ! RI-MP2 RIJK def2-TZVP def2-TZVP/C def2-TZVP/JK TIGHTSCF
|  2> % maxcore 2000
|  3> % mp2 density relaxed end
|  4> *xyz 0 1
|  5>  C       -0.3294389616     1.4670444342    -0.1281093777
|  6>  N       -0.1750816457     0.0257926566    -0.1366458857
|  7>  C        0.6904709496    -0.5420796244    -0.8236248554
|  8>  O        1.5924095555     0.1341588049    -1.6470747025
|  9>  C        2.4895846445    -0.5805228078    -2.3451279262
| 10>  N        2.6333608916    -1.8428215472    -2.3572642672
| 11>  C        1.7671317905    -2.5950009457    -1.5589552548
| 12>  O        1.7795533682    -3.7788290037    -1.4662074166
| 13>  O        0.8130907921    -1.8910077957    -0.8140440611
| 14>  H        0.3751011259     2.0056371009    -0.7707752183
| 15>  H       -1.3502006711     1.7116513145    -0.4391887457
| 16>  H       -0.2152364850     1.8252202622     0.9001129096
| 17>  H        3.1251980453     0.0699549313    -2.9401259983
| 18> *
| 19>
| 20>                          ****END OF INPUT****

CARTESIAN COORDINATES (ANGSTROEM)
---------------------------------
  C     -0.329439    1.467044   -0.128109
  N     -0.175082    0.025793   -0.136646
  C      0.690471   -0.542080   -0.823625
  O      1.592410    0.134159   -1.647075
  C      2.489585   -0.580523   -2.345128
  N      2.633361   -1.842822   -2.357264
  C      1.767132   -2.595001   -1.558955
  O      1.779553   -3.778829   -1.466207
  O      0.813091   -1.891008   -0.814044
  H      0.375101    2.005637   -0.770775
  H     -1.350201    1.711651   -0.439189
  H     -0.215236    1.825220    0.900113
  H      3.125198    0.069955   -2.940126

 Total Charge           Charge          ....    0
 Multiplicity           Mult            ....    1
 Number of Electrons    NEL             ....   66
 Basis Dimension        Dim             ....  303

ORBITAL ENERGIES
----------------

  NO   OCC          E(Eh)            E(eV)
   0   2.0000     -20.685527      -562.8818
   1   2.0000     -20.653898      -562.0211
   2   2.0000     -20.570168      -559.7427
   3   2.0000     -15.611700      -424.8159
   4   2.0000     -15.575369      -423.8273
   5   2.0000     -11.440933      -311.3236
   6   2.0000     -11.436953      -311.2153
   7   2.0000     -11.421253      -310.7881
   8   2.0000     -11.270302      -306.6805
   9   2.0000      -1.556852       -42.3641
  10   2.0000      -1.481757       -40.3207
  11   2.0000      -1.411223       -38.4013
  12   2.0000      -1.299296       -35.3556
  13   2.0000      -1.248198       -33.9652
  14   2.0000      -1.002914       -27.2907
  15   2.0000      -0.981765       -26.7152
  16   2.0000      -0.899180       -24.4679
  17   2.0000      -0.843511       -22.9531
  18   2.0000      -0.773016       -21.0348
  19   2.0000      -0.740657       -20.1543
  20   2.0000      -0.715566       -19.4715
  21   2.0000      -0.683075       -18.5874
  22   2.0000      -0.675060       -18.3693
  23   2.0000      -0.647435       -17.6176
  24   2.0000      -0.613345       -16.6900
  25   2.0000      -0.596085       -16.2203
  26   2.0000      -0.591886       -16.1060
  27   2.0000      -0.568070       -15.4580
  28   2.0000      -0.513511       -13.9733
  29   2.0000      -0.488263       -13.2863
  30   2.0000      -0.470701       -12.8084
  31   2.0000      -0.451080       -12.2745
  32   2.0000      -0.416104       -11.3228
  33   0.0000       0.069392         1.8883
  34   0.0000       0.128770         3.5040
  35   0.0000       0.149195         4.0598
  36   0.0000       0.159629         4.3437
  37   0.0000       0.161666         4.3991

MULLIKEN ATOMIC CHARGES
-----------------------
   0 C :   -0.269438
   1 N :   -0.201385
   2 C :    0.291566
   3 O :   -0.222888
   4 C :    0.147148
   5 N :   -0.250902
   6 C :    0.307333
   7 O :   -0.220667
   8 O :   -0.173475
   9 H :    0.126826
  10 H :    0.148597
  11 H :    0.148612
  12 H :    0.168672
Sum of atomic charges:   -0.0000000

LOEWDIN ATOMIC CHARGES
----------------------
   0 C :   -0.319782
   1 N :    0.104509
   2 C :   -0.451294
   3 O :    0.304625
   4 C :   -0.277079
   5 N :    0.120953
   6 C :   -0.503596
   7 O :    0.190126
   8 O :    0.326295
   9 H :    0.109155
  10 H :    0.124694
  11 H :    0.124691
  12 H :    0.146703

  Mayer bond orders larger than 0.1
B(  0-C ,  1-N ) :   0.8536 B(  0-C ,  9-H ) :   0.9280 B(  0-C , 10-H ) :   0.9317
B(  0-C , 11-H ) :   0.9317 B(  1-N ,  2-C ) :   1.9791 B(  2-C ,  3-O ) :   0.9258
B(  2-C ,  8-O ) :   1.0694 B(  3-O ,  4-C ) :   1.0779 B(  4-C ,  5-N ) :   1.7157
B(  4-C , 12-H ) :   0.9201 B(  5-N ,  6-C ) :   1.0531 B(  6-C ,  7-O ) :   2.0812
B(  6-C ,  8-O ) :   0.9830

MP2 TOTAL ENERGY:     -489.143253008 Eh
FINAL SINGLE POINT ENERGY      -489.143253008258

DIPOLE MOMENT
-------------
                                X             Y             Z
Electronic contribution:      3.13326      -7.23460      -2.04302
Nuclear contribution   :     -2.83064       9.19883       1.61712
                        -----------------------------------------
Total Dipole Moment    :      0.30261       1.96423      -0.42590
                        -----------------------------------------
Magnitude (a.u.)       :      2.03253
Magnitude (Debye)      :      5.16627

                             ****ORCA TERMINATED NORMALLY****
TOTAL RUN TIME: 0 days 0 hours 12 minutes 21 seconds 145 msec
