                         Program Version 3.0.3 - RELEASE   -
|  1> ! RI-MP2 RIJK def2-TZVP def2-TZVP/C def2-TZVP/JK TIGHTSCF
|  2> % maxcore 2000
|  3> % mp2 density relaxed end
|  4> *xyz 0 1
|  5>  C        0.0777476446     1.4910590736    -0.0148698061
|  6>  C        0.0715296166    -0.0129876692     0.2059010150
|  7>  O       -1.2237595377    -0.5013577534    -0.0855264326
|  8>  C       -1.3802156163    -1.9120784800     0.0340431072
|  9>  C       -1.5284392896    -2.3282758821     1.5039135813
| 10>  C       -2.5972990481    -2.3535821050    -0.7669557284
| 11>  C       -3.6933612700    -1.3890737700    -1.1542928536
| 12>  C       -2.8402138589    -2.0294913095    -2.2245069572
| 13>  C       -1.8836031427    -1.2179070127    -3.0714199697
| 14>  H        1.0652159180     1.9044032663     0.2120045731
| 15>  H       -0.1685196370     1.7327724834    -1.0528877877
| 16>  H       -0.6583270501     1.9760161239     0.6326610934
| 17>  H        0.8154370574    -0.5033469192    -0.4440892587
| 18>  H        0.3535296384    -0.2398786608     1.2455069185
| 19>  H       -0.4815393839    -2.4001941986    -0.3821621177
| 20>  H       -1.6132067455    -3.4164841341     1.5871943748
| 21>  H       -0.6661927248    -2.0180041186     2.1006238454
| 22>  H       -2.4281878050    -1.8762783302     1.9322737524
| 23>  H       -2.9280124704    -3.3444159898    -0.4656365719
| 24>  H       -4.7270683266    -1.6987338780    -1.0434280414
| 25>  H       -3.5063888891    -0.3429616110    -0.9413454955
| 26>  H       -3.3250130279    -2.8346937840    -2.7728968726
| 27>  H       -1.4520789873    -0.3961992475    -2.4984009422
| 28>  H       -1.0615642762    -1.8385046327    -3.4478526607
| 29>  H       -2.4006832379    -0.7963305611    -3.9409096152
| 30> *
| 31>
| 32>                          ****END OF INPUT****

CARTESIAN COORDINATES (ANGSTROEM)
---------------------------------
  C      0.077748    1.491059   -0.014870
  C      0.071530   -0.012988    0.205901
  O     -1.223760   -0.501358   -0.085526
  C     -1.380216   -1.912078    0.034043
  C     -1.528439   -2.328276    1.503914
  C     -2.597299   -2.353582   -0.766956
  C     -3.693361   -1.389074   -1.154293
  C     -2.840214   -2.029491   -2.224507
  C     -1.883603   -1.217907   -3.071420
  H      1.065216    1.904403    0.212005
  H     -0.168520    1.732772   -1.052888
  H     -0.658327    1.976016    0.632661
  H      0.815437   -0.503347   -0.444089
  H      0.353530   -0.239879    1.245507
  H     -0.481539   -2.400194   -0.382162
  H     -1.613207   -3.416484    1.587194
  H     -0.666193   -2.018004    2.100624
  H     -2.428188   -1.876278    1.932274
  H     -2.928012   -3.344416   -0.465637
  H     -4.727068   -1.698734   -1.043428
  H     -3.506389   -0.342962   -0.941345
  H     -3.325013   -2.834694   -2.772897
  H     -1.452079   -0.396199   -2.498401
  H     -1.061564   -1.838505   -3.447853
  H     -2.400683   -0.796331   -3.940910

 Total Charge           Charge          ....    0
 Multiplicity           Mult            ....    1
 Number of Electrons    NEL             ....   72
 Basis Dimension        Dim             ....  375

ORBITAL ENERGIES
----------------

  NO   OCC          E(Eh)            E(eV)
   0   2.0000     -20.546888      -559.1092
   1   2.0000     -11.278945      -306.9157
   2   2.0000     -11.272708      -306.7460
   3   2.0000     -11.220583      -305.3276
   4   2.0000     -11.219590      -305.3006
   5   2.0000     -11.213739      -305.1413
   6   2.0000     -11.211512      -305.0808
   7   2.0000     -11.209260      -305.0195
   8   2.0000     -11.203750      -304.8695
   9   2.0000      -1.370122       -37.2829
  10   2.0000      -1.137703       -30.9585
  11   2.0000      -1.037177       -28.2230
  12   2.0000      -0.989745       -26.9323
  13   2.0000      -0.949560       -25.8389
  14   2.0000      -0.870523       -23.6881
  15   2.0000      -0.829807       -22.5802
  16   2.0000      -0.780371       -21.2350
  17   2.0000      -0.748326       -20.3630
  18   2.0000      -0.672761       -18.3068
  19   2.0000      -0.665591       -18.1116
  20   2.0000      -0.633738       -17.2449
  21   2.0000      -0.627934       -17.0870
  22   2.0000      -0.577965       -15.7272
  23   2.0000      -0.556473       -15.1424
  24   2.0000      -0.549595       -14.9553
  25   2.0000      -0.543465       -14.7884
  26   2.0000      -0.539450       -14.6792
  27   2.0000      -0.533957       -14.5297
  28   2.0000      -0.522304       -14.2126
  29   2.0000      -0.499622       -13.5954
  30   2.0000      -0.488243       -13.2858
  31   2.0000      -0.475290       -12.9333
  32   2.0000      -0.458157       -12.4671
  33   2.0000      -0.422044       -11.4844
  34   2.0000      -0.396975       -10.8022
  35   2.0000      -0.380325       -10.3492
  36   0.0000       0.135719         3.6931
  37   0.0000       0.152617         4.1529
  38   0.0000       0.158810         4.3214
  39   0.0000       0.168851         4.5947
  40   0.0000       0.189496         5.1565

MULLIKEN ATOMIC CHARGES
-----------------------
   0 C :   -0.374704
   1 C :   -0.053203
   2 O :   -0.312997
   3 C :    0.096688
   4 C :   -0.409360
   5 C :   -0.098634
   6 C :   -0.293888
   7 C :   -0.053307
   8 C :   -0.416195
   9 H :    0.124477
  10 H :    0.131644
  11 H :    0.130372
  12 H :    0.095466
  13 H :    0.092913
  14 H :    0.069016
  15 H :    0.128129
  16 H :    0.127706
  17 H :    0.136380
  18 H :    0.113277
  19 H :    0.126190
  20 H :    0.139926
  21 H :    0.109323
  22 H :    0.142247
  23 H :    0.119899
  24 H :    0.128637
Sum of atomic charges:   -0.0000000

LOEWDIN ATOMIC CHARGES
----------------------
   0 C :   -0.317684
   1 C :   -0.356550
   2 O :    0.179500
   3 C :   -0.326968
   4 C :   -0.294231
   5 C :   -0.196320
   6 C :   -0.208361
   7 C :   -0.232922
   8 C :   -0.299509
   9 H :    0.124226
  10 H :    0.122109
  11 H :    0.124119
  12 H :    0.116879
  13 H :    0.116706
  14 H :    0.138377
  15 H :    0.124995
  16 H :    0.118844
  17 H :    0.128144
  18 H :    0.152601
  19 H :    0.126935
  20 H :    0.139456
  21 H :    0.145173
  22 H :    0.128458
  23 H :    0.122238
  24 H :    0.123784

  Mayer bond orders larger than 0.1
B(  0-C ,  1-C ) :   0.9519 B(  0-C ,  9-H ) :   0.9340 B(  0-C , 10-H ) :   0.9382
B(  0-C , 11-H ) :   0.9356 B(  1-C ,  2-O ) :   0.9067 B(  1-C , 12-H ) :   0.9288
B(  1-C , 13-H ) :   0.9188 B(  2-O ,  3-C ) :   0.9207 B(  3-C ,  4-C ) :   0.9005
B(  3-C ,  5-C ) :   0.9169 B(  3-C , 14-H ) :   0.9447 B(  4-C , 15-H ) :   0.9343
B(  4-C , 16-H ) :   0.9385 B(  4-C , 17-H ) :   0.9378 B(  5-C ,  6-C ) :   0.8892
B(  5-C ,  7-C ) :   0.8647 B(  5-C , 18-H ) :   0.9255 B(  6-C ,  7-C ) :   0.9021
B(  6-C , 19-H ) :   0.9276 B(  6-C , 20-H ) :   0.9186 B(  7-C ,  8-C ) :   0.9060
B(  7-C , 21-H ) :   0.9317 B(  8-C , 22-H ) :   0.9357 B(  8-C , 23-H ) :   0.9405
B(  8-C , 24-H ) :   0.9387

MP2 TOTAL ENERGY:     -388.797058960 Eh
FINAL SINGLE POINT ENERGY      -388.797058960392

DIPOLE MOMENT
-------------
                                X             Y             Z
Electronic contribution:     -2.27593      -1.65787      -0.10300
Nuclear contribution   :      2.65330       1.46288       0.27463
                        -----------------------------------------
Total Dipole Moment    :      0.37737      -0.19500       0.17164
                        -----------------------------------------
Magnitude (a.u.)       :      0.45814
Magnitude (Debye)      :      1.16451

                             ****ORCA TERMINATED NORMALLY****
TOTAL RUN TIME: 0 days 0 hours 20 minutes 15 seconds 316 msec
