                         Program Version 3.0.3 - RELEASE   -
|  1> ! RI-MP2 RIJK def2-TZVP def2-TZVP/C def2-TZVP/JK TIGHTSCF
|  2> % maxcore 2000
|  3> % mp2 density relaxed end
|  4> *xyz 0 1
|  5>  N       -0.1872235318     1.4864886455     0.1157277870
|  6>  C       -0.0450097569     0.0512847170     0.0402268910
|  7>  C        0.8752123233    -0.4474963002     1.1723520528
|  8>  C        2.2100173328     0.1351501801     1.1162310382
|  9>  C        3.2982142258     0.6425960092     1.0676887767
| 10>  C       -1.3623692088    -0.7491272832    -0.0884768687
| 11>  O       -0.8981586021    -1.3519932839    -1.3355098655
| 12>  C        0.2631227321    -0.6117675610    -1.3326592105
| 13>  O        1.0979514442    -0.5681353403    -2.1761868775
| 14>  H        0.7327668398     1.9173960617     0.1549789505
| 15>  H       -0.6536157681     1.8526893567    -0.7086396143
| 16>  H        0.3980888004    -0.1851356222     2.1247418397
| 17>  H        0.9409238594    -1.5409493413     1.1318002300
| 18>  H        4.2690476577     1.0706451092     1.0187450182
| 19>  H       -1.5559236439    -1.5119452635     0.6688609891
| 20>  H       -2.2512767339    -0.1370615838    -0.2552717268
| 21> *
| 22>
| 23>                          ****END OF INPUT****

CARTESIAN COORDINATES (ANGSTROEM)
---------------------------------
  N     -0.187224    1.486489    0.115728
  C     -0.045010    0.051285    0.040227
  C      0.875212   -0.447496    1.172352
  C      2.210017    0.135150    1.116231
  C      3.298214    0.642596    1.067689
  C     -1.362369   -0.749127   -0.088477
  O     -0.898159   -1.351993   -1.335510
  C      0.263123   -0.611768   -1.332659
  O      1.097951   -0.568135   -2.176187
  H      0.732767    1.917396    0.154979
  H     -0.653616    1.852689   -0.708640
  H      0.398089   -0.185136    2.124742
  H      0.940924   -1.540949    1.131800
  H      4.269048    1.070645    1.018745
  H     -1.555924   -1.511945    0.668861
  H     -2.251277   -0.137062   -0.255272

 Total Charge           Charge          ....    0
 Multiplicity           Mult            ....    1
 Number of Electrons    NEL             ....   66
 Basis Dimension        Dim             ....  321

ORBITAL ENERGIES
----------------

  NO   OCC          E(Eh)            E(eV)
   0   2.0000     -20.607298      -560.7531
   1   2.0000     -20.558973      -559.4381
   2   2.0000     -15.573407      -423.7740
   3   2.0000     -11.383144      -309.7511
   4   2.0000     -11.313181      -307.8473
   5   2.0000     -11.312026      -307.8159
   6   2.0000     -11.281860      -306.9950
   7   2.0000     -11.248447      -306.0858
   8   2.0000     -11.237528      -305.7887
   9   2.0000      -1.468449       -39.9585
  10   2.0000      -1.384903       -37.6851
  11   2.0000      -1.227426       -33.4000
  12   2.0000      -1.088607       -29.6225
  13   2.0000      -1.023820       -27.8596
  14   2.0000      -0.961782       -26.1714
  15   2.0000      -0.906081       -24.6557
  16   2.0000      -0.754311       -20.5258
  17   2.0000      -0.735538       -20.0150
  18   2.0000      -0.718638       -19.5551
  19   2.0000      -0.706225       -19.2174
  20   2.0000      -0.693990       -18.8844
  21   2.0000      -0.666877       -18.1466
  22   2.0000      -0.637517       -17.3477
  23   2.0000      -0.618223       -16.8227
  24   2.0000      -0.576420       -15.6852
  25   2.0000      -0.571377       -15.5480
  26   2.0000      -0.562950       -15.3187
  27   2.0000      -0.516605       -14.0575
  28   2.0000      -0.485756       -13.2181
  29   2.0000      -0.468176       -12.7397
  30   2.0000      -0.416539       -11.3346
  31   2.0000      -0.402952       -10.9649
  32   2.0000      -0.393907       -10.7187
  33   0.0000       0.119472         3.2510
  34   0.0000       0.142935         3.8895
  35   0.0000       0.151132         4.1125
  36   0.0000       0.158625         4.3164
  37   0.0000       0.162160         4.4126

MULLIKEN ATOMIC CHARGES
-----------------------
   0 N :   -0.535143
   1 C :    0.168227
   2 C :   -0.323901
   3 C :   -0.071365
   4 C :   -0.143617
   5 C :   -0.056083
   6 O :   -0.234777
   7 C :    0.194583
   8 O :   -0.250606
   9 H :    0.256489
  10 H :    0.237195
  11 H :    0.152965
  12 H :    0.161102
  13 H :    0.196524
  14 H :    0.124116
  15 H :    0.124290
Sum of atomic charges:    0.0000000

LOEWDIN ATOMIC CHARGES
----------------------
   0 N :   -0.098209
   1 C :   -0.318378
   2 C :   -0.203152
   3 C :   -0.111757
   4 C :   -0.088313
   5 C :   -0.197436
   6 O :    0.229722
   7 C :   -0.432866
   8 O :    0.164813
   9 H :    0.172693
  10 H :    0.164220
  11 H :    0.168029
  12 H :    0.167991
  13 H :    0.129340
  14 H :    0.126204
  15 H :    0.127099

  Mayer bond orders larger than 0.1
B(  0-N ,  1-C ) :   0.9483 B(  0-N ,  9-H ) :   0.8754 B(  0-N , 10-H ) :   0.8856
B(  1-C ,  2-C ) :   0.8776 B(  1-C ,  5-C ) :   0.9139 B(  1-C ,  7-C ) :   0.9067
B(  2-C ,  3-C ) :   1.1070 B(  2-C , 11-H ) :   0.9024 B(  2-C , 12-H ) :   0.9276
B(  3-C ,  4-C ) :   2.6223 B(  4-C , 13-H ) :   0.8943 B(  5-C ,  6-O ) :   0.8946
B(  5-C , 14-H ) :   0.9148 B(  5-C , 15-H ) :   0.9134 B(  6-O ,  7-C ) :   1.0894
B(  7-C ,  8-O ) :   2.0625

MP2 TOTAL ENERGY:     -437.141658364 Eh
FINAL SINGLE POINT ENERGY      -437.141658364389

DIPOLE MOMENT
-------------
                                X             Y             Z
Electronic contribution:      1.26309      -1.99617      -4.25531
Nuclear contribution   :     -1.68496       2.41986       5.23541
                        -----------------------------------------
Total Dipole Moment    :     -0.42187       0.42369       0.98010
                        -----------------------------------------
Magnitude (a.u.)       :      1.14808
Magnitude (Debye)      :      2.91818

                             ****ORCA TERMINATED NORMALLY****
TOTAL RUN TIME: 0 days 0 hours 15 minutes 16 seconds 778 msec
