                         Program Version 3.0.3 - RELEASE   -
|  1> ! RI-MP2 RIJK def2-TZVP def2-TZVP/C def2-TZVP/JK TIGHTSCF
|  2> % maxcore 2000
|  3> % mp2 density relaxed end
|  4> *xyz 0 1
|  5>  C        0.0455816069     1.5738867292     0.0641089508
|  6>  C        0.0056233857     0.0448233714     0.0049259777
|  7>  C        0.7055372981    -0.5242440815    -1.2327401755
|  8>  C        0.7190726662    -2.0536168886    -1.2830570264
|  9>  C        1.3194216047    -2.5807530348    -2.5898083411
| 10>  O        1.4604213750    -2.4964753786    -0.1503659601
| 11>  C        1.2148039190    -3.8269479817     0.2558788816
| 12>  C        1.9892893075    -4.0850827017     1.5385587449
| 13>  H        1.0775570120     1.9418205009     0.0880330433
| 14>  H       -0.4419427111     2.0206234610    -0.8101236781
| 15>  H       -0.4621336058     1.9529453500     0.9567644279
| 16>  H        0.4781056822    -0.3781749161     0.8972290974
| 17>  H       -1.0388250987    -0.2956021945     0.0173365499
| 18>  H        0.2195769864    -0.1495828912    -2.1428874447
| 19>  H        1.7452653068    -0.1719285668    -1.2646870026
| 20>  H       -0.3190076273    -2.4203559280    -1.1929984918
| 21>  H        1.3343348474    -3.6741128519    -2.6152087087
| 22>  H        0.7332152065    -2.2375845463    -3.4483549230
| 23>  H        2.3470669302    -2.2217496618    -2.7062318942
| 24>  H        0.1344634353    -3.9791183078     0.4203280185
| 25>  H        1.5248945649    -4.5444365511    -0.5205044122
| 26>  H        1.8224458051    -5.1089896558     1.8866679668
| 27>  H        3.0613571980    -3.9451690289     1.3728635914
| 28>  H        1.6724411350    -3.3935295355     2.3245049583
| 29> *
| 30>
| 31>                          ****END OF INPUT****

CARTESIAN COORDINATES (ANGSTROEM)
---------------------------------
  C      0.045582    1.573887    0.064109
  C      0.005623    0.044823    0.004926
  C      0.705537   -0.524244   -1.232740
  C      0.719073   -2.053617   -1.283057
  C      1.319422   -2.580753   -2.589808
  O      1.460421   -2.496475   -0.150366
  C      1.214804   -3.826948    0.255879
  C      1.989289   -4.085083    1.538559
  H      1.077557    1.941821    0.088033
  H     -0.441943    2.020623   -0.810124
  H     -0.462134    1.952945    0.956764
  H      0.478106   -0.378175    0.897229
  H     -1.038825   -0.295602    0.017337
  H      0.219577   -0.149583   -2.142887
  H      1.745265   -0.171929   -1.264687
  H     -0.319008   -2.420356   -1.192998
  H      1.334335   -3.674113   -2.615209
  H      0.733215   -2.237585   -3.448355
  H      2.347067   -2.221750   -2.706232
  H      0.134463   -3.979118    0.420328
  H      1.524895   -4.544437   -0.520504
  H      1.822446   -5.108990    1.886668
  H      3.061357   -3.945169    1.372864
  H      1.672441   -3.393530    2.324505

 Total Charge           Charge          ....    0
 Multiplicity           Mult            ....    1
 Number of Electrons    NEL             ....   66
 Basis Dimension        Dim             ....  344

ORBITAL ENERGIES
----------------

  NO   OCC          E(Eh)            E(eV)
   0   2.0000     -20.544069      -559.0325
   1   2.0000     -11.273926      -306.7791
   2   2.0000     -11.270170      -306.6769
   3   2.0000     -11.211870      -305.0905
   4   2.0000     -11.211462      -305.0794
   5   2.0000     -11.211149      -305.0709
   6   2.0000     -11.210115      -305.0427
   7   2.0000     -11.207025      -304.9587
   8   2.0000      -1.366915       -37.1957
   9   2.0000      -1.075455       -29.2646
  10   2.0000      -1.022225       -27.8162
  11   2.0000      -0.987201       -26.8631
  12   2.0000      -0.922646       -25.1065
  13   2.0000      -0.840141       -22.8614
  14   2.0000      -0.808873       -22.0105
  15   2.0000      -0.780862       -21.2483
  16   2.0000      -0.676619       -18.4117
  17   2.0000      -0.648585       -17.6489
  18   2.0000      -0.621382       -16.9087
  19   2.0000      -0.607247       -16.5240
  20   2.0000      -0.584332       -15.9005
  21   2.0000      -0.556280       -15.1372
  22   2.0000      -0.550937       -14.9918
  23   2.0000      -0.543154       -14.7800
  24   2.0000      -0.528720       -14.3872
  25   2.0000      -0.517236       -14.0747
  26   2.0000      -0.512689       -13.9510
  27   2.0000      -0.488365       -13.2891
  28   2.0000      -0.473334       -12.8801
  29   2.0000      -0.461964       -12.5707
  30   2.0000      -0.460628       -12.5343
  31   2.0000      -0.447256       -12.1705
  32   2.0000      -0.408401       -11.1132
  33   0.0000       0.138217         3.7611
  34   0.0000       0.151140         4.1127
  35   0.0000       0.155981         4.2445
  36   0.0000       0.165217         4.4958
  37   0.0000       0.187649         5.1062

MULLIKEN ATOMIC CHARGES
-----------------------
   0 C :   -0.382816
   1 C :   -0.198365
   2 C :   -0.203046
   3 C :    0.078104
   4 C :   -0.389664
   5 O :   -0.302058
   6 C :   -0.046366
   7 C :   -0.367303
   8 H :    0.122889
   9 H :    0.117575
  10 H :    0.131232
  11 H :    0.125302
  12 H :    0.094774
  13 H :    0.105309
  14 H :    0.106610
  15 H :    0.067508
  16 H :    0.130242
  17 H :    0.127165
  18 H :    0.128020
  19 H :    0.089455
  20 H :    0.087985
  21 H :    0.120306
  22 H :    0.128754
  23 H :    0.128386
Sum of atomic charges:    0.0000000

LOEWDIN ATOMIC CHARGES
----------------------
   0 C :   -0.322888
   1 C :   -0.296021
   2 C :   -0.252162
   3 C :   -0.350857
   4 C :   -0.298858
   5 O :    0.178130
   6 C :   -0.356254
   7 C :   -0.318097
   8 H :    0.120226
   9 H :    0.118393
  10 H :    0.119623
  11 H :    0.138219
  12 H :    0.132469
  13 H :    0.140560
  14 H :    0.142535
  15 H :    0.134029
  16 H :    0.119912
  17 H :    0.125218
  18 H :    0.126065
  19 H :    0.115395
  20 H :    0.114897
  21 H :    0.123159
  22 H :    0.123574
  23 H :    0.122733

  Mayer bond orders larger than 0.1
B(  0-C ,  1-C ) :   0.9180 B(  0-C ,  8-H ) :   0.9406 B(  0-C ,  9-H ) :   0.9388
B(  0-C , 10-H ) :   0.9439 B(  1-C ,  2-C ) :   0.9355 B(  1-C , 11-H ) :   0.9347
B(  1-C , 12-H ) :   0.9297 B(  2-C ,  3-C ) :   0.9299 B(  2-C , 13-H ) :   0.9266
B(  2-C , 14-H ) :   0.9207 B(  3-C ,  4-C ) :   0.9144 B(  3-C ,  5-O ) :   0.9178
B(  3-C , 15-H ) :   0.9382 B(  4-C , 16-H ) :   0.9389 B(  4-C , 17-H ) :   0.9350
B(  4-C , 18-H ) :   0.9349 B(  5-O ,  6-C ) :   0.9248 B(  6-C ,  7-C ) :   0.9539
B(  6-C , 19-H ) :   0.9251 B(  6-C , 20-H ) :   0.9197 B(  7-C , 21-H ) :   0.9334
B(  7-C , 22-H ) :   0.9363 B(  7-C , 23-H ) :   0.9377

MP2 TOTAL ENERGY:     -350.805270011 Eh
FINAL SINGLE POINT ENERGY      -350.805270011240

DIPOLE MOMENT
-------------
                                X             Y             Z
Electronic contribution:      0.83151      -1.71706      -0.08082
Nuclear contribution   :     -1.09707       1.42075      -0.09853
                        -----------------------------------------
Total Dipole Moment    :     -0.26555      -0.29632      -0.17935
                        -----------------------------------------
Magnitude (a.u.)       :      0.43645
Magnitude (Debye)      :      1.10937

                             ****ORCA TERMINATED NORMALLY****
TOTAL RUN TIME: 0 days 0 hours 13 minutes 42 seconds 819 msec
