                         Program Version 3.0.3 - RELEASE   -
|  1> ! RI-MP2 RIJK def2-TZVP def2-TZVP/C def2-TZVP/JK TIGHTSCF
|  2> % maxcore 2000
|  3> % mp2 density relaxed end
|  4> *xyz 0 1
|  5>  C        0.0980435625     1.5791043680    -0.0178252972
|  6>  C        0.2437396407     0.0553225689    -0.0379482412
|  7>  C        0.4623015805    -0.5396786625     1.3599339950
|  8>  C        0.5943783449    -2.0481873643     1.3361974346
|  9>  C        1.9155849105    -2.7130420732     1.0308192892
| 10>  C        1.3331786051    -2.7802713610     2.4368819826
| 11>  O        1.9052294860    -1.9549904958     3.4188557096
| 12>  C        0.8214945652    -4.0371669590     2.9204116640
| 13>  C        0.4229919320    -5.0918267068     3.3408088125
| 14>  H        0.9934576915     2.0566077647     0.3954813359
| 15>  H       -0.0582325696     1.9790280893    -1.0245946822
| 16>  H       -0.7532894576     1.8876248739     0.5991643263
| 17>  H       -0.6515298461    -0.3932700706    -0.4885145827
| 18>  H        1.0829714246    -0.2284807986    -0.6857020961
| 19>  H        1.3563245225    -0.1038339142     1.8170075604
| 20>  H       -0.3780391693    -0.2614399741     2.0096431130
| 21>  H       -0.2833980348    -2.5738204267     0.9699134570
| 22>  H        1.9340225585    -3.6172780403     0.4336046389
| 23>  H        2.7814974753    -2.0670248248     0.9267362129
| 24>  H        2.6591735186    -2.4259726221     3.7909371449
| 25>  H        0.0573767487    -6.0166584308     3.7128884028
| 26> *
| 27>
| 28>                          ****END OF INPUT****

CARTESIAN COORDINATES (ANGSTROEM)
---------------------------------
  C      0.098044    1.579104   -0.017825
  C      0.243740    0.055323   -0.037948
  C      0.462302   -0.539679    1.359934
  C      0.594378   -2.048187    1.336197
  C      1.915585   -2.713042    1.030819
  C      1.333179   -2.780271    2.436882
  O      1.905229   -1.954990    3.418856
  C      0.821495   -4.037167    2.920412
  C      0.422992   -5.091827    3.340809
  H      0.993458    2.056608    0.395481
  H     -0.058233    1.979028   -1.024595
  H     -0.753289    1.887625    0.599164
  H     -0.651530   -0.393270   -0.488515
  H      1.082971   -0.228481   -0.685702
  H      1.356325   -0.103834    1.817008
  H     -0.378039   -0.261440    2.009643
  H     -0.283398   -2.573820    0.969913
  H      1.934023   -3.617278    0.433605
  H      2.781497   -2.067025    0.926736
  H      2.659174   -2.425973    3.790937
  H      0.057377   -6.016658    3.712888

 Total Charge           Charge          ....    0
 Multiplicity           Mult            ....    1
 Number of Electrons    NEL             ....   68
 Basis Dimension        Dim             ....  351

ORBITAL ENERGIES
----------------

  NO   OCC          E(Eh)            E(eV)
   0   2.0000     -20.570085      -559.7405
   1   2.0000     -11.311686      -307.8066
   2   2.0000     -11.240274      -305.8634
   3   2.0000     -11.236763      -305.7679
   4   2.0000     -11.233848      -305.6885
   5   2.0000     -11.227532      -305.5167
   6   2.0000     -11.219358      -305.2943
   7   2.0000     -11.218465      -305.2699
   8   2.0000     -11.211165      -305.0713
   9   2.0000      -1.382154       -37.6103
  10   2.0000      -1.151743       -31.3405
  11   2.0000      -1.057009       -28.7627
  12   2.0000      -1.026135       -27.9226
  13   2.0000      -0.942231       -25.6394
  14   2.0000      -0.860302       -23.4100
  15   2.0000      -0.825706       -22.4686
  16   2.0000      -0.777247       -21.1500
  17   2.0000      -0.751684       -20.4544
  18   2.0000      -0.698410       -19.0047
  19   2.0000      -0.665220       -18.1016
  20   2.0000      -0.628924       -17.1139
  21   2.0000      -0.624416       -16.9912
  22   2.0000      -0.584428       -15.9031
  23   2.0000      -0.565814       -15.3966
  24   2.0000      -0.543435       -14.7876
  25   2.0000      -0.532621       -14.4933
  26   2.0000      -0.519925       -14.1479
  27   2.0000      -0.488075       -13.2812
  28   2.0000      -0.477424       -12.9914
  29   2.0000      -0.468976       -12.7615
  30   2.0000      -0.449266       -12.2252
  31   2.0000      -0.423907       -11.5351
  32   2.0000      -0.393812       -10.7162
  33   2.0000      -0.358028        -9.7424
  34   0.0000       0.136614         3.7174
  35   0.0000       0.145863         3.9691
  36   0.0000       0.159967         4.3529
  37   0.0000       0.164913         4.4875
  38   0.0000       0.168104         4.5743

MULLIKEN ATOMIC CHARGES
-----------------------
   0 C :   -0.384792
   1 C :   -0.185620
   2 C :   -0.268085
   3 C :   -0.079920
   4 C :   -0.302017
   5 C :    0.131628
   6 O :   -0.464799
   7 C :   -0.082473
   8 C :   -0.133961
   9 H :    0.122825
  10 H :    0.132883
  11 H :    0.122461
  12 H :    0.103389
  13 H :    0.109827
  14 H :    0.134583
  15 H :    0.119117
  16 H :    0.132760
  17 H :    0.138723
  18 H :    0.135270
  19 H :    0.325966
  20 H :    0.192236
Sum of atomic charges:   -0.0000000

LOEWDIN ATOMIC CHARGES
----------------------
   0 C :   -0.321310
   1 C :   -0.291202
   2 C :   -0.243991
   3 C :   -0.174217
   4 C :   -0.175565
   5 C :   -0.336288
   6 O :    0.037913
   7 C :   -0.074703
   8 C :   -0.089273
   9 H :    0.120459
  10 H :    0.120139
  11 H :    0.120506
  12 H :    0.134110
  13 H :    0.135103
  14 H :    0.146567
  15 H :    0.143939
  16 H :    0.157159
  17 H :    0.136931
  18 H :    0.140628
  19 H :    0.185733
  20 H :    0.127361

  Mayer bond orders larger than 0.1
B(  0-C ,  1-C ) :   0.9214 B(  0-C ,  9-H ) :   0.9401 B(  0-C , 10-H ) :   0.9434
B(  0-C , 11-H ) :   0.9388 B(  1-C ,  2-C ) :   0.9265 B(  1-C , 12-H ) :   0.9301
B(  1-C , 13-H ) :   0.9354 B(  2-C ,  3-C ) :   0.8970 B(  2-C , 14-H ) :   0.9301
B(  2-C , 15-H ) :   0.9293 B(  3-C ,  4-C ) :   0.9097 B(  3-C ,  5-C ) :   0.8483
B(  3-C , 16-H ) :   0.9255 B(  4-C ,  5-C ) :   0.8510 B(  4-C , 17-H ) :   0.9161
B(  4-C , 18-H ) :   0.9162 B(  5-C ,  6-O ) :   0.9229 B(  5-C ,  7-C ) :   1.2241
B(  5-C ,  8-C ) :  -0.1148 B(  6-O , 19-H ) :   0.8362 B(  7-C ,  8-C ) :   2.5538
B(  8-C , 20-H ) :   0.8938

MP2 TOTAL ENERGY:     -386.358990436 Eh
FINAL SINGLE POINT ENERGY      -386.358990436277

DIPOLE MOMENT
-------------
                                X             Y             Z
Electronic contribution:      2.02340     -10.10840       7.59078
Nuclear contribution   :     -1.76248       9.83219      -7.85455
                        -----------------------------------------
Total Dipole Moment    :      0.26092      -0.27622      -0.26377
                        -----------------------------------------
Magnitude (a.u.)       :      0.46255
Magnitude (Debye)      :      1.17570

                             ****ORCA TERMINATED NORMALLY****
TOTAL RUN TIME: 0 days 0 hours 18 minutes 38 seconds 879 msec
