                         Program Version 3.0.3 - RELEASE   -
|  1> ! RI-MP2 RIJK def2-TZVP def2-TZVP/C def2-TZVP/JK TIGHTSCF
|  2> % maxcore 2000
|  3> % mp2 density relaxed end
|  4> *xyz 0 1
|  5>  C       -0.1449138193     1.5688077688     0.0406004928
|  6>  C        0.1378915080     0.0682331332    -0.0417488319
|  7>  N        1.1888074616    -0.3922681203    -0.9816151753
|  8>  C        1.5832677844     0.3703668825    -2.1413186903
|  9>  C        2.1404038452    -0.7591855045     0.0952652618
| 10>  C        3.3842068309     0.1106096670     0.2820664079
| 11>  C        0.9953974895    -0.5174782543     1.0890131998
| 12>  C        1.0109779732    -0.2421642532     2.5238948936
| 13>  O        0.5306119769    -1.4911549167     2.0020598121
| 14>  H        0.7564504703     2.1462074370     0.2689927024
| 15>  H       -0.5596499416     1.9441399240    -0.9006552171
| 16>  H       -0.8822346303     1.7673440431     0.8257003872
| 17>  H       -0.8083188461    -0.4713730942    -0.1865499409
| 18>  H        1.9848563936     1.3770740563    -1.9315915559
| 19>  H        2.3484366177    -0.1825274374    -2.6975521373
| 20>  H        0.7225244531     0.4892500583    -2.8088212033
| 21>  H        2.4416884476    -1.8142446488     0.0358184095
| 22>  H        3.1312213674     1.1649763119     0.4314663407
| 23>  H        3.9496414098    -0.2291337470     1.1563081108
| 24>  H        4.0486259474     0.0400397832    -0.5853491063
| 25>  H        1.9462702050    -0.2978463594     3.0798579227
| 26>  H        0.2509613257     0.4026385003     2.9638621370
| 27> *
| 28>
| 29>                          ****END OF INPUT****

CARTESIAN COORDINATES (ANGSTROEM)
---------------------------------
  C     -0.144914    1.568808    0.040600
  C      0.137892    0.068233   -0.041749
  N      1.188807   -0.392268   -0.981615
  C      1.583268    0.370367   -2.141319
  C      2.140404   -0.759186    0.095265
  C      3.384207    0.110610    0.282066
  C      0.995397   -0.517478    1.089013
  C      1.010978   -0.242164    2.523895
  O      0.530612   -1.491155    2.002060
  H      0.756450    2.146207    0.268993
  H     -0.559650    1.944140   -0.900655
  H     -0.882235    1.767344    0.825700
  H     -0.808319   -0.471373   -0.186550
  H      1.984856    1.377074   -1.931592
  H      2.348437   -0.182527   -2.697552
  H      0.722524    0.489250   -2.808821
  H      2.441688   -1.814245    0.035818
  H      3.131221    1.164976    0.431466
  H      3.949641   -0.229134    1.156308
  H      4.048626    0.040040   -0.585349
  H      1.946270   -0.297846    3.079858
  H      0.250961    0.402639    2.963862

 Total Charge           Charge          ....    0
 Multiplicity           Mult            ....    1
 Number of Electrons    NEL             ....   70
 Basis Dimension        Dim             ....  357

ORBITAL ENERGIES
----------------

  NO   OCC          E(Eh)            E(eV)
   0   2.0000     -20.566178      -559.6341
   1   2.0000     -15.538824      -422.8329
   2   2.0000     -11.286521      -307.1219
   3   2.0000     -11.281600      -306.9879
   4   2.0000     -11.258694      -306.3646
   5   2.0000     -11.258671      -306.3640
   6   2.0000     -11.243732      -305.9575
   7   2.0000     -11.222515      -305.3802
   8   2.0000     -11.222513      -305.3801
   9   2.0000      -1.412662       -38.4405
  10   2.0000      -1.244206       -33.8566
  11   2.0000      -1.025924       -27.9168
  12   2.0000      -1.022741       -27.8302
  13   2.0000      -0.951476       -25.8910
  14   2.0000      -0.914737       -24.8913
  15   2.0000      -0.834941       -22.7199
  16   2.0000      -0.834925       -22.7195
  17   2.0000      -0.723429       -19.6855
  18   2.0000      -0.685852       -18.6630
  19   2.0000      -0.683910       -18.6101
  20   2.0000      -0.627146       -17.0655
  21   2.0000      -0.615393       -16.7457
  22   2.0000      -0.595221       -16.1968
  23   2.0000      -0.579376       -15.7656
  24   2.0000      -0.572530       -15.5793
  25   2.0000      -0.546692       -14.8762
  26   2.0000      -0.545414       -14.8415
  27   2.0000      -0.538841       -14.6626
  28   2.0000      -0.518835       -14.1182
  29   2.0000      -0.494928       -13.4677
  30   2.0000      -0.480956       -13.0875
  31   2.0000      -0.460724       -12.5369
  32   2.0000      -0.439874       -11.9696
  33   2.0000      -0.416991       -11.3469
  34   2.0000      -0.342481        -9.3194
  35   0.0000       0.125411         3.4126
  36   0.0000       0.158085         4.3017
  37   0.0000       0.165123         4.4932
  38   0.0000       0.167894         4.5686
  39   0.0000       0.189449         5.1552

MULLIKEN ATOMIC CHARGES
-----------------------
   0 C :   -0.437351
   1 C :   -0.006758
   2 N :   -0.115967
   3 C :   -0.345636
   4 C :   -0.006758
   5 C :   -0.437349
   6 C :    0.110029
   7 C :   -0.062931
   8 O :   -0.324724
   9 H :    0.128849
  10 H :    0.139995
  11 H :    0.136885
  12 H :    0.093536
  13 H :    0.113634
  14 H :    0.141911
  15 H :    0.141912
  16 H :    0.093536
  17 H :    0.128849
  18 H :    0.136885
  19 H :    0.139994
  20 H :    0.115730
  21 H :    0.115730
Sum of atomic charges:    0.0000000

LOEWDIN ATOMIC CHARGES
----------------------
   0 C :   -0.295592
   1 C :   -0.235006
   2 N :    0.111183
   3 C :   -0.342005
   4 C :   -0.235006
   5 C :   -0.295592
   6 C :   -0.273850
   7 C :   -0.237427
   8 O :    0.175148
   9 H :    0.122484
  10 H :    0.125832
  11 H :    0.128357
  12 H :    0.144109
  13 H :    0.102108
  14 H :    0.120573
  15 H :    0.120572
  16 H :    0.144109
  17 H :    0.122484
  18 H :    0.128357
  19 H :    0.125832
  20 H :    0.121664
  21 H :    0.121664

  Mayer bond orders larger than 0.1
B(  0-C ,  1-C ) :   0.8989 B(  0-C ,  9-H ) :   0.9345 B(  0-C , 10-H ) :   0.9348
B(  0-C , 11-H ) :   0.9336 B(  1-C ,  2-N ) :   0.9954 B(  1-C ,  6-C ) :   0.9121
B(  1-C , 12-H ) :   0.8991 B(  2-N ,  3-C ) :   0.9079 B(  2-N ,  4-C ) :   0.9954
B(  3-C , 13-H ) :   0.9255 B(  3-C , 14-H ) :   0.9364 B(  3-C , 15-H ) :   0.9364
B(  4-C ,  5-C ) :   0.8989 B(  4-C ,  6-C ) :   0.9121 B(  4-C , 16-H ) :   0.8991
B(  5-C , 17-H ) :   0.9345 B(  5-C , 18-H ) :   0.9336 B(  5-C , 19-H ) :   0.9348
B(  6-C ,  7-C ) :   0.9755 B(  6-C ,  8-O ) :   0.9136 B(  7-C ,  8-O ) :   0.8920
B(  7-C , 20-H ) :   0.9088 B(  7-C , 21-H ) :   0.9088

MP2 TOTAL ENERGY:     -403.605826307 Eh
FINAL SINGLE POINT ENERGY      -403.605826307197

DIPOLE MOMENT
-------------
                                X             Y             Z
Electronic contribution:     -2.96641      -6.49897       4.10851
Nuclear contribution   :      3.35651       7.43508      -4.15674
                        -----------------------------------------
Total Dipole Moment    :      0.39009       0.93611      -0.04823
                        -----------------------------------------
Magnitude (a.u.)       :      1.01528
Magnitude (Debye)      :      2.58064

                             ****ORCA TERMINATED NORMALLY****
TOTAL RUN TIME: 0 days 0 hours 19 minutes 36 seconds 804 msec
