                         Program Version 3.0.3 - RELEASE   -
|  1> ! RI-MP2 RIJK def2-TZVP def2-TZVP/C def2-TZVP/JK TIGHTSCF
|  2> % maxcore 2000
|  3> % mp2 density relaxed end
|  4> *xyz 0 1
|  5>  C        0.0422016529     1.6002892896     0.2000199351
|  6>  C       -0.0786845528     0.0829689264     0.3604286924
|  7>  C       -1.4656554593    -0.4846130847     0.1026950508
|  8>  C       -2.6834092361     0.3343424285     0.1908217521
|  9>  O       -2.1284602273    -0.0315700841    -1.0810190541
| 10>  C       -1.6286733819    -2.0028085943     0.2994435345
| 11>  C       -0.7410613133    -2.8306670889    -0.6521874662
| 12>  C       -1.3967184855    -2.3714766160     1.7000281533
| 13>  N       -1.2047697166    -2.6533554196     2.8045237020
| 14>  H        1.0921515698     1.9015434907     0.2450047954
| 15>  H       -0.3628204767     1.9207184779    -0.7639087273
| 16>  H       -0.4863631634     2.1369403176     0.9934455260
| 17>  H        0.6156136683    -0.4048078564    -0.3343815313
| 18>  H        0.2330011379    -0.2189917272     1.3673562624
| 19>  H       -3.6328089523    -0.1381212699     0.4390557919
| 20>  H       -2.6165871564     1.3905439163     0.4363600187
| 21>  H       -2.6751731903    -2.2352250427     0.0721388705
| 22>  H       -0.9182597830    -2.5019954899    -1.6792255767
| 23>  H        0.3193045560    -2.7127250885    -0.4191275013
| 24>  H       -0.9873401201    -3.8921828948    -0.5754478482
| 25> *
| 26>
| 27>                          ****END OF INPUT****

CARTESIAN COORDINATES (ANGSTROEM)
---------------------------------
  C      0.042202    1.600289    0.200020
  C     -0.078685    0.082969    0.360429
  C     -1.465655   -0.484613    0.102695
  C     -2.683409    0.334342    0.190822
  O     -2.128460   -0.031570   -1.081019
  C     -1.628673   -2.002809    0.299444
  C     -0.741061   -2.830667   -0.652187
  C     -1.396718   -2.371477    1.700028
  N     -1.204770   -2.653355    2.804524
  H      1.092152    1.901543    0.245005
  H     -0.362820    1.920718   -0.763909
  H     -0.486363    2.136940    0.993446
  H      0.615614   -0.404808   -0.334382
  H      0.233001   -0.218992    1.367356
  H     -3.632809   -0.138121    0.439056
  H     -2.616587    1.390544    0.436360
  H     -2.675173   -2.235225    0.072139
  H     -0.918260   -2.501995   -1.679226
  H      0.319305   -2.712725   -0.419128
  H     -0.987340   -3.892183   -0.575448

 Total Charge           Charge          ....    0
 Multiplicity           Mult            ....    1
 Number of Electrons    NEL             ....   68
 Basis Dimension        Dim             ....  345

ORBITAL ENERGIES
----------------

  NO   OCC          E(Eh)            E(eV)
   0   2.0000     -20.582793      -560.0863
   1   2.0000     -15.573109      -423.7658
   2   2.0000     -11.315909      -307.9215
   3   2.0000     -11.296293      -307.3878
   4   2.0000     -11.293123      -307.3015
   5   2.0000     -11.275746      -306.8286
   6   2.0000     -11.245623      -306.0089
   7   2.0000     -11.242568      -305.9258
   8   2.0000     -11.225965      -305.4740
   9   2.0000      -1.429018       -38.8856
  10   2.0000      -1.223605       -33.2960
  11   2.0000      -1.108758       -30.1708
  12   2.0000      -1.050895       -28.5963
  13   2.0000      -0.952751       -25.9257
  14   2.0000      -0.909985       -24.7620
  15   2.0000      -0.890278       -24.2257
  16   2.0000      -0.795396       -21.6438
  17   2.0000      -0.729039       -19.8382
  18   2.0000      -0.676454       -18.4072
  19   2.0000      -0.671980       -18.2855
  20   2.0000      -0.630757       -17.1638
  21   2.0000      -0.604813       -16.4578
  22   2.0000      -0.584470       -15.9042
  23   2.0000      -0.570595       -15.5267
  24   2.0000      -0.563785       -15.3414
  25   2.0000      -0.554795       -15.0967
  26   2.0000      -0.541034       -14.7223
  27   2.0000      -0.521311       -14.1856
  28   2.0000      -0.513936       -13.9849
  29   2.0000      -0.503198       -13.6927
  30   2.0000      -0.477848       -13.0029
  31   2.0000      -0.461842       -12.5674
  32   2.0000      -0.444540       -12.0965
  33   2.0000      -0.440703       -11.9921
  34   0.0000       0.126260         3.4357
  35   0.0000       0.142804         3.8859
  36   0.0000       0.145415         3.9569
  37   0.0000       0.166856         4.5404
  38   0.0000       0.175275         4.7695

MULLIKEN ATOMIC CHARGES
-----------------------
   0 C :   -0.424312
   1 C :   -0.246682
   2 C :    0.187667
   3 C :   -0.092013
   4 O :   -0.340691
   5 C :    0.097778
   6 C :   -0.439897
   7 C :   -0.237788
   8 N :   -0.054184
   9 H :    0.143613
  10 H :    0.153718
  11 H :    0.128717
  12 H :    0.123910
  13 H :    0.147949
  14 H :    0.121041
  15 H :    0.128031
  16 H :    0.137628
  17 H :    0.163824
  18 H :    0.147934
  19 H :    0.153757
Sum of atomic charges:   -0.0000000

LOEWDIN ATOMIC CHARGES
----------------------
   0 C :   -0.309924
   1 C :   -0.244641
   2 C :   -0.301839
   3 C :   -0.229953
   4 O :    0.171680
   5 C :   -0.228170
   6 C :   -0.259345
   7 C :   -0.167646
   8 N :    0.062147
   9 H :    0.125532
  10 H :    0.129174
  11 H :    0.121345
  12 H :    0.148278
  13 H :    0.154097
  14 H :    0.123613
  15 H :    0.124921
  16 H :    0.183969
  17 H :    0.135696
  18 H :    0.129134
  19 H :    0.131931

  Mayer bond orders larger than 0.1
B(  0-C ,  1-C ) :   0.9239 B(  0-C ,  9-H ) :   0.9384 B(  0-C , 10-H ) :   0.9359
B(  0-C , 11-H ) :   0.9379 B(  1-C ,  2-C ) :   0.9144 B(  1-C , 12-H ) :   0.9274
B(  1-C , 13-H ) :   0.9204 B(  2-C ,  3-C ) :   0.9742 B(  2-C ,  4-O ) :   0.8548
B(  2-C ,  5-C ) :   0.8369 B(  3-C ,  4-O ) :   0.8927 B(  3-C , 14-H ) :   0.9020
B(  3-C , 15-H ) :   0.9152 B(  5-C ,  6-C ) :   0.8932 B(  5-C ,  7-C ) :   0.9063
B(  5-C , 16-H ) :   0.9158 B(  6-C , 17-H ) :   0.9346 B(  6-C , 18-H ) :   0.9284
B(  6-C , 19-H ) :   0.9329 B(  7-C ,  8-N ) :   2.8716

MP2 TOTAL ENERGY:     -402.460797877 Eh
FINAL SINGLE POINT ENERGY      -402.460797877001

DIPOLE MOMENT
-------------
                                X             Y             Z
Electronic contribution:     -4.05131      -4.21860       3.41068
Nuclear contribution   :      4.00652       4.66018      -4.18803
                        -----------------------------------------
Total Dipole Moment    :     -0.04479       0.44158      -0.77735
                        -----------------------------------------
Magnitude (a.u.)       :      0.89514
Magnitude (Debye)      :      2.27527

                             ****ORCA TERMINATED NORMALLY****
TOTAL RUN TIME: 0 days 0 hours 19 minutes 49 seconds 448 msec
