                         Program Version 3.0.3 - RELEASE   -
|  1> ! RI-MP2 RIJK def2-TZVP def2-TZVP/C def2-TZVP/JK TIGHTSCF
|  2> % maxcore 2000
|  3> % mp2 density relaxed end
|  4> *xyz 0 1
|  5>  C       -0.8096826486     1.4904010313    -0.4997983416
|  6>  O       -0.9140833145     0.0945024249    -0.6388569317
|  7>  C       -0.5832024291    -0.6016112221     0.5462826093
|  8>  C       -0.7280251708    -2.0607548217     0.2829272959
|  9>  C       -0.3124177329    -2.9307362668    -0.8764564979
| 10>  C        0.3994806648    -3.9187973783     0.0441500818
| 11>  C       -0.5138799538    -3.3620542375     1.1718641589
| 12>  C       -1.9420932640    -3.8157454213     0.7590366682
| 13>  C       -1.7877952922    -2.8657731095    -0.4259791894
| 14>  H       -1.0830396224     1.9362032030    -1.4593449962
| 15>  H       -1.4880857980     1.8767219656     0.2777889191
| 16>  H        0.2157236406     1.8011451825    -0.2426985895
| 17>  H        0.4497807275    -0.3591233942     0.8564626092
| 18>  H       -1.2443471824    -0.2842804263     1.3734745943
| 19>  H       -0.0272391623    -2.6020980124    -1.8671308052
| 20>  H        0.3350182445    -4.9928367586    -0.1685450260
| 21>  H        1.4462208652    -3.6384171917     0.1939760285
| 22>  H       -0.1972232571    -3.3888492296     2.2131175921
| 23>  H       -2.0936746367    -4.8859389642     0.5728592951
| 24>  H       -2.7008560327    -3.4560073722     1.4601623788
| 25>  H       -2.5493538250    -2.4910114210    -1.0970600036
| 26> *
| 27>
| 28>                          ****END OF INPUT****

CARTESIAN COORDINATES (ANGSTROEM)
---------------------------------
  C     -0.809683    1.490401   -0.499798
  O     -0.914083    0.094502   -0.638857
  C     -0.583202   -0.601611    0.546283
  C     -0.728025   -2.060755    0.282927
  C     -0.312418   -2.930736   -0.876456
  C      0.399481   -3.918797    0.044150
  C     -0.513880   -3.362054    1.171864
  C     -1.942093   -3.815745    0.759037
  C     -1.787795   -2.865773   -0.425979
  H     -1.083040    1.936203   -1.459345
  H     -1.488086    1.876722    0.277789
  H      0.215724    1.801145   -0.242699
  H      0.449781   -0.359123    0.856463
  H     -1.244347   -0.284280    1.373475
  H     -0.027239   -2.602098   -1.867131
  H      0.335018   -4.992837   -0.168545
  H      1.446221   -3.638417    0.193976
  H     -0.197223   -3.388849    2.213118
  H     -2.093675   -4.885939    0.572859
  H     -2.700856   -3.456007    1.460162
  H     -2.549354   -2.491011   -1.097060

 Total Charge           Charge          ....    0
 Multiplicity           Mult            ....    1
 Number of Electrons    NEL             ....   68
 Basis Dimension        Dim             ....  351

ORBITAL ENERGIES
----------------

  NO   OCC          E(Eh)            E(eV)
   0   2.0000     -20.555004      -559.3301
   1   2.0000     -11.279090      -306.9196
   2   2.0000     -11.270389      -306.6829
   3   2.0000     -11.233237      -305.6719
   4   2.0000     -11.226821      -305.4973
   5   2.0000     -11.222102      -305.3689
   6   2.0000     -11.221578      -305.3547
   7   2.0000     -11.218314      -305.2659
   8   2.0000     -11.218297      -305.2654
   9   2.0000      -1.375763       -37.4364
  10   2.0000      -1.223111       -33.2826
  11   2.0000      -0.997110       -27.1328
  12   2.0000      -0.964963       -26.2580
  13   2.0000      -0.945252       -25.7216
  14   2.0000      -0.892099       -24.2753
  15   2.0000      -0.819374       -22.2963
  16   2.0000      -0.737358       -20.0645
  17   2.0000      -0.700742       -19.0682
  18   2.0000      -0.692526       -18.8446
  19   2.0000      -0.661779       -18.0079
  20   2.0000      -0.649488       -17.6735
  21   2.0000      -0.616460       -16.7747
  22   2.0000      -0.593127       -16.1398
  23   2.0000      -0.578853       -15.7514
  24   2.0000      -0.550937       -14.9918
  25   2.0000      -0.544263       -14.8102
  26   2.0000      -0.515447       -14.0260
  27   2.0000      -0.485908       -13.2222
  28   2.0000      -0.477544       -12.9946
  29   2.0000      -0.438394       -11.9293
  30   2.0000      -0.429136       -11.6774
  31   2.0000      -0.427074       -11.6213
  32   2.0000      -0.380439       -10.3523
  33   2.0000      -0.352413        -9.5896
  34   0.0000       0.140154         3.8138
  35   0.0000       0.158207         4.3050
  36   0.0000       0.174263         4.7419
  37   0.0000       0.176134         4.7928
  38   0.0000       0.184220         5.0129

MULLIKEN ATOMIC CHARGES
-----------------------
   0 C :   -0.223919
   1 O :   -0.293952
   2 C :   -0.085861
   3 C :    0.078184
   4 C :   -0.169444
   5 C :   -0.194145
   6 C :   -0.118898
   7 C :   -0.194131
   8 C :   -0.169488
   9 H :    0.140168
  10 H :    0.110739
  11 H :    0.110748
  12 H :    0.094572
  13 H :    0.094577
  14 H :    0.131311
  15 H :    0.102574
  16 H :    0.113551
  17 H :    0.125981
  18 H :    0.102570
  19 H :    0.113557
  20 H :    0.131308
Sum of atomic charges:    0.0000000

LOEWDIN ATOMIC CHARGES
----------------------
   0 C :   -0.362207
   1 O :    0.143555
   2 C :   -0.296191
   3 C :   -0.146664
   4 C :   -0.147099
   5 C :   -0.201070
   6 C :   -0.137981
   7 C :   -0.201057
   8 C :   -0.147115
   9 H :    0.113562
  10 H :    0.101120
  11 H :    0.101119
  12 H :    0.125063
  13 H :    0.125059
  14 H :    0.139753
  15 H :    0.122668
  16 H :    0.137865
  17 H :    0.129336
  18 H :    0.122671
  19 H :    0.137859
  20 H :    0.139754

  Mayer bond orders larger than 0.1
B(  0-C ,  1-O ) :   0.9218 B(  0-C ,  9-H ) :   0.9395 B(  0-C , 10-H ) :   0.9372
B(  0-C , 11-H ) :   0.9372 B(  1-O ,  2-C ) :   0.9989 B(  2-C ,  3-C ) :   0.8860
B(  2-C , 12-H ) :   0.9201 B(  2-C , 13-H ) :   0.9200 B(  3-C ,  4-C ) :   0.8143
B(  3-C ,  6-C ) :   0.8394 B(  3-C ,  8-C ) :   0.8144 B(  4-C ,  5-C ) :   0.9603
B(  4-C ,  8-C ) :   0.8457 B(  4-C , 14-H ) :   0.9341 B(  5-C ,  6-C ) :   0.9396
B(  5-C , 15-H ) :   0.9171 B(  5-C , 16-H ) :   0.9289 B(  6-C ,  7-C ) :   0.9396
B(  6-C , 17-H ) :   0.9191 B(  7-C ,  8-C ) :   0.9603 B(  7-C , 18-H ) :   0.9172
B(  7-C , 19-H ) :   0.9289 B(  8-C , 20-H ) :   0.9341

MP2 TOTAL ENERGY:     -386.344880593 Eh
FINAL SINGLE POINT ENERGY      -386.344880593168

DIPOLE MOMENT
-------------
                                X             Y             Z
Electronic contribution:     -0.45764      -1.85298      -1.22817
Nuclear contribution   :      0.59184       2.21713       1.61493
                        -----------------------------------------
Total Dipole Moment    :      0.13420       0.36415       0.38676
                        -----------------------------------------
Magnitude (a.u.)       :      0.54791
Magnitude (Debye)      :      1.39267

                             ****ORCA TERMINATED NORMALLY****
TOTAL RUN TIME: 0 days 0 hours 17 minutes 55 seconds 494 msec
