                         Program Version 3.0.3 - RELEASE   -
|  1> ! RI-MP2 RIJK def2-TZVP def2-TZVP/C def2-TZVP/JK TIGHTSCF
|  2> % maxcore 2000
|  3> % mp2 density relaxed end
|  4> *xyz 0 1
|  5>  C       -0.0098370917     1.5145473602     0.0386596205
|  6>  C       -0.0061642020     0.0277782082    -0.0553353439
|  7>  C       -0.0332043905    -0.8349632246    -1.1199534465
|  8>  N       -0.0151403970    -2.1529746843    -0.7045871770
|  9>  C        0.0223885495    -2.0732473369     0.6017175807
| 10>  N        0.0519747358    -3.1784855585     1.4497038056
| 11>  C        0.0899816334    -3.1319732805     2.8092956352
| 12>  O        0.1037571049    -2.1093242050     3.4712803013
| 13>  N        0.0300668131    -0.7952963282     1.0602995016
| 14>  H        0.8877482750     1.8992706536     0.5380899899
| 15>  H       -0.0423342511     1.9462597583    -0.9643886417
| 16>  H       -0.8786820244     1.8914833863     0.5919408451
| 17>  H       -0.0647474887    -0.5819036940    -2.1687931484
| 18>  H        0.0424746844    -4.0710004411     0.9787673213
| 19>  H        0.1073631443    -4.1399023235     3.2584626659
| 20>  H        0.0565807451    -0.5647482400     2.0434898003
| 21> *
| 22>
| 23>                          ****END OF INPUT****

CARTESIAN COORDINATES (ANGSTROEM)
---------------------------------
  C     -0.009837    1.514547    0.038660
  C     -0.006164    0.027778   -0.055335
  C     -0.033204   -0.834963   -1.119953
  N     -0.015140   -2.152975   -0.704587
  C      0.022389   -2.073247    0.601718
  N      0.051975   -3.178486    1.449704
  C      0.089982   -3.131973    2.809296
  O      0.103757   -2.109324    3.471280
  N      0.030067   -0.795296    1.060300
  H      0.887748    1.899271    0.538090
  H     -0.042334    1.946260   -0.964389
  H     -0.878682    1.891483    0.591941
  H     -0.064747   -0.581904   -2.168793
  H      0.042475   -4.071000    0.978767
  H      0.107363   -4.139902    3.258463
  H      0.056581   -0.564748    2.043490

 Total Charge           Charge          ....    0
 Multiplicity           Mult            ....    1
 Number of Electrons    NEL             ....   66
 Basis Dimension        Dim             ....  321

ORBITAL ENERGIES
----------------

  NO   OCC          E(Eh)            E(eV)
   0   2.0000     -20.554152      -559.3069
   1   2.0000     -15.628304      -425.2678
   2   2.0000     -15.607553      -424.7031
   3   2.0000     -15.539096      -422.8403
   4   2.0000     -11.381337      -309.7019
   5   2.0000     -11.340142      -308.5810
   6   2.0000     -11.260170      -306.4048
   7   2.0000     -11.235917      -305.7449
   8   2.0000     -11.235235      -305.7263
   9   2.0000      -1.416586       -38.5473
  10   2.0000      -1.352147       -36.7938
  11   2.0000      -1.259357       -34.2688
  12   2.0000      -1.168384       -31.7934
  13   2.0000      -1.042066       -28.3561
  14   2.0000      -0.952744       -25.9255
  15   2.0000      -0.874659       -23.8007
  16   2.0000      -0.821009       -22.3408
  17   2.0000      -0.812300       -22.1038
  18   2.0000      -0.738956       -20.1080
  19   2.0000      -0.720752       -19.6127
  20   2.0000      -0.655077       -17.8256
  21   2.0000      -0.644848       -17.5472
  22   2.0000      -0.628729       -17.1086
  23   2.0000      -0.593120       -16.1396
  24   2.0000      -0.579827       -15.7779
  25   2.0000      -0.566447       -15.4138
  26   2.0000      -0.553264       -15.0551
  27   2.0000      -0.548256       -14.9188
  28   2.0000      -0.465027       -12.6540
  29   2.0000      -0.464018       -12.6266
  30   2.0000      -0.441171       -12.0049
  31   2.0000      -0.398824       -10.8526
  32   2.0000      -0.294303        -8.0084
  33   0.0000       0.129672         3.5286
  34   0.0000       0.130179         3.5424
  35   0.0000       0.139828         3.8049
  36   0.0000       0.180715         4.9175
  37   0.0000       0.190603         5.1866

MULLIKEN ATOMIC CHARGES
-----------------------
   0 C :   -0.418945
   1 C :    0.111227
   2 C :   -0.139100
   3 N :   -0.304992
   4 C :    0.298528
   5 N :   -0.293763
   6 C :    0.219957
   7 O :   -0.400112
   8 N :   -0.295092
   9 H :    0.147049
  10 H :    0.148409
  11 H :    0.147011
  12 H :    0.131885
  13 H :    0.266231
  14 H :    0.104282
  15 H :    0.277424
Sum of atomic charges:    0.0000000

LOEWDIN ATOMIC CHARGES
----------------------
   0 C :   -0.278452
   1 C :   -0.258756
   2 C :   -0.242476
   3 N :    0.092047
   4 C :   -0.384181
   5 N :    0.148046
   6 C :   -0.407075
   7 O :    0.049621
   8 N :    0.217034
   9 H :    0.131505
  10 H :    0.139577
  11 H :    0.131499
  12 H :    0.133941
  13 H :    0.208655
  14 H :    0.118761
  15 H :    0.200253

  Mayer bond orders larger than 0.1
B(  0-C ,  1-C ) :   0.8535 B(  0-C ,  9-H ) :   0.9337 B(  0-C , 10-H ) :   0.9504
B(  0-C , 11-H ) :   0.9338 B(  1-C ,  2-C ) :   1.5224 B(  1-C ,  8-N ) :   1.0780
B(  2-C ,  3-N ) :   1.2486 B(  2-C , 12-H ) :   0.9451 B(  3-N ,  4-C ) :   1.6088
B(  4-C ,  5-N ) :   0.9577 B(  4-C ,  8-N ) :   1.2044 B(  5-N ,  6-C ) :   1.1426
B(  5-N , 13-H ) :   0.8546 B(  6-C ,  7-O ) :   1.8034 B(  6-C , 14-H ) :   0.9310
B(  8-N , 15-H ) :   0.8304

MP2 TOTAL ENERGY:     -433.421229568 Eh
FINAL SINGLE POINT ENERGY      -433.421229567863

DIPOLE MOMENT
-------------
                                X             Y             Z
Electronic contribution:      0.08488      -5.91521       2.03920
Nuclear contribution   :     -0.07912       5.88466      -1.85570
                        -----------------------------------------
Total Dipole Moment    :      0.00577      -0.03055       0.18350
                        -----------------------------------------
Magnitude (a.u.)       :      0.18612
Magnitude (Debye)      :      0.47307

                             ****ORCA TERMINATED NORMALLY****
TOTAL RUN TIME: 0 days 0 hours 14 minutes 47 seconds 834 msec
