                         Program Version 3.0.3 - RELEASE   -
|  1> ! RI-MP2 RIJK def2-TZVP def2-TZVP/C def2-TZVP/JK TIGHTSCF
|  2> % maxcore 2000
|  3> % mp2 density relaxed end
|  4> *xyz 0 1
|  5>  C       -0.2760180647     1.2475680733     1.1005617336
|  6>  C       -0.0676323274    -0.2309010657     0.7547688218
|  7>  C        0.5565286452    -0.5497733933    -0.6028043418
|  8>  C        0.3860170387     0.3761803350    -1.7605960152
|  9>  N        1.6883747443     0.2740518657    -1.0844719993
| 10>  C        0.7880208576    -2.0138742188    -0.9360560242
| 11>  C        0.2357414583    -3.1548453690    -0.1469795733
| 12>  N       -0.2292515271    -2.9087671884    -1.5055083073
| 13>  C       -1.5933136542    -2.4335971735    -1.6765648096
| 14>  H        0.6578793801     1.8197164309     1.0883008234
| 15>  H       -0.9809444180     1.7350399575     0.4206426524
| 16>  H       -0.6858704677     1.3349778263     2.1109435781
| 17>  H        0.5628305657    -0.6935998611     1.5253247819
| 18>  H       -1.0369750062    -0.7370011105     0.8271539704
| 19>  H        0.3637484673    -0.0300526637    -2.7681439424
| 20>  H       -0.2010410953     1.2800532827    -1.6283334512
| 21>  H        1.8226051602     1.0790104131    -0.4783642931
| 22>  H        1.7612139089    -2.1489886013    -1.4021033445
| 23>  H        0.8250579639    -4.0564395883     0.0037472527
| 24>  H       -0.4433847398    -2.9252025710     0.6721749818
| 25>  H       -1.9553507349    -1.7594792011    -0.8847348608
| 26>  H       -1.6771974303    -1.9065557078    -2.6323001883
| 27>  H       -2.2620859645    -3.2998378909    -1.7113599351
| 28> *
| 29>
| 30>                          ****END OF INPUT****

CARTESIAN COORDINATES (ANGSTROEM)
---------------------------------
  C     -0.276018    1.247568    1.100562
  C     -0.067632   -0.230901    0.754769
  C      0.556529   -0.549773   -0.602804
  C      0.386017    0.376180   -1.760596
  N      1.688375    0.274052   -1.084472
  C      0.788021   -2.013874   -0.936056
  C      0.235741   -3.154845   -0.146980
  N     -0.229252   -2.908767   -1.505508
  C     -1.593314   -2.433597   -1.676565
  H      0.657879    1.819716    1.088301
  H     -0.980944    1.735040    0.420643
  H     -0.685870    1.334978    2.110944
  H      0.562831   -0.693600    1.525325
  H     -1.036975   -0.737001    0.827154
  H      0.363748   -0.030053   -2.768144
  H     -0.201041    1.280053   -1.628333
  H      1.822605    1.079010   -0.478364
  H      1.761214   -2.148989   -1.402103
  H      0.825058   -4.056440    0.003747
  H     -0.443385   -2.925203    0.672175
  H     -1.955351   -1.759479   -0.884735
  H     -1.677197   -1.906556   -2.632300
  H     -2.262086   -3.299838   -1.711360

 Total Charge           Charge          ....    0
 Multiplicity           Mult            ....    1
 Number of Electrons    NEL             ....   70
 Basis Dimension        Dim             ....  363

ORBITAL ENERGIES
----------------

  NO   OCC          E(Eh)            E(eV)
   0   2.0000     -15.554739      -423.2660
   1   2.0000     -15.551424      -423.1758
   2   2.0000     -11.270536      -306.6869
   3   2.0000     -11.252755      -306.2030
   4   2.0000     -11.252504      -306.1962
   5   2.0000     -11.247777      -306.0676
   6   2.0000     -11.243423      -305.9491
   7   2.0000     -11.236446      -305.7592
   8   2.0000     -11.228634      -305.5467
   9   2.0000      -1.276565       -34.7371
  10   2.0000      -1.250482       -34.0274
  11   2.0000      -1.046397       -28.4739
  12   2.0000      -0.993117       -27.0241
  13   2.0000      -0.927337       -25.2341
  14   2.0000      -0.878481       -23.9047
  15   2.0000      -0.847960       -23.0742
  16   2.0000      -0.814607       -22.1666
  17   2.0000      -0.739005       -20.1094
  18   2.0000      -0.688256       -18.7284
  19   2.0000      -0.669796       -18.2261
  20   2.0000      -0.643402       -17.5079
  21   2.0000      -0.619498       -16.8574
  22   2.0000      -0.590011       -16.0550
  23   2.0000      -0.574784       -15.6407
  24   2.0000      -0.560580       -15.2541
  25   2.0000      -0.551900       -15.0180
  26   2.0000      -0.527263       -14.3476
  27   2.0000      -0.524322       -14.2675
  28   2.0000      -0.492798       -13.4097
  29   2.0000      -0.478779       -13.0282
  30   2.0000      -0.476099       -12.9553
  31   2.0000      -0.447723       -12.1832
  32   2.0000      -0.428391       -11.6571
  33   2.0000      -0.385689       -10.4951
  34   2.0000      -0.358303        -9.7499
  35   0.0000       0.130834         3.5602
  36   0.0000       0.151909         4.1337
  37   0.0000       0.160745         4.3741
  38   0.0000       0.178971         4.8701
  39   0.0000       0.188456         5.1281

MULLIKEN ATOMIC CHARGES
-----------------------
   0 C :   -0.427636
   1 C :   -0.184961
   2 C :    0.123890
   3 C :   -0.209505
   4 N :   -0.371942
   5 C :   -0.111171
   6 C :   -0.162798
   7 N :   -0.219423
   8 C :   -0.285451
   9 H :    0.123836
  10 H :    0.130942
  11 H :    0.146337
  12 H :    0.128922
  13 H :    0.109103
  14 H :    0.126603
  15 H :    0.124430
  16 H :    0.207618
  17 H :    0.135567
  18 H :    0.125584
  19 H :    0.117589
  20 H :    0.098030
  21 H :    0.131324
  22 H :    0.143112
Sum of atomic charges:   -0.0000000

LOEWDIN ATOMIC CHARGES
----------------------
   0 C :   -0.316273
   1 C :   -0.259786
   2 C :   -0.290374
   3 C :   -0.244445
   4 N :    0.011082
   5 C :   -0.212386
   6 C :   -0.246473
   7 N :    0.088166
   8 C :   -0.332545
   9 H :    0.117247
  10 H :    0.121521
  11 H :    0.127076
  12 H :    0.146649
  13 H :    0.138843
  14 H :    0.129159
  15 H :    0.120877
  16 H :    0.160654
  17 H :    0.153682
  18 H :    0.123324
  19 H :    0.123369
  20 H :    0.104018
  21 H :    0.117547
  22 H :    0.119067

  Mayer bond orders larger than 0.1
B(  0-C ,  1-C ) :   0.9019 B(  0-C ,  9-H ) :   0.9421 B(  0-C , 10-H ) :   0.9358
B(  0-C , 11-H ) :   0.9371 B(  1-C ,  2-C ) :   0.9185 B(  1-C , 12-H ) :   0.9362
B(  1-C , 13-H ) :   0.9195 B(  2-C ,  3-C ) :   0.9206 B(  2-C ,  4-N ) :   0.8841
B(  2-C ,  5-C ) :   0.8821 B(  3-C ,  4-N ) :   0.9459 B(  3-C , 14-H ) :   0.9088
B(  3-C , 15-H ) :   0.9240 B(  4-N , 16-H ) :   0.8782 B(  5-C ,  6-C ) :   0.9343
B(  5-C ,  7-N ) :   0.9096 B(  5-C , 17-H ) :   0.9211 B(  6-C ,  7-N ) :   0.9116
B(  6-C , 18-H ) :   0.9192 B(  6-C , 19-H ) :   0.9112 B(  7-N ,  8-C ) :   0.8884
B(  8-C , 20-H ) :   0.9251 B(  8-C , 21-H ) :   0.9392 B(  8-C , 22-H ) :   0.9374

MP2 TOTAL ENERGY:     -383.728926513 Eh
FINAL SINGLE POINT ENERGY      -383.728926513062

DIPOLE MOMENT
-------------
                                X             Y             Z
Electronic contribution:      4.16690      -3.08337      -3.07272
Nuclear contribution   :     -4.86496       3.69715       3.80581
                        -----------------------------------------
Total Dipole Moment    :     -0.69806       0.61378       0.73309
                        -----------------------------------------
Magnitude (a.u.)       :      1.18382
Magnitude (Debye)      :      3.00903

                             ****ORCA TERMINATED NORMALLY****
TOTAL RUN TIME: 0 days 0 hours 19 minutes 55 seconds 148 msec
