                         Program Version 3.0.3 - RELEASE   -
|  1> ! RI-MP2 RIJK def2-TZVP def2-TZVP/C def2-TZVP/JK TIGHTSCF
|  2> % maxcore 2000
|  3> % mp2 density relaxed end
|  4> *xyz 0 1
|  5>  C        0.0971154489     1.5701736141    -0.0586306870
|  6>  C        0.2038982398     0.0615442597     0.0692198368
|  7>  O        0.4485660595    -0.4798593436    -1.2290878378
|  8>  C        0.5790184980    -1.8340557216    -1.2515713576
|  9>  C        1.6201587340    -2.7951060210    -0.7245643520
| 10>  C        0.5615824169    -3.6946511335    -0.0934030693
| 11>  C       -0.4488254998    -3.0594144081    -1.0879690776
| 12>  C        0.0351401308    -3.5547523111    -2.4798902560
| 13>  C        1.2795307885    -2.7024734535    -2.2459440293
| 14>  H        1.0229940608     1.9874816056    -0.4646134178
| 15>  H       -0.7237225936     1.8427923837    -0.7279428550
| 16>  H       -0.0881039574     2.0221542275     0.9203897172
| 17>  H        1.0237355485    -0.2227228665     0.7447824645
| 18>  H       -0.7250611236    -0.3627161208     0.4788318762
| 19>  H        2.6257591771    -2.5818576991    -0.3853590922
| 20>  H        0.6915715730    -4.7814899158    -0.1548722949
| 21>  H        0.3570362452    -3.4089285956     0.9424694222
| 22>  H       -1.5094920724    -3.0043616057    -0.8518236930
| 23>  H        0.1507117286    -4.6374649206    -2.6072155985
| 24>  H       -0.5747857904    -3.1513754246    -3.2928423439
| 25>  H        2.0447519277    -2.4054224094    -2.9514571350
| 26> *
| 27>
| 28>                          ****END OF INPUT****

CARTESIAN COORDINATES (ANGSTROEM)
---------------------------------
  C      0.097115    1.570174   -0.058631
  C      0.203898    0.061544    0.069220
  O      0.448566   -0.479859   -1.229088
  C      0.579018   -1.834056   -1.251571
  C      1.620159   -2.795106   -0.724564
  C      0.561582   -3.694651   -0.093403
  C     -0.448825   -3.059414   -1.087969
  C      0.035140   -3.554752   -2.479890
  C      1.279531   -2.702473   -2.245944
  H      1.022994    1.987482   -0.464613
  H     -0.723723    1.842792   -0.727943
  H     -0.088104    2.022154    0.920390
  H      1.023736   -0.222723    0.744782
  H     -0.725061   -0.362716    0.478832
  H      2.625759   -2.581858   -0.385359
  H      0.691572   -4.781490   -0.154872
  H      0.357036   -3.408929    0.942469
  H     -1.509492   -3.004362   -0.851824
  H      0.150712   -4.637465   -2.607216
  H     -0.574786   -3.151375   -3.292842
  H      2.044752   -2.405422   -2.951457

 Total Charge           Charge          ....    0
 Multiplicity           Mult            ....    1
 Number of Electrons    NEL             ....   68
 Basis Dimension        Dim             ....  351

ORBITAL ENERGIES
----------------

  NO   OCC          E(Eh)            E(eV)
   0   2.0000     -20.565656      -559.6199
   1   2.0000     -11.280613      -306.9611
   2   2.0000     -11.277439      -306.8747
   3   2.0000     -11.232962      -305.6644
   4   2.0000     -11.226228      -305.4812
   5   2.0000     -11.224598      -305.4368
   6   2.0000     -11.221940      -305.3645
   7   2.0000     -11.220440      -305.3237
   8   2.0000     -11.216196      -305.2082
   9   2.0000      -1.389887       -37.8207
  10   2.0000      -1.217006       -33.1164
  11   2.0000      -1.022242       -27.8166
  12   2.0000      -0.969355       -26.3775
  13   2.0000      -0.957663       -26.0593
  14   2.0000      -0.855277       -23.2733
  15   2.0000      -0.827912       -22.5286
  16   2.0000      -0.743260       -20.2251
  17   2.0000      -0.731227       -19.8977
  18   2.0000      -0.697919       -18.9913
  19   2.0000      -0.658828       -17.9276
  20   2.0000      -0.622928       -16.9507
  21   2.0000      -0.611954       -16.6521
  22   2.0000      -0.589826       -16.0500
  23   2.0000      -0.574278       -15.6269
  24   2.0000      -0.543351       -14.7853
  25   2.0000      -0.532345       -14.4858
  26   2.0000      -0.520150       -14.1540
  27   2.0000      -0.503412       -13.6985
  28   2.0000      -0.480754       -13.0820
  29   2.0000      -0.470623       -12.8063
  30   2.0000      -0.442623       -12.0444
  31   2.0000      -0.428527       -11.6608
  32   2.0000      -0.370396       -10.0790
  33   2.0000      -0.353218        -9.6116
  34   0.0000       0.137414         3.7392
  35   0.0000       0.156312         4.2535
  36   0.0000       0.169716         4.6182
  37   0.0000       0.172517         4.6944
  38   0.0000       0.179856         4.8941

MULLIKEN ATOMIC CHARGES
-----------------------
   0 C :   -0.365687
   1 C :   -0.031968
   2 O :   -0.277273
   3 C :    0.085037
   4 C :   -0.173354
   5 C :   -0.193605
   6 C :   -0.101339
   7 C :   -0.197176
   8 C :   -0.167790
   9 H :    0.131362
  10 H :    0.131759
  11 H :    0.124349
  12 H :    0.101043
  13 H :    0.098022
  14 H :    0.134533
  15 H :    0.104310
  16 H :    0.112451
  17 H :    0.130701
  18 H :    0.105284
  19 H :    0.117559
  20 H :    0.131781
Sum of atomic charges:   -0.0000000

LOEWDIN ATOMIC CHARGES
----------------------
   0 C :   -0.316759
   1 C :   -0.323456
   2 O :    0.226617
   3 C :   -0.269441
   4 C :   -0.158285
   5 C :   -0.207065
   6 C :   -0.147635
   7 C :   -0.202188
   8 C :   -0.146383
   9 H :    0.124690
  10 H :    0.124737
  11 H :    0.125240
  12 H :    0.119995
  13 H :    0.119663
  14 H :    0.136718
  15 H :    0.124457
  16 H :    0.136753
  17 H :    0.129269
  18 H :    0.123781
  19 H :    0.139986
  20 H :    0.139309

  Mayer bond orders larger than 0.1
B(  0-C ,  1-C ) :   0.9522 B(  0-C ,  9-H ) :   0.9365 B(  0-C , 10-H ) :   0.9357
B(  0-C , 11-H ) :   0.9321 B(  1-C ,  2-O ) :   0.8574 B(  1-C , 12-H ) :   0.9221
B(  1-C , 13-H ) :   0.9201 B(  2-O ,  3-C ) :   1.0652 B(  3-C ,  4-C ) :   0.8630
B(  3-C ,  6-C ) :   0.8698 B(  3-C ,  8-C ) :   0.8806 B(  4-C ,  5-C ) :   0.9381
B(  4-C ,  8-C ) :   0.8077 B(  4-C , 14-H ) :   0.9181 B(  5-C ,  6-C ) :   0.9244
B(  5-C , 15-H ) :   0.9082 B(  5-C , 16-H ) :   0.9286 B(  6-C ,  7-C ) :   0.9245
B(  6-C , 17-H ) :   0.9099 B(  7-C ,  8-C ) :   0.9596 B(  7-C , 18-H ) :   0.9183
B(  7-C , 19-H ) :   0.9266 B(  8-C , 20-H ) :   0.9282

MP2 TOTAL ENERGY:     -386.347523997 Eh
FINAL SINGLE POINT ENERGY      -386.347523996887

DIPOLE MOMENT
-------------
                                X             Y             Z
Electronic contribution:      1.20572      -2.27971      -2.83427
Nuclear contribution   :     -1.29039       2.30831       3.28124
                        -----------------------------------------
Total Dipole Moment    :     -0.08466       0.02860       0.44697
                        -----------------------------------------
Magnitude (a.u.)       :      0.45581
Magnitude (Debye)      :      1.15858

                             ****ORCA TERMINATED NORMALLY****
TOTAL RUN TIME: 0 days 0 hours 17 minutes 52 seconds 542 msec
