                         Program Version 3.0.3 - RELEASE   -
|  1> ! RI-MP2 RIJK def2-TZVP def2-TZVP/C def2-TZVP/JK TIGHTSCF
|  2> % maxcore 2000
|  3> % mp2 density relaxed end
|  4> *xyz 0 1
|  5>  C       -0.0109085802     1.4240779793    -0.0740397661
|  6>  C        0.1500903315    -0.0850131065     0.1657240291
|  7>  C        0.7510522560    -0.3653131717     1.4704753134
|  8>  C        1.2542318480    -0.5929332847     2.5376837725
|  9>  N       -1.1772556349    -0.7117839094     0.0980955236
| 10>  C       -1.7667447250    -1.1641822843    -1.1451786624
| 11>  C       -0.7538250574    -1.8141743528    -2.1089178409
| 12>  C       -0.3419215992    -2.8038018168    -0.9736543173
| 13>  C       -1.3765972359    -2.1334638809    -0.0480695568
| 14>  H        0.9582407027     1.9268220794    -0.0246717745
| 15>  H       -0.4457460374     1.5968603370    -1.0631158400
| 16>  H       -0.6748357404     1.8544983998     0.6789605988
| 17>  H        0.8353525278    -0.4763704163    -0.6022350721
| 18>  H        1.6974035860    -0.7946247867     3.4813454199
| 19>  H       -2.7401295683    -0.7720725205    -1.4204751856
| 20>  H       -1.2533106773    -2.3251285675    -2.9347840850
| 21>  H        0.0204243262    -1.1636977572    -2.5277874329
| 22>  H       -0.6060127278    -3.8359611352    -1.2119436866
| 23>  H        0.6962547284    -2.7816974556    -0.6299654306
| 24>  H       -1.9902266627    -2.6401294196     0.6888546035
| 25> *
| 26>
| 27>                          ****END OF INPUT****

CARTESIAN COORDINATES (ANGSTROEM)
---------------------------------
  C     -0.010909    1.424078   -0.074040
  C      0.150090   -0.085013    0.165724
  C      0.751052   -0.365313    1.470475
  C      1.254232   -0.592933    2.537684
  N     -1.177256   -0.711784    0.098096
  C     -1.766745   -1.164182   -1.145179
  C     -0.753825   -1.814174   -2.108918
  C     -0.341922   -2.803802   -0.973654
  C     -1.376597   -2.133464   -0.048070
  H      0.958241    1.926822   -0.024672
  H     -0.445746    1.596860   -1.063116
  H     -0.674836    1.854498    0.678961
  H      0.835353   -0.476370   -0.602235
  H      1.697404   -0.794625    3.481345
  H     -2.740130   -0.772073   -1.420475
  H     -1.253311   -2.325129   -2.934784
  H      0.020424   -1.163698   -2.527787
  H     -0.606013   -3.835961   -1.211944
  H      0.696255   -2.781697   -0.629965
  H     -1.990227   -2.640129    0.688855

 Total Charge           Charge          ....    0
 Multiplicity           Mult            ....    1
 Number of Electrons    NEL             ....   66
 Basis Dimension        Dim             ....  345

ORBITAL ENERGIES
----------------

  NO   OCC          E(Eh)            E(eV)
   0   2.0000     -15.561919      -423.4614
   1   2.0000     -11.282618      -307.0156
   2   2.0000     -11.260365      -306.4101
   3   2.0000     -11.258723      -306.3654
   4   2.0000     -11.233193      -305.6707
   5   2.0000     -11.230736      -305.6039
   6   2.0000     -11.228257      -305.5364
   7   2.0000     -11.219248      -305.2913
   8   2.0000     -11.218521      -305.2715
   9   2.0000      -1.295513       -35.2527
  10   2.0000      -1.101067       -29.9616
  11   2.0000      -1.032324       -28.0910
  12   2.0000      -0.992263       -27.0008
  13   2.0000      -0.905207       -24.6319
  14   2.0000      -0.892968       -24.2989
  15   2.0000      -0.798965       -21.7410
  16   2.0000      -0.750946       -20.4343
  17   2.0000      -0.714032       -19.4298
  18   2.0000      -0.698814       -19.0157
  19   2.0000      -0.659463       -17.9449
  20   2.0000      -0.647376       -17.6160
  21   2.0000      -0.608576       -16.5602
  22   2.0000      -0.575053       -15.6480
  23   2.0000      -0.540892       -14.7184
  24   2.0000      -0.524143       -14.2627
  25   2.0000      -0.520750       -14.1703
  26   2.0000      -0.496034       -13.4978
  27   2.0000      -0.471760       -12.8372
  28   2.0000      -0.453958       -12.3528
  29   2.0000      -0.411530       -11.1983
  30   2.0000      -0.392215       -10.6727
  31   2.0000      -0.380031       -10.3412
  32   2.0000      -0.374064       -10.1788
  33   0.0000       0.136273         3.7082
  34   0.0000       0.155102         4.2205
  35   0.0000       0.162095         4.4108
  36   0.0000       0.168156         4.5758
  37   0.0000       0.176070         4.7911

MULLIKEN ATOMIC CHARGES
-----------------------
   0 C :   -0.384892
   1 C :   -0.078334
   2 C :   -0.033234
   3 C :   -0.132700
   4 N :   -0.198100
   5 C :   -0.065184
   6 C :   -0.257225
   7 C :   -0.234187
   8 C :   -0.087186
   9 H :    0.133848
  10 H :    0.132480
  11 H :    0.137868
  12 H :    0.109088
  13 H :    0.189805
  14 H :    0.134545
  15 H :    0.124509
  16 H :    0.122627
  17 H :    0.123814
  18 H :    0.129214
  19 H :    0.133242
Sum of atomic charges:    0.0000000

LOEWDIN ATOMIC CHARGES
----------------------
   0 C :   -0.268230
   1 C :   -0.297654
   2 C :   -0.080281
   3 C :   -0.095088
   4 N :    0.173403
   5 C :   -0.216554
   6 C :   -0.232446
   7 C :   -0.227180
   8 C :   -0.212754
   9 H :    0.127650
  10 H :    0.124942
  11 H :    0.130702
  12 H :    0.158474
  13 H :    0.126551
  14 H :    0.130457
  15 H :    0.137141
  16 H :    0.124011
  17 H :    0.136081
  18 H :    0.128914
  19 H :    0.131862

  Mayer bond orders larger than 0.1
B(  0-C ,  1-C ) :   0.8869 B(  0-C ,  9-H ) :   0.9356 B(  0-C , 10-H ) :   0.9329
B(  0-C , 11-H ) :   0.9360 B(  1-C ,  2-C ) :   1.1499 B(  1-C ,  3-C ) :  -0.1016
B(  1-C ,  4-N ) :   0.8404 B(  1-C , 12-H ) :   0.9443 B(  2-C ,  3-C ) :   2.5844
B(  3-C , 13-H ) :   0.8934 B(  4-N ,  5-C ) :   0.9151 B(  4-N ,  8-C ) :   0.9212
B(  5-C ,  6-C ) :   0.8849 B(  5-C ,  8-C ) :   0.8196 B(  5-C , 14-H ) :   0.9274
B(  6-C ,  7-C ) :   0.9591 B(  6-C , 15-H ) :   0.9177 B(  6-C , 16-H ) :   0.9309
B(  7-C ,  8-C ) :   0.8903 B(  7-C , 17-H ) :   0.9178 B(  7-C , 18-H ) :   0.9314
B(  8-C , 19-H ) :   0.9310

MP2 TOTAL ENERGY:     -365.256332631 Eh
FINAL SINGLE POINT ENERGY      -365.256332631404

DIPOLE MOMENT
-------------
                                X             Y             Z
Electronic contribution:     -0.43354      -0.80544       4.18743
Nuclear contribution   :      0.55696       0.53539      -4.68013
                        -----------------------------------------
Total Dipole Moment    :      0.12343      -0.27005      -0.49269
                        -----------------------------------------
Magnitude (a.u.)       :      0.57524
Magnitude (Debye)      :      1.46216

                             ****ORCA TERMINATED NORMALLY****
TOTAL RUN TIME: 0 days 0 hours 22 minutes 31 seconds 623 msec
