                         Program Version 3.0.3 - RELEASE   -
|  1> ! RI-MP2 RIJK def2-TZVP def2-TZVP/C def2-TZVP/JK TIGHTSCF
|  2> % maxcore 2000
|  3> % mp2 density relaxed end
|  4> *xyz 0 1
|  5>  C        0.0188547412     1.5407350959    -0.0183197433
|  6>  C       -0.0282033596     0.0169227884    -0.0121491943
|  7>  C        0.7377791783    -0.5971036200    -1.1946119259
|  8>  C        0.6181224959    -2.0475500342    -1.2737667496
|  9>  C        0.5044264974    -3.2419144902    -1.3402665593
| 10>  O        0.6068765879    -0.4984004289     1.1744266275
| 11>  C       -0.1314851237    -0.6006422573     2.2991935553
| 12>  C        0.6921840927    -1.2311343194     3.3933120845
| 13>  N       -1.3370405686    -0.2029755027     2.3464726449
| 14>  H        1.0532143109     1.8970931481     0.0270454174
| 15>  H       -0.4426691900     1.9318135623    -0.9306601927
| 16>  H       -0.5315316977     1.9313522975     0.8392132892
| 17>  H       -1.0662215250    -0.3244393816    -0.0178458008
| 18>  H        0.3609718194    -0.1441575627    -2.1197770424
| 19>  H        1.7945068480    -0.3127445974    -1.1136804782
| 20>  H        0.4083862927    -4.2973651364    -1.4015212937
| 21>  H        0.1193273947    -1.3118112310     4.3184290560
| 22>  H        1.0229070152    -2.2272470888     3.0842687989
| 23>  H        1.5912069788    -0.6354126596     3.5783413592
| 24>  H       -1.7333551786    -0.3755487321     3.2669805373
| 25> *
| 26>
| 27>                          ****END OF INPUT****

CARTESIAN COORDINATES (ANGSTROEM)
---------------------------------
  C      0.018855    1.540735   -0.018320
  C     -0.028203    0.016923   -0.012149
  C      0.737779   -0.597104   -1.194612
  C      0.618122   -2.047550   -1.273767
  C      0.504426   -3.241914   -1.340267
  O      0.606877   -0.498400    1.174427
  C     -0.131485   -0.600642    2.299194
  C      0.692184   -1.231134    3.393312
  N     -1.337041   -0.202976    2.346473
  H      1.053214    1.897093    0.027045
  H     -0.442669    1.931814   -0.930660
  H     -0.531532    1.931352    0.839213
  H     -1.066222   -0.324439   -0.017846
  H      0.360972   -0.144158   -2.119777
  H      1.794507   -0.312745   -1.113680
  H      0.408386   -4.297365   -1.401521
  H      0.119327   -1.311811    4.318429
  H      1.022907   -2.227247    3.084269
  H      1.591207   -0.635413    3.578341
  H     -1.733355   -0.375549    3.266981

 Total Charge           Charge          ....    0
 Multiplicity           Mult            ....    1
 Number of Electrons    NEL             ....   68
 Basis Dimension        Dim             ....  345

ORBITAL ENERGIES
----------------

  NO   OCC          E(Eh)            E(eV)
   0   2.0000     -20.583496      -560.1054
   1   2.0000     -15.529055      -422.5671
   2   2.0000     -11.338167      -308.5272
   3   2.0000     -11.291358      -307.2535
   4   2.0000     -11.252784      -306.2038
   5   2.0000     -11.237540      -305.7890
   6   2.0000     -11.230686      -305.6025
   7   2.0000     -11.216665      -305.2210
   8   2.0000     -11.216415      -305.2142
   9   2.0000      -1.422127       -38.6980
  10   2.0000      -1.192555       -32.4511
  11   2.0000      -1.089919       -29.6582
  12   2.0000      -1.024798       -27.8862
  13   2.0000      -0.990190       -26.9444
  14   2.0000      -0.946155       -25.7462
  15   2.0000      -0.847717       -23.0676
  16   2.0000      -0.771710       -20.9993
  17   2.0000      -0.721324       -19.6282
  18   2.0000      -0.684937       -18.6381
  19   2.0000      -0.664208       -18.0740
  20   2.0000      -0.648793       -17.6546
  21   2.0000      -0.624708       -16.9992
  22   2.0000      -0.590031       -16.0555
  23   2.0000      -0.587981       -15.9998
  24   2.0000      -0.569241       -15.4898
  25   2.0000      -0.558511       -15.1979
  26   2.0000      -0.547265       -14.8918
  27   2.0000      -0.525034       -14.2869
  28   2.0000      -0.495344       -13.4790
  29   2.0000      -0.480568       -13.0769
  30   2.0000      -0.427731       -11.6391
  31   2.0000      -0.399213       -10.8631
  32   2.0000      -0.383303       -10.4302
  33   2.0000      -0.381946       -10.3933
  34   0.0000       0.130891         3.5617
  35   0.0000       0.148459         4.0398
  36   0.0000       0.168518         4.5856
  37   0.0000       0.173279         4.7152
  38   0.0000       0.179525         4.8851

MULLIKEN ATOMIC CHARGES
-----------------------
   0 C :   -0.409970
   1 C :    0.106664
   2 C :   -0.334919
   3 C :   -0.021008
   4 C :   -0.131583
   5 O :   -0.261012
   6 C :    0.219520
   7 C :   -0.381420
   8 N :   -0.432820
   9 H :    0.124768
  10 H :    0.129770
  11 H :    0.164971
  12 H :    0.116366
  13 H :    0.144882
  14 H :    0.140131
  15 H :    0.188142
  16 H :    0.122041
  17 H :    0.154335
  18 H :    0.147397
  19 H :    0.213745
Sum of atomic charges:   -0.0000000

LOEWDIN ATOMIC CHARGES
----------------------
   0 C :   -0.290963
   1 C :   -0.299924
   2 C :   -0.230805
   3 C :   -0.108476
   4 C :   -0.106456
   5 O :    0.277685
   6 C :   -0.439845
   7 C :   -0.276541
   8 N :   -0.079640
   9 H :    0.125177
  10 H :    0.128032
  11 H :    0.132781
  12 H :    0.152288
  13 H :    0.162584
  14 H :    0.161212
  15 H :    0.125535
  16 H :    0.126609
  17 H :    0.138867
  18 H :    0.136882
  19 H :    0.165000

  Mayer bond orders larger than 0.1
B(  0-C ,  1-C ) :   0.9234 B(  0-C ,  9-H ) :   0.9297 B(  0-C , 10-H ) :   0.9352
B(  0-C , 11-H ) :   0.9344 B(  1-C ,  2-C ) :   0.9015 B(  1-C ,  5-O ) :   0.8293
B(  1-C , 12-H ) :   0.9258 B(  2-C ,  3-C ) :   1.1307 B(  2-C ,  4-C ) :  -0.1132
B(  2-C , 13-H ) :   0.9244 B(  2-C , 14-H ) :   0.9133 B(  3-C ,  4-C ) :   2.6122
B(  4-C , 15-H ) :   0.8976 B(  5-O ,  6-C ) :   1.0755 B(  6-C ,  7-C ) :   0.9233
B(  6-C ,  8-N ) :   1.8785 B(  7-C , 16-H ) :   0.9415 B(  7-C , 17-H ) :   0.9198
B(  7-C , 18-H ) :   0.9216 B(  8-N , 19-H ) :   0.8608

MP2 TOTAL ENERGY:     -402.432113226 Eh
FINAL SINGLE POINT ENERGY      -402.432113225573

DIPOLE MOMENT
-------------
                                X             Y             Z
Electronic contribution:     -0.29114      -3.65990      -1.70006
Nuclear contribution   :      0.55659       3.69064       2.07196
                        -----------------------------------------
Total Dipole Moment    :      0.26545       0.03074       0.37190
                        -----------------------------------------
Magnitude (a.u.)       :      0.45796
Magnitude (Debye)      :      1.16403

                             ****ORCA TERMINATED NORMALLY****
TOTAL RUN TIME: 0 days 0 hours 20 minutes 26 seconds 972 msec
