                         Program Version 3.0.3 - RELEASE   -
|  1> ! RI-MP2 RIJK def2-TZVP def2-TZVP/C def2-TZVP/JK TIGHTSCF
|  2> % maxcore 2000
|  3> % mp2 density relaxed end
|  4> *xyz 0 1
|  5>  C        0.0554539276     1.4653430512     0.0476999700
|  6>  N        0.0742572267     0.0046210552     0.0252130219
|  7>  C       -1.0985818388    -0.8111427428     0.5316096197
|  8>  C       -0.0907358400    -2.0159390344     0.5002815269
|  9>  O        0.3720392635    -2.4599912466    -0.7162287844
| 10>  C        0.6294461730    -0.7987306761     1.1844463878
| 11>  C       -0.6775580054    -0.6198468695     2.0270416026
| 12>  C       -0.9660820822     0.5923427086     2.7674421268
| 13>  N       -1.2211720036     1.5097446948     3.4248821259
| 14>  H        1.0720353545     1.8191098310    -0.1513149822
| 15>  H       -0.5804679220     1.8075647553    -0.7748941785
| 16>  H       -0.2968830842     1.9313725449     0.9728330204
| 17>  H       -2.0978613478    -0.7270644451     0.1033599547
| 18>  H       -0.3242901543    -2.8713176591     1.1347429709
| 19>  H        0.5530157629    -1.6424197433    -1.2108585518
| 20>  H        1.6611204268    -0.7000744137     1.5234838540
| 21>  H       -0.9157523467    -1.4716422604     2.6737541253
| 22> *
| 23>
| 24>                          ****END OF INPUT****

CARTESIAN COORDINATES (ANGSTROEM)
---------------------------------
  C      0.055454    1.465343    0.047700
  N      0.074257    0.004621    0.025213
  C     -1.098582   -0.811143    0.531610
  C     -0.090736   -2.015939    0.500282
  O      0.372039   -2.459991   -0.716229
  C      0.629446   -0.798731    1.184446
  C     -0.677558   -0.619847    2.027042
  C     -0.966082    0.592343    2.767442
  N     -1.221172    1.509745    3.424882
  H      1.072035    1.819110   -0.151315
  H     -0.580468    1.807565   -0.774894
  H     -0.296883    1.931373    0.972833
  H     -2.097861   -0.727064    0.103360
  H     -0.324290   -2.871318    1.134743
  H      0.553016   -1.642420   -1.210859
  H      1.661120   -0.700074    1.523484
  H     -0.915752   -1.471642    2.673754

 Total Charge           Charge          ....    0
 Multiplicity           Mult            ....    1
 Number of Electrons    NEL             ....   66
 Basis Dimension        Dim             ....  327

ORBITAL ENERGIES
----------------

  NO   OCC          E(Eh)            E(eV)
   0   2.0000     -20.569423      -559.7225
   1   2.0000     -15.584542      -424.0769
   2   2.0000     -15.576842      -423.8674
   3   2.0000     -11.317487      -307.9645
   4   2.0000     -11.308733      -307.7263
   5   2.0000     -11.308689      -307.7251
   6   2.0000     -11.299666      -307.4796
   7   2.0000     -11.282623      -307.0158
   8   2.0000     -11.255698      -306.2831
   9   2.0000      -1.398831       -38.0641
  10   2.0000      -1.305296       -35.5189
  11   2.0000      -1.224197       -33.3121
  12   2.0000      -1.092868       -29.7385
  13   2.0000      -0.982415       -26.7329
  14   2.0000      -0.908527       -24.7223
  15   2.0000      -0.902673       -24.5630
  16   2.0000      -0.791183       -21.5292
  17   2.0000      -0.728316       -19.8185
  18   2.0000      -0.706365       -19.2212
  19   2.0000      -0.703149       -19.1336
  20   2.0000      -0.619867       -16.8674
  21   2.0000      -0.615194       -16.7403
  22   2.0000      -0.592904       -16.1337
  23   2.0000      -0.584788       -15.9129
  24   2.0000      -0.576199       -15.6792
  25   2.0000      -0.560240       -15.2449
  26   2.0000      -0.541394       -14.7321
  27   2.0000      -0.493513       -13.4292
  28   2.0000      -0.487045       -13.2532
  29   2.0000      -0.480695       -13.0804
  30   2.0000      -0.454127       -12.3574
  31   2.0000      -0.421210       -11.4617
  32   2.0000      -0.389295       -10.5932
  33   0.0000       0.132527         3.6062
  34   0.0000       0.139221         3.7884
  35   0.0000       0.143893         3.9155
  36   0.0000       0.159049         4.3279
  37   0.0000       0.178982         4.8704

MULLIKEN ATOMIC CHARGES
-----------------------
   0 C :   -0.359397
   1 N :   -0.271858
   2 C :   -0.030936
   3 C :    0.121344
   4 O :   -0.460725
   5 C :   -0.030961
   6 C :   -0.053677
   7 C :   -0.219942
   8 N :   -0.042191
   9 H :    0.143791
  10 H :    0.143790
  11 H :    0.146836
  12 H :    0.155008
  13 H :    0.124434
  14 H :    0.333668
  15 H :    0.155006
  16 H :    0.145808
Sum of atomic charges:   -0.0000000

LOEWDIN ATOMIC CHARGES
----------------------
   0 C :   -0.328553
   1 N :    0.089902
   2 C :   -0.150576
   3 C :   -0.301672
   4 O :    0.015331
   5 C :   -0.150568
   6 C :   -0.180588
   7 C :   -0.189734
   8 N :    0.063066
   9 H :    0.122655
  10 H :    0.122654
  11 H :    0.119240
  12 H :    0.132257
  13 H :    0.141927
  14 H :    0.186231
  15 H :    0.132256
  16 H :    0.176170

  Mayer bond orders larger than 0.1
B(  0-C ,  1-N ) :   0.9181 B(  0-C ,  9-H ) :   0.9334 B(  0-C , 10-H ) :   0.9334
B(  0-C , 11-H ) :   0.9197 B(  1-N ,  2-C ) :   0.7947 B(  1-N ,  5-C ) :   0.7947
B(  2-C ,  3-C ) :   0.8651 B(  2-C ,  6-C ) :   0.8633 B(  2-C , 12-H ) :   0.8944
B(  3-C ,  4-O ) :   1.0325 B(  3-C ,  5-C ) :   0.8650 B(  3-C , 13-H ) :   0.9606
B(  4-O , 14-H ) :   0.7944 B(  5-C ,  6-C ) :   0.8633 B(  5-C , 15-H ) :   0.8944
B(  6-C ,  7-C ) :   0.9105 B(  6-C , 16-H ) :   0.8912 B(  7-C ,  8-N ) :   2.8750

MP2 TOTAL ENERGY:     -417.234743369 Eh
FINAL SINGLE POINT ENERGY      -417.234743369133

DIPOLE MOMENT
-------------
                                X             Y             Z
Electronic contribution:     -1.19399      -1.43110       3.18582
Nuclear contribution   :      1.36304       1.04064      -3.62548
                        -----------------------------------------
Total Dipole Moment    :      0.16905      -0.39046      -0.43966
                        -----------------------------------------
Magnitude (a.u.)       :      0.61183
Magnitude (Debye)      :      1.55516

                             ****ORCA TERMINATED NORMALLY****
TOTAL RUN TIME: 0 days 0 hours 17 minutes 45 seconds 299 msec
