                         Program Version 3.0.3 - RELEASE   -
|  1> ! RI-MP2 RIJK def2-TZVP def2-TZVP/C def2-TZVP/JK TIGHTSCF
|  2> % maxcore 2000
|  3> % mp2 density relaxed end
|  4> *xyz 0 1
|  5>  C       -0.1170968658     1.6097240347     0.1785788116
|  6>  C        0.0418897295     0.0987424273     0.1692986084
|  7>  N        1.1804468600    -0.5190399028    -0.6843591289
|  8>  C        2.0985814426    -0.1436904473     0.4947625044
|  9>  C        0.8560557079    -0.6997661584     1.2251725296
| 10>  C        0.6133545772    -0.8485615530     2.7042253843
| 11>  O        1.6350536935    -1.6886750158     3.2250726688
| 12>  C        0.9302461017    -1.8117321391     0.1384908396
| 13>  C       -0.2185848253    -2.7264097148    -0.2455441875
| 14>  H       -0.3368453325     1.9584750295    -0.8362224752
| 15>  H       -0.9662828569     1.8867159722     0.8131051298
| 16>  H        0.7563041843     2.1573576188     0.5378976712
| 17>  H       -0.9231153242    -0.3366372736    -0.0986510390
| 18>  H        3.0146369190    -0.7373087928     0.5367641963
| 19>  H        2.3262130677     0.9195867596     0.5639922468
| 20>  H        0.6240845177     0.1442387676     3.1838314843
| 21>  H       -0.3875668656    -1.2808313118     2.8714003306
| 22>  H        1.4941328085    -1.7833663446     4.1715501700
| 23>  H        1.8493052979    -2.4045245874     0.1821765412
| 24>  H       -0.0631229108    -3.1037629350    -1.2618641768
| 25>  H       -0.2334869049    -3.5886871461     0.4296125260
| 26>  H       -1.2064466517    -2.2620814173    -0.2101395156
| 27> *
| 28>
| 29>                          ****END OF INPUT****

CARTESIAN COORDINATES (ANGSTROEM)
---------------------------------
  C     -0.117097    1.609724    0.178579
  C      0.041890    0.098742    0.169299
  N      1.180447   -0.519040   -0.684359
  C      2.098581   -0.143690    0.494763
  C      0.856056   -0.699766    1.225173
  C      0.613355   -0.848562    2.704225
  O      1.635054   -1.688675    3.225073
  C      0.930246   -1.811732    0.138491
  C     -0.218585   -2.726410   -0.245544
  H     -0.336845    1.958475   -0.836222
  H     -0.966283    1.886716    0.813105
  H      0.756304    2.157358    0.537898
  H     -0.923115   -0.336637   -0.098651
  H      3.014637   -0.737309    0.536764
  H      2.326213    0.919587    0.563992
  H      0.624085    0.144239    3.183831
  H     -0.387567   -1.280831    2.871400
  H      1.494133   -1.783366    4.171550
  H      1.849305   -2.404525    0.182177
  H     -0.063123   -3.103763   -1.261864
  H     -0.233487   -3.588687    0.429613
  H     -1.206447   -2.262081   -0.210140

 Total Charge           Charge          ....    0
 Multiplicity           Mult            ....    1
 Number of Electrons    NEL             ....   70
 Basis Dimension        Dim             ....  357

ORBITAL ENERGIES
----------------

  NO   OCC          E(Eh)            E(eV)
   0   2.0000     -20.562102      -559.5232
   1   2.0000     -15.556557      -423.3154
   2   2.0000     -11.280928      -306.9697
   3   2.0000     -11.257970      -306.3449
   4   2.0000     -11.255169      -306.2687
   5   2.0000     -11.246113      -306.0223
   6   2.0000     -11.243990      -305.9645
   7   2.0000     -11.216160      -305.2072
   8   2.0000     -11.213299      -305.1294
   9   2.0000      -1.365444       -37.1556
  10   2.0000      -1.281927       -34.8830
  11   2.0000      -1.014230       -27.5986
  12   2.0000      -0.994282       -27.0558
  13   2.0000      -0.985565       -26.8186
  14   2.0000      -0.886527       -24.1236
  15   2.0000      -0.845088       -22.9960
  16   2.0000      -0.827417       -22.5152
  17   2.0000      -0.709774       -19.3139
  18   2.0000      -0.703503       -19.1433
  19   2.0000      -0.643976       -17.5235
  20   2.0000      -0.633935       -17.2502
  21   2.0000      -0.616600       -16.7785
  22   2.0000      -0.611185       -16.6312
  23   2.0000      -0.575789       -15.6680
  24   2.0000      -0.559391       -15.2218
  25   2.0000      -0.540408       -14.7052
  26   2.0000      -0.528449       -14.3798
  27   2.0000      -0.522307       -14.2127
  28   2.0000      -0.494054       -13.4439
  29   2.0000      -0.475440       -12.9374
  30   2.0000      -0.458012       -12.4631
  31   2.0000      -0.447773       -12.1845
  32   2.0000      -0.434338       -11.8189
  33   2.0000      -0.426845       -11.6150
  34   2.0000      -0.359779        -9.7901
  35   0.0000       0.126550         3.4436
  36   0.0000       0.145344         3.9550
  37   0.0000       0.156101         4.2477
  38   0.0000       0.175664         4.7801
  39   0.0000       0.191160         5.2017

MULLIKEN ATOMIC CHARGES
-----------------------
   0 C :   -0.424184
   1 C :   -0.026058
   2 N :   -0.208850
   3 C :   -0.172110
   4 C :    0.049480
   5 C :   -0.075019
   6 O :   -0.466790
   7 C :    0.006449
   8 C :   -0.429746
   9 H :    0.146629
  10 H :    0.130509
  11 H :    0.123172
  12 H :    0.091161
  13 H :    0.115069
  14 H :    0.112887
  15 H :    0.102187
  16 H :    0.099533
  17 H :    0.314356
  18 H :    0.103246
  19 H :    0.145942
  20 H :    0.138937
  21 H :    0.123202
Sum of atomic charges:    0.0000000

LOEWDIN ATOMIC CHARGES
----------------------
   0 C :   -0.297918
   1 C :   -0.225369
   2 N :    0.114777
   3 C :   -0.201809
   4 C :   -0.218837
   5 C :   -0.320149
   6 O :   -0.043482
   7 C :   -0.222616
   8 C :   -0.298065
   9 H :    0.132831
  10 H :    0.127241
  11 H :    0.121027
  12 H :    0.140344
  13 H :    0.127410
  14 H :    0.119974
  15 H :    0.121139
  16 H :    0.121241
  17 H :    0.172631
  18 H :    0.147038
  19 H :    0.132688
  20 H :    0.130528
  21 H :    0.119377

  Mayer bond orders larger than 0.1
B(  0-C ,  1-C ) :   0.9172 B(  0-C ,  9-H ) :   0.9375 B(  0-C , 10-H ) :   0.9350
B(  0-C , 11-H ) :   0.9347 B(  1-C ,  2-N ) :   0.9349 B(  1-C ,  4-C ) :   0.9010
B(  1-C , 12-H ) :   0.9237 B(  2-N ,  3-C ) :   0.9302 B(  2-N ,  7-C ) :   0.9169
B(  3-C ,  4-C ) :   0.9277 B(  3-C , 13-H ) :   0.9225 B(  3-C , 14-H ) :   0.9236
B(  4-C ,  5-C ) :   0.8389 B(  4-C ,  6-O ) :  -0.1202 B(  4-C ,  7-C ) :   0.9011
B(  5-C ,  6-O ) :   1.0735 B(  5-C , 15-H ) :   0.9274 B(  5-C , 16-H ) :   0.9263
B(  6-O , 17-H ) :   0.8485 B(  7-C ,  8-C ) :   0.8982 B(  7-C , 18-H ) :   0.9289
B(  8-C , 19-H ) :   0.9361 B(  8-C , 20-H ) :   0.9373 B(  8-C , 21-H ) :   0.9320

MP2 TOTAL ENERGY:     -403.585528183 Eh
FINAL SINGLE POINT ENERGY      -403.585528183251

DIPOLE MOMENT
-------------
                                X             Y             Z
Electronic contribution:      3.31328      -1.26638       1.30318
Nuclear contribution   :     -3.91652       1.38881      -0.21648
                        -----------------------------------------
Total Dipole Moment    :     -0.60324       0.12244       1.08670
                        -----------------------------------------
Magnitude (a.u.)       :      1.24892
Magnitude (Debye)      :      3.17450

                             ****ORCA TERMINATED NORMALLY****
TOTAL RUN TIME: 0 days 0 hours 19 minutes 12 seconds 930 msec
