                         Program Version 3.0.3 - RELEASE   -
|  1> ! RI-MP2 RIJK def2-TZVP def2-TZVP/C def2-TZVP/JK TIGHTSCF
|  2> % maxcore 2000
|  3> % mp2 density relaxed end
|  4> *xyz 0 1
|  5>  O        0.0121552820    -0.0086511142     0.2024235965
|  6>  C       -0.0539453263     1.1694198356     0.0803296138
|  7>  C       -1.1250386483     2.2544009151    -0.0632396564
|  8>  C       -0.7747556093     3.2349655226     1.0829457362
|  9>  C        0.0414452005     4.1658014737     0.2086171859
| 10>  C        0.7717669385     3.1352892254     1.0109090796
| 11>  N        1.0169970330     2.1892421793    -0.1244469291
| 12>  C       -0.0325033866     3.0526440581    -0.8658303608
| 13>  H       -2.1575655461     2.0806091139    -0.3536461960
| 14>  H       -1.3187445077     3.4311919552     1.9954113766
| 15>  H        0.1247070986     5.2417511644     0.1679685036
| 16>  H        1.4345689738     3.2157654160     1.8608615578
| 17>  H        0.0361357978     3.1205647449    -1.9476714179
| 18> *
| 19>
| 20>                          ****END OF INPUT****

CARTESIAN COORDINATES (ANGSTROEM)
---------------------------------
  O      0.012155   -0.008651    0.202424
  C     -0.053945    1.169420    0.080330
  C     -1.125039    2.254401   -0.063240
  C     -0.774756    3.234966    1.082946
  C      0.041445    4.165801    0.208617
  C      0.771767    3.135289    1.010909
  N      1.016997    2.189242   -0.124447
  C     -0.032503    3.052644   -0.865830
  H     -2.157566    2.080609   -0.353646
  H     -1.318745    3.431192    1.995411
  H      0.124707    5.241751    0.167969
  H      1.434569    3.215765    1.860862
  H      0.036136    3.120565   -1.947671

 Total Charge           Charge          ....    0
 Multiplicity           Mult            ....    1
 Number of Electrons    NEL             ....   56
 Basis Dimension        Dim             ....  278

ORBITAL ENERGIES
----------------

  NO   OCC          E(Eh)            E(eV)
   0   2.0000     -20.560505      -559.4798
   1   2.0000     -15.580235      -423.9598
   2   2.0000     -11.359419      -309.1055
   3   2.0000     -11.298090      -307.4366
   4   2.0000     -11.290075      -307.2186
   5   2.0000     -11.268514      -306.6318
   6   2.0000     -11.267638      -306.6080
   7   2.0000     -11.264137      -306.5127
   8   2.0000      -1.416635       -38.5486
   9   2.0000      -1.336108       -36.3574
  10   2.0000      -1.105726       -30.0883
  11   2.0000      -1.019790       -27.7499
  12   2.0000      -0.929134       -25.2830
  13   2.0000      -0.788661       -21.4606
  14   2.0000      -0.778713       -21.1898
  15   2.0000      -0.740509       -20.1503
  16   2.0000      -0.721771       -19.6404
  17   2.0000      -0.668798       -18.1989
  18   2.0000      -0.652296       -17.7499
  19   2.0000      -0.628419       -17.1002
  20   2.0000      -0.576533       -15.6883
  21   2.0000      -0.528182       -14.3726
  22   2.0000      -0.504553       -13.7296
  23   2.0000      -0.502142       -13.6640
  24   2.0000      -0.485537       -13.2121
  25   2.0000      -0.435123       -11.8403
  26   2.0000      -0.386919       -10.5286
  27   2.0000      -0.383043       -10.4231
  28   0.0000       0.131277         3.5722
  29   0.0000       0.150606         4.0982
  30   0.0000       0.156398         4.2558
  31   0.0000       0.164578         4.4784
  32   0.0000       0.182823         4.9749

MULLIKEN ATOMIC CHARGES
-----------------------
   0 O :   -0.217865
   1 C :    0.175224
   2 C :   -0.083742
   3 C :   -0.204229
   4 C :   -0.217707
   5 C :   -0.021584
   6 N :   -0.190002
   7 C :   -0.014570
   8 H :    0.147878
   9 H :    0.155452
  10 H :    0.160119
  11 H :    0.151898
  12 H :    0.159129
Sum of atomic charges:   -0.0000000

LOEWDIN ATOMIC CHARGES
----------------------
   0 O :    0.186610
   1 C :   -0.338029
   2 C :   -0.134865
   3 C :   -0.139257
   4 C :   -0.138462
   5 C :   -0.171016
   6 N :    0.150150
   7 C :   -0.107881
   8 H :    0.143090
   9 H :    0.140300
  10 H :    0.136690
  11 H :    0.138257
  12 H :    0.134414

  Mayer bond orders larger than 0.1
B(  0-O ,  1-C ) :   2.0914 B(  1-C ,  2-C ) :   0.8936 B(  1-C ,  6-N ) :   0.9105
B(  2-C ,  3-C ) :   0.8765 B(  2-C ,  7-C ) :   0.9095 B(  2-C ,  8-H ) :   0.9051
B(  3-C ,  4-C ) :   0.8410 B(  3-C ,  5-C ) :   0.8643 B(  3-C ,  9-H ) :   0.9214
B(  4-C ,  5-C ) :   0.8524 B(  4-C ,  7-C ) :   0.9306 B(  4-C , 10-H ) :   0.9041
B(  5-C ,  6-N ) :   0.8901 B(  5-C , 11-H ) :   0.9280 B(  6-N ,  7-C ) :   0.9323
B(  7-C , 12-H ) :   0.8967

MP2 TOTAL ENERGY:     -360.754777132 Eh
FINAL SINGLE POINT ENERGY      -360.754777132173

DIPOLE MOMENT
-------------
                                X             Y             Z
Electronic contribution:      0.97395      -3.56238      -0.57512
Nuclear contribution   :     -1.69085       4.95740       0.70856
                        -----------------------------------------
Total Dipole Moment    :     -0.71690       1.39501       0.13344
                        -----------------------------------------
Magnitude (a.u.)       :      1.57411
Magnitude (Debye)      :      4.00106

                             ****ORCA TERMINATED NORMALLY****
TOTAL RUN TIME: 0 days 0 hours 12 minutes 11 seconds 447 msec
