                         Program Version 3.0.3 - RELEASE   -
|  1> ! RI-MP2 RIJK def2-TZVP def2-TZVP/C def2-TZVP/JK TIGHTSCF
|  2> % maxcore 2000
|  3> % mp2 density relaxed end
|  4> *xyz 0 1
|  5>  N       -0.1406501817    -1.1743851278     0.0623220657
|  6>  C       -0.0902138643    -0.0192112592     0.0648182820
|  7>  C       -0.0165318633     1.4199423314     0.0206710903
|  8>  N        0.5865467531     2.0939327112     1.2175976131
|  9>  C        1.2817498927     2.1403471741    -0.0398912467
| 10>  C        2.7453147862     1.7770657215    -0.3339529238
| 11>  C        2.4977437203     2.2391815898    -1.7941948788
| 12>  C        1.8487776511     3.3038648697    -0.8703023202
| 13>  N        3.1268059978     3.2263403787    -0.0394492814
| 14>  H       -0.8758842676     1.8939178919    -0.4466809185
| 15>  H        0.0745796215     2.9536766837     1.4066099254
| 16>  H        3.3287158284     0.9342825870     0.0324408727
| 17>  H        3.3902405609     2.5815299995    -2.3166523851
| 18>  H        1.8340852518     1.6316861527    -2.4103021912
| 19>  H        1.3838389074     4.2538410680    -1.1370469540
| 20>  H        2.9112237858     3.4348039678     0.9407702205
| 21> *
| 22>
| 23>                          ****END OF INPUT****

CARTESIAN COORDINATES (ANGSTROEM)
---------------------------------
  N     -0.140650   -1.174385    0.062322
  C     -0.090214   -0.019211    0.064818
  C     -0.016532    1.419942    0.020671
  N      0.586547    2.093933    1.217598
  C      1.281750    2.140347   -0.039891
  C      2.745315    1.777066   -0.333953
  C      2.497744    2.239182   -1.794195
  C      1.848778    3.303865   -0.870302
  N      3.126806    3.226340   -0.039449
  H     -0.875884    1.893918   -0.446681
  H      0.074580    2.953677    1.406610
  H      3.328716    0.934283    0.032441
  H      3.390241    2.581530   -2.316652
  H      1.834085    1.631686   -2.410302
  H      1.383839    4.253841   -1.137047
  H      2.911224    3.434804    0.940770

 Total Charge           Charge          ....    0
 Multiplicity           Mult            ....    1
 Number of Electrons    NEL             ....   64
 Basis Dimension        Dim             ....  321

ORBITAL ENERGIES
----------------

  NO   OCC          E(Eh)            E(eV)
   0   2.0000     -15.601230      -424.5311
   1   2.0000     -15.577095      -423.8743
   2   2.0000     -15.574600      -423.8064
   3   2.0000     -11.322638      -308.1046
   4   2.0000     -11.312415      -307.8265
   5   2.0000     -11.301468      -307.5286
   6   2.0000     -11.295355      -307.3622
   7   2.0000     -11.279915      -306.9421
   8   2.0000     -11.252989      -306.2094
   9   2.0000      -1.334781       -36.3212
  10   2.0000      -1.275494       -34.7079
  11   2.0000      -1.219199       -33.1761
  12   2.0000      -1.026533       -27.9334
  13   2.0000      -0.971483       -26.4354
  14   2.0000      -0.900530       -24.5047
  15   2.0000      -0.896864       -24.4049
  16   2.0000      -0.784232       -21.3400
  17   2.0000      -0.732667       -19.9369
  18   2.0000      -0.718746       -19.5581
  19   2.0000      -0.706732       -19.2312
  20   2.0000      -0.608540       -16.5592
  21   2.0000      -0.583668       -15.8824
  22   2.0000      -0.562122       -15.2961
  23   2.0000      -0.532878       -14.5004
  24   2.0000      -0.524130       -14.2623
  25   2.0000      -0.517410       -14.0794
  26   2.0000      -0.496451       -13.5091
  27   2.0000      -0.480070       -13.0634
  28   2.0000      -0.463237       -12.6053
  29   2.0000      -0.462376       -12.5819
  30   2.0000      -0.437206       -11.8970
  31   2.0000      -0.393626       -10.7111
  32   0.0000       0.107998         2.9388
  33   0.0000       0.132889         3.6161
  34   0.0000       0.155879         4.2417
  35   0.0000       0.159509         4.3405
  36   0.0000       0.166978         4.5437

MULLIKEN ATOMIC CHARGES
-----------------------
   0 N :   -0.052050
   1 C :   -0.207504
   2 C :    0.011335
   3 N :   -0.383479
   4 C :    0.049853
   5 C :   -0.054685
   6 C :   -0.173190
   7 C :   -0.075607
   8 N :   -0.296380
   9 H :    0.169347
  10 H :    0.235407
  11 H :    0.158503
  12 H :    0.131745
  13 H :    0.130003
  14 H :    0.147434
  15 H :    0.209267
Sum of atomic charges:   -0.0000000

LOEWDIN ATOMIC CHARGES
----------------------
   0 N :    0.073605
   1 C :   -0.168550
   2 C :   -0.214213
   3 N :    0.053888
   4 C :   -0.253477
   5 C :   -0.170281
   6 C :   -0.184655
   7 C :   -0.189769
   8 N :    0.020083
   9 H :    0.162683
  10 H :    0.176884
  11 H :    0.133038
  12 H :    0.138753
  13 H :    0.134081
  14 H :    0.126932
  15 H :    0.160997

  Mayer bond orders larger than 0.1
B(  0-N ,  1-C ) :   2.8544 B(  1-C ,  2-C ) :   0.9345 B(  2-C ,  3-N ) :   0.9783
B(  2-C ,  4-C ) :   0.8618 B(  2-C ,  9-H ) :   0.9058 B(  3-N ,  4-C ) :   0.8752
B(  3-N , 10-H ) :   0.8551 B(  4-C ,  5-C ) :   0.9407 B(  4-C ,  7-C ) :   0.9508
B(  5-C ,  6-C ) :   0.8999 B(  5-C ,  8-N ) :   0.9681 B(  5-C , 11-H ) :   0.8835
B(  6-C ,  7-C ) :   0.9041 B(  6-C , 12-H ) :   0.9127 B(  6-C , 13-H ) :   0.9192
B(  7-C ,  8-N ) :   0.9729 B(  7-C , 14-H ) :   0.8755 B(  8-N , 15-H ) :   0.8829

MP2 TOTAL ENERGY:     -396.141221064 Eh
FINAL SINGLE POINT ENERGY      -396.141221064262

DIPOLE MOMENT
-------------
                                X             Y             Z
Electronic contribution:     -2.94239      -3.79010       2.10504
Nuclear contribution   :      2.54580       5.39878      -2.48246
                        -----------------------------------------
Total Dipole Moment    :     -0.39659       1.60867      -0.37742
                        -----------------------------------------
Magnitude (a.u.)       :      1.69928
Magnitude (Debye)      :      4.31923

                             ****ORCA TERMINATED NORMALLY****
TOTAL RUN TIME: 0 days 0 hours 16 minutes 12 seconds 499 msec
