                         Program Version 3.0.3 - RELEASE   -
|  1> ! RI-MP2 RIJK def2-TZVP def2-TZVP/C def2-TZVP/JK TIGHTSCF
|  2> % maxcore 2000
|  3> % mp2 density relaxed end
|  4> *xyz 0 1
|  5>  C       -0.0260595049     1.5246009582    -0.1409326859
|  6>  C        1.3844877098     2.1368988995    -0.0355563614
|  7>  C        2.2678686504     1.5203230869     1.0713838178
|  8>  C        1.8347836237     1.8444777034     2.5181742199
|  9>  C        0.5201276542     1.1699237377     2.9566950481
| 10>  C        0.4268546868    -0.3053643707     2.5202714460
| 11>  C        0.8957950423    -0.5747678932     1.0734280767
| 12>  C       -0.0234572489    -0.0129630286    -0.0334576623
| 13>  C        2.3129136931    -0.0061862344     0.8886418408
| 14>  H       -0.6730986448     1.9491022071     0.6315051808
| 15>  H       -0.4786850686     1.8200914226    -1.0950684719
| 16>  H        1.9060480850     1.9867157239    -0.9908966000
| 17>  H        1.3078713943     3.2225890916     0.1017832992
| 18>  H        3.2787671862     1.9269642265     0.9396940018
| 19>  H        2.6421013197     1.5086711982     3.1835541613
| 20>  H        1.7583725887     2.9300617037     2.6564628097
| 21>  H        0.4280691833     1.2312789459     4.0477130325
| 22>  H       -0.3328235063     1.7281335949     2.5612194242
| 23>  H        1.0579371158    -0.9102718957     3.1859145262
| 24>  H       -0.5986652453    -0.6690237271     2.6599704263
| 25>  H        0.9269713877    -1.6641179112     0.9431987711
| 26>  H       -1.0491574483    -0.3764764559     0.1052953473
| 27>  H        0.3218153232    -0.4323273675    -0.9885362162
| 28>  H        2.6961465408    -0.2581392669    -0.1084444606
| 29>  H        3.0003399521    -0.4556705490     1.6166092584
| 30> *
| 31>
| 32>                          ****END OF INPUT****

CARTESIAN COORDINATES (ANGSTROEM)
---------------------------------
  C     -0.026060    1.524601   -0.140933
  C      1.384488    2.136899   -0.035556
  C      2.267869    1.520323    1.071384
  C      1.834784    1.844478    2.518174
  C      0.520128    1.169924    2.956695
  C      0.426855   -0.305364    2.520271
  C      0.895795   -0.574768    1.073428
  C     -0.023457   -0.012963   -0.033458
  C      2.312914   -0.006186    0.888642
  H     -0.673099    1.949102    0.631505
  H     -0.478685    1.820091   -1.095068
  H      1.906048    1.986716   -0.990897
  H      1.307871    3.222589    0.101783
  H      3.278767    1.926964    0.939694
  H      2.642101    1.508671    3.183554
  H      1.758373    2.930062    2.656463
  H      0.428069    1.231279    4.047713
  H     -0.332824    1.728134    2.561219
  H      1.057937   -0.910272    3.185915
  H     -0.598665   -0.669024    2.659970
  H      0.926971   -1.664118    0.943199
  H     -1.049157   -0.376476    0.105295
  H      0.321815   -0.432327   -0.988536
  H      2.696147   -0.258139   -0.108444
  H      3.000340   -0.455671    1.616609

 Total Charge           Charge          ....    0
 Multiplicity           Mult            ....    1
 Number of Electrons    NEL             ....   70
 Basis Dimension        Dim             ....  375

ORBITAL ENERGIES
----------------

  NO   OCC          E(Eh)            E(eV)
   0   2.0000     -11.216063      -305.2046
   1   2.0000     -11.216051      -305.2043
   2   2.0000     -11.211419      -305.0782
   3   2.0000     -11.211386      -305.0773
   4   2.0000     -11.211160      -305.0712
   5   2.0000     -11.211114      -305.0699
   6   2.0000     -11.210521      -305.0538
   7   2.0000     -11.210507      -305.0534
   8   2.0000     -11.207284      -304.9657
   9   2.0000      -1.131361       -30.7859
  10   2.0000      -1.036353       -28.2006
  11   2.0000      -1.025624       -27.9086
  12   2.0000      -0.984675       -26.7944
  13   2.0000      -0.908793       -24.7295
  14   2.0000      -0.837568       -22.7914
  15   2.0000      -0.792494       -21.5648
  16   2.0000      -0.785328       -21.3699
  17   2.0000      -0.700202       -19.0535
  18   2.0000      -0.651425       -17.7262
  19   2.0000      -0.620918       -16.8961
  20   2.0000      -0.611681       -16.6447
  21   2.0000      -0.583168       -15.8688
  22   2.0000      -0.575743       -15.6668
  23   2.0000      -0.558589       -15.2000
  24   2.0000      -0.537135       -14.6162
  25   2.0000      -0.535947       -14.5839
  26   2.0000      -0.510694       -13.8967
  27   2.0000      -0.485532       -13.2120
  28   2.0000      -0.484524       -13.1846
  29   2.0000      -0.467803       -12.7296
  30   2.0000      -0.456697       -12.4274
  31   2.0000      -0.451353       -12.2820
  32   2.0000      -0.412106       -11.2140
  33   2.0000      -0.408511       -11.1162
  34   2.0000      -0.406662       -11.0658
  35   0.0000       0.124586         3.3902
  36   0.0000       0.157402         4.2831
  37   0.0000       0.160535         4.3684
  38   0.0000       0.163337         4.4446
  39   0.0000       0.188799         5.1375

MULLIKEN ATOMIC CHARGES
-----------------------
   0 C :   -0.220518
   1 C :   -0.277748
   2 C :    0.057007
   3 C :   -0.277745
   4 C :   -0.220513
   5 C :   -0.277745
   6 C :    0.057007
   7 C :   -0.277748
   8 C :   -0.306613
   9 H :    0.103545
  10 H :    0.115967
  11 H :    0.110001
  12 H :    0.113409
  13 H :    0.091825
  14 H :    0.109999
  15 H :    0.113410
  16 H :    0.115966
  17 H :    0.103542
  18 H :    0.109999
  19 H :    0.113409
  20 H :    0.091825
  21 H :    0.113409
  22 H :    0.110001
  23 H :    0.114154
  24 H :    0.114156
Sum of atomic charges:   -0.0000000

LOEWDIN ATOMIC CHARGES
----------------------
   0 C :   -0.263475
   1 C :   -0.241104
   2 C :   -0.252353
   3 C :   -0.241104
   4 C :   -0.263475
   5 C :   -0.241105
   6 C :   -0.252353
   7 C :   -0.241103
   8 C :   -0.218332
   9 H :    0.131370
  10 H :    0.134826
  11 H :    0.139614
  12 H :    0.136502
  13 H :    0.150369
  14 H :    0.139615
  15 H :    0.136501
  16 H :    0.134826
  17 H :    0.131372
  18 H :    0.139615
  19 H :    0.136501
  20 H :    0.150369
  21 H :    0.136502
  22 H :    0.139614
  23 H :    0.138406
  24 H :    0.138406

  Mayer bond orders larger than 0.1
B(  0-C ,  1-C ) :   0.9455 B(  0-C ,  7-C ) :   0.9455 B(  0-C ,  9-H ) :   0.9313
B(  0-C , 10-H ) :   0.9340 B(  1-C ,  2-C ) :   0.9053 B(  1-C , 11-H ) :   0.9318
B(  1-C , 12-H ) :   0.9274 B(  2-C ,  3-C ) :   0.9053 B(  2-C ,  8-C ) :   0.9162
B(  2-C , 13-H ) :   0.9275 B(  3-C ,  4-C ) :   0.9455 B(  3-C , 14-H ) :   0.9318
B(  3-C , 15-H ) :   0.9274 B(  4-C ,  5-C ) :   0.9455 B(  4-C , 16-H ) :   0.9340
B(  4-C , 17-H ) :   0.9313 B(  5-C ,  6-C ) :   0.9053 B(  5-C , 18-H ) :   0.9318
B(  5-C , 19-H ) :   0.9274 B(  6-C ,  7-C ) :   0.9053 B(  6-C ,  8-C ) :   0.9162
B(  6-C , 20-H ) :   0.9275 B(  7-C , 21-H ) :   0.9274 B(  7-C , 22-H ) :   0.9318
B(  8-C , 23-H ) :   0.9304 B(  8-C , 24-H ) :   0.9304

MP2 TOTAL ENERGY:     -351.758552724 Eh
FINAL SINGLE POINT ENERGY      -351.758552724248

DIPOLE MOMENT
-------------
                                X             Y             Z
Electronic contribution:      0.71068      -0.46560      -0.17861
Nuclear contribution   :     -0.70435       0.46145       0.17701
                        -----------------------------------------
Total Dipole Moment    :      0.00634      -0.00415      -0.00160
                        -----------------------------------------
Magnitude (a.u.)       :      0.00774
Magnitude (Debye)      :      0.01968

                             ****ORCA TERMINATED NORMALLY****
TOTAL RUN TIME: 0 days 0 hours 24 minutes 42 seconds 221 msec
