                         Program Version 3.0.3 - RELEASE   -
|  1> ! RI-MP2 RIJK def2-TZVP def2-TZVP/C def2-TZVP/JK TIGHTSCF
|  2> % maxcore 2000
|  3> % mp2 density relaxed end
|  4> *xyz 0 1
|  5>  C       -0.0143002754     1.5094778598     0.0270991865
|  6>  C       -0.0061601423     0.0148178977     0.0502414925
|  7>  C       -0.0337811407    -0.8198991119    -1.0281993326
|  8>  O       -0.0166108948    -2.1770395082    -0.6748875125
|  9>  C        0.0228919650    -2.1322567794     0.6618039534
| 10>  C        0.0321591620    -0.8726838508     1.1896368190
| 11>  N        0.0732098380    -0.9382507086     2.5699676523
| 12>  C        0.0878776823    -2.2256816904     2.8291870017
| 13>  N        0.0577111689    -3.0268763361     1.6892304037
| 14>  H        0.8800500596     1.9160996481     0.5117953492
| 15>  H       -0.0499594327     1.8914165028    -0.9967701948
| 16>  H       -0.8787049508     1.9073165961     0.5698735183
| 17>  H       -0.0662292536    -0.6407861766    -2.0896311389
| 18>  H        0.1194132607    -2.6710152885     3.8121897339
| 19>  H        0.0617038339    -4.0314508239     1.6544533684
| 20> *
| 21>
| 22>                          ****END OF INPUT****

CARTESIAN COORDINATES (ANGSTROEM)
---------------------------------
  C     -0.014300    1.509478    0.027099
  C     -0.006160    0.014818    0.050241
  C     -0.033781   -0.819899   -1.028199
  O     -0.016611   -2.177040   -0.674888
  C      0.022892   -2.132257    0.661804
  C      0.032159   -0.872684    1.189637
  N      0.073210   -0.938251    2.569968
  C      0.087878   -2.225682    2.829187
  N      0.057711   -3.026876    1.689230
  H      0.880050    1.916100    0.511795
  H     -0.049959    1.891417   -0.996770
  H     -0.878705    1.907317    0.569874
  H     -0.066229   -0.640786   -2.089631
  H      0.119413   -2.671015    3.812190
  H      0.061704   -4.031451    1.654453

 Total Charge           Charge          ....    0
 Multiplicity           Mult            ....    1
 Number of Electrons    NEL             ....   64
 Basis Dimension        Dim             ....  315

ORBITAL ENERGIES
----------------

  NO   OCC          E(Eh)            E(eV)
   0   2.0000     -20.626204      -561.2675
   1   2.0000     -15.630856      -425.3372
   2   2.0000     -15.556694      -423.3192
   3   2.0000     -11.313732      -307.8623
   4   2.0000     -11.303917      -307.5952
   5   2.0000     -11.278790      -306.9115
   6   2.0000     -11.245159      -305.9963
   7   2.0000     -11.232447      -305.6504
   8   2.0000     -11.226517      -305.4891
   9   2.0000      -1.461669       -39.7740
  10   2.0000      -1.336783       -36.3757
  11   2.0000      -1.181096       -32.1393
  12   2.0000      -1.086893       -29.5759
  13   2.0000      -0.998017       -27.1574
  14   2.0000      -0.944490       -25.7009
  15   2.0000      -0.843986       -22.9660
  16   2.0000      -0.824269       -22.4295
  17   2.0000      -0.780642       -21.2424
  18   2.0000      -0.709622       -19.3098
  19   2.0000      -0.664565       -18.0837
  20   2.0000      -0.657490       -17.8912
  21   2.0000      -0.649530       -17.6746
  22   2.0000      -0.586184       -15.9509
  23   2.0000      -0.579502       -15.7691
  24   2.0000      -0.571866       -15.5613
  25   2.0000      -0.565310       -15.3829
  26   2.0000      -0.547161       -14.8890
  27   2.0000      -0.513504       -13.9731
  28   2.0000      -0.436092       -11.8667
  29   2.0000      -0.431609       -11.7447
  30   2.0000      -0.351442        -9.5632
  31   2.0000      -0.286885        -7.8065
  32   0.0000       0.126369         3.4387
  33   0.0000       0.150915         4.1066
  34   0.0000       0.151694         4.1278
  35   0.0000       0.178716         4.8631
  36   0.0000       0.179431         4.8826

MULLIKEN ATOMIC CHARGES
-----------------------
   0 C :   -0.410254
   1 C :   -0.040623
   2 C :   -0.040867
   3 O :   -0.243331
   4 C :    0.230292
   5 C :    0.029427
   6 N :   -0.272501
   7 C :    0.055002
   8 N :   -0.291714
   9 H :    0.149055
  10 H :    0.132821
  11 H :    0.149146
  12 H :    0.144508
  13 H :    0.150376
  14 H :    0.258662
Sum of atomic charges:    0.0000000

LOEWDIN ATOMIC CHARGES
----------------------
   0 C :   -0.263444
   1 C :   -0.180110
   2 C :   -0.193096
   3 O :    0.323954
   4 C :   -0.321232
   5 C :   -0.219787
   6 N :    0.105555
   7 C :   -0.294751
   8 N :    0.184258
   9 H :    0.135079
  10 H :    0.130579
  11 H :    0.135108
  12 H :    0.133116
  13 H :    0.129607
  14 H :    0.195164

  Mayer bond orders larger than 0.1
B(  0-C ,  1-C ) :   0.8855 B(  0-C ,  9-H ) :   0.9334 B(  0-C , 10-H ) :   0.9459
B(  0-C , 11-H ) :   0.9336 B(  1-C ,  2-C ) :   1.6113 B(  1-C ,  5-C ) :   1.1161
B(  2-C ,  3-O ) :   0.9651 B(  2-C , 12-H ) :   0.9362 B(  3-O ,  4-C ) :   1.0810
B(  4-C ,  5-C ) :   1.3142 B(  4-C ,  8-N ) :   1.1331 B(  5-C ,  6-N ) :   1.2911
B(  6-N ,  7-C ) :   1.5746 B(  7-C ,  8-N ) :   1.0912 B(  7-C , 13-H ) :   0.9274
B(  8-N , 14-H ) :   0.8592

MP2 TOTAL ENERGY:     -416.129023998 Eh
FINAL SINGLE POINT ENERGY      -416.129023997586

DIPOLE MOMENT
-------------
                                X             Y             Z
Electronic contribution:      0.05746      -6.15857       0.90070
Nuclear contribution   :     -0.06237       5.19589      -1.23694
                        -----------------------------------------
Total Dipole Moment    :     -0.00491      -0.96268      -0.33624
                        -----------------------------------------
Magnitude (a.u.)       :      1.01973
Magnitude (Debye)      :      2.59194

                             ****ORCA TERMINATED NORMALLY****
TOTAL RUN TIME: 0 days 0 hours 15 minutes 33 seconds 842 msec
