                         Program Version 3.0.3 - RELEASE   -
|  1> ! RI-MP2 RIJK def2-TZVP def2-TZVP/C def2-TZVP/JK TIGHTSCF
|  2> % maxcore 2000
|  3> % mp2 density relaxed end
|  4> *xyz 0 1
|  5>  C       -0.0890548780     1.3707781242     0.1665565249
|  6>  O       -0.0219254831    -0.0226288897    -0.0293556257
|  7>  C        0.6805002369    -0.4868410200    -1.1917812571
|  8>  C        2.1349565289     0.0108561818    -1.1979255430
|  9>  C        0.5868724776    -2.0337052504    -1.1562719841
| 10>  C        0.2776254724    -2.5009956448    -2.6016009922
| 11>  C       -0.6965126187    -3.6822071990    -2.6825028520
| 12>  C       -0.2322439846    -1.2315839958    -3.2464263050
| 13>  C       -0.0300927262    -0.1537488114    -2.4937389489
| 14>  H        0.8935108463     1.8222875398     0.3643765210
| 15>  H       -0.5450264760     1.8978374648    -0.6843235758
| 16>  H       -0.7213186382     1.5308718559     1.0441235166
| 17>  H        2.6071873537    -0.1933946514    -0.2312644203
| 18>  H        2.7020033886    -0.5049888946    -1.9784229140
| 19>  H        2.2042509641     1.0841950984    -1.3986545304
| 20>  H        1.4858656988    -2.4968385658    -0.7404926640
| 21>  H       -0.2512063995    -2.2859059503    -0.4999837117
| 22>  H        1.2097928375    -2.8027696724    -3.1033051200
| 23>  H       -1.6524499212    -3.4304235473    -2.2107386713
| 24>  H       -0.8966410668    -3.9619721164    -3.7225845407
| 25>  H       -0.2906899376    -4.5627039565    -2.1731861072
| 26>  H       -0.6866639772    -1.2297429415    -4.2329090246
| 27>  H       -0.2810655275     0.8628738426    -2.7754772643
| 28> *
| 29>
| 30>                          ****END OF INPUT****

CARTESIAN COORDINATES (ANGSTROEM)
---------------------------------
  C     -0.089055    1.370778    0.166557
  O     -0.021925   -0.022629   -0.029356
  C      0.680500   -0.486841   -1.191781
  C      2.134957    0.010856   -1.197926
  C      0.586872   -2.033705   -1.156272
  C      0.277625   -2.500996   -2.601601
  C     -0.696513   -3.682207   -2.682503
  C     -0.232244   -1.231584   -3.246426
  C     -0.030093   -0.153749   -2.493739
  H      0.893511    1.822288    0.364377
  H     -0.545026    1.897837   -0.684324
  H     -0.721319    1.530872    1.044124
  H      2.607187   -0.193395   -0.231264
  H      2.702003   -0.504989   -1.978423
  H      2.204251    1.084195   -1.398655
  H      1.485866   -2.496839   -0.740493
  H     -0.251206   -2.285906   -0.499984
  H      1.209793   -2.802770   -3.103305
  H     -1.652450   -3.430424   -2.210739
  H     -0.896641   -3.961972   -3.722585
  H     -0.290690   -4.562704   -2.173186
  H     -0.686664   -1.229743   -4.232909
  H     -0.281066    0.862874   -2.775477

 Total Charge           Charge          ....    0
 Multiplicity           Mult            ....    1
 Number of Electrons    NEL             ....   70
 Basis Dimension        Dim             ....  363

ORBITAL ENERGIES
----------------

  NO   OCC          E(Eh)            E(eV)
   0   2.0000     -20.545016      -559.0583
   1   2.0000     -11.284153      -307.0574
   2   2.0000     -11.264284      -306.5167
   3   2.0000     -11.229286      -305.5644
   4   2.0000     -11.224485      -305.4338
   5   2.0000     -11.218096      -305.2599
   6   2.0000     -11.214175      -305.1532
   7   2.0000     -11.212810      -305.1161
   8   2.0000     -11.211470      -305.0796
   9   2.0000      -1.363962       -37.1153
  10   2.0000      -1.135210       -30.8906
  11   2.0000      -1.022535       -27.8246
  12   2.0000      -0.986265       -26.8376
  13   2.0000      -0.938353       -25.5339
  14   2.0000      -0.908856       -24.7312
  15   2.0000      -0.847690       -23.0668
  16   2.0000      -0.760016       -20.6811
  17   2.0000      -0.723963       -19.7000
  18   2.0000      -0.677344       -18.4315
  19   2.0000      -0.646933       -17.6040
  20   2.0000      -0.628838       -17.1115
  21   2.0000      -0.614643       -16.7253
  22   2.0000      -0.593408       -16.1474
  23   2.0000      -0.567274       -15.4363
  24   2.0000      -0.561426       -15.2772
  25   2.0000      -0.542292       -14.7565
  26   2.0000      -0.530582       -14.4379
  27   2.0000      -0.515583       -14.0297
  28   2.0000      -0.499614       -13.5952
  29   2.0000      -0.479547       -13.0491
  30   2.0000      -0.472500       -12.8574
  31   2.0000      -0.469416       -12.7735
  32   2.0000      -0.439435       -11.9576
  33   2.0000      -0.410656       -11.1745
  34   2.0000      -0.351885        -9.5753
  35   0.0000       0.133094         3.6217
  36   0.0000       0.149721         4.0741
  37   0.0000       0.159605         4.3431
  38   0.0000       0.166984         4.5439
  39   0.0000       0.184747         5.0272

MULLIKEN ATOMIC CHARGES
-----------------------
   0 C :   -0.231864
   1 O :   -0.310692
   2 C :    0.396426
   3 C :   -0.470343
   4 C :   -0.299861
   5 C :    0.024614
   6 C :   -0.422276
   7 C :   -0.177889
   8 C :   -0.272862
   9 H :    0.116906
  10 H :    0.106140
  11 H :    0.141933
  12 H :    0.142631
  13 H :    0.139240
  14 H :    0.133495
  15 H :    0.124226
  16 H :    0.125279
  17 H :    0.093433
  18 H :    0.131456
  19 H :    0.128221
  20 H :    0.132425
  21 H :    0.123569
  22 H :    0.125793
Sum of atomic charges:   -0.0000000

LOEWDIN ATOMIC CHARGES
----------------------
   0 C :   -0.361846
   1 O :    0.167972
   2 C :   -0.348699
   3 C :   -0.272498
   4 C :   -0.170592
   5 C :   -0.255531
   6 C :   -0.294028
   7 C :   -0.128704
   8 C :   -0.123510
   9 H :    0.101383
  10 H :    0.100458
  11 H :    0.114224
  12 H :    0.128972
  13 H :    0.131908
  14 H :    0.123544
  15 H :    0.136482
  16 H :    0.150051
  17 H :    0.153734
  18 H :    0.124887
  19 H :    0.121920
  20 H :    0.123679
  21 H :    0.138256
  22 H :    0.137937

  Mayer bond orders larger than 0.1
B(  0-C ,  1-O ) :   0.9237 B(  0-C ,  9-H ) :   0.9341 B(  0-C , 10-H ) :   0.9303
B(  0-C , 11-H ) :   0.9417 B(  1-O ,  2-C ) :   0.9493 B(  2-C ,  3-C ) :   0.8816
B(  2-C ,  4-C ) :   0.8684 B(  2-C ,  8-C ) :   0.9092 B(  3-C , 12-H ) :   0.9382
B(  3-C , 13-H ) :   0.9289 B(  3-C , 14-H ) :   0.9340 B(  4-C ,  5-C ) :   0.9567
B(  4-C , 15-H ) :   0.9262 B(  4-C , 16-H ) :   0.9238 B(  5-C ,  6-C ) :   0.8971
B(  5-C ,  7-C ) :   0.9126 B(  5-C , 17-H ) :   0.9132 B(  6-C , 18-H ) :   0.9352
B(  6-C , 19-H ) :   0.9407 B(  6-C , 20-H ) :   0.9386 B(  7-C ,  8-C ) :   1.7991
B(  7-C , 21-H ) :   0.9207 B(  8-C , 22-H ) :   0.9099

MP2 TOTAL ENERGY:     -387.617792873 Eh
FINAL SINGLE POINT ENERGY      -387.617792873475

DIPOLE MOMENT
-------------
                                X             Y             Z
Electronic contribution:     -1.30653       1.15589       0.21122
Nuclear contribution   :      1.55582      -0.95499      -0.54044
                        -----------------------------------------
Total Dipole Moment    :      0.24929       0.20090      -0.32922
                        -----------------------------------------
Magnitude (a.u.)       :      0.45923
Magnitude (Debye)      :      1.16727

                             ****ORCA TERMINATED NORMALLY****
TOTAL RUN TIME: 0 days 0 hours 20 minutes 13 seconds 837 msec
