                         Program Version 3.0.3 - RELEASE   -
|  1> ! RI-MP2 RIJK def2-TZVP def2-TZVP/C def2-TZVP/JK TIGHTSCF
|  2> % maxcore 2000
|  3> % mp2 density relaxed end
|  4> *xyz 0 1
|  5>  C        0.0391790685     1.5478322522    -0.0973451920
|  6>  C        0.0191792293     0.0316673125    -0.0146469338
|  7>  O        0.6621518476    -0.4900903049    -1.1650437753
|  8>  C        0.7014591602    -1.8929413064    -1.1948447143
|  9>  C        1.4250371341    -2.2900833539    -2.4909097289
| 10>  C        1.5364189214    -3.7278395549    -2.6507291927
| 11>  C        1.6183544923    -4.9279651182    -2.7644192682
| 12>  C        1.7127601463    -6.2833380904    -2.8961210369
| 13>  N        1.7917057573    -7.4372238719    -3.0063198704
| 14>  H        1.0677774530     1.9168179096    -0.1384808538
| 15>  H       -0.4849443900     1.8907247088    -0.9937633390
| 16>  H       -0.4508833771     1.9816694722     0.7791264244
| 17>  H        0.5361058100    -0.3157204134     0.8951855971
| 18>  H       -1.0167797477    -0.3419274611     0.0391801890
| 19>  H        1.2409272674    -2.2982246896    -0.3238097776
| 20>  H       -0.3126847039    -2.3234998324    -1.1834095368
| 21>  H        0.8840735854    -1.8606026096    -3.3425695081
| 22>  H        2.4231652240    -1.8360413686    -2.4908943482
| 23> *
| 24>
| 25>                          ****END OF INPUT****

CARTESIAN COORDINATES (ANGSTROEM)
---------------------------------
  C      0.039179    1.547832   -0.097345
  C      0.019179    0.031667   -0.014647
  O      0.662152   -0.490090   -1.165044
  C      0.701459   -1.892941   -1.194845
  C      1.425037   -2.290083   -2.490910
  C      1.536419   -3.727840   -2.650729
  C      1.618354   -4.927965   -2.764419
  C      1.712760   -6.283338   -2.896121
  N      1.791706   -7.437224   -3.006320
  H      1.067777    1.916818   -0.138481
  H     -0.484944    1.890725   -0.993763
  H     -0.450883    1.981669    0.779126
  H      0.536106   -0.315720    0.895186
  H     -1.016780   -0.341927    0.039180
  H      1.240927   -2.298225   -0.323810
  H     -0.312685   -2.323500   -1.183410
  H      0.884074   -1.860603   -3.342570
  H      2.423165   -1.836041   -2.490894

 Total Charge           Charge          ....    0
 Multiplicity           Mult            ....    1
 Number of Electrons    NEL             ....   66
 Basis Dimension        Dim             ....  333

ORBITAL ENERGIES
----------------

  NO   OCC          E(Eh)            E(eV)
   0   2.0000     -20.575059      -559.8758
   1   2.0000     -15.591387      -424.2632
   2   2.0000     -11.305632      -307.6419
   3   2.0000     -11.299627      -307.4785
   4   2.0000     -11.294334      -307.3345
   5   2.0000     -11.290852      -307.2397
   6   2.0000     -11.279271      -306.9246
   7   2.0000     -11.275803      -306.8302
   8   2.0000     -11.226739      -305.4951
   9   2.0000      -1.399115       -38.0718
  10   2.0000      -1.232010       -33.5247
  11   2.0000      -1.120787       -30.4982
  12   2.0000      -1.057497       -28.7760
  13   2.0000      -1.014188       -27.5975
  14   2.0000      -0.905434       -24.6381
  15   2.0000      -0.860700       -23.4208
  16   2.0000      -0.848744       -23.0955
  17   2.0000      -0.704719       -19.1764
  18   2.0000      -0.704332       -19.1659
  19   2.0000      -0.650623       -17.7044
  20   2.0000      -0.640449       -17.4275
  21   2.0000      -0.621191       -16.9035
  22   2.0000      -0.576498       -15.6873
  23   2.0000      -0.574428       -15.6310
  24   2.0000      -0.549520       -14.9532
  25   2.0000      -0.542610       -14.7652
  26   2.0000      -0.529589       -14.4108
  27   2.0000      -0.519141       -14.1265
  28   2.0000      -0.512409       -13.9433
  29   2.0000      -0.496853       -13.5201
  30   2.0000      -0.442891       -12.0517
  31   2.0000      -0.402865       -10.9625
  32   2.0000      -0.402131       -10.9425
  33   0.0000       0.097070         2.6414
  34   0.0000       0.100498         2.7347
  35   0.0000       0.123362         3.3569
  36   0.0000       0.139838         3.8052
  37   0.0000       0.155199         4.2232

MULLIKEN ATOMIC CHARGES
-----------------------
   0 C :   -0.362570
   1 C :   -0.053883
   2 O :   -0.285949
   3 C :   -0.064884
   4 C :   -0.233902
   5 C :   -0.115156
   6 C :    0.254794
   7 C :   -0.219530
   8 N :   -0.040668
   9 H :    0.131384
  10 H :    0.131379
  11 H :    0.126135
  12 H :    0.097498
  13 H :    0.097473
  14 H :    0.109345
  15 H :    0.109389
  16 H :    0.159581
  17 H :    0.159563
Sum of atomic charges:    0.0000000

LOEWDIN ATOMIC CHARGES
----------------------
   0 C :   -0.315066
   1 C :   -0.347527
   2 O :    0.159455
   3 C :   -0.314528
   4 C :   -0.236279
   5 C :    0.002638
   6 C :   -0.060478
   7 C :   -0.178040
   8 N :    0.096141
   9 H :    0.124845
  10 H :    0.124838
  11 H :    0.126243
  12 H :    0.118025
  13 H :    0.118028
  14 H :    0.124529
  15 H :    0.124532
  16 H :    0.166328
  17 H :    0.166317

  Mayer bond orders larger than 0.1
B(  0-C ,  1-C ) :   0.9549 B(  0-C ,  9-H ) :   0.9358 B(  0-C , 10-H ) :   0.9358
B(  0-C , 11-H ) :   0.9316 B(  1-C ,  2-O ) :   0.9021 B(  1-C , 12-H ) :   0.9251
B(  1-C , 13-H ) :   0.9251 B(  2-O ,  3-C ) :   0.9776 B(  3-C ,  4-C ) :   0.9429
B(  3-C , 14-H ) :   0.9254 B(  3-C , 15-H ) :   0.9254 B(  4-C ,  5-C ) :   0.9705
B(  4-C , 16-H ) :   0.9177 B(  4-C , 17-H ) :   0.9177 B(  5-C ,  6-C ) :   2.5546
B(  5-C ,  8-N ) :   0.1120 B(  6-C ,  7-C ) :   0.9865 B(  7-C ,  8-N ) :   2.7647

MP2 TOTAL ENERGY:     -401.225696714 Eh
FINAL SINGLE POINT ENERGY      -401.225696714256

DIPOLE MOMENT
-------------
                                X             Y             Z
Electronic contribution:      4.49322     -17.54158      -7.61970
Nuclear contribution   :     -4.87743      19.36180       8.26347
                        -----------------------------------------
Total Dipole Moment    :     -0.38421       1.82022       0.64377
                        -----------------------------------------
Magnitude (a.u.)       :      1.96856
Magnitude (Debye)      :      5.00369

                             ****ORCA TERMINATED NORMALLY****
TOTAL RUN TIME: 0 days 0 hours 13 minutes 8 seconds 59 msec
