                         Program Version 3.0.3 - RELEASE   -
|  1> ! RI-MP2 RIJK def2-TZVP def2-TZVP/C def2-TZVP/JK TIGHTSCF
|  2> % maxcore 2000
|  3> % mp2 density relaxed end
|  4> *xyz 0 1
|  5>  C       -0.0863956018     1.5202471871     0.0607837197
|  6>  C       -0.0144387413     0.0324055625    -0.0626433120
|  7>  C       -0.0007925629    -0.7502131884    -1.1821161736
|  8>  C        0.0776476638    -2.0856049397    -0.6877194208
|  9>  O        0.1149934036    -3.1813833913    -1.4590899061
| 10>  N        0.1109631719    -2.1505385334     0.6217553985
| 11>  N        0.0539635640    -0.8349201728     1.0189368888
| 12>  C        0.0676651767    -0.4895149547     2.3685165831
| 13>  O        0.1274408601    -1.2675888882     3.2795558160
| 14>  H        0.7901192809     1.9350519318     0.5696756185
| 15>  H       -0.1315966790     1.9596210477    -0.9376483851
| 16>  H       -0.9756561840     1.8462624746     0.6105445594
| 17>  H       -0.0404959077    -0.4298098839    -2.2099679858
| 18>  H        0.1669561138    -3.9455964318    -0.8689230006
| 19>  H        0.0152790219     0.6057364705     2.4945561501
| 20> *
| 21>
| 22>                          ****END OF INPUT****

CARTESIAN COORDINATES (ANGSTROEM)
---------------------------------
  C     -0.086396    1.520247    0.060784
  C     -0.014439    0.032406   -0.062643
  C     -0.000793   -0.750213   -1.182116
  C      0.077648   -2.085605   -0.687719
  O      0.114993   -3.181383   -1.459090
  N      0.110963   -2.150539    0.621755
  N      0.053964   -0.834920    1.018937
  C      0.067665   -0.489515    2.368517
  O      0.127441   -1.267589    3.279556
  H      0.790119    1.935052    0.569676
  H     -0.131597    1.959621   -0.937648
  H     -0.975656    1.846262    0.610545
  H     -0.040496   -0.429810   -2.209968
  H      0.166956   -3.945596   -0.868923
  H      0.015279    0.605736    2.494556

 Total Charge           Charge          ....    0
 Multiplicity           Mult            ....    1
 Number of Electrons    NEL             ....   66
 Basis Dimension        Dim             ....  315

ORBITAL ENERGIES
----------------

  NO   OCC          E(Eh)            E(eV)
   0   2.0000     -20.607299      -560.7531
   1   2.0000     -20.552952      -559.2743
   2   2.0000     -15.655606      -426.0107
   3   2.0000     -15.586036      -424.1176
   4   2.0000     -11.372663      -309.4659
   5   2.0000     -11.341421      -308.6158
   6   2.0000     -11.316571      -307.9396
   7   2.0000     -11.267004      -306.5908
   8   2.0000     -11.241094      -305.8857
   9   2.0000      -1.443706       -39.2852
  10   2.0000      -1.417872       -38.5823
  11   2.0000      -1.363332       -37.0981
  12   2.0000      -1.141545       -31.0630
  13   2.0000      -1.099606       -29.9218
  14   2.0000      -0.993475       -27.0338
  15   2.0000      -0.897923       -24.4337
  16   2.0000      -0.825008       -22.4496
  17   2.0000      -0.802462       -21.8361
  18   2.0000      -0.727056       -19.7842
  19   2.0000      -0.693853       -18.8807
  20   2.0000      -0.669401       -18.2153
  21   2.0000      -0.662374       -18.0241
  22   2.0000      -0.624490       -16.9932
  23   2.0000      -0.616122       -16.7655
  24   2.0000      -0.608601       -16.5609
  25   2.0000      -0.587959       -15.9992
  26   2.0000      -0.581614       -15.8265
  27   2.0000      -0.564326       -15.3561
  28   2.0000      -0.516843       -14.0640
  29   2.0000      -0.475301       -12.9336
  30   2.0000      -0.454172       -12.3586
  31   2.0000      -0.369338       -10.0502
  32   2.0000      -0.362630        -9.8677
  33   0.0000       0.091956         2.5022
  34   0.0000       0.120277         3.2729
  35   0.0000       0.150369         4.0917
  36   0.0000       0.164449         4.4749
  37   0.0000       0.183633         4.9969

MULLIKEN ATOMIC CHARGES
-----------------------
   0 C :   -0.453600
   1 C :    0.081335
   2 C :   -0.244631
   3 C :    0.238475
   4 O :   -0.418814
   5 N :   -0.252422
   6 N :    0.094008
   7 C :    0.119585
   8 O :   -0.256830
   9 H :    0.162286
  10 H :    0.158812
  11 H :    0.162275
  12 H :    0.156022
  13 H :    0.345920
  14 H :    0.107577
Sum of atomic charges:    0.0000000

LOEWDIN ATOMIC CHARGES
----------------------
   0 C :   -0.271728
   1 C :   -0.216817
   2 C :   -0.135984
   3 C :   -0.412909
   4 O :    0.089923
   5 N :    0.070056
   6 N :    0.208338
   7 C :   -0.359956
   8 O :    0.137722
   9 H :    0.135926
  10 H :    0.142095
  11 H :    0.135923
  12 H :    0.149467
  13 H :    0.204839
  14 H :    0.123104

  Mayer bond orders larger than 0.1
B(  0-C ,  1-C ) :   0.8483 B(  0-C ,  9-H ) :   0.9360 B(  0-C , 10-H ) :   0.9357
B(  0-C , 11-H ) :   0.9360 B(  1-C ,  2-C ) :   1.5176 B(  1-C ,  6-N ) :   1.1494
B(  2-C ,  3-C ) :   1.2084 B(  2-C , 12-H ) :   0.9101 B(  3-C ,  4-O ) :   1.1327
B(  3-C ,  5-N ) :   1.5597 B(  4-O , 13-H ) :   0.8138 B(  5-N ,  6-N ) :   0.9312
B(  6-N ,  7-C ) :   0.9567 B(  7-C ,  8-O ) :   2.0138 B(  7-C , 14-H ) :   0.9288

MP2 TOTAL ENERGY:     -453.249624364 Eh
FINAL SINGLE POINT ENERGY      -453.249624363543

DIPOLE MOMENT
-------------
                                X             Y             Z
Electronic contribution:      0.37216      -6.48388       2.00869
Nuclear contribution   :     -0.45392       7.71491      -2.87998
                        -----------------------------------------
Total Dipole Moment    :     -0.08177       1.23103      -0.87129
                        -----------------------------------------
Magnitude (a.u.)       :      1.51039
Magnitude (Debye)      :      3.83911

                             ****ORCA TERMINATED NORMALLY****
TOTAL RUN TIME: 0 days 0 hours 15 minutes 2 seconds 843 msec
