                         Program Version 3.0.3 - RELEASE   -
|  1> ! RI-MP2 RIJK def2-TZVP def2-TZVP/C def2-TZVP/JK TIGHTSCF
|  2> % maxcore 2000
|  3> % mp2 density relaxed end
|  4> *xyz 0 1
|  5>  C       -0.0449105655     1.5269234686    -0.0908698656
|  6>  C       -0.0082233101     0.0174939445     0.0310516691
|  7>  O       -1.2606357972    -0.4084899183     0.7449509464
|  8>  C       -0.4464427661    -0.4469822146     1.9871354515
|  9>  C        0.7503722440    -0.7474023562     1.0519185367
| 10>  O        2.0142764940    -0.2741438362     0.3730830017
| 11>  C        1.1954661993    -0.6191190090    -0.8512388724
| 12>  C        1.0170649428    -2.1115117437    -0.7129585200
| 13>  C        0.7029761596    -2.2062655531     0.5778510809
| 14>  H        0.9051290391     1.9242664079    -0.4511877438
| 15>  H       -0.8291841800     1.7845424040    -0.8124925875
| 16>  H       -0.2976695230     2.0214840546     0.8508318531
| 17>  H       -0.4543066726     0.5184592186     2.4990534027
| 18>  H       -0.7691726552    -1.2514473983     2.6526456240
| 19>  H        1.5875385703    -0.1604495999    -1.7593354006
| 20>  H        1.1097140438    -2.8550840844    -1.4896352946
| 21>  H        0.4528886669    -3.0568367745     1.1951147884
| 22> *
| 23>
| 24>                          ****END OF INPUT****

CARTESIAN COORDINATES (ANGSTROEM)
---------------------------------
  C     -0.044911    1.526923   -0.090870
  C     -0.008223    0.017494    0.031052
  O     -1.260636   -0.408490    0.744951
  C     -0.446443   -0.446982    1.987135
  C      0.750372   -0.747402    1.051919
  O      2.014276   -0.274144    0.373083
  C      1.195466   -0.619119   -0.851239
  C      1.017065   -2.111512   -0.712959
  C      0.702976   -2.206266    0.577851
  H      0.905129    1.924266   -0.451188
  H     -0.829184    1.784542   -0.812493
  H     -0.297670    2.021484    0.850832
  H     -0.454307    0.518459    2.499053
  H     -0.769173   -1.251447    2.652646
  H      1.587539   -0.160450   -1.759335
  H      1.109714   -2.855084   -1.489635
  H      0.452889   -3.056837    1.195115

 Total Charge           Charge          ....    0
 Multiplicity           Mult            ....    1
 Number of Electrons    NEL             ....   66
 Basis Dimension        Dim             ....  327

ORBITAL ENERGIES
----------------

  NO   OCC          E(Eh)            E(eV)
   0   2.0000     -20.567936      -559.6820
   1   2.0000     -20.567102      -559.6593
   2   2.0000     -11.317056      -307.9528
   3   2.0000     -11.309126      -307.7370
   4   2.0000     -11.302685      -307.5617
   5   2.0000     -11.299889      -307.4856
   6   2.0000     -11.240397      -305.8667
   7   2.0000     -11.238644      -305.8190
   8   2.0000     -11.224310      -305.4290
   9   2.0000      -1.404431       -38.2165
  10   2.0000      -1.350478       -36.7484
  11   2.0000      -1.099188       -29.9104
  12   2.0000      -1.021925       -27.8080
  13   2.0000      -0.991370       -26.9765
  14   2.0000      -0.905571       -24.6418
  15   2.0000      -0.889950       -24.2168
  16   2.0000      -0.766005       -20.8440
  17   2.0000      -0.722205       -19.6522
  18   2.0000      -0.698668       -19.0117
  19   2.0000      -0.661113       -17.9898
  20   2.0000      -0.639716       -17.4075
  21   2.0000      -0.628201       -17.0942
  22   2.0000      -0.578665       -15.7463
  23   2.0000      -0.564706       -15.3664
  24   2.0000      -0.552804       -15.0425
  25   2.0000      -0.539386       -14.6774
  26   2.0000      -0.537642       -14.6300
  27   2.0000      -0.498525       -13.5655
  28   2.0000      -0.493273       -13.4226
  29   2.0000      -0.465129       -12.6568
  30   2.0000      -0.422057       -11.4847
  31   2.0000      -0.385321       -10.4851
  32   2.0000      -0.358488        -9.7549
  33   0.0000       0.118776         3.2321
  34   0.0000       0.144320         3.9272
  35   0.0000       0.151032         4.1098
  36   0.0000       0.166976         4.5436
  37   0.0000       0.182583         4.9683

MULLIKEN ATOMIC CHARGES
-----------------------
   0 C :   -0.447122
   1 C :    0.218468
   2 O :   -0.314515
   3 C :   -0.089116
   4 C :    0.232470
   5 O :   -0.298812
   6 C :    0.034402
   7 C :   -0.221173
   8 C :   -0.220559
   9 H :    0.148778
  10 H :    0.147038
  11 H :    0.127729
  12 H :    0.124808
  13 H :    0.128466
  14 H :    0.143181
  15 H :    0.144986
  16 H :    0.140971
Sum of atomic charges:   -0.0000000

LOEWDIN ATOMIC CHARGES
----------------------
   0 C :   -0.267534
   1 C :   -0.229418
   2 O :    0.133830
   3 C :   -0.206982
   4 C :   -0.240633
   5 O :    0.141629
   6 C :   -0.169815
   7 C :   -0.124450
   8 C :   -0.097476
   9 H :    0.133818
  10 H :    0.138029
  11 H :    0.127500
  12 H :    0.124529
  13 H :    0.126671
  14 H :    0.133743
  15 H :    0.138104
  16 H :    0.138455

  Mayer bond orders larger than 0.1
B(  0-C ,  1-C ) :   0.9126 B(  0-C ,  9-H ) :   0.9338 B(  0-C , 10-H ) :   0.9330
B(  0-C , 11-H ) :   0.9219 B(  1-C ,  2-O ) :   0.8613 B(  1-C ,  4-C ) :   0.9319
B(  1-C ,  6-C ) :   0.8527 B(  2-O ,  3-C ) :   0.9083 B(  3-C ,  4-C ) :   0.8941
B(  3-C , 12-H ) :   0.9158 B(  3-C , 13-H ) :   0.9100 B(  4-C ,  5-O ) :   0.9060
B(  4-C ,  8-C ) :   0.9443 B(  5-O ,  6-C ) :   0.8526 B(  6-C ,  7-C ) :   1.0025
B(  6-C , 14-H ) :   0.8899 B(  7-C ,  8-C ) :   1.7520 B(  7-C , 15-H ) :   0.9186
B(  8-C , 16-H ) :   0.9062

MP2 TOTAL ENERGY:     -420.955316409 Eh
FINAL SINGLE POINT ENERGY      -420.955316408919

DIPOLE MOMENT
-------------
                                X             Y             Z
Electronic contribution:      1.41628      -3.08441       0.12960
Nuclear contribution   :     -1.53388       3.05401      -0.16738
                        -----------------------------------------
Total Dipole Moment    :     -0.11760      -0.03040      -0.03778
                        -----------------------------------------
Magnitude (a.u.)       :      0.12720
Magnitude (Debye)      :      0.32332

                             ****ORCA TERMINATED NORMALLY****
TOTAL RUN TIME: 0 days 0 hours 19 minutes 30 seconds 569 msec
