                         Program Version 3.0.3 - RELEASE   -
|  1> ! RI-MP2 RIJK def2-TZVP def2-TZVP/C def2-TZVP/JK TIGHTSCF
|  2> % maxcore 2000
|  3> % mp2 density relaxed end
|  4> *xyz 0 1
|  5>  C        0.0702718302     1.4277964014    -0.0828680899
|  6>  N        0.2597346477    -0.0062022187     0.0157656667
|  7>  C        0.3806692855    -0.6469427617     1.2157876121
|  8>  O        0.3502802282    -0.0819615781     2.2893064577
|  9>  C        0.4950750068    -2.1712000809     1.0933126730
| 10>  O        1.3907236079    -2.6340861082     2.0630246545
| 11>  C        1.4376873142    -4.0390206391     2.1354434610
| 12>  H        0.9305644621     1.9165644861    -0.5543465120
| 13>  H       -0.8296159201     1.6699443179    -0.6586527540
| 14>  H       -0.0381320016     1.8092178035     0.9330840782
| 15>  H        0.3664877131    -0.5391039157    -0.8310014761
| 16>  H       -0.5141349773    -2.5933437465     1.2482798768
| 17>  H        0.8155461344    -2.4693561948     0.0787503754
| 18>  H        0.4537130169    -4.4668233668     2.3851676709
| 19>  H        1.7772662072    -4.4900206311     1.1888800398
| 20>  H        2.1476146546    -4.2980714173     2.9240495757
| 21> *
| 22>
| 23>                          ****END OF INPUT****

CARTESIAN COORDINATES (ANGSTROEM)
---------------------------------
  C      0.070272    1.427796   -0.082868
  N      0.259735   -0.006202    0.015766
  C      0.380669   -0.646943    1.215788
  O      0.350280   -0.081962    2.289306
  C      0.495075   -2.171200    1.093313
  O      1.390724   -2.634086    2.063025
  C      1.437687   -4.039021    2.135443
  H      0.930564    1.916564   -0.554347
  H     -0.829616    1.669944   -0.658653
  H     -0.038132    1.809218    0.933084
  H      0.366488   -0.539104   -0.831001
  H     -0.514135   -2.593344    1.248280
  H      0.815546   -2.469356    0.078750
  H      0.453713   -4.466823    2.385168
  H      1.777266   -4.490021    1.188880
  H      2.147615   -4.298071    2.924050

 Total Charge           Charge          ....    0
 Multiplicity           Mult            ....    1
 Number of Electrons    NEL             ....   56
 Basis Dimension        Dim             ....  271

ORBITAL ENERGIES
----------------

  NO   OCC          E(Eh)            E(eV)
   0   2.0000     -20.564783      -559.5962
   1   2.0000     -20.511318      -558.1413
   2   2.0000     -15.586127      -424.1201
   3   2.0000     -11.346166      -308.7449
   4   2.0000     -11.296383      -307.3902
   5   2.0000     -11.277119      -306.8660
   6   2.0000     -11.258795      -306.3674
   7   2.0000      -1.396962       -38.0133
   8   2.0000      -1.369584       -37.2683
   9   2.0000      -1.230049       -33.4713
  10   2.0000      -1.014112       -27.5954
  11   2.0000      -0.945188       -25.7199
  12   2.0000      -0.886422       -24.1208
  13   2.0000      -0.789492       -21.4832
  14   2.0000      -0.715386       -19.4667
  15   2.0000      -0.682797       -18.5799
  16   2.0000      -0.669544       -18.2192
  17   2.0000      -0.630595       -17.1594
  18   2.0000      -0.619127       -16.8473
  19   2.0000      -0.616523       -16.7764
  20   2.0000      -0.571433       -15.5495
  21   2.0000      -0.551783       -15.0148
  22   2.0000      -0.544874       -14.8268
  23   2.0000      -0.518462       -14.1081
  24   2.0000      -0.495520       -13.4838
  25   2.0000      -0.434233       -11.8161
  26   2.0000      -0.419114       -11.4047
  27   2.0000      -0.392011       -10.6672
  28   0.0000       0.122838         3.3426
  29   0.0000       0.146438         3.9848
  30   0.0000       0.164682         4.4812
  31   0.0000       0.176207         4.7948
  32   0.0000       0.203423         5.5354

MULLIKEN ATOMIC CHARGES
-----------------------
   0 C :   -0.278734
   1 N :   -0.342224
   2 C :    0.303645
   3 O :   -0.357671
   4 C :   -0.075554
   5 O :   -0.276825
   6 C :   -0.214415
   7 H :    0.134585
   8 H :    0.133322
   9 H :    0.177920
  10 H :    0.235529
  11 H :    0.111721
  12 H :    0.084402
  13 H :    0.113083
  14 H :    0.106820
  15 H :    0.144396
Sum of atomic charges:    0.0000000

LOEWDIN ATOMIC CHARGES
----------------------
   0 C :   -0.313119
   1 N :    0.075182
   2 C :   -0.461734
   3 O :    0.095499
   4 C :   -0.307443
   5 O :    0.155823
   6 C :   -0.356997
   7 H :    0.115266
   8 H :    0.114780
   9 H :    0.135522
  10 H :    0.181245
  11 H :    0.130700
  12 H :    0.117052
  13 H :    0.102278
  14 H :    0.100109
  15 H :    0.115837

  Mayer bond orders larger than 0.1
B(  0-C ,  1-N ) :   0.8447 B(  0-C ,  7-H ) :   0.9358 B(  0-C ,  8-H ) :   0.9358
B(  0-C ,  9-H ) :   0.9262 B(  1-N ,  2-C ) :   1.1513 B(  1-N , 10-H ) :   0.8757
B(  2-C ,  3-O ) :   1.9423 B(  2-C ,  4-C ) :   0.9005 B(  4-C ,  5-O ) :   0.9771
B(  4-C , 11-H ) :   0.9006 B(  4-C , 12-H ) :   0.9289 B(  5-O ,  6-C ) :   0.9180
B(  6-C , 13-H ) :   0.9361 B(  6-C , 14-H ) :   0.9354 B(  6-C , 15-H ) :   0.9390

MP2 TOTAL ENERGY:     -362.342063453 Eh
FINAL SINGLE POINT ENERGY      -362.342063453287

DIPOLE MOMENT
-------------
                                X             Y             Z
Electronic contribution:      0.30394       2.04169       2.62433
Nuclear contribution   :     -0.54620      -2.61162      -4.24370
                        -----------------------------------------
Total Dipole Moment    :     -0.24226      -0.56993      -1.61937
                        -----------------------------------------
Magnitude (a.u.)       :      1.73374
Magnitude (Debye)      :      4.40682

                             ****ORCA TERMINATED NORMALLY****
TOTAL RUN TIME: 0 days 0 hours 6 minutes 53 seconds 244 msec
