                         Program Version 3.0.3 - RELEASE   -
|  1> ! RI-MP2 RIJK def2-TZVP def2-TZVP/C def2-TZVP/JK TIGHTSCF
|  2> % maxcore 2000
|  3> % mp2 density relaxed end
|  4> *xyz 0 1
|  5>  C        0.3179526931     1.0872643207     0.3449086284
|  6>  O       -0.3456763242     0.0474331153    -0.3442890586
|  7>  C        0.4533364628    -0.5703787993    -1.2957476289
|  8>  C        1.4779504055    -1.6388392780    -0.9708886056
|  9>  O        2.7920699515    -1.6361463043    -1.3989892287
| 10>  C        0.9174647660    -2.5499571109     0.1195248084
| 11>  O       -0.3014990322    -2.7626317178    -0.6365096126
| 12>  C        0.1935046530    -1.9864120228    -1.7303509336
| 13>  C       -0.1412168129    -2.4443082309    -3.1114941154
| 14>  H        1.2089424428     0.7203256852     0.8765802845
| 15>  H        0.6287455560     1.8940649816    -0.3367714487
| 16>  H       -0.3866734609     1.4934527145     1.0740818619
| 17>  H        0.7791380494     0.0740624483    -2.1181616150
| 18>  H        3.2382395283    -0.8692427872    -1.0235416512
| 19>  H        1.4838263043    -3.4824670025     0.2176496075
| 20>  H        0.7227152462    -2.1138818335     1.1051683027
| 21>  H       -1.2209020700    -2.3761376118    -3.2848543628
| 22>  H        0.3646611874    -1.8229918818    -3.8554957820
| 23>  H        0.1641841240    -3.4845786947    -3.2580014803
| 24> *
| 25>
| 26>                          ****END OF INPUT****

CARTESIAN COORDINATES (ANGSTROEM)
---------------------------------
  C      0.317953    1.087264    0.344909
  O     -0.345676    0.047433   -0.344289
  C      0.453336   -0.570379   -1.295748
  C      1.477950   -1.638839   -0.970889
  O      2.792070   -1.636146   -1.398989
  C      0.917465   -2.549957    0.119525
  O     -0.301499   -2.762632   -0.636510
  C      0.193505   -1.986412   -1.730351
  C     -0.141217   -2.444308   -3.111494
  H      1.208942    0.720326    0.876580
  H      0.628746    1.894065   -0.336771
  H     -0.386673    1.493453    1.074082
  H      0.779138    0.074062   -2.118162
  H      3.238240   -0.869243   -1.023542
  H      1.483826   -3.482467    0.217650
  H      0.722715   -2.113882    1.105168
  H     -1.220902   -2.376138   -3.284854
  H      0.364661   -1.822992   -3.855496
  H      0.164184   -3.484579   -3.258001

 Total Charge           Charge          ....    0
 Multiplicity           Mult            ....    1
 Number of Electrons    NEL             ....   70
 Basis Dimension        Dim             ....  339

ORBITAL ENERGIES
----------------

  NO   OCC          E(Eh)            E(eV)
   0   2.0000     -20.581956      -560.0635
   1   2.0000     -20.567336      -559.6657
   2   2.0000     -20.552441      -559.2604
   3   2.0000     -11.292563      -307.2863
   4   2.0000     -11.291869      -307.2674
   5   2.0000     -11.289476      -307.2023
   6   2.0000     -11.281125      -306.9750
   7   2.0000     -11.280907      -306.9691
   8   2.0000     -11.224527      -305.4349
   9   2.0000      -1.414356       -38.4866
  10   2.0000      -1.384527       -37.6749
  11   2.0000      -1.372219       -37.3400
  12   2.0000      -1.108068       -30.1521
  13   2.0000      -1.000907       -27.2361
  14   2.0000      -0.950629       -25.8679
  15   2.0000      -0.911298       -24.7977
  16   2.0000      -0.809218       -22.0199
  17   2.0000      -0.759556       -20.6686
  18   2.0000      -0.707156       -19.2427
  19   2.0000      -0.691783       -18.8244
  20   2.0000      -0.667506       -18.1638
  21   2.0000      -0.648645       -17.6505
  22   2.0000      -0.633114       -17.2279
  23   2.0000      -0.610173       -16.6036
  24   2.0000      -0.586072       -15.9478
  25   2.0000      -0.576381       -15.6841
  26   2.0000      -0.565770       -15.3954
  27   2.0000      -0.550030       -14.9671
  28   2.0000      -0.531543       -14.4640
  29   2.0000      -0.516135       -14.0447
  30   2.0000      -0.495441       -13.4816
  31   2.0000      -0.463696       -12.6178
  32   2.0000      -0.452482       -12.3126
  33   2.0000      -0.384352       -10.4588
  34   2.0000      -0.370773       -10.0893
  35   0.0000       0.117126         3.1872
  36   0.0000       0.151372         4.1191
  37   0.0000       0.163376         4.4457
  38   0.0000       0.174714         4.7542
  39   0.0000       0.188620         5.1326

MULLIKEN ATOMIC CHARGES
-----------------------
   0 C :   -0.218187
   1 O :   -0.286928
   2 C :   -0.082658
   3 C :    0.086625
   4 O :   -0.450975
   5 C :   -0.015515
   6 O :   -0.324106
   7 C :    0.256304
   8 C :   -0.419179
   9 H :    0.107742
  10 H :    0.115764
  11 H :    0.147136
  12 H :    0.110493
  13 H :    0.332694
  14 H :    0.109672
  15 H :    0.104318
  16 H :    0.149402
  17 H :    0.135027
  18 H :    0.142371
Sum of atomic charges:    0.0000000

LOEWDIN ATOMIC CHARGES
----------------------
   0 C :   -0.349413
   1 O :    0.180608
   2 C :   -0.269931
   3 C :   -0.322001
   4 O :    0.029321
   5 C :   -0.222868
   6 O :    0.178927
   7 C :   -0.269360
   8 C :   -0.264378
   9 H :    0.100505
  10 H :    0.102860
  11 H :    0.115758
  12 H :    0.148269
  13 H :    0.185369
  14 H :    0.128365
  15 H :    0.120933
  16 H :    0.137329
  17 H :    0.135834
  18 H :    0.133873

  Mayer bond orders larger than 0.1
B(  0-C ,  1-O ) :   0.9020 B(  0-C ,  9-H ) :   0.9341 B(  0-C , 10-H ) :   0.9341
B(  0-C , 11-H ) :   0.9410 B(  1-O ,  2-C ) :   1.0039 B(  2-C ,  3-C ) :   0.8888
B(  2-C ,  7-C ) :   0.8425 B(  2-C , 12-H ) :   0.9459 B(  3-C ,  4-O ) :   1.0447
B(  3-C ,  5-C ) :   0.9862 B(  3-C ,  7-C ) :   0.8346 B(  4-O , 13-H ) :   0.8331
B(  5-C ,  6-O ) :   0.9376 B(  5-C , 14-H ) :   0.9075 B(  5-C , 15-H ) :   0.9081
B(  6-O ,  7-C ) :   0.9681 B(  7-C ,  8-C ) :   0.8635 B(  8-C , 16-H ) :   0.9389
B(  8-C , 17-H ) :   0.9341 B(  8-C , 18-H ) :   0.9380

MP2 TOTAL ENERGY:     -459.361605071 Eh
FINAL SINGLE POINT ENERGY      -459.361605071181

DIPOLE MOMENT
-------------
                                X             Y             Z
Electronic contribution:      0.03109      -2.51306       0.76912
Nuclear contribution   :      0.78725       3.40333      -0.67123
                        -----------------------------------------
Total Dipole Moment    :      0.81834       0.89026       0.09789
                        -----------------------------------------
Magnitude (a.u.)       :      1.21319
Magnitude (Debye)      :      3.08369

                             ****ORCA TERMINATED NORMALLY****
TOTAL RUN TIME: 0 days 0 hours 15 minutes 30 seconds 594 msec
