                         Program Version 3.0.3 - RELEASE   -
|  1> ! RI-MP2 RIJK def2-TZVP def2-TZVP/C def2-TZVP/JK TIGHTSCF
|  2> % maxcore 2000
|  3> % mp2 density relaxed end
|  4> *xyz 0 1
|  5>  C        0.0770584557     1.6033410032     0.1433879706
|  6>  C        0.0289368906     0.0833579973    -0.0019369548
|  7>  C        0.7340472605    -0.4632408659    -1.2615368791
|  8>  C        0.9615543570    -1.9414998283    -0.9331513736
|  9>  C        1.4316734242    -1.9092817325     0.5365906112
| 10>  C        0.6917595604    -0.6913272628     1.1696545957
| 11>  N        1.2347956939    -3.1629193280     1.2439376434
| 12>  C        2.2404112868    -3.8731926240     1.8210922376
| 13>  O        3.4130538907    -3.5618839575     1.8241798342
| 14>  H        1.1130742037     1.9565531727     0.2061869352
| 15>  H       -0.3938746331     2.1004926151    -0.7116572706
| 16>  H       -0.4422561282     1.9362095130     1.0484212244
| 17>  H       -1.0245064458    -0.2222687471    -0.0603287024
| 18>  H        0.1530480617    -0.3040384777    -2.1747698841
| 19>  H        1.6991925572     0.0430886512    -1.3977648771
| 20>  H        0.0124316025    -2.4902901275    -1.0062723767
| 21>  H        1.6792396510    -2.4430763502    -1.5876767118
| 22>  H        2.5099660683    -1.7416869596     0.5681659568
| 23>  H        1.4017166903    -0.0570269344     1.7100912240
| 24>  H       -0.0480813240    -1.0239622547     1.9044740724
| 25>  H        0.2988766901    -3.5328319185     1.3134018070
| 26>  H        1.8614423766    -4.7969700239     2.3032391877
| 27> *
| 28>
| 29>                          ****END OF INPUT****

CARTESIAN COORDINATES (ANGSTROEM)
---------------------------------
  C      0.077058    1.603341    0.143388
  C      0.028937    0.083358   -0.001937
  C      0.734047   -0.463241   -1.261537
  C      0.961554   -1.941500   -0.933151
  C      1.431673   -1.909282    0.536591
  C      0.691760   -0.691327    1.169655
  N      1.234796   -3.162919    1.243938
  C      2.240411   -3.873193    1.821092
  O      3.413054   -3.561884    1.824180
  H      1.113074    1.956553    0.206187
  H     -0.393875    2.100493   -0.711657
  H     -0.442256    1.936210    1.048421
  H     -1.024506   -0.222269   -0.060329
  H      0.153048   -0.304038   -2.174770
  H      1.699193    0.043089   -1.397765
  H      0.012432   -2.490290   -1.006272
  H      1.679240   -2.443076   -1.587677
  H      2.509966   -1.741687    0.568166
  H      1.401717   -0.057027    1.710091
  H     -0.048081   -1.023962    1.904474
  H      0.298877   -3.532832    1.313402
  H      1.861442   -4.796970    2.303239

 Total Charge           Charge          ....    0
 Multiplicity           Mult            ....    1
 Number of Electrons    NEL             ....   70
 Basis Dimension        Dim             ....  357

ORBITAL ENERGIES
----------------

  NO   OCC          E(Eh)            E(eV)
   0   2.0000     -20.517358      -558.3057
   1   2.0000     -15.585407      -424.1005
   2   2.0000     -11.345357      -308.7229
   3   2.0000     -11.265127      -306.5397
   4   2.0000     -11.230482      -305.5969
   5   2.0000     -11.224899      -305.4450
   6   2.0000     -11.222482      -305.3792
   7   2.0000     -11.222135      -305.3698
   8   2.0000     -11.216510      -305.2168
   9   2.0000      -1.378042       -37.4984
  10   2.0000      -1.236427       -33.6449
  11   2.0000      -1.123307       -30.5667
  12   2.0000      -1.011292       -27.5187
  13   2.0000      -0.969237       -26.3743
  14   2.0000      -0.902965       -24.5709
  15   2.0000      -0.829068       -22.5601
  16   2.0000      -0.796347       -21.6697
  17   2.0000      -0.766087       -20.8463
  18   2.0000      -0.718278       -19.5453
  19   2.0000      -0.669057       -18.2060
  20   2.0000      -0.635510       -17.2931
  21   2.0000      -0.625685       -17.0258
  22   2.0000      -0.591906       -16.1066
  23   2.0000      -0.581929       -15.8351
  24   2.0000      -0.573931       -15.6174
  25   2.0000      -0.567694       -15.4477
  26   2.0000      -0.528914       -14.3925
  27   2.0000      -0.513260       -13.9665
  28   2.0000      -0.492947       -13.4138
  29   2.0000      -0.482087       -13.1182
  30   2.0000      -0.472879       -12.8677
  31   2.0000      -0.456340       -12.4176
  32   2.0000      -0.454229       -12.3602
  33   2.0000      -0.425086       -11.5672
  34   2.0000      -0.382304       -10.4030
  35   0.0000       0.122064         3.3215
  36   0.0000       0.137033         3.7289
  37   0.0000       0.158763         4.3202
  38   0.0000       0.160682         4.3724
  39   0.0000       0.179319         4.8795

MULLIKEN ATOMIC CHARGES
-----------------------
   0 C :   -0.406202
   1 C :   -0.034597
   2 C :   -0.234214
   3 C :   -0.200832
   4 C :    0.020837
   5 C :   -0.273929
   6 N :   -0.330590
   7 C :    0.194717
   8 O :   -0.369595
   9 H :    0.124472
  10 H :    0.130940
  11 H :    0.133871
  12 H :    0.084638
  13 H :    0.125094
  14 H :    0.110562
  15 H :    0.094856
  16 H :    0.136892
  17 H :    0.140515
  18 H :    0.131033
  19 H :    0.113475
  20 H :    0.232248
  21 H :    0.075811
Sum of atomic charges:    0.0000000

LOEWDIN ATOMIC CHARGES
----------------------
   0 C :   -0.299112
   1 C :   -0.272324
   2 C :   -0.237404
   3 C :   -0.239269
   4 C :   -0.255410
   5 C :   -0.207482
   6 N :    0.105223
   7 C :   -0.439938
   8 O :    0.049773
   9 H :    0.123190
  10 H :    0.123384
  11 H :    0.123748
  12 H :    0.149279
  13 H :    0.134489
  14 H :    0.141055
  15 H :    0.135857
  16 H :    0.136959
  17 H :    0.161245
  18 H :    0.141140
  19 H :    0.133643
  20 H :    0.183892
  21 H :    0.108063

  Mayer bond orders larger than 0.1
B(  0-C ,  1-C ) :   0.9047 B(  0-C ,  9-H ) :   0.9336 B(  0-C , 10-H ) :   0.9406
B(  0-C , 11-H ) :   0.9422 B(  1-C ,  2-C ) :   0.9251 B(  1-C ,  5-C ) :   0.9119
B(  1-C , 12-H ) :   0.9301 B(  2-C ,  3-C ) :   0.9229 B(  2-C , 13-H ) :   0.9251
B(  2-C , 14-H ) :   0.9230 B(  3-C ,  4-C ) :   0.9481 B(  3-C , 15-H ) :   0.9236
B(  3-C , 16-H ) :   0.9261 B(  4-C ,  5-C ) :   0.9095 B(  4-C ,  6-N ) :   0.7682
B(  4-C , 17-H ) :   0.9166 B(  5-C , 18-H ) :   0.9318 B(  5-C , 19-H ) :   0.9349
B(  6-N ,  7-C ) :   1.1719 B(  6-N , 20-H ) :   0.8708 B(  7-C ,  8-O ) :   1.8790
B(  7-C , 21-H ) :   0.9293

MP2 TOTAL ENERGY:     -403.707387113 Eh
FINAL SINGLE POINT ENERGY      -403.707387113057

DIPOLE MOMENT
-------------
                                X             Y             Z
Electronic contribution:      5.04169      -8.83445       3.99468
Nuclear contribution   :     -6.54097       9.05808      -4.36380
                        -----------------------------------------
Total Dipole Moment    :     -1.49928       0.22363      -0.36913
                        -----------------------------------------
Magnitude (a.u.)       :      1.56016
Magnitude (Debye)      :      3.96562

                             ****ORCA TERMINATED NORMALLY****
TOTAL RUN TIME: 0 days 0 hours 20 minutes 11 seconds 707 msec
