                         Program Version 3.0.3 - RELEASE   -
|  1> ! RI-MP2 RIJK def2-TZVP def2-TZVP/C def2-TZVP/JK TIGHTSCF
|  2> % maxcore 2000
|  3> % mp2 density relaxed end
|  4> *xyz 0 1
|  5>  O        0.0143380169     1.3983753592     0.0616525080
|  6>  C        0.0220337088     0.0171486950     0.0507783220
|  7>  C       -0.3129174147    -0.7930144096    -1.1701455667
|  8>  C       -1.1720418908    -0.9394763473     0.0628558960
|  9>  C       -0.4522041482    -1.8596272232     1.0550330696
| 10>  C        0.7185660002    -0.8215584960     1.1081093508
| 11>  O        2.0240822653    -1.2643816884     0.7571714861
| 12>  C        2.8850912817    -1.5326763492     1.7566661914
| 13>  N        4.0171708769    -2.0302229082     1.5032140913
| 14>  H        0.6926300162     1.7106228861    -0.5473901524
| 15>  H       -0.7577230282    -0.2005499956    -1.9633436316
| 16>  H        0.3250553070    -1.6066869061    -1.5049274683
| 17>  H       -2.2266286141    -0.6990487363     0.0653962587
| 18>  H       -0.9541069747    -1.9814361046     2.0170060863
| 19>  H       -0.1701544088    -2.8416360250     0.6650304339
| 20>  H        0.7446431214    -0.2922385122     2.0671286090
| 21>  H        2.4982795795    -1.2646799414     2.7504962772
| 22>  H        4.5444598857    -2.1460405271     2.3661348487
| 23> *
| 24>
| 25>                          ****END OF INPUT****

CARTESIAN COORDINATES (ANGSTROEM)
---------------------------------
  O      0.014338    1.398375    0.061653
  C      0.022034    0.017149    0.050778
  C     -0.312917   -0.793014   -1.170146
  C     -1.172042   -0.939476    0.062856
  C     -0.452204   -1.859627    1.055033
  C      0.718566   -0.821558    1.108109
  O      2.024082   -1.264382    0.757171
  C      2.885091   -1.532676    1.756666
  N      4.017171   -2.030223    1.503214
  H      0.692630    1.710623   -0.547390
  H     -0.757723   -0.200550   -1.963344
  H      0.325055   -1.606687   -1.504927
  H     -2.226629   -0.699049    0.065396
  H     -0.954107   -1.981436    2.017006
  H     -0.170154   -2.841636    0.665030
  H      0.744643   -0.292239    2.067129
  H      2.498280   -1.264680    2.750496
  H      4.544460   -2.146041    2.366135

 Total Charge           Charge          ....    0
 Multiplicity           Mult            ....    1
 Number of Electrons    NEL             ....   68
 Basis Dimension        Dim             ....  333

ORBITAL ENERGIES
----------------

  NO   OCC          E(Eh)            E(eV)
   0   2.0000     -20.591534      -560.3241
   1   2.0000     -20.576314      -559.9100
   2   2.0000     -15.538750      -422.8309
   3   2.0000     -11.338433      -308.5344
   4   2.0000     -11.303398      -307.5811
   5   2.0000     -11.296913      -307.4046
   6   2.0000     -11.244036      -305.9658
   7   2.0000     -11.239512      -305.8427
   8   2.0000     -11.236780      -305.7683
   9   2.0000      -1.429671       -38.9033
  10   2.0000      -1.387748       -37.7625
  11   2.0000      -1.207037       -32.8452
  12   2.0000      -1.182321       -32.1726
  13   2.0000      -0.999855       -27.2074
  14   2.0000      -0.913669       -24.8622
  15   2.0000      -0.840319       -22.8662
  16   2.0000      -0.811410       -22.0796
  17   2.0000      -0.768806       -20.9203
  18   2.0000      -0.734765       -19.9940
  19   2.0000      -0.701686       -19.0938
  20   2.0000      -0.662203       -18.0194
  21   2.0000      -0.651478       -17.7276
  22   2.0000      -0.646751       -17.5990
  23   2.0000      -0.605915       -16.4878
  24   2.0000      -0.591045       -16.0832
  25   2.0000      -0.552419       -15.0321
  26   2.0000      -0.540832       -14.7168
  27   2.0000      -0.524623       -14.2757
  28   2.0000      -0.501633       -13.6501
  29   2.0000      -0.477133       -12.9834
  30   2.0000      -0.436739       -11.8843
  31   2.0000      -0.412987       -11.2379
  32   2.0000      -0.393934       -10.7195
  33   2.0000      -0.391773       -10.6607
  34   0.0000       0.138543         3.7699
  35   0.0000       0.143564         3.9066
  36   0.0000       0.156386         4.2555
  37   0.0000       0.157834         4.2949
  38   0.0000       0.173378         4.7179

MULLIKEN ATOMIC CHARGES
-----------------------
   0 O :   -0.456997
   1 C :    0.192125
   2 C :   -0.322450
   3 C :   -0.125421
   4 C :   -0.235618
   5 C :    0.036105
   6 O :   -0.213245
   7 C :    0.057534
   8 N :   -0.341623
   9 H :    0.335846
  10 H :    0.139833
  11 H :    0.144360
  12 H :    0.142664
  13 H :    0.124820
  14 H :    0.126758
  15 H :    0.093893
  16 H :    0.077163
  17 H :    0.224253
Sum of atomic charges:   -0.0000000

LOEWDIN ATOMIC CHARGES
----------------------
   0 O :    0.033005
   1 C :   -0.325101
   2 C :   -0.188212
   3 C :   -0.157783
   4 C :   -0.192725
   5 C :   -0.247260
   6 O :    0.265458
   7 C :   -0.401654
   8 N :   -0.085148
   9 H :    0.190150
  10 H :    0.145274
  11 H :    0.137243
  12 H :    0.139197
  13 H :    0.134925
  14 H :    0.136462
  15 H :    0.143452
  16 H :    0.105454
  17 H :    0.167263

  Mayer bond orders larger than 0.1
B(  0-O ,  1-C ) :   1.0422 B(  0-O ,  9-H ) :   0.8313 B(  1-C ,  2-C ) :   0.9184
B(  1-C ,  3-C ) :   0.8201 B(  1-C ,  5-C ) :   0.9666 B(  2-C ,  3-C ) :   0.8787
B(  2-C , 10-H ) :   0.9333 B(  2-C , 11-H ) :   0.8976 B(  3-C ,  4-C ) :   0.9651
B(  3-C , 12-H ) :   0.9066 B(  4-C ,  5-C ) :   0.9672 B(  4-C , 13-H ) :   0.9256
B(  4-C , 14-H ) :   0.9036 B(  5-C ,  6-O ) :   0.8962 B(  5-C , 15-H ) :   0.9013
B(  6-O ,  7-C ) :   1.0593 B(  7-C ,  8-N ) :   1.9629 B(  7-C , 16-H ) :   0.9249
B(  8-N , 17-H ) :   0.8506

MP2 TOTAL ENERGY:     -438.322089962 Eh
FINAL SINGLE POINT ENERGY      -438.322089962091

DIPOLE MOMENT
-------------
                                X             Y             Z
Electronic contribution:      2.50869       1.83420      -0.05361
Nuclear contribution   :     -3.13692      -1.62548       0.60143
                        -----------------------------------------
Total Dipole Moment    :     -0.62823       0.20872       0.54782
                        -----------------------------------------
Magnitude (a.u.)       :      0.85927
Magnitude (Debye)      :      2.18409

                             ****ORCA TERMINATED NORMALLY****
TOTAL RUN TIME: 0 days 0 hours 14 minutes 59 seconds 423 msec
