                         Program Version 3.0.3 - RELEASE   -
|  1> ! RI-MP2 RIJK def2-TZVP def2-TZVP/C def2-TZVP/JK TIGHTSCF
|  2> % maxcore 2000
|  3> % mp2 density relaxed end
|  4> *xyz 0 1
|  5>  N       -0.0277161901    -1.1437873200     0.0265390111
|  6>  C        0.0077038674     0.0117249174     0.0450871495
|  7>  C        0.0272179029     1.4560822300     0.0088672576
|  8>  C       -1.1204691544     2.0827154294    -0.7854362386
|  9>  O       -0.9621018038     3.4785076965    -0.8911496241
| 10>  C        0.2396308599     3.8141767395    -1.5757541594
| 11>  C        1.4755006419     3.5048906957    -0.7217223416
| 12>  C        1.3323919347     2.1995733946     0.0498668847
| 13>  N        0.4734646769     2.1316326323     1.2388686937
| 14>  H       -1.1747945108     1.6128095849    -1.7798757402
| 15>  H       -2.0706403706     1.9093181895    -0.2711835610
| 16>  H        0.2841368015     3.2583513540    -2.5250072045
| 17>  H        0.1756836159     4.8794846056    -1.8096105139
| 18>  H        2.3588951553     3.4549382580    -1.3666638457
| 19>  H        1.6551807113     4.3162527196    -0.0061950086
| 20>  H        2.2375859278     1.6078496139     0.1534974878
| 21>  H       -0.0570658258     2.9996840595     1.3187772034
| 22> *
| 23>
| 24>                          ****END OF INPUT****

CARTESIAN COORDINATES (ANGSTROEM)
---------------------------------
  N     -0.027716   -1.143787    0.026539
  C      0.007704    0.011725    0.045087
  C      0.027218    1.456082    0.008867
  C     -1.120469    2.082715   -0.785436
  O     -0.962102    3.478508   -0.891150
  C      0.239631    3.814177   -1.575754
  C      1.475501    3.504891   -0.721722
  C      1.332392    2.199573    0.049867
  N      0.473465    2.131633    1.238869
  H     -1.174795    1.612810   -1.779876
  H     -2.070640    1.909318   -0.271184
  H      0.284137    3.258351   -2.525007
  H      0.175684    4.879485   -1.809611
  H      2.358895    3.454938   -1.366664
  H      1.655181    4.316253   -0.006195
  H      2.237586    1.607850    0.153497
  H     -0.057066    2.999684    1.318777

 Total Charge           Charge          ....    0
 Multiplicity           Mult            ....    1
 Number of Electrons    NEL             ....   66
 Basis Dimension        Dim             ....  327

ORBITAL ENERGIES
----------------

  NO   OCC          E(Eh)            E(eV)
   0   2.0000     -20.587730      -560.2206
   1   2.0000     -15.588228      -424.1772
   2   2.0000     -15.575993      -423.8443
   3   2.0000     -11.319537      -308.0203
   4   2.0000     -11.312280      -307.8228
   5   2.0000     -11.302919      -307.5681
   6   2.0000     -11.297816      -307.4292
   7   2.0000     -11.277024      -306.8634
   8   2.0000     -11.257462      -306.3311
   9   2.0000      -1.413420       -38.4611
  10   2.0000      -1.302879       -35.4531
  11   2.0000      -1.218554       -33.1585
  12   2.0000      -1.073067       -29.1997
  13   2.0000      -1.014307       -27.6007
  14   2.0000      -0.926721       -25.2173
  15   2.0000      -0.898627       -24.4529
  16   2.0000      -0.808582       -22.0026
  17   2.0000      -0.748015       -20.3545
  18   2.0000      -0.704866       -19.1804
  19   2.0000      -0.689352       -18.7582
  20   2.0000      -0.655433       -17.8352
  21   2.0000      -0.616630       -16.7794
  22   2.0000      -0.600963       -16.3530
  23   2.0000      -0.590159       -16.0590
  24   2.0000      -0.574459       -15.6318
  25   2.0000      -0.561095       -15.2682
  26   2.0000      -0.526209       -14.3189
  27   2.0000      -0.510204       -13.8834
  28   2.0000      -0.488969       -13.3055
  29   2.0000      -0.473988       -12.8979
  30   2.0000      -0.460459       -12.5297
  31   2.0000      -0.444300       -12.0900
  32   2.0000      -0.405600       -11.0369
  33   0.0000       0.122253         3.3267
  34   0.0000       0.144642         3.9359
  35   0.0000       0.152757         4.1567
  36   0.0000       0.159965         4.3529
  37   0.0000       0.167486         4.5575

MULLIKEN ATOMIC CHARGES
-----------------------
   0 N :   -0.047105
   1 C :   -0.236885
   2 C :    0.231059
   3 C :   -0.041388
   4 O :   -0.314875
   5 C :   -0.085149
   6 C :   -0.210524
   7 C :   -0.106148
   8 N :   -0.350137
   9 H :    0.122517
  10 H :    0.145786
  11 H :    0.115015
  12 H :    0.136256
  13 H :    0.129238
  14 H :    0.134402
  15 H :    0.147566
  16 H :    0.230372
Sum of atomic charges:   -0.0000000

LOEWDIN ATOMIC CHARGES
----------------------
   0 N :    0.076135
   1 C :   -0.145039
   2 C :   -0.285041
   3 C :   -0.272311
   4 O :    0.161639
   5 C :   -0.301055
   6 C :   -0.251600
   7 C :   -0.205037
   8 N :    0.060158
   9 H :    0.135846
  10 H :    0.143632
  11 H :    0.125685
  12 H :    0.132570
  13 H :    0.149438
  14 H :    0.147171
  15 H :    0.151373
  16 H :    0.176437

  Mayer bond orders larger than 0.1
B(  0-N ,  1-C ) :   2.8758 B(  1-C ,  2-C ) :   0.8800 B(  2-C ,  3-C ) :   0.9182
B(  2-C ,  7-C ) :   0.8898 B(  2-C ,  8-N ) :   0.9104 B(  3-C ,  4-O ) :   0.9190
B(  3-C ,  9-H ) :   0.9320 B(  3-C , 10-H ) :   0.9170 B(  4-O ,  5-C ) :   0.9044
B(  5-C ,  6-C ) :   0.9452 B(  5-C , 11-H ) :   0.9417 B(  5-C , 12-H ) :   0.9301
B(  6-C ,  7-C ) :   0.9156 B(  6-C , 13-H ) :   0.9188 B(  6-C , 14-H ) :   0.9151
B(  7-C ,  8-N ) :   0.9431 B(  7-C , 15-H ) :   0.9158 B(  8-N , 16-H ) :   0.8592

MP2 TOTAL ENERGY:     -417.294631205 Eh
FINAL SINGLE POINT ENERGY      -417.294631204518

DIPOLE MOMENT
-------------
                                X             Y             Z
Electronic contribution:     -1.73693      -5.73204       2.72748
Nuclear contribution   :      2.10342       7.40090      -3.55902
                        -----------------------------------------
Total Dipole Moment    :      0.36649       1.66886      -0.83154
                        -----------------------------------------
Magnitude (a.u.)       :      1.90023
Magnitude (Debye)      :      4.83000

                             ****ORCA TERMINATED NORMALLY****
TOTAL RUN TIME: 0 days 0 hours 18 minutes 5 seconds 839 msec
