                         Program Version 3.0.3 - RELEASE   -
|  1> ! RI-MP2 RIJK def2-TZVP def2-TZVP/C def2-TZVP/JK TIGHTSCF
|  2> % maxcore 2000
|  3> % mp2 density relaxed end
|  4> *xyz 0 1
|  5>  C       -0.5288485814     1.4869058945     0.0732394910
|  6>  C        0.0485625031     0.0692299359     0.0062723716
|  7>  O       -1.0196611233    -0.8818444332    -0.0435506809
|  8>  C        0.9885470806    -0.0631428119    -1.2248348357
|  9>  O        2.0257547628    -1.0239017240    -1.0776709431
| 10>  C        2.4933180946    -1.1545578828     0.2605571110
| 11>  C        1.3716696745    -1.7444692576     1.1489039541
| 12>  C        0.8599737923    -0.2797475644     1.2678388467
| 13>  C        2.3406628103     0.1648066668     1.0672330159
| 14>  H        0.2489044563     2.2320918714     0.2657119718
| 15>  H       -1.0189381380     1.7560781562    -0.8710705518
| 16>  H       -1.2732843407     1.5430152785     0.8721325694
| 17>  H       -1.5863350644    -0.6530450341    -0.7876533149
| 18>  H        0.4041152504    -0.3624740091    -2.1018956365
| 19>  H        1.4286987791     0.9206488683    -1.4463738355
| 20>  H        3.4649899407    -1.6482691070     0.2007787950
| 21>  H        0.7103896595    -2.4785430630     0.6906102837
| 22>  H        1.7559581596    -2.1133001115     2.1036491520
| 23>  H        0.3282750743     0.0223357813     2.1730655014
| 24>  H        2.9004830725     0.1109710244     2.0036264009
| 25>  H        2.5608212770     1.1146876912     0.5735572438
| 26> *
| 27>
| 28>                          ****END OF INPUT****

CARTESIAN COORDINATES (ANGSTROEM)
---------------------------------
  C     -0.528849    1.486906    0.073239
  C      0.048563    0.069230    0.006272
  O     -1.019661   -0.881844   -0.043551
  C      0.988547   -0.063143   -1.224835
  O      2.025755   -1.023902   -1.077671
  C      2.493318   -1.154558    0.260557
  C      1.371670   -1.744469    1.148904
  C      0.859974   -0.279748    1.267839
  C      2.340663    0.164807    1.067233
  H      0.248904    2.232092    0.265712
  H     -1.018938    1.756078   -0.871071
  H     -1.273284    1.543015    0.872133
  H     -1.586335   -0.653045   -0.787653
  H      0.404115   -0.362474   -2.101896
  H      1.428699    0.920649   -1.446374
  H      3.464990   -1.648269    0.200779
  H      0.710390   -2.478543    0.690610
  H      1.755958   -2.113300    2.103649
  H      0.328275    0.022336    2.173066
  H      2.900483    0.110971    2.003626
  H      2.560821    1.114688    0.573557

 Total Charge           Charge          ....    0
 Multiplicity           Mult            ....    1
 Number of Electrons    NEL             ....   70
 Basis Dimension        Dim             ....  351

ORBITAL ENERGIES
----------------

  NO   OCC          E(Eh)            E(eV)
   0   2.0000     -20.553484      -559.2887
   1   2.0000     -20.547905      -559.1369
   2   2.0000     -11.290116      -307.2197
   3   2.0000     -11.277020      -306.8633
   4   2.0000     -11.272865      -306.7503
   5   2.0000     -11.231508      -305.6249
   6   2.0000     -11.225039      -305.4489
   7   2.0000     -11.224021      -305.4211
   8   2.0000     -11.211631      -305.0840
   9   2.0000      -1.377822       -37.4925
  10   2.0000      -1.356024       -36.8993
  11   2.0000      -1.130045       -30.7501
  12   2.0000      -1.045486       -28.4491
  13   2.0000      -0.940335       -25.5878
  14   2.0000      -0.903391       -24.5825
  15   2.0000      -0.866990       -23.5920
  16   2.0000      -0.819675       -22.3045
  17   2.0000      -0.716905       -19.5080
  18   2.0000      -0.695296       -18.9200
  19   2.0000      -0.667621       -18.1669
  20   2.0000      -0.660550       -17.9745
  21   2.0000      -0.630006       -17.1433
  22   2.0000      -0.600782       -16.3481
  23   2.0000      -0.582717       -15.8565
  24   2.0000      -0.568222       -15.4621
  25   2.0000      -0.549806       -14.9610
  26   2.0000      -0.542520       -14.7627
  27   2.0000      -0.527470       -14.3532
  28   2.0000      -0.517436       -14.0802
  29   2.0000      -0.498118       -13.5545
  30   2.0000      -0.471633       -12.8338
  31   2.0000      -0.451883       -12.2964
  32   2.0000      -0.436983       -11.8909
  33   2.0000      -0.412984       -11.2379
  34   2.0000      -0.389539       -10.5999
  35   0.0000       0.126411         3.4398
  36   0.0000       0.150623         4.0986
  37   0.0000       0.164793         4.4843
  38   0.0000       0.173250         4.7144
  39   0.0000       0.195200         5.3117

MULLIKEN ATOMIC CHARGES
-----------------------
   0 C :   -0.450856
   1 C :    0.083705
   2 O :   -0.462804
   3 C :   -0.051082
   4 O :   -0.321361
   5 C :    0.110695
   6 C :   -0.284714
   7 C :    0.062925
   8 C :   -0.333029
   9 H :    0.132413
  10 H :    0.130489
  11 H :    0.148387
  12 H :    0.311450
  13 H :    0.103550
  14 H :    0.099214
  15 H :    0.112433
  16 H :    0.134203
  17 H :    0.114507
  18 H :    0.111728
  19 H :    0.125667
  20 H :    0.122479
Sum of atomic charges:   -0.0000000

LOEWDIN ATOMIC CHARGES
----------------------
   0 C :   -0.279466
   1 C :   -0.383463
   2 O :    0.008806
   3 C :   -0.273107
   4 O :    0.170695
   5 C :   -0.282314
   6 C :   -0.197583
   7 C :   -0.183340
   8 C :   -0.202870
   9 H :    0.129271
  10 H :    0.124849
  11 H :    0.129752
  12 H :    0.172125
  13 H :    0.129453
  14 H :    0.125482
  15 H :    0.128708
  16 H :    0.135450
  17 H :    0.137227
  18 H :    0.140760
  19 H :    0.142172
  20 H :    0.127393

  Mayer bond orders larger than 0.1
B(  0-C ,  1-C ) :   0.9205 B(  0-C ,  9-H ) :   0.9280 B(  0-C , 10-H ) :   0.9282
B(  0-C , 11-H ) :   0.9429 B(  1-C ,  2-O ) :   0.9687 B(  1-C ,  3-C ) :   0.9312
B(  1-C ,  7-C ) :   0.8751 B(  2-O , 12-H ) :   0.8429 B(  3-C ,  4-O ) :   0.9694
B(  3-C , 13-H ) :   0.9036 B(  3-C , 14-H ) :   0.9283 B(  4-O ,  5-C ) :   0.9083
B(  5-C ,  6-C ) :   0.9338 B(  5-C ,  8-C ) :   0.9019 B(  5-C , 15-H ) :   0.9324
B(  6-C ,  7-C ) :   0.9075 B(  6-C , 16-H ) :   0.9075 B(  6-C , 17-H ) :   0.9193
B(  7-C ,  8-C ) :   0.9061 B(  7-C , 18-H ) :   0.9248 B(  8-C , 19-H ) :   0.9163
B(  8-C , 20-H ) :   0.9209

MP2 TOTAL ENERGY:     -423.516527525 Eh
FINAL SINGLE POINT ENERGY      -423.516527524932

DIPOLE MOMENT
-------------
                                X             Y             Z
Electronic contribution:      0.81218      -3.91486      -1.82853
Nuclear contribution   :     -0.98463       4.64315       1.93635
                        -----------------------------------------
Total Dipole Moment    :     -0.17246       0.72829       0.10782
                        -----------------------------------------
Magnitude (a.u.)       :      0.75616
Magnitude (Debye)      :      1.92200

                             ****ORCA TERMINATED NORMALLY****
TOTAL RUN TIME: 0 days 0 hours 20 minutes 35 seconds 907 msec
