                         Program Version 3.0.3 - RELEASE   -
|  1> ! RI-MP2 RIJK def2-TZVP def2-TZVP/C def2-TZVP/JK TIGHTSCF
|  2> % maxcore 2000
|  3> % mp2 density relaxed end
|  4> *xyz 0 1
|  5>  C       -0.0754678361     1.4913913295    -0.0330808384
|  6>  C        0.0254587214    -0.0198525245    -0.0002544806
|  7>  O        1.0938936901    -0.6032067454     0.0112676178
|  8>  C       -1.2434890187    -0.7707541686     0.0176209067
|  9>  C       -1.3734750519    -2.1399299369     0.0476976803
| 10>  N       -2.7209132558    -2.3731020999     0.0544612445
| 11>  C       -3.3632492286    -1.1559768095     0.0285880235
| 12>  C       -4.8487060793    -1.0205171924     0.0273473596
| 13>  N       -2.4928415315    -0.1759476414     0.0060051933
| 14>  H        0.9268702813     1.9206808207    -0.0441340332
| 15>  H       -0.6381308877     1.8148050296    -0.9145716960
| 16>  H       -0.6350645573     1.8529324312     0.8354666244
| 17>  H       -0.6393850268    -2.9270827977     0.0641025610
| 18>  H       -3.1627205755    -3.2778788058     0.0747222403
| 19>  H       -5.2998519407    -1.4651628243     0.9218101516
| 20>  H       -5.1004576861     0.0402079168     0.0054965179
| 21>  H       -5.3017286868    -1.5019881214    -0.8468818126
| 22> *
| 23>
| 24>                          ****END OF INPUT****

CARTESIAN COORDINATES (ANGSTROEM)
---------------------------------
  C     -0.075468    1.491391   -0.033081
  C      0.025459   -0.019853   -0.000254
  O      1.093894   -0.603207    0.011268
  C     -1.243489   -0.770754    0.017621
  C     -1.373475   -2.139930    0.047698
  N     -2.720913   -2.373102    0.054461
  C     -3.363249   -1.155977    0.028588
  C     -4.848706   -1.020517    0.027347
  N     -2.492842   -0.175948    0.006005
  H      0.926870    1.920681   -0.044134
  H     -0.638131    1.814805   -0.914572
  H     -0.635065    1.852932    0.835467
  H     -0.639385   -2.927083    0.064103
  H     -3.162721   -3.277879    0.074722
  H     -5.299852   -1.465163    0.921810
  H     -5.100458    0.040208    0.005497
  H     -5.301729   -1.501988   -0.846882

 Total Charge           Charge          ....    0
 Multiplicity           Mult            ....    1
 Number of Electrons    NEL             ....   66
 Basis Dimension        Dim             ....  327

ORBITAL ENERGIES
----------------

  NO   OCC          E(Eh)            E(eV)
   0   2.0000     -20.525416      -558.5250
   1   2.0000     -15.631402      -425.3521
   2   2.0000     -15.554109      -423.2488
   3   2.0000     -11.320526      -308.0472
   4   2.0000     -11.313204      -307.8479
   5   2.0000     -11.278859      -306.9133
   6   2.0000     -11.248509      -306.0875
   7   2.0000     -11.248242      -306.0802
   8   2.0000     -11.215967      -305.2020
   9   2.0000      -1.370489       -37.2929
  10   2.0000      -1.352079       -36.7919
  11   2.0000      -1.181270       -32.1440
  12   2.0000      -1.064994       -28.9799
  13   2.0000      -0.998932       -27.1823
  14   2.0000      -0.960533       -26.1374
  15   2.0000      -0.858203       -23.3529
  16   2.0000      -0.816957       -22.2305
  17   2.0000      -0.750048       -20.4098
  18   2.0000      -0.704691       -19.1756
  19   2.0000      -0.636985       -17.3332
  20   2.0000      -0.636058       -17.3080
  21   2.0000      -0.632901       -17.2221
  22   2.0000      -0.597265       -16.2524
  23   2.0000      -0.585817       -15.9409
  24   2.0000      -0.573720       -15.6117
  25   2.0000      -0.561343       -15.2749
  26   2.0000      -0.558865       -15.2075
  27   2.0000      -0.536241       -14.5919
  28   2.0000      -0.489247       -13.3131
  29   2.0000      -0.451144       -12.2762
  30   2.0000      -0.413208       -11.2440
  31   2.0000      -0.406706       -11.0670
  32   2.0000      -0.322417        -8.7734
  33   0.0000       0.111775         3.0416
  34   0.0000       0.112481         3.0608
  35   0.0000       0.152201         4.1416
  36   0.0000       0.162579         4.4240
  37   0.0000       0.163107         4.4384

MULLIKEN ATOMIC CHARGES
-----------------------
   0 C :   -0.372581
   1 C :    0.161055
   2 O :   -0.316112
   3 C :    0.086467
   4 C :   -0.084698
   5 N :   -0.258536
   6 C :    0.224152
   7 C :   -0.450214
   8 N :   -0.303936
   9 H :    0.144556
  10 H :    0.142714
  11 H :    0.142680
  12 H :    0.170035
  13 H :    0.252735
  14 H :    0.146862
  15 H :    0.167920
  16 H :    0.146899
Sum of atomic charges:    0.0000000

LOEWDIN ATOMIC CHARGES
----------------------
   0 C :   -0.273561
   1 C :   -0.330017
   2 O :    0.130773
   3 C :   -0.244205
   4 C :   -0.175213
   5 N :    0.202426
   6 C :   -0.333621
   7 C :   -0.276574
   8 N :    0.139746
   9 H :    0.129649
  10 H :    0.139335
  11 H :    0.139346
  12 H :    0.145111
  13 H :    0.196690
  14 H :    0.132541
  15 H :    0.145020
  16 H :    0.132554

  Mayer bond orders larger than 0.1
B(  0-C ,  1-C ) :   0.9757 B(  0-C ,  3-C ) :  -0.1050 B(  0-C ,  9-H ) :   0.9384
B(  0-C , 10-H ) :   0.9083 B(  0-C , 11-H ) :   0.9082 B(  1-C ,  2-O ) :   2.0065
B(  1-C ,  3-C ) :   0.8949 B(  2-O ,  3-C ) :  -0.1237 B(  3-C ,  4-C ) :   1.4592
B(  3-C ,  8-N ) :   1.2215 B(  4-C ,  5-N ) :   1.1744 B(  4-C , 12-H ) :   0.8907
B(  5-N ,  6-C ) :   1.1321 B(  5-N , 13-H ) :   0.8660 B(  6-C ,  7-C ) :   0.8576
B(  6-C ,  8-N ) :   1.6104 B(  7-C , 14-H ) :   0.9339 B(  7-C , 15-H ) :   0.9499
B(  7-C , 16-H ) :   0.9338

MP2 TOTAL ENERGY:     -417.370367643 Eh
FINAL SINGLE POINT ENERGY      -417.370367643223

DIPOLE MOMENT
-------------
                                X             Y             Z
Electronic contribution:      4.45261      -3.32550       0.06712
Nuclear contribution   :     -6.12628       2.25537      -0.04168
                        -----------------------------------------
Total Dipole Moment    :     -1.67367      -1.07013       0.02544
                        -----------------------------------------
Magnitude (a.u.)       :      1.98670
Magnitude (Debye)      :      5.04980

                             ****ORCA TERMINATED NORMALLY****
TOTAL RUN TIME: 0 days 0 hours 15 minutes 19 seconds 677 msec
