                         Program Version 3.0.3 - RELEASE   -
|  1> ! RI-MP2 RIJK def2-TZVP def2-TZVP/C def2-TZVP/JK TIGHTSCF
|  2> % maxcore 2000
|  3> % mp2 density relaxed end
|  4> *xyz 0 1
|  5>  C       -0.1565815429     1.5380184215     0.0367074121
|  6>  C       -0.0020937165     0.0240344036    -0.0372325573
|  7>  C        0.8211211370    -0.5789411964    -1.2171506752
|  8>  N        1.7551438421    -1.1187147411    -0.2185295109
|  9>  C        2.9078188588    -1.8731204293    -0.4021924833
| 10>  C        3.6253607058    -2.2573691602     0.8683651609
| 11>  N        3.2293145930    -2.1575075436    -1.6034260129
| 12>  C        1.0775794434    -0.5900945265     0.8785575679
| 13>  O        1.3053441166    -0.6200513814     2.0583351539
| 14>  H        0.8024998606     2.0418777799    -0.1220732506
| 15>  H       -0.8591709162     1.8986882297    -0.7207615310
| 16>  H       -0.5328131848     1.8342178023     1.0201371062
| 17>  H       -0.9666056744    -0.4735122685     0.1017615872
| 18>  H        0.3292581064    -1.3536603581    -1.8091910904
| 19>  H        1.2869047980     0.1512794374    -1.8838503836
| 20>  H        3.8985734316    -1.3693948167     1.4448403856
| 21>  H        2.9755363472    -2.8544019409     1.5146412516
| 22>  H        4.5240961469    -2.8293920537     0.6300296837
| 23>  H        4.0844636574    -2.7114991980    -1.6175535239
| 24> *
| 25>
| 26>                          ****END OF INPUT****

CARTESIAN COORDINATES (ANGSTROEM)
---------------------------------
  C     -0.156582    1.538018    0.036707
  C     -0.002094    0.024034   -0.037233
  C      0.821121   -0.578941   -1.217151
  N      1.755144   -1.118715   -0.218530
  C      2.907819   -1.873120   -0.402192
  C      3.625361   -2.257369    0.868365
  N      3.229315   -2.157508   -1.603426
  C      1.077579   -0.590095    0.878558
  O      1.305344   -0.620051    2.058335
  H      0.802500    2.041878   -0.122073
  H     -0.859171    1.898688   -0.720762
  H     -0.532813    1.834218    1.020137
  H     -0.966606   -0.473512    0.101762
  H      0.329258   -1.353660   -1.809191
  H      1.286905    0.151279   -1.883850
  H      3.898573   -1.369395    1.444840
  H      2.975536   -2.854402    1.514641
  H      4.524096   -2.829392    0.630030
  H      4.084464   -2.711499   -1.617554

 Total Charge           Charge          ....    0
 Multiplicity           Mult            ....    1
 Number of Electrons    NEL             ....   68
 Basis Dimension        Dim             ....  339

ORBITAL ENERGIES
----------------

  NO   OCC          E(Eh)            E(eV)
   0   2.0000     -20.541366      -558.9590
   1   2.0000     -15.601023      -424.5254
   2   2.0000     -15.537157      -422.7875
   3   2.0000     -11.362249      -309.1825
   4   2.0000     -11.328304      -308.2588
   5   2.0000     -11.277637      -306.8801
   6   2.0000     -11.259245      -306.3796
   7   2.0000     -11.238574      -305.8171
   8   2.0000     -11.235833      -305.7426
   9   2.0000      -1.403662       -38.1956
  10   2.0000      -1.306027       -35.5388
  11   2.0000      -1.202261       -32.7152
  12   2.0000      -1.067734       -29.0545
  13   2.0000      -1.000724       -27.2311
  14   2.0000      -0.939640       -25.5689
  15   2.0000      -0.901926       -24.5427
  16   2.0000      -0.812482       -22.1088
  17   2.0000      -0.696901       -18.9637
  18   2.0000      -0.693201       -18.8630
  19   2.0000      -0.674333       -18.3495
  20   2.0000      -0.658138       -17.9089
  21   2.0000      -0.631558       -17.1856
  22   2.0000      -0.604842       -16.4586
  23   2.0000      -0.591391       -16.0926
  24   2.0000      -0.579831       -15.7780
  25   2.0000      -0.563207       -15.3256
  26   2.0000      -0.549917       -14.9640
  27   2.0000      -0.535955       -14.5841
  28   2.0000      -0.520795       -14.1716
  29   2.0000      -0.491717       -13.3803
  30   2.0000      -0.470669       -12.8076
  31   2.0000      -0.437834       -11.9141
  32   2.0000      -0.419404       -11.4126
  33   2.0000      -0.371764       -10.1162
  34   0.0000       0.121606         3.3091
  35   0.0000       0.138296         3.7632
  36   0.0000       0.151988         4.1358
  37   0.0000       0.166880         4.5410
  38   0.0000       0.175583         4.7779

MULLIKEN ATOMIC CHARGES
-----------------------
   0 C :   -0.427700
   1 C :   -0.003453
   2 C :   -0.151736
   3 N :   -0.046042
   4 C :    0.060098
   5 C :   -0.344666
   6 N :   -0.380873
   7 C :    0.152834
   8 O :   -0.316677
   9 H :    0.133380
  10 H :    0.140935
  11 H :    0.149010
  12 H :    0.124379
  13 H :    0.130336
  14 H :    0.130479
  15 H :    0.157572
  16 H :    0.154489
  17 H :    0.123693
  18 H :    0.213941
Sum of atomic charges:   -0.0000000

LOEWDIN ATOMIC CHARGES
----------------------
   0 C :   -0.287435
   1 C :   -0.215186
   2 C :   -0.180260
   3 N :    0.250393
   4 C :   -0.364244
   5 C :   -0.267745
   6 N :   -0.057785
   7 C :   -0.378976
   8 O :    0.118818
   9 H :    0.128424
  10 H :    0.126986
  11 H :    0.132943
  12 H :    0.156808
  13 H :    0.130395
  14 H :    0.132609
  15 H :    0.141559
  16 H :    0.141517
  17 H :    0.127915
  18 H :    0.163263

  Mayer bond orders larger than 0.1
B(  0-C ,  1-C ) :   0.8905 B(  0-C ,  9-H ) :   0.9305 B(  0-C , 10-H ) :   0.9379
B(  0-C , 11-H ) :   0.9348 B(  1-C ,  2-C ) :   0.9091 B(  1-C ,  7-C ) :   0.9153
B(  1-C , 12-H ) :   0.9066 B(  2-C ,  3-N ) :   0.8725 B(  2-C , 13-H ) :   0.9235
B(  2-C , 14-H ) :   0.9225 B(  3-N ,  4-C ) :   1.0184 B(  3-N ,  7-C ) :   1.0447
B(  4-C ,  5-C ) :   0.9593 B(  4-C ,  6-N ) :   1.9484 B(  5-C , 15-H ) :   0.9125
B(  5-C , 16-H ) :   0.9124 B(  5-C , 17-H ) :   0.9278 B(  6-N , 18-H ) :   0.8598
B(  7-C ,  8-O ) :   1.9741

MP2 TOTAL ENERGY:     -418.537002518 Eh
FINAL SINGLE POINT ENERGY      -418.537002517962

DIPOLE MOMENT
-------------
                                X             Y             Z
Electronic contribution:      0.64391      -2.56214       1.51246
Nuclear contribution   :     -0.71312       2.59233      -1.89051
                        -----------------------------------------
Total Dipole Moment    :     -0.06922       0.03019      -0.37805
                        -----------------------------------------
Magnitude (a.u.)       :      0.38552
Magnitude (Debye)      :      0.97991

                             ****ORCA TERMINATED NORMALLY****
TOTAL RUN TIME: 0 days 0 hours 17 minutes 31 seconds 605 msec
