                         Program Version 3.0.3 - RELEASE   -
|  1> ! RI-MP2 RIJK def2-TZVP def2-TZVP/C def2-TZVP/JK TIGHTSCF
|  2> % maxcore 2000
|  3> % mp2 density relaxed end
|  4> *xyz 0 1
|  5>  C       -0.0160831340     1.4781680799     0.0777844258
|  6>  C       -0.0015438101    -0.0082265885    -0.0457907808
|  7>  C       -0.0382375095    -0.8168927712    -1.1575602863
|  8>  C       -0.0003262101    -2.1791636237    -0.7070145102
|  9>  C        0.0581958410    -2.1162981452     0.6798459126
| 10>  N        0.0980758616    -3.3712613684     1.2154134282
| 11>  C        0.0646289290    -4.2694046346     0.1448988870
| 12>  C        0.0047177991    -3.5737970904    -1.0383132406
| 13>  N        0.0588941429    -0.8154935375     1.0998749776
| 14>  H        0.8855511459     1.8669764616     0.5699203737
| 15>  H       -0.0672719506     1.9293011689    -0.9159140395
| 16>  H       -0.8797571507     1.8429632839     0.6498836689
| 17>  H       -0.0866173765    -0.4563749002    -2.1743869914
| 18>  H        0.1447202401    -3.6254761882     2.1848273055
| 19>  H        0.0870244881    -5.3300424780     0.3363449503
| 20>  H       -0.0312052373    -4.0219481754    -2.0195360426
| 21>  H        0.0923761211    -0.4735457728     2.0431736619
| 22> *
| 23>
| 24>                          ****END OF INPUT****

CARTESIAN COORDINATES (ANGSTROEM)
---------------------------------
  C     -0.016083    1.478168    0.077784
  C     -0.001544   -0.008227   -0.045791
  C     -0.038238   -0.816893   -1.157560
  C     -0.000326   -2.179164   -0.707015
  C      0.058196   -2.116298    0.679846
  N      0.098076   -3.371261    1.215413
  C      0.064629   -4.269405    0.144899
  C      0.004718   -3.573797   -1.038313
  N      0.058894   -0.815494    1.099875
  H      0.885551    1.866976    0.569920
  H     -0.067272    1.929301   -0.915914
  H     -0.879757    1.842963    0.649884
  H     -0.086617   -0.456375   -2.174387
  H      0.144720   -3.625476    2.184827
  H      0.087024   -5.330042    0.336345
  H     -0.031205   -4.021948   -2.019536
  H      0.092376   -0.473546    2.043174

 Total Charge           Charge          ....    0
 Multiplicity           Mult            ....    1
 Number of Electrons    NEL             ....   64
 Basis Dimension        Dim             ....  327

ORBITAL ENERGIES
----------------

  NO   OCC          E(Eh)            E(eV)
   0   2.0000     -15.596978      -424.4154
   1   2.0000     -15.594235      -424.3407
   2   2.0000     -11.274363      -306.7910
   3   2.0000     -11.251255      -306.1622
   4   2.0000     -11.242649      -305.9280
   5   2.0000     -11.226827      -305.4975
   6   2.0000     -11.206637      -304.9481
   7   2.0000     -11.202653      -304.8397
   8   2.0000     -11.189096      -304.4708
   9   2.0000      -1.308551       -35.6075
  10   2.0000      -1.242967       -33.8229
  11   2.0000      -1.060143       -28.8480
  12   2.0000      -1.018305       -27.7095
  13   2.0000      -0.976911       -26.5831
  14   2.0000      -0.909603       -24.7515
  15   2.0000      -0.797819       -21.7098
  16   2.0000      -0.766105       -20.8468
  17   2.0000      -0.749842       -20.4042
  18   2.0000      -0.741998       -20.1908
  19   2.0000      -0.614376       -16.7180
  20   2.0000      -0.608652       -16.5623
  21   2.0000      -0.605520       -16.4770
  22   2.0000      -0.576729       -15.6936
  23   2.0000      -0.572315       -15.5735
  24   2.0000      -0.565427       -15.3860
  25   2.0000      -0.533413       -14.5149
  26   2.0000      -0.506906       -13.7936
  27   2.0000      -0.498079       -13.5534
  28   2.0000      -0.490779       -13.3548
  29   2.0000      -0.380090       -10.3428
  30   2.0000      -0.287888        -7.8338
  31   2.0000      -0.253115        -6.8876
  32   0.0000       0.121773         3.3136
  33   0.0000       0.142584         3.8799
  34   0.0000       0.171598         4.6694
  35   0.0000       0.175288         4.7698
  36   0.0000       0.191880         5.2213

MULLIKEN ATOMIC CHARGES
-----------------------
   0 C :   -0.457746
   1 C :    0.222041
   2 C :   -0.341889
   3 C :    0.125134
   4 C :    0.141515
   5 N :   -0.306689
   6 C :   -0.046060
   7 C :   -0.280497
   8 N :   -0.330070
   9 H :    0.138539
  10 H :    0.149124
  11 H :    0.138388
  12 H :    0.115861
  13 H :    0.238493
  14 H :    0.138690
  15 H :    0.119552
  16 H :    0.235614
Sum of atomic charges:    0.0000000

LOEWDIN ATOMIC CHARGES
----------------------
   0 C :   -0.286117
   1 C :   -0.245460
   2 C :   -0.156572
   3 C :   -0.158630
   4 C :   -0.264020
   5 N :    0.169414
   6 C :   -0.234840
   7 C :   -0.180459
   8 N :    0.186393
   9 H :    0.127005
  10 H :    0.138449
  11 H :    0.126978
  12 H :    0.138924
  13 H :    0.185531
  14 H :    0.129282
  15 H :    0.137897
  16 H :    0.186226

  Mayer bond orders larger than 0.1
B(  0-C ,  1-C ) :   0.8518 B(  0-C ,  9-H ) :   0.9357 B(  0-C , 10-H ) :   0.9531
B(  0-C , 11-H ) :   0.9358 B(  1-C ,  2-C ) :   1.5436 B(  1-C ,  8-N ) :   1.0362
B(  2-C ,  3-C ) :   1.1697 B(  2-C , 12-H ) :   0.9389 B(  3-C ,  4-C ) :   1.2981
B(  3-C ,  7-C ) :   1.1748 B(  4-C ,  5-N ) :   1.1213 B(  4-C ,  8-N ) :   1.1210
B(  5-N ,  6-C ) :   1.0482 B(  5-N , 13-H ) :   0.8733 B(  6-C ,  7-C ) :   1.5549
B(  6-C , 14-H ) :   0.9198 B(  7-C , 15-H ) :   0.9400 B(  8-N , 16-H ) :   0.8733

MP2 TOTAL ENERGY:     -380.235026864 Eh
FINAL SINGLE POINT ENERGY      -380.235026864083

DIPOLE MOMENT
-------------
                                X             Y             Z
Electronic contribution:      0.11707      -4.81643       1.21454
Nuclear contribution   :     -0.06355       5.03970       0.11154
                        -----------------------------------------
Total Dipole Moment    :      0.05351       0.22327       1.32608
                        -----------------------------------------
Magnitude (a.u.)       :      1.34581
Magnitude (Debye)      :      3.42077

                             ****ORCA TERMINATED NORMALLY****
TOTAL RUN TIME: 0 days 0 hours 16 minutes 43 seconds 205 msec
