                         Program Version 3.0.3 - RELEASE   -
|  1> ! RI-MP2 RIJK def2-TZVP def2-TZVP/C def2-TZVP/JK TIGHTSCF
|  2> % maxcore 2000
|  3> % mp2 density relaxed end
|  4> *xyz 0 1
|  5>  C       -0.0114975976     1.3841884331    -0.0647149242
|  6>  O        0.0016005494    -0.0176752670     0.0856692523
|  7>  C       -1.2721024906    -0.6240957782     0.0332213178
|  8>  C       -1.7817467879    -0.8151036551    -1.4063539961
|  9>  O       -3.0635453251    -1.4257982373    -1.4040872894
| 10>  C       -3.0405331051    -2.7173464507    -0.8166309946
| 11>  C       -2.5797298998    -2.6587285325     0.6427599012
| 12>  C       -1.2007206854    -1.9828578500     0.7367309282
| 13>  O       -0.2006545598    -2.7516175602     0.0777401431
| 14>  H        1.0168062905     1.7292951208     0.0683653022
| 15>  H       -0.3580790070     1.7037617902    -1.0581282861
| 16>  H       -0.6482860700     1.8681396056     0.6927455491
| 17>  H       -2.0093055876    -0.0118328564     0.5788502990
| 18>  H       -1.9027902888     0.1461104922    -1.9124161589
| 19>  H       -1.0520049340    -1.4174310817    -1.9654844189
| 20>  H       -4.0602262722    -3.1052377570    -0.8922381371
| 21>  H       -2.3741827697    -3.3822808864    -1.3868906821
| 22>  H       -3.3083547094    -2.0947472793     1.2370598391
| 23>  H       -2.5300733758    -3.6706442291     1.0655274022
| 24>  H       -0.9211644156    -1.8163170466     1.7875021623
| 25>  H       -0.1225040187    -3.5922294645     0.5389683209
| 26> *
| 27>
| 28>                          ****END OF INPUT****

CARTESIAN COORDINATES (ANGSTROEM)
---------------------------------
  C     -0.011498    1.384188   -0.064715
  O      0.001601   -0.017675    0.085669
  C     -1.272102   -0.624096    0.033221
  C     -1.781747   -0.815104   -1.406354
  O     -3.063545   -1.425798   -1.404087
  C     -3.040533   -2.717346   -0.816631
  C     -2.579730   -2.658729    0.642760
  C     -1.200721   -1.982858    0.736731
  O     -0.200655   -2.751618    0.077740
  H      1.016806    1.729295    0.068365
  H     -0.358079    1.703762   -1.058128
  H     -0.648286    1.868140    0.692746
  H     -2.009306   -0.011833    0.578850
  H     -1.902790    0.146110   -1.912416
  H     -1.052005   -1.417431   -1.965484
  H     -4.060226   -3.105238   -0.892238
  H     -2.374183   -3.382281   -1.386891
  H     -3.308355   -2.094747    1.237060
  H     -2.530073   -3.670644    1.065527
  H     -0.921164   -1.816317    1.787502
  H     -0.122504   -3.592229    0.538968

 Total Charge           Charge          ....    0
 Multiplicity           Mult            ....    1
 Number of Electrons    NEL             ....   72
 Basis Dimension        Dim             ....  351

ORBITAL ENERGIES
----------------

  NO   OCC          E(Eh)            E(eV)
   0   2.0000     -20.555098      -559.3326
   1   2.0000     -20.553771      -559.2965
   2   2.0000     -20.551681      -559.2397
   3   2.0000     -11.282500      -307.0124
   4   2.0000     -11.277512      -306.8767
   5   2.0000     -11.271980      -306.7262
   6   2.0000     -11.270554      -306.6874
   7   2.0000     -11.265980      -306.5629
   8   2.0000     -11.228723      -305.5491
   9   2.0000      -1.386315       -37.7236
  10   2.0000      -1.367460       -37.2105
  11   2.0000      -1.356575       -36.9143
  12   2.0000      -1.061173       -28.8760
  13   2.0000      -1.023772       -27.8582
  14   2.0000      -0.926898       -25.2222
  15   2.0000      -0.879717       -23.9383
  16   2.0000      -0.845908       -23.0183
  17   2.0000      -0.777641       -21.1607
  18   2.0000      -0.701979       -19.1018
  19   2.0000      -0.680325       -18.5126
  20   2.0000      -0.657797       -17.8996
  21   2.0000      -0.651603       -17.7310
  22   2.0000      -0.645721       -17.5710
  23   2.0000      -0.615992       -16.7620
  24   2.0000      -0.595679       -16.2093
  25   2.0000      -0.588695       -16.0192
  26   2.0000      -0.572917       -15.5899
  27   2.0000      -0.539158       -14.6712
  28   2.0000      -0.522719       -14.2239
  29   2.0000      -0.514422       -13.9981
  30   2.0000      -0.490027       -13.3343
  31   2.0000      -0.486554       -13.2398
  32   2.0000      -0.454491       -12.3673
  33   2.0000      -0.448531       -12.2051
  34   2.0000      -0.429254       -11.6806
  35   2.0000      -0.391701       -10.6587
  36   0.0000       0.127033         3.4567
  37   0.0000       0.150249         4.0885
  38   0.0000       0.164876         4.4865
  39   0.0000       0.176658         4.8071
  40   0.0000       0.194636         5.2963

MULLIKEN ATOMIC CHARGES
-----------------------
   0 C :   -0.223901
   1 O :   -0.286935
   2 C :    0.059591
   3 C :   -0.097435
   4 O :   -0.315408
   5 C :   -0.034395
   6 C :   -0.311474
   7 C :    0.139316
   8 O :   -0.455230
   9 H :    0.142831
  10 H :    0.111937
  11 H :    0.111418
  12 H :    0.062100
  13 H :    0.119939
  14 H :    0.120524
  15 H :    0.128206
  16 H :    0.093954
  17 H :    0.111517
  18 H :    0.119310
  19 H :    0.093961
  20 H :    0.310175
Sum of atomic charges:   -0.0000000

LOEWDIN ATOMIC CHARGES
----------------------
   0 C :   -0.356914
   1 O :    0.170733
   2 C :   -0.321080
   3 C :   -0.293333
   4 O :    0.151689
   5 C :   -0.317842
   6 C :   -0.258777
   7 C :   -0.329748
   8 O :   -0.006918
   9 H :    0.114750
  10 H :    0.100788
  11 H :    0.101523
  12 H :    0.142423
  13 H :    0.127651
  14 H :    0.130567
  15 H :    0.128838
  16 H :    0.123887
  17 H :    0.143106
  18 H :    0.137818
  19 H :    0.136391
  20 H :    0.174447

  Mayer bond orders larger than 0.1
B(  0-C ,  1-O ) :   0.9131 B(  0-C ,  9-H ) :   0.9416 B(  0-C , 10-H ) :   0.9334
B(  0-C , 11-H ) :   0.9356 B(  1-O ,  2-C ) :   0.9633 B(  2-C ,  3-C ) :   0.9196
B(  2-C ,  7-C ) :   0.8918 B(  2-C , 12-H ) :   0.9219 B(  3-C ,  4-O ) :   0.9325
B(  3-C , 13-H ) :   0.9247 B(  3-C , 14-H ) :   0.9376 B(  4-O ,  5-C ) :   0.9311
B(  5-C ,  6-C ) :   0.9430 B(  5-C , 15-H ) :   0.9291 B(  5-C , 16-H ) :   0.9315
B(  6-C ,  7-C ) :   0.9158 B(  6-C , 17-H ) :   0.9182 B(  6-C , 18-H ) :   0.9252
B(  7-C ,  8-O ) :   1.0041 B(  7-C , 19-H ) :   0.9374 B(  8-O , 20-H ) :   0.8458

MP2 TOTAL ENERGY:     -460.622168681 Eh
FINAL SINGLE POINT ENERGY      -460.622168681499

DIPOLE MOMENT
-------------
                                X             Y             Z
Electronic contribution:      0.76695      -1.86181      -0.86179
Nuclear contribution   :     -0.99452       1.66979       1.51634
                        -----------------------------------------
Total Dipole Moment    :     -0.22757      -0.19201       0.65456
                        -----------------------------------------
Magnitude (a.u.)       :      0.71910
Magnitude (Debye)      :      1.82780

                             ****ORCA TERMINATED NORMALLY****
TOTAL RUN TIME: 0 days 0 hours 17 minutes 41 seconds 252 msec
