                         Program Version 3.0.3 - RELEASE   -
|  1> ! RI-MP2 RIJK def2-TZVP def2-TZVP/C def2-TZVP/JK TIGHTSCF
|  2> % maxcore 2000
|  3> % mp2 density relaxed end
|  4> *xyz 0 1
|  5>  N       -0.4462089933     1.2436381780     0.1475903025
|  6>  C       -0.4270299939    -0.0081179742     0.3068617503
|  7>  O       -1.1426265505    -0.8015851066    -0.5190053118
|  8>  C       -1.0585346967    -2.1865328673    -0.2644569252
|  9>  C       -1.8889991917    -2.8568350543     0.8027769175
| 10>  C       -3.0526208676    -2.0912571221     1.4215718167
| 11>  C       -3.8692112893    -1.5190598651     0.2365494542
| 12>  C       -3.5483587942    -2.4274682586    -0.9753412173
| 13>  C       -2.1967169197    -3.0652938478    -0.6771048227
| 14>  H        0.1448789457     1.6898612099     0.8459548935
| 15>  H        0.1281283508    -0.5660722291     1.0726238417
| 16>  H       -0.0573712703    -2.5812502556    -0.4256717144
| 17>  H       -1.4052331435    -3.6248018253     1.3976502553
| 18>  H       -3.6536065310    -2.7979463032     2.0051790105
| 19>  H       -2.7292733831    -1.3051849481     2.1128284204
| 20>  H       -4.9400241917    -1.4928809895     0.4557172619
| 21>  H       -3.5538762068    -0.4966746838     0.0247173773
| 22>  H       -4.2899932973    -3.2286532732    -1.0714137608
| 23>  H       -3.5521969208    -1.8688401087    -1.9162026435
| 24>  H       -1.9455274150    -3.9897795554    -1.1860053462
| 25> *
| 26>
| 27>                          ****END OF INPUT****

CARTESIAN COORDINATES (ANGSTROEM)
---------------------------------
  N     -0.446209    1.243638    0.147590
  C     -0.427030   -0.008118    0.306862
  O     -1.142627   -0.801585   -0.519005
  C     -1.058535   -2.186533   -0.264457
  C     -1.888999   -2.856835    0.802777
  C     -3.052621   -2.091257    1.421572
  C     -3.869211   -1.519060    0.236549
  C     -3.548359   -2.427468   -0.975341
  C     -2.196717   -3.065294   -0.677105
  H      0.144879    1.689861    0.845955
  H      0.128128   -0.566072    1.072624
  H     -0.057371   -2.581250   -0.425672
  H     -1.405233   -3.624802    1.397650
  H     -3.653607   -2.797946    2.005179
  H     -2.729273   -1.305185    2.112828
  H     -4.940024   -1.492881    0.455717
  H     -3.553876   -0.496675    0.024717
  H     -4.289993   -3.228653   -1.071414
  H     -3.552197   -1.868840   -1.916203
  H     -1.945527   -3.989780   -1.186005

 Total Charge           Charge          ....    0
 Multiplicity           Mult            ....    1
 Number of Electrons    NEL             ....   68
 Basis Dimension        Dim             ....  345

ORBITAL ENERGIES
----------------

  NO   OCC          E(Eh)            E(eV)
   0   2.0000     -20.591820      -560.3319
   1   2.0000     -15.539223      -422.8437
   2   2.0000     -11.336435      -308.4801
   3   2.0000     -11.294540      -307.3401
   4   2.0000     -11.237419      -305.7857
   5   2.0000     -11.236188      -305.7522
   6   2.0000     -11.227183      -305.5072
   7   2.0000     -11.223092      -305.3959
   8   2.0000     -11.214947      -305.1742
   9   2.0000      -1.429746       -38.9054
  10   2.0000      -1.204776       -32.7836
  11   2.0000      -1.166215       -31.7343
  12   2.0000      -1.030597       -28.0440
  13   2.0000      -0.967147       -26.3174
  14   2.0000      -0.873417       -23.7669
  15   2.0000      -0.819737       -22.3062
  16   2.0000      -0.782281       -21.2869
  17   2.0000      -0.762914       -20.7600
  18   2.0000      -0.717446       -19.5227
  19   2.0000      -0.687237       -18.7007
  20   2.0000      -0.644434       -17.5359
  21   2.0000      -0.642171       -17.4744
  22   2.0000      -0.607176       -16.5221
  23   2.0000      -0.591107       -16.0848
  24   2.0000      -0.557149       -15.1608
  25   2.0000      -0.545867       -14.8538
  26   2.0000      -0.504002       -13.7146
  27   2.0000      -0.479878       -13.0581
  28   2.0000      -0.476613       -12.9693
  29   2.0000      -0.473706       -12.8902
  30   2.0000      -0.438630       -11.9357
  31   2.0000      -0.428993       -11.6735
  32   2.0000      -0.409617       -11.1462
  33   2.0000      -0.382691       -10.4135
  34   0.0000       0.129977         3.5369
  35   0.0000       0.146736         3.9929
  36   0.0000       0.152898         4.1606
  37   0.0000       0.169102         4.6015
  38   0.0000       0.178709         4.8629

MULLIKEN ATOMIC CHARGES
-----------------------
   0 N :   -0.336320
   1 C :    0.054276
   2 O :   -0.213143
   3 C :   -0.036000
   4 C :   -0.109262
   5 C :   -0.247396
   6 C :   -0.211759
   7 C :   -0.242280
   8 C :   -0.098827
   9 H :    0.225294
  10 H :    0.090255
  11 H :    0.123905
  12 H :    0.126468
  13 H :    0.120245
  14 H :    0.116794
  15 H :    0.118479
  16 H :    0.147291
  17 H :    0.117289
  18 H :    0.124743
  19 H :    0.129947
Sum of atomic charges:   -0.0000000

LOEWDIN ATOMIC CHARGES
----------------------
   0 N :   -0.081602
   1 C :   -0.394884
   2 O :    0.276395
   3 C :   -0.264247
   4 C :   -0.187709
   5 C :   -0.233809
   6 C :   -0.247012
   7 C :   -0.229432
   8 C :   -0.179146
   9 H :    0.167759
  10 H :    0.111149
  11 H :    0.141376
  12 H :    0.143231
  13 H :    0.141015
  14 H :    0.136867
  15 H :    0.131168
  16 H :    0.141704
  17 H :    0.139995
  18 H :    0.141836
  19 H :    0.145345

  Mayer bond orders larger than 0.1
B(  0-N ,  1-C ) :   1.9638 B(  0-N ,  9-H ) :   0.8503 B(  1-C ,  2-O ) :   1.0312
B(  1-C , 10-H ) :   0.9287 B(  2-O ,  3-C ) :   0.9304 B(  3-C ,  4-C ) :   0.8938
B(  3-C ,  8-C ) :   0.9013 B(  3-C , 11-H ) :   0.9455 B(  4-C ,  5-C ) :   0.9307
B(  4-C ,  8-C ) :   0.8375 B(  4-C , 12-H ) :   0.9234 B(  5-C ,  6-C ) :   0.9379
B(  5-C , 13-H ) :   0.9279 B(  5-C , 14-H ) :   0.9294 B(  6-C ,  7-C ) :   0.9361
B(  6-C , 15-H ) :   0.9285 B(  6-C , 16-H ) :   0.9285 B(  7-C ,  8-C ) :   0.9435
B(  7-C , 17-H ) :   0.9303 B(  7-C , 18-H ) :   0.9248 B(  8-C , 19-H ) :   0.9210

MP2 TOTAL ENERGY:     -402.449050965 Eh
FINAL SINGLE POINT ENERGY      -402.449050964824

DIPOLE MOMENT
-------------
                                X             Y             Z
Electronic contribution:      4.47326       2.61915      -1.72365
Nuclear contribution   :     -4.17913      -3.66253       2.49841
                        -----------------------------------------
Total Dipole Moment    :      0.29413      -1.04339       0.77477
                        -----------------------------------------
Magnitude (a.u.)       :      1.33245
Magnitude (Debye)      :      3.38683

                             ****ORCA TERMINATED NORMALLY****
TOTAL RUN TIME: 0 days 0 hours 18 minutes 20 seconds 867 msec
