                         Program Version 3.0.3 - RELEASE   -
|  1> ! RI-MP2 RIJK def2-TZVP def2-TZVP/C def2-TZVP/JK TIGHTSCF
|  2> % maxcore 2000
|  3> % mp2 density relaxed end
|  4> *xyz 0 1
|  5>  O       -0.6005237396     0.7204820354     0.8211338873
|  6>  C        0.0739358131     0.9390257356    -0.1543512808
|  7>  C        1.3414894162     1.7681525177    -0.1375539861
|  8>  C        1.3672814935     2.8450330675    -1.2380121489
|  9>  C        2.5900662656     3.7633128258    -1.1135029372
| 10>  C        2.6841288703     4.6288480986    -2.3625788921
| 11>  O        2.6945371892     3.8240488103    -3.5539651166
| 12>  C        1.9583591061     2.6919150863    -3.5088371393
| 13>  N        1.3126847070     2.1858577207    -2.5457907720
| 14>  H       -0.1983221909     0.5356750151    -1.1512132065
| 15>  H        1.4498731795     2.2145099703     0.8553740710
| 16>  H        2.1886352667     1.0886191579    -0.3072021790
| 17>  H        0.4580149765     3.4557148787    -1.1349237741
| 18>  H        2.5257622843     4.3981390740    -0.2239952926
| 19>  H        3.4977349132     3.1548833398    -1.0207484938
| 20>  H        1.8334884209     5.3194898060    -2.4244552628
| 21>  H        3.6049342644     5.2155051228    -2.3935077263
| 22>  H        1.9788937841     2.2020260075    -4.4809101003
| 23> *
| 24>
| 25>                          ****END OF INPUT****

CARTESIAN COORDINATES (ANGSTROEM)
---------------------------------
  O     -0.600524    0.720482    0.821134
  C      0.073936    0.939026   -0.154351
  C      1.341489    1.768153   -0.137554
  C      1.367281    2.845033   -1.238012
  C      2.590066    3.763313   -1.113503
  C      2.684129    4.628848   -2.362579
  O      2.694537    3.824049   -3.553965
  C      1.958359    2.691915   -3.508837
  N      1.312685    2.185858   -2.545791
  H     -0.198322    0.535675   -1.151213
  H      1.449873    2.214510    0.855374
  H      2.188635    1.088619   -0.307202
  H      0.458015    3.455715   -1.134924
  H      2.525762    4.398139   -0.223995
  H      3.497735    3.154883   -1.020748
  H      1.833488    5.319490   -2.424455
  H      3.604934    5.215505   -2.393508
  H      1.978894    2.202026   -4.480910

 Total Charge           Charge          ....    0
 Multiplicity           Mult            ....    1
 Number of Electrons    NEL             ....   68
 Basis Dimension        Dim             ....  333

ORBITAL ENERGIES
----------------

  NO   OCC          E(Eh)            E(eV)
   0   2.0000     -20.607090      -560.7474
   1   2.0000     -20.548551      -559.1545
   2   2.0000     -15.554760      -423.2665
   3   2.0000     -11.344424      -308.6975
   4   2.0000     -11.321743      -308.0803
   5   2.0000     -11.305609      -307.6413
   6   2.0000     -11.282087      -307.0012
   7   2.0000     -11.248062      -306.0753
   8   2.0000     -11.239524      -305.8430
   9   2.0000      -1.439972       -39.1836
  10   2.0000      -1.386484       -37.7281
  11   2.0000      -1.232532       -33.5389
  12   2.0000      -1.097073       -29.8529
  13   2.0000      -1.025796       -27.9133
  14   2.0000      -0.919052       -25.0087
  15   2.0000      -0.887104       -24.1393
  16   2.0000      -0.791395       -21.5349
  17   2.0000      -0.763041       -20.7634
  18   2.0000      -0.718442       -19.5498
  19   2.0000      -0.690928       -18.8011
  20   2.0000      -0.665525       -18.1099
  21   2.0000      -0.656744       -17.8709
  22   2.0000      -0.631748       -17.1907
  23   2.0000      -0.609513       -16.5857
  24   2.0000      -0.588425       -16.0118
  25   2.0000      -0.566848       -15.4247
  26   2.0000      -0.560337       -15.2476
  27   2.0000      -0.547484       -14.8978
  28   2.0000      -0.508277       -13.8309
  29   2.0000      -0.498763       -13.5720
  30   2.0000      -0.485514       -13.2115
  31   2.0000      -0.435225       -11.8431
  32   2.0000      -0.400634       -10.9018
  33   2.0000      -0.399048       -10.8586
  34   0.0000       0.120539         3.2800
  35   0.0000       0.136693         3.7196
  36   0.0000       0.150130         4.0852
  37   0.0000       0.159619         4.3434
  38   0.0000       0.174487         4.7480

MULLIKEN ATOMIC CHARGES
-----------------------
   0 O :   -0.271430
   1 C :    0.074522
   2 C :   -0.128283
   3 C :   -0.026766
   4 C :   -0.259908
   5 C :   -0.041702
   6 O :   -0.258426
   7 C :    0.087374
   8 N :   -0.296934
   9 H :    0.103638
  10 H :    0.116742
  11 H :    0.122276
  12 H :    0.114260
  13 H :    0.136870
  14 H :    0.128655
  15 H :    0.117869
  16 H :    0.139530
  17 H :    0.141713
Sum of atomic charges:    0.0000000

LOEWDIN ATOMIC CHARGES
----------------------
   0 O :    0.123959
   1 C :   -0.290227
   2 C :   -0.240507
   3 C :   -0.290042
   4 C :   -0.249499
   5 C :   -0.273787
   6 O :    0.223189
   7 C :   -0.357281
   8 N :    0.084816
   9 H :    0.117507
  10 H :    0.147057
  11 H :    0.155065
  12 H :    0.154847
  13 H :    0.147749
  14 H :    0.147385
  15 H :    0.131055
  16 H :    0.133348
  17 H :    0.135365

  Mayer bond orders larger than 0.1
B(  0-O ,  1-C ) :   1.9893 B(  1-C ,  2-C ) :   0.8875 B(  1-C ,  9-H ) :   0.9378
B(  2-C ,  3-C ) :   0.9041 B(  2-C , 10-H ) :   0.9092 B(  2-C , 11-H ) :   0.8987
B(  3-C ,  4-C ) :   0.9016 B(  3-C ,  8-N ) :   0.8767 B(  3-C , 12-H ) :   0.9229
B(  4-C ,  5-C ) :   0.9367 B(  4-C , 13-H ) :   0.9217 B(  4-C , 14-H ) :   0.9233
B(  5-C ,  6-O ) :   0.8639 B(  5-C , 15-H ) :   0.9351 B(  5-C , 16-H ) :   0.9318
B(  6-O ,  7-C ) :   1.0787 B(  7-C ,  8-N ) :   1.8396 B(  7-C , 17-H ) :   0.9243

MP2 TOTAL ENERGY:     -438.381704241 Eh
FINAL SINGLE POINT ENERGY      -438.381704241094

DIPOLE MOMENT
-------------
                                X             Y             Z
Electronic contribution:     -2.62685      -2.80932      -1.74143
Nuclear contribution   :      3.65757       3.88873       1.36258
                        -----------------------------------------
Total Dipole Moment    :      1.03072       1.07941      -0.37884
                        -----------------------------------------
Magnitude (a.u.)       :      1.53981
Magnitude (Debye)      :      3.91389

                             ****ORCA TERMINATED NORMALLY****
TOTAL RUN TIME: 0 days 0 hours 16 minutes 26 seconds 713 msec
