                         Program Version 3.0.3 - RELEASE   -
|  1> ! RI-MP2 RIJK def2-TZVP def2-TZVP/C def2-TZVP/JK TIGHTSCF
|  2> % maxcore 2000
|  3> % mp2 density relaxed end
|  4> *xyz 0 1
|  5>  C       -0.1622891029     1.5510374804     0.0704007766
|  6>  C        1.3514523806     1.2368380807     0.1150351576
|  7>  O        1.0543390679     0.1135551289     1.0382565517
|  8>  C        0.0524518169     0.0243393952    -0.0529069021
|  9>  C        1.1987451641     0.2522106726    -1.0796855987
| 10>  C        0.8988983892     0.7716980338    -2.5111928675
| 11>  C        1.7922980386    -0.0637476101    -3.3923369958
| 12>  C        2.5190747337    -0.9381423411    -2.7008960401
| 13>  C        2.2620296654    -0.8676340260    -1.2191621564
| 14>  H       -0.5861937496     1.8734080775     1.0217892071
| 15>  H       -0.5641763513     2.0998754846    -0.7835345132
| 16>  H        2.1922132234     1.8859783890     0.3685862663
| 17>  H       -0.6740336913    -0.7894023040    -0.0019825276
| 18>  H       -0.1596542969     0.6531617968    -2.7788970336
| 19>  H        1.1159085394     1.8434092105    -2.6141328006
| 20>  H        1.8162799507     0.0595725285    -4.4697023342
| 21>  H        3.2273701414    -1.6374353350    -3.1322031035
| 22>  H        3.1730160392    -0.6365574518    -0.6537883652
| 23>  H        1.9021791117    -1.8227923006    -0.8177737109
| 24> *
| 25>
| 26>                          ****END OF INPUT****

CARTESIAN COORDINATES (ANGSTROEM)
---------------------------------
  C     -0.162289    1.551037    0.070401
  C      1.351452    1.236838    0.115035
  O      1.054339    0.113555    1.038257
  C      0.052452    0.024339   -0.052907
  C      1.198745    0.252211   -1.079686
  C      0.898898    0.771698   -2.511193
  C      1.792298   -0.063748   -3.392337
  C      2.519075   -0.938142   -2.700896
  C      2.262030   -0.867634   -1.219162
  H     -0.586194    1.873408    1.021789
  H     -0.564176    2.099875   -0.783535
  H      2.192213    1.885978    0.368586
  H     -0.674034   -0.789402   -0.001983
  H     -0.159654    0.653162   -2.778897
  H      1.115909    1.843409   -2.614133
  H      1.816280    0.059573   -4.469702
  H      3.227370   -1.637435   -3.132203
  H      3.173016   -0.636557   -0.653788
  H      1.902179   -1.822792   -0.817774

 Total Charge           Charge          ....    0
 Multiplicity           Mult            ....    1
 Number of Electrons    NEL             ....   66
 Basis Dimension        Dim             ....  339

ORBITAL ENERGIES
----------------

  NO   OCC          E(Eh)            E(eV)
   0   2.0000     -20.543941      -559.0291
   1   2.0000     -11.296226      -307.3859
   2   2.0000     -11.296143      -307.3837
   3   2.0000     -11.248098      -306.0763
   4   2.0000     -11.234774      -305.7137
   5   2.0000     -11.231711      -305.6304
   6   2.0000     -11.225594      -305.4639
   7   2.0000     -11.223857      -305.4167
   8   2.0000     -11.222242      -305.3727
   9   2.0000      -1.391537       -37.8657
  10   2.0000      -1.136768       -30.9330
  11   2.0000      -1.059205       -28.8224
  12   2.0000      -0.965908       -26.2837
  13   2.0000      -0.944699       -25.7066
  14   2.0000      -0.882065       -24.0022
  15   2.0000      -0.838302       -22.8114
  16   2.0000      -0.732411       -19.9299
  17   2.0000      -0.713740       -19.4218
  18   2.0000      -0.698773       -19.0146
  19   2.0000      -0.669021       -18.2050
  20   2.0000      -0.612509       -16.6672
  21   2.0000      -0.586869       -15.9695
  22   2.0000      -0.574827       -15.6418
  23   2.0000      -0.559464       -15.2238
  24   2.0000      -0.534405       -14.5419
  25   2.0000      -0.534033       -14.5318
  26   2.0000      -0.500145       -13.6096
  27   2.0000      -0.476092       -12.9551
  28   2.0000      -0.461649       -12.5621
  29   2.0000      -0.452401       -12.3105
  30   2.0000      -0.436667       -11.8823
  31   2.0000      -0.404523       -11.0076
  32   2.0000      -0.346233        -9.4215
  33   0.0000       0.138663         3.7732
  34   0.0000       0.160824         4.3762
  35   0.0000       0.161906         4.4057
  36   0.0000       0.172137         4.6841
  37   0.0000       0.174668         4.7530

MULLIKEN ATOMIC CHARGES
-----------------------
   0 C :   -0.154692
   1 C :   -0.073127
   2 O :   -0.325422
   3 C :   -0.073148
   4 C :    0.168748
   5 C :   -0.218622
   6 C :   -0.181265
   7 C :   -0.167542
   8 C :   -0.236516
   9 H :    0.123532
  10 H :    0.117838
  11 H :    0.132919
  12 H :    0.132920
  13 H :    0.126071
  14 H :    0.126069
  15 H :    0.124540
  16 H :    0.124639
  17 H :    0.126523
  18 H :    0.126536
Sum of atomic charges:    0.0000000

LOEWDIN ATOMIC CHARGES
----------------------
   0 C :   -0.198797
   1 C :   -0.196357
   2 O :    0.129842
   3 C :   -0.196354
   4 C :   -0.172007
   5 C :   -0.205473
   6 C :   -0.165421
   7 C :   -0.160885
   8 C :   -0.198064
   9 H :    0.133012
  10 H :    0.129169
  11 H :    0.124678
  12 H :    0.124678
  13 H :    0.143438
  14 H :    0.143440
  15 H :    0.135865
  16 H :    0.136505
  17 H :    0.146366
  18 H :    0.146366

  Mayer bond orders larger than 0.1
B(  0-C ,  1-C ) :   0.9307 B(  0-C ,  3-C ) :   0.9307 B(  0-C ,  9-H ) :   0.9234
B(  0-C , 10-H ) :   0.9163 B(  1-C ,  2-O ) :   0.9131 B(  1-C ,  4-C ) :   0.9046
B(  1-C , 11-H ) :   0.8818 B(  2-O ,  3-C ) :   0.9131 B(  3-C ,  4-C ) :   0.9046
B(  3-C , 12-H ) :   0.8818 B(  4-C ,  5-C ) :   0.9028 B(  4-C ,  8-C ) :   0.9388
B(  5-C ,  6-C ) :   0.9466 B(  5-C , 13-H ) :   0.9117 B(  5-C , 14-H ) :   0.9117
B(  6-C ,  7-C ) :   1.8028 B(  6-C , 15-H ) :   0.9345 B(  7-C ,  8-C ) :   0.9393
B(  7-C , 16-H ) :   0.9346 B(  8-C , 17-H ) :   0.9152 B(  8-C , 18-H ) :   0.9152

MP2 TOTAL ENERGY:     -385.145133988 Eh
FINAL SINGLE POINT ENERGY      -385.145133987864

DIPOLE MOMENT
-------------
                                X             Y             Z
Electronic contribution:      0.37993      -0.76422       2.57817
Nuclear contribution   :     -0.59121       1.08254      -3.24187
                        -----------------------------------------
Total Dipole Moment    :     -0.21128       0.31831      -0.66371
                        -----------------------------------------
Magnitude (a.u.)       :      0.76581
Magnitude (Debye)      :      1.94654

                             ****ORCA TERMINATED NORMALLY****
TOTAL RUN TIME: 0 days 0 hours 17 minutes 10 seconds 892 msec
