                         Program Version 3.0.3 - RELEASE   -
|  1> ! RI-MP2 RIJK def2-TZVP def2-TZVP/C def2-TZVP/JK TIGHTSCF
|  2> % maxcore 2000
|  3> % mp2 density relaxed end
|  4> *xyz 0 1
|  5>  C       -0.0557296013     1.5264252408     0.0954090266
|  6>  C        0.0117387539     0.0433912417    -0.0113042454
|  7>  C        0.0156673471    -0.7818577276    -1.1047920276
|  8>  O       -0.0881732563    -0.3364407889    -2.3991796104
|  9>  C        0.0794485782    -2.1541342230    -0.6833157351
| 10>  C        0.0817377609    -3.3663092816    -1.5621227836
| 11>  C        0.1166397098    -2.0982745043     0.6918789331
| 12>  O        0.1793903800    -3.0604029910     1.6516692255
| 13>  N        0.0649356512    -0.8015352870     1.0996258603
| 14>  H        0.7788523045     1.9441744446     0.6745356200
| 15>  H       -0.0091085129     1.9545731831    -0.9086397925
| 16>  H       -0.9849997778     1.8806254030     0.5625277720
| 17>  H        0.3220813831    -0.9853008750    -2.9781797498
| 18>  H        1.0491355083    -3.5502130252    -2.0508316139
| 19>  H       -0.1626462439    -4.2757010004    -0.9999951944
| 20>  H       -0.6714903746    -3.2864916609    -2.3559341447
| 21>  H        0.2805227517    -3.9128261645     1.2176633095
| 22>  H        0.1052096879    -0.5108167637     2.0602534705
| 23> *
| 24>
| 25>                          ****END OF INPUT****

CARTESIAN COORDINATES (ANGSTROEM)
---------------------------------
  C     -0.055730    1.526425    0.095409
  C      0.011739    0.043391   -0.011304
  C      0.015667   -0.781858   -1.104792
  O     -0.088173   -0.336441   -2.399180
  C      0.079449   -2.154134   -0.683316
  C      0.081738   -3.366309   -1.562123
  C      0.116640   -2.098275    0.691879
  O      0.179390   -3.060403    1.651669
  N      0.064936   -0.801535    1.099626
  H      0.778852    1.944174    0.674536
  H     -0.009109    1.954573   -0.908640
  H     -0.985000    1.880625    0.562528
  H      0.322081   -0.985301   -2.978180
  H      1.049136   -3.550213   -2.050832
  H     -0.162646   -4.275701   -0.999995
  H     -0.671490   -3.286492   -2.355934
  H      0.280523   -3.912826    1.217663
  H      0.105210   -0.510817    2.060253

 Total Charge           Charge          ....    0
 Multiplicity           Mult            ....    1
 Number of Electrons    NEL             ....   68
 Basis Dimension        Dim             ....  333

ORBITAL ENERGIES
----------------

  NO   OCC          E(Eh)            E(eV)
   0   2.0000     -20.597723      -560.4925
   1   2.0000     -20.569800      -559.7327
   2   2.0000     -15.588605      -424.1875
   3   2.0000     -11.316402      -307.9350
   4   2.0000     -11.262331      -306.4636
   5   2.0000     -11.233950      -305.6913
   6   2.0000     -11.233374      -305.6756
   7   2.0000     -11.219046      -305.2858
   8   2.0000     -11.207132      -304.9616
   9   2.0000      -1.418271       -38.5931
  10   2.0000      -1.381028       -37.5797
  11   2.0000      -1.272874       -34.6367
  12   2.0000      -1.060943       -28.8697
  13   2.0000      -1.018789       -27.7226
  14   2.0000      -0.952560       -25.9205
  15   2.0000      -0.894838       -24.3498
  16   2.0000      -0.800857       -21.7924
  17   2.0000      -0.770501       -20.9664
  18   2.0000      -0.713238       -19.4082
  19   2.0000      -0.707979       -19.2651
  20   2.0000      -0.636295       -17.3145
  21   2.0000      -0.622867       -16.9491
  22   2.0000      -0.608181       -16.5495
  23   2.0000      -0.579948       -15.7812
  24   2.0000      -0.572816       -15.5871
  25   2.0000      -0.568556       -15.4712
  26   2.0000      -0.562698       -15.3118
  27   2.0000      -0.547266       -14.8919
  28   2.0000      -0.538834       -14.6624
  29   2.0000      -0.523104       -14.2344
  30   2.0000      -0.497220       -13.5301
  31   2.0000      -0.480171       -13.0661
  32   2.0000      -0.325363        -8.8536
  33   2.0000      -0.263556        -7.1717
  34   0.0000       0.116546         3.1714
  35   0.0000       0.144414         3.9297
  36   0.0000       0.152361         4.1459
  37   0.0000       0.181598         4.9415
  38   0.0000       0.190542         5.1849

MULLIKEN ATOMIC CHARGES
-----------------------
   0 C :   -0.448204
   1 C :    0.095773
   2 C :    0.077153
   3 O :   -0.460506
   4 C :   -0.020041
   5 C :   -0.476023
   6 C :    0.182192
   7 O :   -0.432010
   8 N :   -0.285978
   9 H :    0.133377
  10 H :    0.165546
  11 H :    0.137610
  12 H :    0.333107
  13 H :    0.151241
  14 H :    0.110774
  15 H :    0.156180
  16 H :    0.335448
  17 H :    0.244362
Sum of atomic charges:    0.0000000

LOEWDIN ATOMIC CHARGES
----------------------
   0 C :   -0.286410
   1 C :   -0.245074
   2 C :   -0.276924
   3 O :    0.045353
   4 C :   -0.213518
   5 C :   -0.292751
   6 C :   -0.347738
   7 O :    0.056885
   8 N :    0.204758
   9 H :    0.126064
  10 H :    0.142938
  11 H :    0.126380
  12 H :    0.188086
  13 H :    0.125870
  14 H :    0.124847
  15 H :    0.132264
  16 H :    0.195482
  17 H :    0.193489

  Mayer bond orders larger than 0.1
B(  0-C ,  1-C ) :   0.8436 B(  0-C ,  9-H ) :   0.9380 B(  0-C , 10-H ) :   0.9477
B(  0-C , 11-H ) :   0.9370 B(  1-C ,  2-C ) :   1.5555 B(  1-C ,  8-N ) :   1.0269
B(  2-C ,  3-O ) :   1.0575 B(  2-C ,  4-C ) :   1.1551 B(  3-O , 12-H ) :   0.8357
B(  4-C ,  5-C ) :   0.8337 B(  4-C ,  6-C ) :   1.4195 B(  5-C , 13-H ) :   0.9385
B(  5-C , 14-H ) :   0.9372 B(  5-C , 15-H ) :   0.9508 B(  6-C ,  7-O ) :   1.1155
B(  6-C ,  8-N ) :   1.1923 B(  7-O , 16-H ) :   0.8297 B(  8-N , 17-H ) :   0.8698

MP2 TOTAL ENERGY:     -438.399172588 Eh
FINAL SINGLE POINT ENERGY      -438.399172588112

DIPOLE MOMENT
-------------
                                X             Y             Z
Electronic contribution:      0.05277      -1.04407       2.46513
Nuclear contribution   :      0.26014       0.43359      -2.33467
                        -----------------------------------------
Total Dipole Moment    :      0.31291      -0.61048       0.13046
                        -----------------------------------------
Magnitude (a.u.)       :      0.69830
Magnitude (Debye)      :      1.77493

                             ****ORCA TERMINATED NORMALLY****
TOTAL RUN TIME: 0 days 0 hours 17 minutes 13 seconds 4 msec
