                         Program Version 3.0.3 - RELEASE   -
|  1> ! RI-MP2 RIJK def2-TZVP def2-TZVP/C def2-TZVP/JK TIGHTSCF
|  2> % maxcore 2000
|  3> % mp2 density relaxed end
|  4> *xyz 0 1
|  5>  C       -0.5226605331     1.2975682297     0.1665919547
|  6>  C        0.0633556347    -0.0931391525    -0.0149572924
|  7>  C        1.0055261344    -0.3303870293    -1.2337400642
|  8>  C        2.0922964450    -0.8246033570    -0.2417140882
|  9>  N        1.2127655439    -0.4253966825     0.8623447006
| 10>  C        1.2393080264    -0.9639920847     2.1100636616
| 11>  N        2.2361390157    -1.6496092128     2.5378743390
| 12>  C        0.0595019311    -0.6815707513     2.9169789398
| 13>  N       -0.8638492640    -0.4923282977     3.5874735975
| 14>  H        0.2611721634     2.0587649406     0.1053569281
| 15>  H       -1.2609258703     1.4937112626    -0.6182620535
| 16>  H       -1.0247688976     1.3929204518     1.1334572347
| 17>  H       -0.7293720402    -0.8489148616     0.0554617687
| 18>  H        0.6586823834    -1.0674411002    -1.9576394885
| 19>  H        1.2680523761     0.5910748040    -1.7563600544
| 20>  H        2.2828839934    -1.9032852883    -0.2539275794
| 21>  H        3.0524578603    -0.3016173269    -0.2544812676
| 22>  H        2.0999437574    -1.9300182240     3.5059822535
| 23> *
| 24>
| 25>                          ****END OF INPUT****

CARTESIAN COORDINATES (ANGSTROEM)
---------------------------------
  C     -0.522661    1.297568    0.166592
  C      0.063356   -0.093139   -0.014957
  C      1.005526   -0.330387   -1.233740
  C      2.092296   -0.824603   -0.241714
  N      1.212766   -0.425397    0.862345
  C      1.239308   -0.963992    2.110064
  N      2.236139   -1.649609    2.537874
  C      0.059502   -0.681571    2.916979
  N     -0.863849   -0.492328    3.587474
  H      0.261172    2.058765    0.105357
  H     -1.260926    1.493711   -0.618262
  H     -1.024769    1.392920    1.133457
  H     -0.729372   -0.848915    0.055462
  H      0.658682   -1.067441   -1.957639
  H      1.268052    0.591075   -1.756360
  H      2.282884   -1.903285   -0.253928
  H      3.052458   -0.301617   -0.254481
  H      2.099944   -1.930018    3.505982

 Total Charge           Charge          ....    0
 Multiplicity           Mult            ....    1
 Number of Electrons    NEL             ....   66
 Basis Dimension        Dim             ....  333

ORBITAL ENERGIES
----------------

  NO   OCC          E(Eh)            E(eV)
   0   2.0000     -15.600438      -424.5095
   1   2.0000     -15.591300      -424.2608
   2   2.0000     -15.556564      -423.3156
   3   2.0000     -11.363754      -309.2235
   4   2.0000     -11.295159      -307.3569
   5   2.0000     -11.290537      -307.2311
   6   2.0000     -11.275272      -306.8158
   7   2.0000     -11.246383      -306.0296
   8   2.0000     -11.229360      -305.5664
   9   2.0000      -1.319379       -35.9021
  10   2.0000      -1.241534       -33.7838
  11   2.0000      -1.206362       -32.8268
  12   2.0000      -1.052630       -28.6435
  13   2.0000      -1.014371       -27.6024
  14   2.0000      -0.906172       -24.6582
  15   2.0000      -0.877999       -23.8916
  16   2.0000      -0.803006       -21.8509
  17   2.0000      -0.742002       -20.1909
  18   2.0000      -0.692035       -18.8312
  19   2.0000      -0.669432       -18.2162
  20   2.0000      -0.610819       -16.6212
  21   2.0000      -0.593763       -16.1571
  22   2.0000      -0.587914       -15.9979
  23   2.0000      -0.576222       -15.6798
  24   2.0000      -0.543942       -14.8014
  25   2.0000      -0.540762       -14.7149
  26   2.0000      -0.524621       -14.2757
  27   2.0000      -0.512432       -13.9440
  28   2.0000      -0.495150       -13.4737
  29   2.0000      -0.473298       -12.8791
  30   2.0000      -0.460226       -12.5234
  31   2.0000      -0.450598       -12.2614
  32   2.0000      -0.363666        -9.8958
  33   0.0000       0.093717         2.5502
  34   0.0000       0.128836         3.5058
  35   0.0000       0.146296         3.9809
  36   0.0000       0.151846         4.1319
  37   0.0000       0.162169         4.4129

MULLIKEN ATOMIC CHARGES
-----------------------
   0 C :   -0.410456
   1 C :   -0.009458
   2 C :   -0.218924
   3 C :   -0.136320
   4 N :   -0.079872
   5 C :    0.205798
   6 N :   -0.390848
   7 C :   -0.183794
   8 N :   -0.052467
   9 H :    0.128311
  10 H :    0.135171
  11 H :    0.158311
  12 H :    0.110823
  13 H :    0.132975
  14 H :    0.126498
  15 H :    0.128275
  16 H :    0.126247
  17 H :    0.229729
Sum of atomic charges:    0.0000000

LOEWDIN ATOMIC CHARGES
----------------------
   0 C :   -0.292155
   1 C :   -0.244852
   2 C :   -0.207722
   3 C :   -0.212747
   4 N :    0.219459
   5 C :   -0.388435
   6 N :   -0.042982
   7 C :   -0.145547
   8 N :    0.082055
   9 H :    0.126817
  10 H :    0.130172
  11 H :    0.131245
  12 H :    0.145359
  13 H :    0.131805
  14 H :    0.135947
  15 H :    0.132324
  16 H :    0.129350
  17 H :    0.169907

  Mayer bond orders larger than 0.1
B(  0-C ,  1-C ) :   0.9130 B(  0-C ,  9-H ) :   0.9313 B(  0-C , 10-H ) :   0.9322
B(  0-C , 11-H ) :   0.9319 B(  1-C ,  2-C ) :   0.9253 B(  1-C ,  4-N ) :   0.8603
B(  1-C , 12-H ) :   0.9175 B(  2-C ,  3-C ) :   0.9400 B(  2-C , 13-H ) :   0.9285
B(  2-C , 14-H ) :   0.9195 B(  3-C ,  4-N ) :   0.8867 B(  3-C , 15-H ) :   0.9192
B(  3-C , 16-H ) :   0.9208 B(  4-N ,  5-C ) :   1.1910 B(  5-C ,  6-N ) :   1.8781
B(  5-C ,  7-C ) :   0.8863 B(  6-N , 17-H ) :   0.8611 B(  7-C ,  8-N ) :   2.8098

MP2 TOTAL ENERGY:     -397.436160853 Eh
FINAL SINGLE POINT ENERGY      -397.436160853395

DIPOLE MOMENT
-------------
                                X             Y             Z
Electronic contribution:      0.07803      -3.16975       8.44003
Nuclear contribution   :      0.02043       3.32567      -9.77544
                        -----------------------------------------
Total Dipole Moment    :      0.09846       0.15592      -1.33540
                        -----------------------------------------
Magnitude (a.u.)       :      1.34808
Magnitude (Debye)      :      3.42654

                             ****ORCA TERMINATED NORMALLY****
TOTAL RUN TIME: 0 days 0 hours 18 minutes 27 seconds 438 msec
