                         Program Version 3.0.3 - RELEASE   -
|  1> ! RI-MP2 RIJK def2-TZVP def2-TZVP/C def2-TZVP/JK TIGHTSCF
|  2> % maxcore 2000
|  3> % mp2 density relaxed end
|  4> *xyz 0 1
|  5>  C        0.0453623657     1.6206566753     0.0779210025
|  6>  C        0.0292815513     0.0897483494     0.0395193624
|  7>  C        0.4694744096    -0.4689432379    -1.3198082036
|  8>  C        0.6845816886    -1.9868286417    -1.3542063304
|  9>  C       -0.6087974453    -2.7751945179    -1.1241670584
| 10>  C       -0.4328257662    -4.2913127968    -1.0030876975
| 11>  C        1.5891136368    -2.4532582254    -2.5288656569
| 12>  C        2.6282160846    -2.7539974999    -1.4345564632
| 13>  O        1.7156574278    -2.3701835942    -0.3876976907
| 14>  H        1.0496063550     2.0109701079    -0.1218476561
| 15>  H       -0.6286621955     2.0463411929    -0.6743673264
| 16>  H       -0.2691878868     1.9973936284     1.0562827972
| 17>  H        0.6994293183    -0.3102786493     0.8086104232
| 18>  H       -0.9781960803    -0.2636369145     0.2878302611
| 19>  H       -0.2568584330    -0.1965841857    -2.0987553205
| 20>  H        1.4168258677     0.0090227479    -1.6016007236
| 21>  H       -1.0788802934    -2.4050311756    -0.2062292336
| 22>  H       -1.3001828297    -2.5348037034    -1.9430508241
| 23>  H        0.2755462328    -4.5289533410    -0.2052708127
| 24>  H       -1.3875930486    -4.7702494476    -0.7661750595
| 25>  H       -0.0649013035    -4.7429580899    -1.9301114946
| 26>  H        1.2311896327    -3.3249643191    -3.0779455404
| 27>  H        1.8565153302    -1.6697720751    -3.2402825966
| 28>  H        2.9380785506    -3.8017419000    -1.3412154734
| 29>  H        3.5253113005    -2.1221182070    -1.4477110740
| 30> *
| 31>
| 32>                          ****END OF INPUT****

CARTESIAN COORDINATES (ANGSTROEM)
---------------------------------
  C      0.045362    1.620657    0.077921
  C      0.029282    0.089748    0.039519
  C      0.469474   -0.468943   -1.319808
  C      0.684582   -1.986829   -1.354206
  C     -0.608797   -2.775195   -1.124167
  C     -0.432826   -4.291313   -1.003088
  C      1.589114   -2.453258   -2.528866
  C      2.628216   -2.753997   -1.434556
  O      1.715657   -2.370184   -0.387698
  H      1.049606    2.010970   -0.121848
  H     -0.628662    2.046341   -0.674367
  H     -0.269188    1.997394    1.056283
  H      0.699429   -0.310279    0.808610
  H     -0.978196   -0.263637    0.287830
  H     -0.256858   -0.196584   -2.098755
  H      1.416826    0.009023   -1.601601
  H     -1.078880   -2.405031   -0.206229
  H     -1.300183   -2.534804   -1.943051
  H      0.275546   -4.528953   -0.205271
  H     -1.387593   -4.770249   -0.766175
  H     -0.064901   -4.742958   -1.930111
  H      1.231190   -3.324964   -3.077946
  H      1.856515   -1.669772   -3.240283
  H      2.938079   -3.801742   -1.341215
  H      3.525311   -2.122118   -1.447711

 Total Charge           Charge          ....    0
 Multiplicity           Mult            ....    1
 Number of Electrons    NEL             ....   72
 Basis Dimension        Dim             ....  375

ORBITAL ENERGIES
----------------

  NO   OCC          E(Eh)            E(eV)
   0   2.0000     -20.536442      -558.8250
   1   2.0000     -11.282294      -307.0068
   2   2.0000     -11.272760      -306.7474
   3   2.0000     -11.222973      -305.3926
   4   2.0000     -11.218210      -305.2630
   5   2.0000     -11.216341      -305.2122
   6   2.0000     -11.212359      -305.1038
   7   2.0000     -11.208939      -305.0107
   8   2.0000     -11.208714      -305.0046
   9   2.0000      -1.368098       -37.2278
  10   2.0000      -1.077815       -29.3288
  11   2.0000      -1.034521       -28.1508
  12   2.0000      -0.999441       -27.1962
  13   2.0000      -0.957493       -26.0547
  14   2.0000      -0.879076       -23.9209
  15   2.0000      -0.836656       -22.7666
  16   2.0000      -0.801581       -21.8121
  17   2.0000      -0.718327       -19.5467
  18   2.0000      -0.672887       -18.3102
  19   2.0000      -0.649401       -17.6711
  20   2.0000      -0.629956       -17.1420
  21   2.0000      -0.617885       -16.8135
  22   2.0000      -0.584302       -15.8997
  23   2.0000      -0.576154       -15.6779
  24   2.0000      -0.553507       -15.0617
  25   2.0000      -0.537527       -14.6269
  26   2.0000      -0.531085       -14.4516
  27   2.0000      -0.520830       -14.1725
  28   2.0000      -0.500031       -13.6065
  29   2.0000      -0.489437       -13.3182
  30   2.0000      -0.484907       -13.1950
  31   2.0000      -0.473755       -12.8915
  32   2.0000      -0.464522       -12.6403
  33   2.0000      -0.446381       -12.1466
  34   2.0000      -0.423942       -11.5360
  35   2.0000      -0.400403       -10.8955
  36   0.0000       0.138303         3.7634
  37   0.0000       0.149659         4.0724
  38   0.0000       0.157511         4.2861
  39   0.0000       0.166014         4.5175
  40   0.0000       0.181456         4.9377

MULLIKEN ATOMIC CHARGES
-----------------------
   0 C :   -0.388368
   1 C :   -0.234635
   2 C :   -0.261213
   3 C :    0.360767
   4 C :   -0.246241
   5 C :   -0.420848
   6 C :   -0.326281
   7 C :   -0.019589
   8 O :   -0.372786
   9 H :    0.123534
  10 H :    0.117992
  11 H :    0.133231
  12 H :    0.136174
  13 H :    0.104762
  14 H :    0.111808
  15 H :    0.107731
  16 H :    0.117092
  17 H :    0.110854
  18 H :    0.149291
  19 H :    0.135430
  20 H :    0.115815
  21 H :    0.123192
  22 H :    0.127932
  23 H :    0.097571
  24 H :    0.096785
Sum of atomic charges:   -0.0000000

LOEWDIN ATOMIC CHARGES
----------------------
   0 C :   -0.321827
   1 C :   -0.292314
   2 C :   -0.232099
   3 C :   -0.310867
   4 C :   -0.253566
   5 C :   -0.315617
   6 C :   -0.208910
   7 C :   -0.279663
   8 O :    0.147891
   9 H :    0.119920
  10 H :    0.118950
  11 H :    0.120302
  12 H :    0.142043
  13 H :    0.131882
  14 H :    0.142563
  15 H :    0.144631
  16 H :    0.144350
  17 H :    0.143287
  18 H :    0.127744
  19 H :    0.121694
  20 H :    0.116862
  21 H :    0.130653
  22 H :    0.131487
  23 H :    0.115391
  24 H :    0.115211

  Mayer bond orders larger than 0.1
B(  0-C ,  1-C ) :   0.9119 B(  0-C ,  9-H ) :   0.9433 B(  0-C , 10-H ) :   0.9374
B(  0-C , 11-H ) :   0.9446 B(  1-C ,  2-C ) :   0.9343 B(  1-C , 12-H ) :   0.9351
B(  1-C , 13-H ) :   0.9328 B(  2-C ,  3-C ) :   0.9148 B(  2-C , 14-H ) :   0.9230
B(  2-C , 15-H ) :   0.9191 B(  3-C ,  4-C ) :   0.9265 B(  3-C ,  6-C ) :   0.8446
B(  3-C ,  8-O ) :   0.8417 B(  4-C ,  5-C ) :   0.9248 B(  4-C , 16-H ) :   0.9288
B(  4-C , 17-H ) :   0.9235 B(  5-C , 18-H ) :   0.9376 B(  5-C , 19-H ) :   0.9390
B(  5-C , 20-H ) :   0.9388 B(  6-C ,  7-C ) :   0.9868 B(  6-C , 21-H ) :   0.9303
B(  6-C , 22-H ) :   0.9267 B(  7-C ,  8-O ) :   0.9517 B(  7-C , 23-H ) :   0.9189
B(  7-C , 24-H ) :   0.9151

MP2 TOTAL ENERGY:     -388.809287409 Eh
FINAL SINGLE POINT ENERGY      -388.809287409110

DIPOLE MOMENT
-------------
                                X             Y             Z
Electronic contribution:      3.52284      -2.54939       0.03534
Nuclear contribution   :     -3.62759       2.55511      -0.63945
                        -----------------------------------------
Total Dipole Moment    :     -0.10475       0.00571      -0.60411
                        -----------------------------------------
Magnitude (a.u.)       :      0.61315
Magnitude (Debye)      :      1.55850

                             ****ORCA TERMINATED NORMALLY****
TOTAL RUN TIME: 0 days 0 hours 20 minutes 48 seconds 877 msec
