                         Program Version 3.0.3 - RELEASE   -
|  1> ! RI-MP2 RIJK def2-TZVP def2-TZVP/C def2-TZVP/JK TIGHTSCF
|  2> % maxcore 2000
|  3> % mp2 density relaxed end
|  4> *xyz 0 1
|  5>  C       -0.2610107196     1.5445385224     0.0440717864
|  6>  C        0.1226744235     0.0824897652    -0.0064063795
|  7>  O        1.3820397498    -0.1304801909    -0.7386881299
|  8>  C        1.9836464395    -0.7494002105     0.3450355411
|  9>  N        3.1274324751    -1.2412259416     0.4806415159
| 10>  C        0.7813991719    -0.5726794381     1.2187313413
| 11>  C        0.6754746710    -0.2248782428     2.6599496716
| 12>  N        0.2656036906    -1.5347260154     2.1697949503
| 13>  C       -1.1645672152    -1.8114330023     2.1297207245
| 14>  H        0.5278622525     2.1375632568     0.5149785503
| 15>  H       -0.4312345409     1.9291412216    -0.9661269714
| 16>  H       -1.1853937044     1.6755971858     0.6163645625
| 17>  H       -0.6645552818    -0.5267349919    -0.4633783181
| 18>  H        3.6731564050    -1.1614796491    -0.3787204089
| 19>  H        1.5708967740    -0.2061966638     3.2743591975
| 20>  H       -0.1009308668     0.4883130724     2.9380590520
| 21>  H       -1.7851633499    -0.9267595265     1.9098001466
| 22>  H       -1.3653943648    -2.5732410631     1.3703702352
| 23>  H       -1.4712500294    -2.2094764881     3.1012275625
| 24> *
| 25>
| 26>                          ****END OF INPUT****

CARTESIAN COORDINATES (ANGSTROEM)
---------------------------------
  C     -0.261011    1.544539    0.044072
  C      0.122674    0.082490   -0.006406
  O      1.382040   -0.130480   -0.738688
  C      1.983646   -0.749400    0.345036
  N      3.127432   -1.241226    0.480642
  C      0.781399   -0.572679    1.218731
  C      0.675475   -0.224878    2.659950
  N      0.265604   -1.534726    2.169795
  C     -1.164567   -1.811433    2.129721
  H      0.527862    2.137563    0.514979
  H     -0.431235    1.929141   -0.966127
  H     -1.185394    1.675597    0.616365
  H     -0.664555   -0.526735   -0.463378
  H      3.673156   -1.161480   -0.378720
  H      1.570897   -0.206197    3.274359
  H     -0.100931    0.488313    2.938059
  H     -1.785163   -0.926760    1.909800
  H     -1.365394   -2.573241    1.370370
  H     -1.471250   -2.209476    3.101228

 Total Charge           Charge          ....    0
 Multiplicity           Mult            ....    1
 Number of Electrons    NEL             ....   68
 Basis Dimension        Dim             ....  339

ORBITAL ENERGIES
----------------

  NO   OCC          E(Eh)            E(eV)
   0   2.0000     -20.589172      -560.2598
   1   2.0000     -15.580596      -423.9696
   2   2.0000     -15.534566      -422.7170
   3   2.0000     -11.335189      -308.4462
   4   2.0000     -11.310840      -307.7836
   5   2.0000     -11.285427      -307.0921
   6   2.0000     -11.273384      -306.7644
   7   2.0000     -11.263354      -306.4914
   8   2.0000     -11.237632      -305.7915
   9   2.0000      -1.431867       -38.9631
  10   2.0000      -1.294669       -35.2297
  11   2.0000      -1.194017       -32.4908
  12   2.0000      -1.046702       -28.4822
  13   2.0000      -1.009253       -27.4632
  14   2.0000      -0.937247       -25.5038
  15   2.0000      -0.846063       -23.0225
  16   2.0000      -0.844058       -22.9680
  17   2.0000      -0.720836       -19.6149
  18   2.0000      -0.707233       -19.2448
  19   2.0000      -0.693530       -18.8719
  20   2.0000      -0.667545       -18.1648
  21   2.0000      -0.632963       -17.2238
  22   2.0000      -0.618071       -16.8186
  23   2.0000      -0.587589       -15.9891
  24   2.0000      -0.572081       -15.5671
  25   2.0000      -0.566498       -15.4152
  26   2.0000      -0.542141       -14.7524
  27   2.0000      -0.520295       -14.1580
  28   2.0000      -0.507488       -13.8094
  29   2.0000      -0.482926       -13.1411
  30   2.0000      -0.462950       -12.5975
  31   2.0000      -0.435899       -11.8614
  32   2.0000      -0.403818       -10.9885
  33   2.0000      -0.382464       -10.4074
  34   0.0000       0.123432         3.3588
  35   0.0000       0.150540         4.0964
  36   0.0000       0.162628         4.4253
  37   0.0000       0.169085         4.6010
  38   0.0000       0.174994         4.7618

MULLIKEN ATOMIC CHARGES
-----------------------
   0 C :   -0.404932
   1 C :    0.144390
   2 O :   -0.271095
   3 C :    0.082201
   4 N :   -0.350507
   5 C :    0.072157
   6 C :   -0.179212
   7 N :   -0.223465
   8 C :   -0.310660
   9 H :    0.142487
  10 H :    0.147705
  11 H :    0.129635
  12 H :    0.112281
  13 H :    0.229673
  14 H :    0.147507
  15 H :    0.124695
  16 H :    0.108014
  17 H :    0.149063
  18 H :    0.150064
Sum of atomic charges:    0.0000000

LOEWDIN ATOMIC CHARGES
----------------------
   0 C :   -0.289996
   1 C :   -0.234912
   2 O :    0.228489
   3 C :   -0.363563
   4 N :   -0.041945
   5 C :   -0.227972
   6 C :   -0.204479
   7 N :    0.129580
   8 C :   -0.320587
   9 H :    0.132031
  10 H :    0.132025
  11 H :    0.129281
  12 H :    0.142677
  13 H :    0.174006
  14 H :    0.136127
  15 H :    0.128507
  16 H :    0.106172
  17 H :    0.121799
  18 H :    0.122760

  Mayer bond orders larger than 0.1
B(  0-C ,  1-C ) :   0.9105 B(  0-C ,  9-H ) :   0.9336 B(  0-C , 10-H ) :   0.9293
B(  0-C , 11-H ) :   0.9268 B(  1-C ,  2-O ) :   0.8883 B(  1-C ,  5-C ) :   0.9208
B(  1-C , 12-H ) :   0.9189 B(  2-O ,  3-C ) :   1.0736 B(  3-C ,  4-N ) :   2.1162
B(  3-C ,  5-C ) :   0.9097 B(  4-N , 13-H ) :   0.8478 B(  5-C ,  6-C ) :   0.8791
B(  5-C ,  7-N ) :   0.8438 B(  6-C ,  7-N ) :   0.9624 B(  6-C , 14-H ) :   0.9067
B(  6-C , 15-H ) :   0.9207 B(  7-N ,  8-C ) :   0.8640 B(  8-C , 16-H ) :   0.9219
B(  8-C , 17-H ) :   0.9380 B(  8-C , 18-H ) :   0.9359

MP2 TOTAL ENERGY:     -418.461938862 Eh
FINAL SINGLE POINT ENERGY      -418.461938861720

DIPOLE MOMENT
-------------
                                X             Y             Z
Electronic contribution:      6.79781      -2.64030      -2.63390
Nuclear contribution   :     -8.13148       3.40345       2.67685
                        -----------------------------------------
Total Dipole Moment    :     -1.33367       0.76315       0.04295
                        -----------------------------------------
Magnitude (a.u.)       :      1.53718
Magnitude (Debye)      :      3.90719

                             ****ORCA TERMINATED NORMALLY****
TOTAL RUN TIME: 0 days 0 hours 17 minutes 0 seconds 855 msec
