                         Program Version 3.0.3 - RELEASE   -
|  1> ! RI-MP2 RIJK def2-TZVP def2-TZVP/C def2-TZVP/JK TIGHTSCF
|  2> % maxcore 2000
|  3> % mp2 density relaxed end
|  4> *xyz 0 1
|  5>  O        0.0730899901     1.3334675816     0.0867504744
|  6>  C        0.0628259261    -0.0071631506     0.0574567013
|  7>  N        0.0970507924    -0.5938952432    -1.1362086334
|  8>  C        0.0872504150    -1.9240621626    -1.1769286533
|  9>  C        0.0430164219    -2.7269243053    -0.0328042326
| 10>  C        0.0073829007    -2.0841434479     1.2181752448
| 11>  C        0.0171467189    -0.7068730044     1.2720510433
| 12>  C        0.0346689283    -4.1482441853    -0.1411361959
| 13>  N        0.0278983961    -5.3030134256    -0.2294875909
| 14>  H        0.1057810205     1.6277474722    -0.8352145050
| 15>  H        0.1156953182    -2.3817227945    -2.1613894662
| 16>  H       -0.0273479664    -2.6737826134     2.1269270521
| 17>  H       -0.0090146718    -0.1647183511     2.2084489013
| 18> *
| 19>
| 20>                          ****END OF INPUT****

CARTESIAN COORDINATES (ANGSTROEM)
---------------------------------
  O      0.073090    1.333468    0.086750
  C      0.062826   -0.007163    0.057457
  N      0.097051   -0.593895   -1.136209
  C      0.087250   -1.924062   -1.176929
  C      0.043016   -2.726924   -0.032804
  C      0.007383   -2.084143    1.218175
  C      0.017147   -0.706873    1.272051
  C      0.034669   -4.148244   -0.141136
  N      0.027898   -5.303013   -0.229488
  H      0.105781    1.627747   -0.835215
  H      0.115695   -2.381723   -2.161389
  H     -0.027348   -2.673783    2.126927
  H     -0.009015   -0.164718    2.208449

 Total Charge           Charge          ....    0
 Multiplicity           Mult            ....    1
 Number of Electrons    NEL             ....   62
 Basis Dimension        Dim             ....  303

ORBITAL ENERGIES
----------------

  NO   OCC          E(Eh)            E(eV)
   0   2.0000     -20.622325      -561.1620
   1   2.0000     -15.592646      -424.2975
   2   2.0000     -15.576324      -423.8533
   3   2.0000     -11.376239      -309.5632
   4   2.0000     -11.321778      -308.0813
   5   2.0000     -11.299733      -307.4814
   6   2.0000     -11.288838      -307.1849
   7   2.0000     -11.281999      -306.9988
   8   2.0000     -11.265067      -306.5380
   9   2.0000      -1.456933       -39.6452
  10   2.0000      -1.288901       -35.0728
  11   2.0000      -1.224168       -33.3113
  12   2.0000      -1.132159       -30.8076
  13   2.0000      -1.070591       -29.1323
  14   2.0000      -0.912889       -24.8410
  15   2.0000      -0.911504       -24.8033
  16   2.0000      -0.783134       -21.3102
  17   2.0000      -0.774366       -21.0716
  18   2.0000      -0.734113       -19.9762
  19   2.0000      -0.653237       -17.7755
  20   2.0000      -0.643295       -17.5050
  21   2.0000      -0.629661       -17.1339
  22   2.0000      -0.620567       -16.8865
  23   2.0000      -0.583633       -15.8815
  24   2.0000      -0.560042       -15.2395
  25   2.0000      -0.559332       -15.2202
  26   2.0000      -0.492330       -13.3970
  27   2.0000      -0.484758       -13.1909
  28   2.0000      -0.455179       -12.3861
  29   2.0000      -0.419008       -11.4018
  30   2.0000      -0.353368        -9.6156
  31   0.0000       0.074852         2.0368
  32   0.0000       0.081041         2.2052
  33   0.0000       0.136454         3.7131
  34   0.0000       0.144023         3.9191
  35   0.0000       0.164204         4.4682

MULLIKEN ATOMIC CHARGES
-----------------------
   0 O :   -0.399090
   1 C :    0.300012
   2 N :   -0.276269
   3 C :   -0.100587
   4 C :    0.255329
   5 C :   -0.199893
   6 C :   -0.153505
   7 C :   -0.187545
   8 N :   -0.048010
   9 H :    0.344025
  10 H :    0.153271
  11 H :    0.157325
  12 H :    0.154938
Sum of atomic charges:    0.0000000

LOEWDIN ATOMIC CHARGES
----------------------
   0 O :    0.102246
   1 C :   -0.357516
   2 N :    0.145257
   3 C :   -0.157014
   4 C :   -0.160500
   5 C :   -0.075514
   6 C :   -0.101347
   7 C :   -0.150846
   8 N :    0.078845
   9 H :    0.203262
  10 H :    0.151753
  11 H :    0.161209
  12 H :    0.160166

  Mayer bond orders larger than 0.1
B(  0-O ,  1-C ) :   1.1464 B(  0-O ,  9-H ) :   0.8073 B(  1-C ,  2-N ) :   1.3465
B(  1-C ,  6-C ) :   1.2867 B(  2-N ,  3-C ) :   1.4188 B(  3-C ,  4-C ) :   1.2982
B(  3-C , 10-H ) :   0.9378 B(  4-C ,  5-C ) :   1.2512 B(  4-C ,  7-C ) :   0.8891
B(  5-C ,  6-C ) :   1.4135 B(  5-C , 11-H ) :   0.9310 B(  6-C , 12-H ) :   0.9220
B(  7-C ,  8-N ) :   2.8457

MP2 TOTAL ENERGY:     -414.977256254 Eh
FINAL SINGLE POINT ENERGY      -414.977256254027

DIPOLE MOMENT
-------------
                                X             Y             Z
Electronic contribution:      0.01846      -1.68742      -0.99409
Nuclear contribution   :     -0.01760       3.04011       1.31322
                        -----------------------------------------
Total Dipole Moment    :      0.00086       1.35269       0.31913
                        -----------------------------------------
Magnitude (a.u.)       :      1.38982
Magnitude (Debye)      :      3.53265

                             ****ORCA TERMINATED NORMALLY****
TOTAL RUN TIME: 0 days 0 hours 13 minutes 41 seconds 162 msec
