                         Program Version 3.0.3 - RELEASE   -
|  1> ! RI-MP2 RIJK def2-TZVP def2-TZVP/C def2-TZVP/JK TIGHTSCF
|  2> % maxcore 2000
|  3> % mp2 density relaxed end
|  4> *xyz 0 1
|  5>  C       -0.0644261728     1.5453315873     0.0071159467
|  6>  C       -0.0532700647     0.0245877516     0.0176349722
|  7>  C        1.1235329995    -0.6320963142    -0.7528677900
|  8>  O        1.9948933412    -0.3215348268     0.3963800351
|  9>  C        0.7715982185    -0.6228898554     1.1608302020
| 10>  C        0.6661334284    -2.1580315571     0.9075338023
| 11>  C        1.1001333406    -3.1672266088     1.9243848467
| 12>  O       -0.3763731182    -2.5242061879    -0.0191448092
| 13>  C        0.9159205113    -2.1515392940    -0.5342413952
| 14>  H        0.9345224291     1.9487652378     0.1880205341
| 15>  H       -0.4211492081     1.9215472173    -0.9577954156
| 16>  H       -0.7393138394     1.9309272205     0.7789547821
| 17>  H       -1.0417778646    -0.3961671147    -0.1613296923
| 18>  H        1.5073771612    -0.2751382487    -1.7084561136
| 19>  H        0.7908934005    -0.2575411655     2.1882687822
| 20>  H        0.4013887575    -3.2019262394     2.7676105944
| 21>  H        1.1479069010    -4.1647740941     1.4805370939
| 22>  H        2.0893514854    -2.9064429325     2.3140580165
| 23>  H        1.4579596635    -2.9108536155    -1.0874954324
| 24> *
| 25>
| 26>                          ****END OF INPUT****

CARTESIAN COORDINATES (ANGSTROEM)
---------------------------------
  C     -0.064426    1.545332    0.007116
  C     -0.053270    0.024588    0.017635
  C      1.123533   -0.632096   -0.752868
  O      1.994893   -0.321535    0.396380
  C      0.771598   -0.622890    1.160830
  C      0.666133   -2.158032    0.907534
  C      1.100133   -3.167227    1.924385
  O     -0.376373   -2.524206   -0.019145
  C      0.915921   -2.151539   -0.534241
  H      0.934522    1.948765    0.188021
  H     -0.421149    1.921547   -0.957795
  H     -0.739314    1.930927    0.778955
  H     -1.041778   -0.396167   -0.161330
  H      1.507377   -0.275138   -1.708456
  H      0.790893   -0.257541    2.188269
  H      0.401389   -3.201926    2.767611
  H      1.147907   -4.164774    1.480537
  H      2.089351   -2.906443    2.314058
  H      1.457960   -2.910854   -1.087495

 Total Charge           Charge          ....    0
 Multiplicity           Mult            ....    1
 Number of Electrons    NEL             ....   68
 Basis Dimension        Dim             ....  339

ORBITAL ENERGIES
----------------

  NO   OCC          E(Eh)            E(eV)
   0   2.0000     -20.570238      -559.7446
   1   2.0000     -20.553234      -559.2819
   2   2.0000     -11.296596      -307.3960
   3   2.0000     -11.295199      -307.3580
   4   2.0000     -11.293515      -307.3122
   5   2.0000     -11.285640      -307.0979
   6   2.0000     -11.238100      -305.8043
   7   2.0000     -11.230639      -305.6012
   8   2.0000     -11.216872      -305.2266
   9   2.0000      -1.428362       -38.8677
  10   2.0000      -1.372023       -37.3346
  11   2.0000      -1.058235       -28.7960
  12   2.0000      -1.025403       -27.9026
  13   2.0000      -0.975938       -26.5566
  14   2.0000      -0.933318       -25.3969
  15   2.0000      -0.873628       -23.7726
  16   2.0000      -0.772377       -21.0174
  17   2.0000      -0.747118       -20.3301
  18   2.0000      -0.699798       -19.0425
  19   2.0000      -0.687886       -18.7183
  20   2.0000      -0.633149       -17.2289
  21   2.0000      -0.601635       -16.3713
  22   2.0000      -0.582489       -15.8503
  23   2.0000      -0.578104       -15.7310
  24   2.0000      -0.555284       -15.1101
  25   2.0000      -0.545974       -14.8567
  26   2.0000      -0.530579       -14.4378
  27   2.0000      -0.524802       -14.2806
  28   2.0000      -0.511803       -13.9269
  29   2.0000      -0.490560       -13.3488
  30   2.0000      -0.463375       -12.6091
  31   2.0000      -0.440923       -11.9981
  32   2.0000      -0.423284       -11.5181
  33   2.0000      -0.393880       -10.7180
  34   0.0000       0.140578         3.8253
  35   0.0000       0.150106         4.0846
  36   0.0000       0.166170         4.5217
  37   0.0000       0.181395         4.9360
  38   0.0000       0.190826         5.1926

MULLIKEN ATOMIC CHARGES
-----------------------
   0 C :   -0.458496
   1 C :   -0.036776
   2 C :    0.022905
   3 O :   -0.322076
   4 C :   -0.000346
   5 C :    0.194149
   6 C :   -0.433918
   7 O :   -0.331000
   8 C :   -0.035565
   9 H :    0.156450
  10 H :    0.133250
  11 H :    0.132352
  12 H :    0.140432
  13 H :    0.134912
  14 H :    0.133214
  15 H :    0.139169
  16 H :    0.146116
  17 H :    0.148455
  18 H :    0.136772
Sum of atomic charges:    0.0000000

LOEWDIN ATOMIC CHARGES
----------------------
   0 C :   -0.294280
   1 C :   -0.212384
   2 C :   -0.208090
   3 O :    0.145160
   4 C :   -0.186257
   5 C :   -0.289583
   6 C :   -0.267381
   7 O :    0.179138
   8 C :   -0.210152
   9 H :    0.131006
  10 H :    0.125544
  11 H :    0.125484
  12 H :    0.150895
  13 H :    0.133484
  14 H :    0.135153
  15 H :    0.131740
  16 H :    0.135414
  17 H :    0.138307
  18 H :    0.136801

  Mayer bond orders larger than 0.1
B(  0-C ,  1-C ) :   0.8761 B(  0-C ,  9-H ) :   0.9437 B(  0-C , 10-H ) :   0.9388
B(  0-C , 11-H ) :   0.9383 B(  1-C ,  2-C ) :   0.9407 B(  1-C ,  4-C ) :   0.9416
B(  1-C , 12-H ) :   0.8996 B(  2-C ,  3-O ) :   0.9024 B(  2-C ,  8-C ) :   0.8619
B(  2-C , 13-H ) :   0.9060 B(  3-O ,  4-C ) :   0.9008 B(  4-C ,  5-C ) :   0.9301
B(  4-C , 14-H ) :   0.8988 B(  5-C ,  6-C ) :   0.8681 B(  5-C ,  7-O ) :   0.9145
B(  5-C ,  8-C ) :   0.9267 B(  6-C , 15-H ) :   0.9392 B(  6-C , 16-H ) :   0.9408
B(  6-C , 17-H ) :   0.9344 B(  7-O ,  8-C ) :   0.9220 B(  8-C , 18-H ) :   0.9248

MP2 TOTAL ENERGY:     -422.267651115 Eh
FINAL SINGLE POINT ENERGY      -422.267651114753

DIPOLE MOMENT
-------------
                                X             Y             Z
Electronic contribution:      0.60726      -2.59185      -2.03210
Nuclear contribution   :     -0.61623       2.59901       2.11612
                        -----------------------------------------
Total Dipole Moment    :     -0.00897       0.00716       0.08402
                        -----------------------------------------
Magnitude (a.u.)       :      0.08480
Magnitude (Debye)      :      0.21555

                             ****ORCA TERMINATED NORMALLY****
TOTAL RUN TIME: 0 days 0 hours 18 minutes 40 seconds 298 msec
