                         Program Version 3.0.3 - RELEASE   -
|  1> ! RI-MP2 RIJK def2-TZVP def2-TZVP/C def2-TZVP/JK TIGHTSCF
|  2> % maxcore 2000
|  3> % mp2 density relaxed end
|  4> *xyz 0 1
|  5>  O        0.0678487782     1.3480418265    -0.3743986976
|  6>  C        0.0439009483     0.0306877432     0.1569873761
|  7>  C       -1.3412562804    -0.5073210903     0.2592725874
|  8>  C       -1.9613951446    -1.8436329486     0.0901882736
|  9>  C       -2.8998966694    -1.6279081096     1.2757607725
| 10>  C       -2.6614084790    -0.1113811124     1.0428124076
| 11>  C       -3.2691731015     0.0980265366    -0.3502327032
| 12>  N       -2.1951338580    -0.7687397229    -0.9444263166
| 13>  H       -0.3422413613     1.2953700245    -1.2452725167
| 14>  H        0.6453063796    -0.6626511942    -0.4519045990
| 15>  H        0.5111571335     0.0932066612     1.1456100794
| 16>  H       -1.5227260353    -2.7623447680    -0.2775780479
| 17>  H       -3.9304861662    -1.9935776469     1.2116229728
| 18>  H       -2.4371508038    -1.9810019358     2.2007604593
| 19>  H       -2.7688879984     0.6084939673     1.8512505423
| 20>  H       -4.2969750843    -0.2420316143    -0.5255083745
| 21>  H       -3.1417162774     1.1127098437    -0.7345237256
| 22> *
| 23>
| 24>                          ****END OF INPUT****

CARTESIAN COORDINATES (ANGSTROEM)
---------------------------------
  O      0.067849    1.348042   -0.374399
  C      0.043901    0.030688    0.156987
  C     -1.341256   -0.507321    0.259273
  C     -1.961395   -1.843633    0.090188
  C     -2.899897   -1.627908    1.275761
  C     -2.661408   -0.111381    1.042812
  C     -3.269173    0.098027   -0.350233
  N     -2.195134   -0.768740   -0.944426
  H     -0.342241    1.295370   -1.245273
  H      0.645306   -0.662651   -0.451905
  H      0.511157    0.093207    1.145610
  H     -1.522726   -2.762345   -0.277578
  H     -3.930486   -1.993578    1.211623
  H     -2.437151   -1.981002    2.200760
  H     -2.768888    0.608494    1.851251
  H     -4.296975   -0.242032   -0.525508
  H     -3.141716    1.112710   -0.734524

 Total Charge           Charge          ....    0
 Multiplicity           Mult            ....    1
 Number of Electrons    NEL             ....   60
 Basis Dimension        Dim             ....  302

ORBITAL ENERGIES
----------------

  NO   OCC          E(Eh)            E(eV)
   0   2.0000     -20.556025      -559.3579
   1   2.0000     -15.563916      -423.5157
   2   2.0000     -11.284335      -307.0624
   3   2.0000     -11.266897      -306.5879
   4   2.0000     -11.266002      -306.5635
   5   2.0000     -11.256086      -306.2937
   6   2.0000     -11.246051      -306.0206
   7   2.0000     -11.237443      -305.7864
   8   2.0000      -1.362439       -37.0739
   9   2.0000      -1.315718       -35.8025
  10   2.0000      -1.031414       -28.0662
  11   2.0000      -0.999976       -27.2107
  12   2.0000      -0.963372       -26.2147
  13   2.0000      -0.848079       -23.0774
  14   2.0000      -0.772317       -21.0158
  15   2.0000      -0.733639       -19.9633
  16   2.0000      -0.705100       -19.1867
  17   2.0000      -0.670976       -18.2582
  18   2.0000      -0.626736       -17.0543
  19   2.0000      -0.616579       -16.7780
  20   2.0000      -0.611229       -16.6324
  21   2.0000      -0.588831       -16.0229
  22   2.0000      -0.529915       -14.4197
  23   2.0000      -0.513496       -13.9729
  24   2.0000      -0.491704       -13.3799
  25   2.0000      -0.481929       -13.1140
  26   2.0000      -0.439976       -11.9724
  27   2.0000      -0.429206       -11.6793
  28   2.0000      -0.414216       -11.2714
  29   2.0000      -0.373213       -10.1556
  30   0.0000       0.143095         3.8938
  31   0.0000       0.154046         4.1918
  32   0.0000       0.160753         4.3743
  33   0.0000       0.178020         4.8442
  34   0.0000       0.187720         5.1081

MULLIKEN ATOMIC CHARGES
-----------------------
   0 O :   -0.471084
   1 C :    0.001504
   2 C :    0.019686
   3 C :   -0.125417
   4 C :   -0.211341
   5 C :   -0.104802
   6 C :   -0.116982
   7 N :   -0.280860
   8 H :    0.322497
   9 H :    0.116151
  10 H :    0.112342
  11 H :    0.130940
  12 H :    0.114545
  13 H :    0.125553
  14 H :    0.138737
  15 H :    0.107351
  16 H :    0.121180
Sum of atomic charges:    0.0000000

LOEWDIN ATOMIC CHARGES
----------------------
   0 O :   -0.045268
   1 C :   -0.317924
   2 C :   -0.208664
   3 C :   -0.190138
   4 C :   -0.207440
   5 C :   -0.161216
   6 C :   -0.233879
   7 N :    0.127524
   8 H :    0.178594
   9 H :    0.130757
  10 H :    0.136948
  11 H :    0.135718
  12 H :    0.125685
  13 H :    0.143543
  14 H :    0.133439
  15 H :    0.120026
  16 H :    0.132294

  Mayer bond orders larger than 0.1
B(  0-O ,  1-C ) :   0.9280 B(  0-O ,  8-H ) :   0.8386 B(  1-C ,  2-C ) :   0.8463
B(  1-C ,  9-H ) :   0.9601 B(  1-C , 10-H ) :   0.9155 B(  2-C ,  3-C ) :   0.8308
B(  2-C ,  5-C ) :   0.8733 B(  2-C ,  7-N ) :   0.7834 B(  3-C ,  4-C ) :   0.9356
B(  3-C ,  7-N ) :   0.9408 B(  3-C , 11-H ) :   0.9323 B(  4-C ,  5-C ) :   0.9355
B(  4-C , 12-H ) :   0.9205 B(  4-C , 13-H ) :   0.9171 B(  5-C ,  6-C ) :   0.9506
B(  5-C , 14-H ) :   0.9097 B(  6-C ,  7-N ) :   0.9005 B(  6-C , 15-H ) :   0.9166
B(  6-C , 16-H ) :   0.9339

MP2 TOTAL ENERGY:     -363.175561749 Eh
FINAL SINGLE POINT ENERGY      -363.175561748852

DIPOLE MOMENT
-------------
                                X             Y             Z
Electronic contribution:      1.22268       0.66290      -1.46359
Nuclear contribution   :     -1.58311      -1.08702       1.92372
                        -----------------------------------------
Total Dipole Moment    :     -0.36043      -0.42412       0.46013
                        -----------------------------------------
Magnitude (a.u.)       :      0.72215
Magnitude (Debye)      :      1.83557

                             ****ORCA TERMINATED NORMALLY****
TOTAL RUN TIME: 0 days 0 hours 13 minutes 14 seconds 900 msec
