                         Program Version 3.0.3 - RELEASE   -
|  1> ! RI-MP2 RIJK def2-TZVP def2-TZVP/C def2-TZVP/JK TIGHTSCF
|  2> % maxcore 2000
|  3> % mp2 density relaxed end
|  4> *xyz 0 1
|  5>  C        0.0134581862     1.5283435944     0.0333824925
|  6>  C       -0.0507569640     0.0049059308     0.0007502979
|  7>  O        0.7661704609    -0.5814412344     1.0204786520
|  8>  C       -1.4837352725    -0.5206068660     0.1064504238
|  9>  N       -1.4655350882    -1.9691899648     0.1100217310
| 10>  C       -2.6278823781    -2.6797059008    -0.0711829304
| 11>  N       -2.4970924132    -4.0453436895     0.1708019639
| 12>  O       -3.6834558490    -2.1670116445    -0.3964461636
| 13>  H        1.0519419917     1.8648036910    -0.0215208535
| 14>  H       -0.5388602177     1.9640304666    -0.8051033117
| 15>  H       -0.4265035532     1.9186312767     0.9597343620
| 16>  H        0.3847095548    -0.3646763581    -0.9347571482
| 17>  H        0.5091743658    -0.1852350771     1.8614561082
| 18>  H       -1.9551226449    -0.1152108311     1.0180766495
| 19>  H       -2.0903247117    -0.1815391252    -0.7370701830
| 20>  H       -0.7198828887    -2.3741051238     0.6567114995
| 21>  H       -1.5996023619    -4.4644927441    -0.0238277821
| 22>  H       -3.2770862863    -4.5707528301    -0.1947663478
| 23> *
| 24>
| 25>                          ****END OF INPUT****

CARTESIAN COORDINATES (ANGSTROEM)
---------------------------------
  C      0.013458    1.528344    0.033382
  C     -0.050757    0.004906    0.000750
  O      0.766170   -0.581441    1.020479
  C     -1.483735   -0.520607    0.106450
  N     -1.465535   -1.969190    0.110022
  C     -2.627882   -2.679706   -0.071183
  N     -2.497092   -4.045344    0.170802
  O     -3.683456   -2.167012   -0.396446
  H      1.051942    1.864804   -0.021521
  H     -0.538860    1.964030   -0.805103
  H     -0.426504    1.918631    0.959734
  H      0.384710   -0.364676   -0.934757
  H      0.509174   -0.185235    1.861456
  H     -1.955123   -0.115211    1.018077
  H     -2.090325   -0.181539   -0.737070
  H     -0.719883   -2.374105    0.656711
  H     -1.599602   -4.464493   -0.023828
  H     -3.277086   -4.570753   -0.194766

 Total Charge           Charge          ....    0
 Multiplicity           Mult            ....    1
 Number of Electrons    NEL             ....   64
 Basis Dimension        Dim             ....  308

ORBITAL ENERGIES
----------------

  NO   OCC          E(Eh)            E(eV)
   0   2.0000     -20.568558      -559.6989
   1   2.0000     -20.505812      -557.9915
   2   2.0000     -15.574446      -423.8022
   3   2.0000     -15.573724      -423.7826
   4   2.0000     -11.369516      -309.3803
   5   2.0000     -11.291531      -307.2582
   6   2.0000     -11.261976      -306.4539
   7   2.0000     -11.229267      -305.5639
   8   2.0000      -1.387418       -37.7536
   9   2.0000      -1.373677       -37.3796
  10   2.0000      -1.235763       -33.6268
  11   2.0000      -1.186779       -32.2939
  12   2.0000      -1.044462       -28.4213
  13   2.0000      -0.942414       -25.6444
  14   2.0000      -0.832667       -22.6580
  15   2.0000      -0.800163       -21.7736
  16   2.0000      -0.738817       -20.1042
  17   2.0000      -0.707051       -19.2398
  18   2.0000      -0.662652       -18.0317
  19   2.0000      -0.661518       -18.0008
  20   2.0000      -0.623808       -16.9747
  21   2.0000      -0.610380       -16.6093
  22   2.0000      -0.605934       -16.4883
  23   2.0000      -0.583075       -15.8663
  24   2.0000      -0.555119       -15.1055
  25   2.0000      -0.541508       -14.7352
  26   2.0000      -0.528138       -14.3714
  27   2.0000      -0.488890       -13.3034
  28   2.0000      -0.458886       -12.4869
  29   2.0000      -0.441406       -12.0113
  30   2.0000      -0.421481       -11.4691
  31   2.0000      -0.394551       -10.7363
  32   0.0000       0.122802         3.3416
  33   0.0000       0.132699         3.6109
  34   0.0000       0.161709         4.4003
  35   0.0000       0.177555         4.8315
  36   0.0000       0.186580         5.0771

MULLIKEN ATOMIC CHARGES
-----------------------
   0 C :   -0.404496
   1 C :    0.106752
   2 O :   -0.487815
   3 C :   -0.155365
   4 N :   -0.347968
   5 C :    0.392078
   6 N :   -0.530644
   7 O :   -0.404065
   8 H :    0.152542
   9 H :    0.135239
  10 H :    0.119851
  11 H :    0.097475
  12 H :    0.316616
  13 H :    0.110981
  14 H :    0.144920
  15 H :    0.241740
  16 H :    0.249098
  17 H :    0.263060
Sum of atomic charges:   -0.0000000

LOEWDIN ATOMIC CHARGES
----------------------
   0 C :   -0.301721
   1 C :   -0.373365
   2 O :   -0.033607
   3 C :   -0.272233
   4 N :    0.075199
   5 C :   -0.574526
   6 N :   -0.075519
   7 O :    0.050569
   8 H :    0.128556
   9 H :    0.130678
  10 H :    0.122684
  11 H :    0.145975
  12 H :    0.175593
  13 H :    0.129274
  14 H :    0.148076
  15 H :    0.184993
  16 H :    0.165158
  17 H :    0.174218

  Mayer bond orders larger than 0.1
B(  0-C ,  1-C ) :   0.9494 B(  0-C ,  8-H ) :   0.9406 B(  0-C ,  9-H ) :   0.9324
B(  0-C , 10-H ) :   0.9169 B(  1-C ,  2-O ) :   0.8742 B(  1-C ,  3-C ) :   0.9376
B(  1-C , 11-H ) :   0.9178 B(  2-O , 12-H ) :   0.8409 B(  3-C ,  4-N ) :   0.8894
B(  3-C , 13-H ) :   0.9223 B(  3-C , 14-H ) :   0.9265 B(  4-N ,  5-C ) :   1.1108
B(  4-N , 15-H ) :   0.8584 B(  5-C ,  6-N ) :   1.0744 B(  5-C ,  7-O ) :   1.9214
B(  6-N , 16-H ) :   0.8723 B(  6-N , 17-H ) :   0.8709

MP2 TOTAL ENERGY:     -417.647891522 Eh
FINAL SINGLE POINT ENERGY      -417.647891522319

DIPOLE MOMENT
-------------
                                X             Y             Z
Electronic contribution:     -3.64846      -6.12066      -0.10148
Nuclear contribution   :      4.62949       6.16683       0.36019
                        -----------------------------------------
Total Dipole Moment    :      0.98103       0.04617       0.25871
                        -----------------------------------------
Magnitude (a.u.)       :      1.01562
Magnitude (Debye)      :      2.58149

                             ****ORCA TERMINATED NORMALLY****
TOTAL RUN TIME: 0 days 0 hours 11 minutes 2 seconds 733 msec
