                         Program Version 3.0.3 - RELEASE   -
|  1> ! RI-MP2 RIJK def2-TZVP def2-TZVP/C def2-TZVP/JK TIGHTSCF
|  2> % maxcore 2000
|  3> % mp2 density relaxed end
|  4> *xyz 0 1
|  5>  C        0.0685976127     1.6504023893     0.0402442035
|  6>  C        0.0467723336     0.1310367025     0.0186822261
|  7>  C        1.0401164053    -0.6159787796    -0.9142102901
|  8>  C        1.2888396640    -1.6626110641     0.2183046177
|  9>  N        2.6875370175    -1.9973684070     0.4627415594
| 10>  C        0.6612905161    -0.6408527576     1.2193524655
| 11>  C        0.4376988696    -2.8533852230     0.0532893564
| 12>  N       -0.1962262358    -3.8136442348    -0.0704785354
| 13>  H        1.0811350690     2.0264538418     0.2245433718
| 14>  H       -0.2742277743     2.0650879165    -0.9140492129
| 15>  H       -0.5836379076     2.0448471151     0.8271156218
| 16>  H       -0.9717013787    -0.2253886333    -0.1663031217
| 17>  H        0.6735057894    -0.9886270727    -1.8720861147
| 18>  H        1.9616999384    -0.0475257554    -1.0661526378
| 19>  H        2.7638559962    -2.5776386332     1.2951895374
| 20>  H        3.0480791629    -2.5588829477    -0.3055154699
| 21>  H        1.4719633889    -0.0796781626     1.6920395489
| 22>  H       -0.0111315673    -1.0335806442     1.9838194641
| 23> *
| 24>
| 25>                          ****END OF INPUT****

CARTESIAN COORDINATES (ANGSTROEM)
---------------------------------
  C      0.068598    1.650402    0.040244
  C      0.046772    0.131037    0.018682
  C      1.040116   -0.615979   -0.914210
  C      1.288840   -1.662611    0.218305
  N      2.687537   -1.997368    0.462742
  C      0.661291   -0.640853    1.219352
  C      0.437699   -2.853385    0.053289
  N     -0.196226   -3.813644   -0.070479
  H      1.081135    2.026454    0.224543
  H     -0.274228    2.065088   -0.914049
  H     -0.583638    2.044847    0.827116
  H     -0.971701   -0.225389   -0.166303
  H      0.673506   -0.988627   -1.872086
  H      1.961700   -0.047526   -1.066153
  H      2.763856   -2.577639    1.295190
  H      3.048079   -2.558883   -0.305515
  H      1.471963   -0.079678    1.692040
  H     -0.011132   -1.033581    1.983819

 Total Charge           Charge          ....    0
 Multiplicity           Mult            ....    1
 Number of Electrons    NEL             ....   60
 Basis Dimension        Dim             ....  308

ORBITAL ENERGIES
----------------

  NO   OCC          E(Eh)            E(eV)
   0   2.0000     -15.568545      -423.6416
   1   2.0000     -15.568317      -423.6354
   2   2.0000     -11.312725      -307.8349
   3   2.0000     -11.267812      -306.6127
   4   2.0000     -11.245310      -306.0005
   5   2.0000     -11.242976      -305.9369
   6   2.0000     -11.242909      -305.9351
   7   2.0000     -11.225103      -305.4506
   8   2.0000      -1.241478       -33.7823
   9   2.0000      -1.201314       -32.6894
  10   2.0000      -1.129288       -30.7295
  11   2.0000      -0.994888       -27.0723
  12   2.0000      -0.926209       -25.2034
  13   2.0000      -0.882443       -24.0125
  14   2.0000      -0.788959       -21.4687
  15   2.0000      -0.704910       -19.1816
  16   2.0000      -0.676632       -18.4121
  17   2.0000      -0.654426       -17.8078
  18   2.0000      -0.629112       -17.1190
  19   2.0000      -0.586148       -15.9499
  20   2.0000      -0.567011       -15.4291
  21   2.0000      -0.562616       -15.3096
  22   2.0000      -0.546607       -14.8739
  23   2.0000      -0.515324       -14.0227
  24   2.0000      -0.505064       -13.7435
  25   2.0000      -0.482931       -13.1412
  26   2.0000      -0.458768       -12.4837
  27   2.0000      -0.446604       -12.1527
  28   2.0000      -0.438160       -11.9229
  29   2.0000      -0.423966       -11.5367
  30   0.0000       0.120818         3.2876
  31   0.0000       0.133655         3.6369
  32   0.0000       0.157538         4.2868
  33   0.0000       0.162798         4.4300
  34   0.0000       0.175094         4.7645

MULLIKEN ATOMIC CHARGES
-----------------------
   0 C :   -0.426369
   1 C :   -0.035627
   2 C :   -0.263289
   3 C :    0.363124
   4 N :   -0.533438
   5 C :   -0.263287
   6 C :   -0.316895
   7 N :   -0.055342
   8 H :    0.126825
   9 H :    0.135761
  10 H :    0.135762
  11 H :    0.122629
  12 H :    0.140524
  13 H :    0.126389
  14 H :    0.238161
  15 H :    0.238161
  16 H :    0.126389
  17 H :    0.140523
Sum of atomic charges:    0.0000000

LOEWDIN ATOMIC CHARGES
----------------------
   0 C :   -0.300057
   1 C :   -0.251400
   2 C :   -0.161219
   3 C :   -0.328255
   4 N :   -0.108339
   5 C :   -0.161219
   6 C :   -0.165275
   7 N :    0.056930
   8 H :    0.124315
   9 H :    0.126373
  10 H :    0.126370
  11 H :    0.153734
  12 H :    0.133406
  13 H :    0.146586
  14 H :    0.164030
  15 H :    0.164031
  16 H :    0.146584
  17 H :    0.133405

  Mayer bond orders larger than 0.1
B(  0-C ,  1-C ) :   0.8691 B(  0-C ,  8-H ) :   0.9403 B(  0-C ,  9-H ) :   0.9405
B(  0-C , 10-H ) :   0.9405 B(  1-C ,  2-C ) :   0.9585 B(  1-C ,  5-C ) :   0.9585
B(  1-C , 11-H ) :   0.9192 B(  2-C ,  3-C ) :   0.8556 B(  2-C , 12-H ) :   0.9216
B(  2-C , 13-H ) :   0.9145 B(  3-C ,  4-N ) :   0.9619 B(  3-C ,  5-C ) :   0.8556
B(  3-C ,  6-C ) :   0.9706 B(  4-N , 14-H ) :   0.8901 B(  4-N , 15-H ) :   0.8901
B(  5-C , 16-H ) :   0.9145 B(  5-C , 17-H ) :   0.9216 B(  6-C ,  7-N ) :   2.8778

MP2 TOTAL ENERGY:     -343.386924478 Eh
FINAL SINGLE POINT ENERGY      -343.386924478262

DIPOLE MOMENT
-------------
                                X             Y             Z
Electronic contribution:     -0.65833      -8.87206      -0.22026
Nuclear contribution   :      1.21560       9.82401       0.33028
                        -----------------------------------------
Total Dipole Moment    :      0.55727       0.95195       0.11002
                        -----------------------------------------
Magnitude (a.u.)       :      1.10854
Magnitude (Debye)      :      2.81767

                             ****ORCA TERMINATED NORMALLY****
TOTAL RUN TIME: 0 days 0 hours 14 minutes 1 seconds 953 msec
