                         Program Version 3.0.3 - RELEASE   -
|  1> ! RI-MP2 RIJK def2-TZVP def2-TZVP/C def2-TZVP/JK TIGHTSCF
|  2> % maxcore 2000
|  3> % mp2 density relaxed end
|  4> *xyz 0 1
|  5>  C       -0.0022234040     1.5744025638     0.0213567804
|  6>  C        0.0447695926     0.0397416859     0.0640581649
|  7>  C        0.8108281375    -0.4263290595     1.3105133249
|  8>  C       -1.3750052014    -0.5661196105    -0.0034039739
|  9>  C       -2.1745979290    -0.1667067545    -1.2764046421
| 10>  C       -3.0355000819    -1.3977712533    -1.6395521637
| 11>  C       -2.3282735908    -2.5397375366    -0.9396965767
| 12>  C       -2.6774484876    -3.9678392992    -1.2173330834
| 13>  C       -1.4395620611    -2.0787297315    -0.0570050296
| 14>  H        1.0070851335     1.9980070826     0.0547028718
| 15>  H       -0.4889159329     1.9455461713    -0.8852008950
| 16>  H       -0.5552393838     1.9699520543     0.8823552425
| 17>  H        0.5914809289    -0.3112204492    -0.8236341529
| 18>  H        0.2826486993    -0.1331229282     2.2261815808
| 19>  H        0.9413515862    -1.5118239002     1.3337213768
| 20>  H        1.8075998659     0.0260226180     1.3471774563
| 21>  H       -1.9109165941    -0.2168850722     0.8963676887
| 22>  H       -2.7667948103     0.7417914755    -1.1412020378
| 23>  H       -1.4657487327     0.0280572629    -2.0898855211
| 24>  H       -4.0657748233    -1.3035907912    -1.2650571596
| 25>  H       -3.1212468197    -1.5505530571    -2.7225485405
| 26>  H       -2.5140336374    -4.2176396747    -2.2737193128
| 27>  H       -2.0845529451    -4.6565751203    -0.6091050145
| 28>  H       -3.7388111045    -4.1636388744    -1.0153185478
| 29>  H       -0.8501821343    -2.7140029620     0.5957949943
| 30> *
| 31>
| 32>                          ****END OF INPUT****

CARTESIAN COORDINATES (ANGSTROEM)
---------------------------------
  C     -0.002223    1.574403    0.021357
  C      0.044770    0.039742    0.064058
  C      0.810828   -0.426329    1.310513
  C     -1.375005   -0.566120   -0.003404
  C     -2.174598   -0.166707   -1.276405
  C     -3.035500   -1.397771   -1.639552
  C     -2.328274   -2.539738   -0.939697
  C     -2.677448   -3.967839   -1.217333
  C     -1.439562   -2.078730   -0.057005
  H      1.007085    1.998007    0.054703
  H     -0.488916    1.945546   -0.885201
  H     -0.555239    1.969952    0.882355
  H      0.591481   -0.311220   -0.823634
  H      0.282649   -0.133123    2.226182
  H      0.941352   -1.511824    1.333721
  H      1.807600    0.026023    1.347177
  H     -1.910917   -0.216885    0.896368
  H     -2.766795    0.741791   -1.141202
  H     -1.465749    0.028057   -2.089886
  H     -4.065775   -1.303591   -1.265057
  H     -3.121247   -1.550553   -2.722549
  H     -2.514034   -4.217640   -2.273719
  H     -2.084553   -4.656575   -0.609105
  H     -3.738811   -4.163639   -1.015319
  H     -0.850182   -2.714003    0.595795

 Total Charge           Charge          ....    0
 Multiplicity           Mult            ....    1
 Number of Electrons    NEL             ....   70
 Basis Dimension        Dim             ....  375

ORBITAL ENERGIES
----------------

  NO   OCC          E(Eh)            E(eV)
   0   2.0000     -11.223322      -305.4021
   1   2.0000     -11.221375      -305.3491
   2   2.0000     -11.220473      -305.3246
   3   2.0000     -11.218534      -305.2718
   4   2.0000     -11.217698      -305.2491
   5   2.0000     -11.213830      -305.1438
   6   2.0000     -11.207308      -304.9664
   7   2.0000     -11.207010      -304.9582
   8   2.0000     -11.206518      -304.9449
   9   2.0000      -1.137231       -30.9456
  10   2.0000      -1.066162       -29.0118
  11   2.0000      -0.996086       -27.1049
  12   2.0000      -0.949253       -25.8305
  13   2.0000      -0.922703       -25.1080
  14   2.0000      -0.896313       -24.3899
  15   2.0000      -0.806942       -21.9580
  16   2.0000      -0.751735       -20.4557
  17   2.0000      -0.702310       -19.1108
  18   2.0000      -0.649978       -17.6868
  19   2.0000      -0.626231       -17.0406
  20   2.0000      -0.603270       -16.4158
  21   2.0000      -0.576929       -15.6990
  22   2.0000      -0.567472       -15.4417
  23   2.0000      -0.556783       -15.1508
  24   2.0000      -0.549339       -14.9483
  25   2.0000      -0.529258       -14.4018
  26   2.0000      -0.524341       -14.2680
  27   2.0000      -0.504704       -13.7337
  28   2.0000      -0.491776       -13.3819
  29   2.0000      -0.479714       -13.0537
  30   2.0000      -0.463604       -12.6153
  31   2.0000      -0.455519       -12.3953
  32   2.0000      -0.447839       -12.1863
  33   2.0000      -0.438852       -11.9418
  34   2.0000      -0.327726        -8.9179
  35   0.0000       0.136982         3.7275
  36   0.0000       0.147206         4.0057
  37   0.0000       0.160499         4.3674
  38   0.0000       0.162569         4.4237
  39   0.0000       0.174280         4.7424

MULLIKEN ATOMIC CHARGES
-----------------------
   0 C :   -0.400505
   1 C :   -0.038207
   2 C :   -0.413018
   3 C :    0.035554
   4 C :   -0.288675
   5 C :   -0.161518
   6 C :    0.053313
   7 C :   -0.428703
   8 C :   -0.281440
   9 H :    0.130460
  10 H :    0.134280
  11 H :    0.120318
  12 H :    0.083943
  13 H :    0.122918
  14 H :    0.128800
  15 H :    0.129731
  16 H :    0.087293
  17 H :    0.127064
  18 H :    0.110551
  19 H :    0.108820
  20 H :    0.117140
  21 H :    0.137170
  22 H :    0.134994
  23 H :    0.135038
  24 H :    0.114680
Sum of atomic charges:    0.0000000

LOEWDIN ATOMIC CHARGES
----------------------
   0 C :   -0.293857
   1 C :   -0.287944
   2 C :   -0.294602
   3 C :   -0.213416
   4 C :   -0.215746
   5 C :   -0.215684
   6 C :   -0.191007
   7 C :   -0.276353
   8 C :   -0.125711
   9 H :    0.122161
  10 H :    0.122306
  11 H :    0.123213
  12 H :    0.150481
  13 H :    0.123377
  14 H :    0.119889
  15 H :    0.122689
  16 H :    0.155349
  17 H :    0.130937
  18 H :    0.140744
  19 H :    0.140120
  20 H :    0.135678
  21 H :    0.130087
  22 H :    0.129189
  23 H :    0.130409
  24 H :    0.137690

  Mayer bond orders larger than 0.1
B(  0-C ,  1-C ) :   0.9152 B(  0-C ,  9-H ) :   0.9418 B(  0-C , 10-H ) :   0.9390
B(  0-C , 11-H ) :   0.9310 B(  1-C ,  2-C ) :   0.9152 B(  1-C ,  3-C ) :   0.9100
B(  1-C , 12-H ) :   0.9210 B(  2-C , 13-H ) :   0.9334 B(  2-C , 14-H ) :   0.9412
B(  2-C , 15-H ) :   0.9397 B(  3-C ,  4-C ) :   0.9145 B(  3-C ,  8-C ) :   0.9081
B(  3-C , 16-H ) :   0.9093 B(  4-C ,  5-C ) :   0.9609 B(  4-C , 17-H ) :   0.9357
B(  4-C , 18-H ) :   0.9276 B(  5-C ,  6-C ) :   0.9394 B(  5-C , 19-H ) :   0.8974
B(  5-C , 20-H ) :   0.9315 B(  6-C ,  7-C ) :   0.8888 B(  6-C ,  8-C ) :   1.7622
B(  7-C , 21-H ) :   0.9370 B(  7-C , 22-H ) :   0.9486 B(  7-C , 23-H ) :   0.9264
B(  8-C , 24-H ) :   0.9206

MP2 TOTAL ENERGY:     -351.733991485 Eh
FINAL SINGLE POINT ENERGY      -351.733991484546

DIPOLE MOMENT
-------------
                                X             Y             Z
Electronic contribution:     -2.30114      -2.39254      -1.01236
Nuclear contribution   :      2.21725       2.34376       0.94293
                        -----------------------------------------
Total Dipole Moment    :     -0.08388      -0.04879      -0.06943
                        -----------------------------------------
Magnitude (a.u.)       :      0.11932
Magnitude (Debye)      :      0.30328

                             ****ORCA TERMINATED NORMALLY****
TOTAL RUN TIME: 0 days 0 hours 23 minutes 3 seconds 659 msec
