                         Program Version 3.0.3 - RELEASE   -
|  1> ! RI-MP2 RIJK def2-TZVP def2-TZVP/C def2-TZVP/JK TIGHTSCF
|  2> % maxcore 2000
|  3> % mp2 density relaxed end
|  4> *xyz 0 1
|  5>  O       -0.5373915306     0.2715943649     0.1531206841
|  6>  C       -0.0106545186     1.3548069349     0.1385331727
|  7>  C        1.3698291042     1.6418450565    -0.4086709034
|  8>  C        1.3711507889     2.8150640818    -1.3702918276
|  9>  C        1.3040247371     4.2386548434    -0.8514887169
| 10>  C        2.5716174649     3.7268886370    -1.4794359334
| 11>  N        3.6863732009     3.4846889737    -0.6076572577
| 12>  C        4.9365815452     3.0721178493    -1.2405573930
| 13>  C        4.7879544717     4.4413121720    -0.6737182397
| 14>  H       -0.5337851449     2.2511064409     0.5464986486
| 15>  H        2.0270143413     1.8858666057     0.4363603298
| 16>  H        1.7529125292     0.7298005706    -0.8768932840
| 17>  H        0.8470610064     2.6304511034    -2.3041561530
| 18>  H        0.7081793891     4.9664586433    -1.3902872617
| 19>  H        1.3290122839     4.3776325541     0.2240374214
| 20>  H        2.8138185189     4.0913648995    -2.4816512838
| 21>  H        5.5067106352     2.3138920687    -0.7118684474
| 22>  H        4.9504839443     2.9801691431    -2.3251982382
| 23>  H        4.7020865694     5.2665248653    -1.3781539459
| 24>  H        5.2468425234     4.6989775219     0.2764148589
| 25> *
| 26>
| 27>                          ****END OF INPUT****

CARTESIAN COORDINATES (ANGSTROEM)
---------------------------------
  O     -0.537392    0.271594    0.153121
  C     -0.010655    1.354807    0.138533
  C      1.369829    1.641845   -0.408671
  C      1.371151    2.815064   -1.370292
  C      1.304025    4.238655   -0.851489
  C      2.571617    3.726889   -1.479436
  N      3.686373    3.484689   -0.607657
  C      4.936582    3.072118   -1.240557
  C      4.787954    4.441312   -0.673718
  H     -0.533785    2.251106    0.546499
  H      2.027014    1.885867    0.436360
  H      1.752913    0.729801   -0.876893
  H      0.847061    2.630451   -2.304156
  H      0.708179    4.966459   -1.390287
  H      1.329012    4.377633    0.224037
  H      2.813819    4.091365   -2.481651
  H      5.506711    2.313892   -0.711868
  H      4.950484    2.980169   -2.325198
  H      4.702087    5.266525   -1.378154
  H      5.246843    4.698978    0.276415

 Total Charge           Charge          ....    0
 Multiplicity           Mult            ....    1
 Number of Electrons    NEL             ....   68
 Basis Dimension        Dim             ....  345

ORBITAL ENERGIES
----------------

  NO   OCC          E(Eh)            E(eV)
   0   2.0000     -20.548403      -559.1505
   1   2.0000     -15.571669      -423.7266
   2   2.0000     -11.323159      -308.1188
   3   2.0000     -11.270504      -306.6860
   4   2.0000     -11.263762      -306.5026
   5   2.0000     -11.263043      -306.4830
   6   2.0000     -11.245455      -306.0044
   7   2.0000     -11.234387      -305.7032
   8   2.0000     -11.233574      -305.6811
   9   2.0000      -1.387081       -37.7444
  10   2.0000      -1.288990       -35.0752
  11   2.0000      -1.156058       -31.4579
  12   2.0000      -1.016007       -27.6469
  13   2.0000      -0.927582       -25.2408
  14   2.0000      -0.854061       -23.2402
  15   2.0000      -0.828981       -22.5577
  16   2.0000      -0.792990       -21.5784
  17   2.0000      -0.767814       -20.8933
  18   2.0000      -0.704232       -19.1631
  19   2.0000      -0.684324       -18.6214
  20   2.0000      -0.651258       -17.7216
  21   2.0000      -0.637582       -17.3495
  22   2.0000      -0.618983       -16.8434
  23   2.0000      -0.578624       -15.7452
  24   2.0000      -0.561435       -15.2774
  25   2.0000      -0.539699       -14.6860
  26   2.0000      -0.534667       -14.5490
  27   2.0000      -0.527133       -14.3440
  28   2.0000      -0.493112       -13.4183
  29   2.0000      -0.477116       -12.9830
  30   2.0000      -0.440874       -11.9968
  31   2.0000      -0.422311       -11.4917
  32   2.0000      -0.390452       -10.6247
  33   2.0000      -0.382822       -10.4171
  34   0.0000       0.139523         3.7966
  35   0.0000       0.139989         3.8093
  36   0.0000       0.151942         4.1346
  37   0.0000       0.161004         4.3811
  38   0.0000       0.162836         4.4310

MULLIKEN ATOMIC CHARGES
-----------------------
   0 O :   -0.268621
   1 C :    0.094766
   2 C :   -0.185625
   3 C :   -0.098903
   4 C :   -0.279209
   5 C :   -0.055583
   6 N :   -0.224886
   7 C :   -0.172048
   8 C :   -0.180328
   9 H :    0.075186
  10 H :    0.154224
  11 H :    0.123197
  12 H :    0.128897
  13 H :    0.137259
  14 H :    0.138676
  15 H :    0.100759
  16 H :    0.135533
  17 H :    0.122640
  18 H :    0.121136
  19 H :    0.132931
Sum of atomic charges:    0.0000000

LOEWDIN ATOMIC CHARGES
----------------------
   0 O :    0.125615
   1 C :   -0.292051
   2 C :   -0.244439
   3 C :   -0.202847
   4 C :   -0.204017
   5 C :   -0.260173
   6 N :    0.115520
   7 C :   -0.259699
   8 C :   -0.259256
   9 H :    0.110293
  10 H :    0.162769
  11 H :    0.148078
  12 H :    0.150794
  13 H :    0.132654
  14 H :    0.140996
  15 H :    0.137832
  16 H :    0.125351
  17 H :    0.123460
  18 H :    0.124214
  19 H :    0.124907

  Mayer bond orders larger than 0.1
B(  0-O ,  1-C ) :   1.9977 B(  1-C ,  2-C ) :   0.8824 B(  1-C ,  9-H ) :   0.9401
B(  2-C ,  3-C ) :   0.8842 B(  2-C , 10-H ) :   0.9056 B(  2-C , 11-H ) :   0.9079
B(  3-C ,  4-C ) :   0.9027 B(  3-C ,  5-C ) :   0.8574 B(  3-C , 12-H ) :   0.9220
B(  4-C ,  5-C ) :   0.8822 B(  4-C , 13-H ) :   0.9257 B(  4-C , 14-H ) :   0.9269
B(  5-C ,  6-N ) :   0.9581 B(  5-C , 15-H ) :   0.9129 B(  6-N ,  7-C ) :   0.8684
B(  6-N ,  8-C ) :   0.8918 B(  7-C ,  8-C ) :   0.9462 B(  7-C , 16-H ) :   0.9274
B(  7-C , 17-H ) :   0.9232 B(  8-C , 18-H ) :   0.9229 B(  8-C , 19-H ) :   0.9254

MP2 TOTAL ENERGY:     -402.407086206 Eh
FINAL SINGLE POINT ENERGY      -402.407086205615

DIPOLE MOMENT
-------------
                                X             Y             Z
Electronic contribution:     -4.42604      -4.30687       1.67803
Nuclear contribution   :      5.34551       5.44815      -2.19668
                        -----------------------------------------
Total Dipole Moment    :      0.91947       1.14128      -0.51865
                        -----------------------------------------
Magnitude (a.u.)       :      1.55465
Magnitude (Debye)      :      3.95161

                             ****ORCA TERMINATED NORMALLY****
TOTAL RUN TIME: 0 days 0 hours 16 minutes 15 seconds 621 msec
