                         Program Version 3.0.3 - RELEASE   -
|  1> ! RI-MP2 RIJK def2-TZVP def2-TZVP/C def2-TZVP/JK TIGHTSCF
|  2> % maxcore 2000
|  3> % mp2 density relaxed end
|  4> *xyz 0 1
|  5>  O       -0.0788163458     0.0206199218    -0.0544558840
|  6>  C       -0.1014016591     1.2032400251     0.0711704648
|  7>  C       -1.1307478758     2.2754332430    -0.0564371659
|  8>  C       -0.9343189737     3.2850719557     1.0279888208
|  9>  N       -0.0443065743     3.3591722298    -0.1239947062
| 10>  C        1.0198307857     2.3102415683     0.1122880921
| 11>  C        1.8468199205     2.4742328660     1.2918597343
| 12>  N        2.4794276755     2.5931982010     2.2525458695
| 13>  H       -2.0024317273     2.2631454778    -0.6994240864
| 14>  H       -1.6636050585     4.0880112407     1.0592961177
| 15>  H       -0.5393319010     2.9854346157     1.9949975014
| 16>  H        1.6420195937     2.2128020552    -0.7821994882
| 17> *
| 18>
| 19>                          ****END OF INPUT****

CARTESIAN COORDINATES (ANGSTROEM)
---------------------------------
  O     -0.078816    0.020620   -0.054456
  C     -0.101402    1.203240    0.071170
  C     -1.130748    2.275433   -0.056437
  C     -0.934319    3.285072    1.027989
  N     -0.044307    3.359172   -0.123995
  C      1.019831    2.310242    0.112288
  C      1.846820    2.474233    1.291860
  N      2.479428    2.593198    2.252546
  H     -2.002432    2.263145   -0.699424
  H     -1.663605    4.088011    1.059296
  H     -0.539332    2.985435    1.994998
  H      1.642020    2.212802   -0.782199

 Total Charge           Charge          ....    0
 Multiplicity           Mult            ....    1
 Number of Electrons    NEL             ....   56
 Basis Dimension        Dim             ....  272

ORBITAL ENERGIES
----------------

  NO   OCC          E(Eh)            E(eV)
   0   2.0000     -20.593672      -560.3823
   1   2.0000     -15.628371      -425.2696
   2   2.0000     -15.596927      -424.4140
   3   2.0000     -11.382443      -309.7320
   4   2.0000     -11.343560      -308.6740
   5   2.0000     -11.314338      -307.8788
   6   2.0000     -11.311506      -307.8017
   7   2.0000     -11.296492      -307.3932
   8   2.0000      -1.441960       -39.2377
   9   2.0000      -1.350269       -36.7427
  10   2.0000      -1.239948       -33.7407
  11   2.0000      -1.065908       -29.0048
  12   2.0000      -0.970598       -26.4113
  13   2.0000      -0.905038       -24.6273
  14   2.0000      -0.804954       -21.9039
  15   2.0000      -0.743181       -20.2230
  16   2.0000      -0.713316       -19.4103
  17   2.0000      -0.704426       -19.1684
  18   2.0000      -0.637258       -17.3407
  19   2.0000      -0.620890       -16.8953
  20   2.0000      -0.587707       -15.9923
  21   2.0000      -0.574301       -15.6275
  22   2.0000      -0.542763       -14.7693
  23   2.0000      -0.512295       -13.9403
  24   2.0000      -0.503435       -13.6992
  25   2.0000      -0.481758       -13.1093
  26   2.0000      -0.456581       -12.4242
  27   2.0000      -0.417652       -11.3649
  28   0.0000       0.096440         2.6243
  29   0.0000       0.124440         3.3862
  30   0.0000       0.143621         3.9081
  31   0.0000       0.153927         4.1886
  32   0.0000       0.155045         4.2190

MULLIKEN ATOMIC CHARGES
-----------------------
   0 O :   -0.219418
   1 C :    0.164422
   2 C :   -0.094961
   3 C :   -0.160432
   4 N :   -0.203920
   5 C :    0.104070
   6 C :   -0.205542
   7 N :   -0.043770
   8 H :    0.166681
   9 H :    0.156417
  10 H :    0.165246
  11 H :    0.171206
Sum of atomic charges:   -0.0000000

LOEWDIN ATOMIC CHARGES
----------------------
   0 O :    0.198246
   1 C :   -0.291160
   2 C :   -0.159341
   3 C :   -0.220917
   4 N :    0.153586
   5 C :   -0.203719
   6 C :   -0.174890
   7 N :    0.084785
   8 H :    0.147107
   9 H :    0.144252
  10 H :    0.140404
  11 H :    0.181646

  Mayer bond orders larger than 0.1
B(  0-O ,  1-C ) :   2.0486 B(  1-C ,  2-C ) :   0.9618 B(  1-C ,  5-C ) :   0.8518
B(  2-C ,  3-C ) :   0.8889 B(  2-C ,  4-N ) :   0.8846 B(  2-C ,  5-C ) :  -0.1015
B(  2-C ,  8-H ) :   0.8935 B(  3-C ,  4-N ) :   0.8871 B(  3-C ,  9-H ) :   0.9245
B(  3-C , 10-H ) :   0.9036 B(  4-N ,  5-C ) :   0.9146 B(  5-C ,  6-C ) :   0.9617
B(  5-C , 11-H ) :   0.8762 B(  6-C ,  7-N ) :   2.8120

MP2 TOTAL ENERGY:     -376.854408043 Eh
FINAL SINGLE POINT ENERGY      -376.854408043366

DIPOLE MOMENT
-------------
                                X             Y             Z
Electronic contribution:      2.59684      -2.20665      -0.00953
Nuclear contribution   :     -3.74443       2.68743      -0.60800
                        -----------------------------------------
Total Dipole Moment    :     -1.14758       0.48078      -0.61754
                        -----------------------------------------
Magnitude (a.u.)       :      1.38905
Magnitude (Debye)      :      3.53067

                             ****ORCA TERMINATED NORMALLY****
TOTAL RUN TIME: 0 days 0 hours 10 minutes 35 seconds 545 msec
