                         Program Version 3.0.3 - RELEASE   -
|  1> ! RI-MP2 RIJK def2-TZVP def2-TZVP/C def2-TZVP/JK TIGHTSCF
|  2> % maxcore 2000
|  3> % mp2 density relaxed end
|  4> *xyz 0 1
|  5>  C        0.1105622869     1.5659613162     0.0553546312
|  6>  N        0.0515688964     0.1212465915     0.0303953817
|  7>  C        0.9418113484    -0.5966084411    -0.9399477156
|  8>  C        1.0798233802    -1.6874730855     0.1246539274
|  9>  C        1.8821243571    -2.7189293701     0.9272548085
| 10>  C        0.4240670013    -2.8797610776     1.4971540631
| 11>  C        0.0206222581    -1.5420684871     2.2055086076
| 12>  C        0.6830710087    -0.6189415841     1.1530046807
| 13>  O       -0.0588133148    -2.5975514833     0.1562527492
| 14>  H        1.1351213410     1.9617815731     0.2009964434
| 15>  H       -0.2776844682     1.9716509619    -0.8848686338
| 16>  H       -0.5177054596     1.9449703551     0.8683167633
| 17>  H        0.4711729372    -0.8781604492    -1.8857724860
| 18>  H        1.8874891056    -0.0652481455    -1.1308987885
| 19>  H        2.1667715535    -3.6102236826     0.3671304744
| 20>  H        2.6905197576    -2.3642278564     1.5723068567
| 21>  H        0.0721641751    -3.8244806560     1.9129172486
| 22>  H       -1.0679072068    -1.4701474047     2.2457947994
| 23>  H        0.4310923300    -1.4104220381     3.2103142942
| 24>  H        1.5428485124    -0.0665328464     1.5636490645
| 25> *
| 26>
| 27>                          ****END OF INPUT****

CARTESIAN COORDINATES (ANGSTROEM)
---------------------------------
  C      0.110562    1.565961    0.055355
  N      0.051569    0.121247    0.030395
  C      0.941811   -0.596608   -0.939948
  C      1.079823   -1.687473    0.124654
  C      1.882124   -2.718929    0.927255
  C      0.424067   -2.879761    1.497154
  C      0.020622   -1.542068    2.205509
  C      0.683071   -0.618942    1.153005
  O     -0.058813   -2.597551    0.156253
  H      1.135121    1.961782    0.200996
  H     -0.277684    1.971651   -0.884869
  H     -0.517705    1.944970    0.868317
  H      0.471173   -0.878160   -1.885772
  H      1.887489   -0.065248   -1.130899
  H      2.166772   -3.610224    0.367130
  H      2.690520   -2.364228    1.572307
  H      0.072164   -3.824481    1.912917
  H     -1.067907   -1.470147    2.245795
  H      0.431092   -1.410422    3.210314
  H      1.542849   -0.066533    1.563649

 Total Charge           Charge          ....    0
 Multiplicity           Mult            ....    1
 Number of Electrons    NEL             ....   68
 Basis Dimension        Dim             ....  345

ORBITAL ENERGIES
----------------

  NO   OCC          E(Eh)            E(eV)
   0   2.0000     -20.542824      -558.9987
   1   2.0000     -15.548546      -423.0975
   2   2.0000     -11.290220      -307.2225
   3   2.0000     -11.285097      -307.0831
   4   2.0000     -11.260068      -306.4020
   5   2.0000     -11.248699      -306.0927
   6   2.0000     -11.241771      -305.9041
   7   2.0000     -11.239249      -305.8355
   8   2.0000     -11.226876      -305.4988
   9   2.0000      -1.395166       -37.9644
  10   2.0000      -1.237809       -33.6825
  11   2.0000      -1.060451       -28.8563
  12   2.0000      -1.004095       -27.3228
  13   2.0000      -0.970889       -26.4192
  14   2.0000      -0.887678       -24.1549
  15   2.0000      -0.851457       -23.1693
  16   2.0000      -0.770586       -20.9687
  17   2.0000      -0.736595       -20.0438
  18   2.0000      -0.683274       -18.5928
  19   2.0000      -0.656989       -17.8776
  20   2.0000      -0.630118       -17.1464
  21   2.0000      -0.616851       -16.7854
  22   2.0000      -0.598596       -16.2886
  23   2.0000      -0.578196       -15.7335
  24   2.0000      -0.551253       -15.0003
  25   2.0000      -0.538522       -14.6539
  26   2.0000      -0.516597       -14.0573
  27   2.0000      -0.497039       -13.5251
  28   2.0000      -0.477659       -12.9978
  29   2.0000      -0.466911       -12.7053
  30   2.0000      -0.456290       -12.4163
  31   2.0000      -0.439824       -11.9682
  32   2.0000      -0.403311       -10.9746
  33   2.0000      -0.351900        -9.5757
  34   0.0000       0.138225         3.7613
  35   0.0000       0.155708         4.2370
  36   0.0000       0.163906         4.4601
  37   0.0000       0.178505         4.8574
  38   0.0000       0.191927         5.2226

MULLIKEN ATOMIC CHARGES
-----------------------
   0 C :   -0.326530
   1 N :   -0.140043
   2 C :   -0.201188
   3 C :    0.090526
   4 C :   -0.158824
   5 C :    0.039074
   6 C :   -0.230882
   7 C :   -0.059505
   8 O :   -0.299610
   9 H :    0.097558
  10 H :    0.139081
  11 H :    0.137816
  12 H :    0.125226
  13 H :    0.106260
  14 H :    0.123259
  15 H :    0.114813
  16 H :    0.125587
  17 H :    0.122443
  18 H :    0.113285
  19 H :    0.081655
Sum of atomic charges:   -0.0000000

LOEWDIN ATOMIC CHARGES
----------------------
   0 C :   -0.344298
   1 N :    0.088972
   2 C :   -0.206042
   3 C :   -0.285180
   4 C :   -0.185566
   5 C :   -0.240664
   6 C :   -0.216628
   7 C :   -0.206691
   8 O :    0.197058
   9 H :    0.098044
  10 H :    0.118651
  11 H :    0.119578
  12 H :    0.129851
  13 H :    0.127347
  14 H :    0.138642
  15 H :    0.128080
  16 H :    0.128039
  17 H :    0.142882
  18 H :    0.131274
  19 H :    0.136652

  Mayer bond orders larger than 0.1
B(  0-C ,  1-N ) :   0.8990 B(  0-C ,  9-H ) :   0.9236 B(  0-C , 10-H ) :   0.9378
B(  0-C , 11-H ) :   0.9380 B(  1-N ,  2-C ) :   0.9660 B(  1-N ,  7-C ) :   0.9634
B(  2-C ,  3-C ) :   0.9305 B(  2-C , 12-H ) :   0.8996 B(  2-C , 13-H ) :   0.9201
B(  3-C ,  4-C ) :   0.9094 B(  3-C ,  7-C ) :   0.8906 B(  3-C ,  8-O ) :   0.9402
B(  4-C ,  5-C ) :   0.9464 B(  4-C , 14-H ) :   0.9144 B(  4-C , 15-H ) :   0.9100
B(  5-C ,  6-C ) :   0.9216 B(  5-C ,  8-O ) :   0.9264 B(  5-C , 16-H ) :   0.9138
B(  6-C ,  7-C ) :   0.9497 B(  6-C , 17-H ) :   0.9066 B(  6-C , 18-H ) :   0.9160
B(  7-C , 19-H ) :   0.9224

MP2 TOTAL ENERGY:     -402.383496284 Eh
FINAL SINGLE POINT ENERGY      -402.383496284414

DIPOLE MOMENT
-------------
                                X             Y             Z
Electronic contribution:     -1.45369      -4.73184      -1.19322
Nuclear contribution   :      2.21110       4.98915       1.65027
                        -----------------------------------------
Total Dipole Moment    :      0.75741       0.25730       0.45704
                        -----------------------------------------
Magnitude (a.u.)       :      0.92128
Magnitude (Debye)      :      2.34171

                             ****ORCA TERMINATED NORMALLY****
TOTAL RUN TIME: 0 days 0 hours 18 minutes 18 seconds 293 msec
