                         Program Version 3.0.3 - RELEASE   -
|  1> ! RI-MP2 RIJK def2-TZVP def2-TZVP/C def2-TZVP/JK TIGHTSCF
|  2> % maxcore 2000
|  3> % mp2 density relaxed end
|  4> *xyz 0 1
|  5>  C       -0.0792298994     1.6131238205     0.0684033960
|  6>  C        1.4653458332     1.4509312338     0.0266405894
|  7>  C        1.2497371768     0.1604003389     0.8795960492
|  8>  C       -0.0600863450     0.0599762347     0.0347477697
|  9>  C        0.5368555144    -0.2332992051    -1.3484882566
| 10>  O       -0.2927550865     0.1495374660    -2.4378228085
| 11>  C        0.5154197942     0.9414696896    -3.2788704967
| 12>  O        1.3832164478     1.6777673369    -2.4467302442
| 13>  C        1.6944181956     0.8222187489    -1.3546414516
| 14>  H       -0.4237148529     1.9965238886     1.0309730102
| 15>  H       -0.5644243425     2.1404376681    -0.7533022438
| 16>  H        2.1456445779     2.2453098333     0.3317771095
| 17>  H        1.9854237663    -0.6469095137     0.7942891126
| 18>  H        1.0570880659     0.3778068504     1.9319298097
| 19>  H       -0.9119047389    -0.5426941546     0.3480300936
| 20>  H        0.8686445573    -1.2719781145    -1.4641917352
| 21>  H        1.0932300323     0.3037518443    -3.9732476902
| 22>  H       -0.1182360149     1.6331049131    -3.8414566435
| 23>  H        2.6974751584     0.3956328307    -1.4739150595
| 24> *
| 25>
| 26>                          ****END OF INPUT****

CARTESIAN COORDINATES (ANGSTROEM)
---------------------------------
  C     -0.079230    1.613124    0.068403
  C      1.465346    1.450931    0.026641
  C      1.249737    0.160400    0.879596
  C     -0.060086    0.059976    0.034748
  C      0.536856   -0.233299   -1.348488
  O     -0.292755    0.149537   -2.437823
  C      0.515420    0.941470   -3.278870
  O      1.383216    1.677767   -2.446730
  C      1.694418    0.822219   -1.354641
  H     -0.423715    1.996524    1.030973
  H     -0.564424    2.140438   -0.753302
  H      2.145645    2.245310    0.331777
  H      1.985424   -0.646910    0.794289
  H      1.057088    0.377807    1.931930
  H     -0.911905   -0.542694    0.348030
  H      0.868645   -1.271978   -1.464192
  H      1.093230    0.303752   -3.973248
  H     -0.118236    1.633105   -3.841457
  H      2.697475    0.395633   -1.473915

 Total Charge           Charge          ....    0
 Multiplicity           Mult            ....    1
 Number of Electrons    NEL             ....   68
 Basis Dimension        Dim             ....  339

ORBITAL ENERGIES
----------------

  NO   OCC          E(Eh)            E(eV)
   0   2.0000     -20.561015      -559.4937
   1   2.0000     -20.560993      -559.4931
   2   2.0000     -11.327332      -308.2324
   3   2.0000     -11.282978      -307.0255
   4   2.0000     -11.282424      -307.0104
   5   2.0000     -11.236318      -305.7557
   6   2.0000     -11.236254      -305.7540
   7   2.0000     -11.233409      -305.6766
   8   2.0000     -11.222320      -305.3748
   9   2.0000      -1.437704       -39.1219
  10   2.0000      -1.332529       -36.2600
  11   2.0000      -1.186415       -32.2840
  12   2.0000      -0.992624       -27.0107
  13   2.0000      -0.938169       -25.5289
  14   2.0000      -0.907202       -24.6862
  15   2.0000      -0.864211       -23.5164
  16   2.0000      -0.773979       -21.0610
  17   2.0000      -0.760847       -20.7037
  18   2.0000      -0.722478       -19.6596
  19   2.0000      -0.681604       -18.5474
  20   2.0000      -0.658246       -17.9118
  21   2.0000      -0.637213       -17.3395
  22   2.0000      -0.626082       -17.0366
  23   2.0000      -0.597555       -16.2603
  24   2.0000      -0.554571       -15.0906
  25   2.0000      -0.530096       -14.4246
  26   2.0000      -0.521155       -14.1813
  27   2.0000      -0.497798       -13.5458
  28   2.0000      -0.467626       -12.7248
  29   2.0000      -0.456823       -12.4308
  30   2.0000      -0.455103       -12.3840
  31   2.0000      -0.446922       -12.1614
  32   2.0000      -0.425865       -11.5884
  33   2.0000      -0.421667       -11.4741
  34   0.0000       0.138746         3.7755
  35   0.0000       0.164003         4.4627
  36   0.0000       0.169898         4.6232
  37   0.0000       0.171063         4.6549
  38   0.0000       0.192510         5.2385

MULLIKEN ATOMIC CHARGES
-----------------------
   0 C :   -0.306389
   1 C :   -0.006407
   2 C :   -0.322000
   3 C :   -0.006406
   4 C :    0.013857
   5 O :   -0.334648
   6 C :    0.117023
   7 O :   -0.334648
   8 C :    0.013857
   9 H :    0.121260
  10 H :    0.128133
  11 H :    0.132514
  12 H :    0.120440
  13 H :    0.127234
  14 H :    0.132514
  15 H :    0.098632
  16 H :    0.083586
  17 H :    0.122817
  18 H :    0.098632
Sum of atomic charges:   -0.0000000

LOEWDIN ATOMIC CHARGES
----------------------
   0 C :   -0.190769
   1 C :   -0.188134
   2 C :   -0.188682
   3 C :   -0.188134
   4 C :   -0.259301
   5 O :    0.173713
   6 C :   -0.377451
   7 O :    0.173713
   8 C :   -0.259300
   9 H :    0.138739
  10 H :    0.132703
  11 H :    0.134861
  12 H :    0.128268
  13 H :    0.138306
  14 H :    0.134861
  15 H :    0.135839
  16 H :    0.105191
  17 H :    0.119738
  18 H :    0.135839

  Mayer bond orders larger than 0.1
B(  0-C ,  1-C ) :   0.9190 B(  0-C ,  3-C ) :   0.9190 B(  0-C ,  9-H ) :   0.9227
B(  0-C , 10-H ) :   0.9124 B(  1-C ,  2-C ) :   0.8856 B(  1-C ,  8-C ) :   0.8679
B(  1-C , 11-H ) :   0.9102 B(  2-C ,  3-C ) :   0.8856 B(  2-C , 12-H ) :   0.9254
B(  2-C , 13-H ) :   0.9196 B(  3-C ,  4-C ) :   0.8679 B(  3-C , 14-H ) :   0.9102
B(  4-C ,  5-O ) :   0.9713 B(  4-C ,  8-C ) :   0.9583 B(  4-C , 15-H ) :   0.9526
B(  5-O ,  6-C ) :   0.9588 B(  6-C ,  7-O ) :   0.9588 B(  6-C , 16-H ) :   0.9258
B(  6-C , 17-H ) :   0.9294 B(  7-O ,  8-C ) :   0.9713 B(  8-C , 18-H ) :   0.9526

MP2 TOTAL ENERGY:     -422.320049681 Eh
FINAL SINGLE POINT ENERGY      -422.320049680516

DIPOLE MOMENT
-------------
                                X             Y             Z
Electronic contribution:     -0.42268       0.44169      -3.74945
Nuclear contribution   :      0.70194      -0.74582       4.11287
                        -----------------------------------------
Total Dipole Moment    :      0.27925      -0.30413       0.36342
                        -----------------------------------------
Magnitude (a.u.)       :      0.55004
Magnitude (Debye)      :      1.39810

                             ****ORCA TERMINATED NORMALLY****
TOTAL RUN TIME: 0 days 0 hours 18 minutes 4 seconds 841 msec
