                         Program Version 3.0.3 - RELEASE   -
|  1> ! RI-MP2 RIJK def2-TZVP def2-TZVP/C def2-TZVP/JK TIGHTSCF
|  2> % maxcore 2000
|  3> % mp2 density relaxed end
|  4> *xyz 0 1
|  5>  C        0.0788233899     1.4766066405    -0.0192308582
|  6>  O       -0.2100866467     0.1023681437    -0.1521540488
|  7>  C        0.5882798166    -0.5599852425    -1.1459009717
|  8>  C        2.0573455304    -0.6352097451    -0.7610719947
|  9>  C        2.5129005868    -1.3404893594     0.2723201418
| 10>  C        1.6236416136    -2.1968628767     1.1387692411
| 11>  C        1.0420117960    -3.3914928424     0.3649302084
| 12>  C        0.1355575980    -3.0603097798    -0.7911312307
| 13>  C       -0.0651469508    -1.8984638049    -1.4145782770
| 14>  H        1.1034798131     1.6540361895     0.3370006101
| 15>  H       -0.0542379191     2.0129096238    -0.9730014005
| 16>  H       -0.6243003591     1.8828583399     0.7123325801
| 17>  H        0.5177175689     0.0292530163    -2.0744273030
| 18>  H        2.7512217964    -0.0612716410    -1.3698948038
| 19>  H        3.5782714291    -1.3325556331     0.4920406798
| 20>  H        2.1807080090    -2.5706689286     2.0033060460
| 21>  H        0.7940066302    -1.5910198094     1.5186939143
| 22>  H        1.8588733113    -4.0323406727    -0.0021158251
| 23>  H        0.4759810425    -4.0221252752     1.0639155563
| 24>  H       -0.4341911145    -3.9144512783    -1.1566036224
| 25>  H       -0.8037191316    -1.8795412446    -2.2122925019
| 26> *
| 27>
| 28>                          ****END OF INPUT****

CARTESIAN COORDINATES (ANGSTROEM)
---------------------------------
  C      0.078823    1.476607   -0.019231
  O     -0.210087    0.102368   -0.152154
  C      0.588280   -0.559985   -1.145901
  C      2.057346   -0.635210   -0.761072
  C      2.512901   -1.340489    0.272320
  C      1.623642   -2.196863    1.138769
  C      1.042012   -3.391493    0.364930
  C      0.135558   -3.060310   -0.791131
  C     -0.065147   -1.898464   -1.414578
  H      1.103480    1.654036    0.337001
  H     -0.054238    2.012910   -0.973001
  H     -0.624300    1.882858    0.712333
  H      0.517718    0.029253   -2.074427
  H      2.751222   -0.061272   -1.369895
  H      3.578271   -1.332556    0.492041
  H      2.180708   -2.570669    2.003306
  H      0.794007   -1.591020    1.518694
  H      1.858873   -4.032341   -0.002116
  H      0.475981   -4.022125    1.063916
  H     -0.434191   -3.914451   -1.156604
  H     -0.803719   -1.879541   -2.212293

 Total Charge           Charge          ....    0
 Multiplicity           Mult            ....    1
 Number of Electrons    NEL             ....   68
 Basis Dimension        Dim             ....  351

ORBITAL ENERGIES
----------------

  NO   OCC          E(Eh)            E(eV)
   0   2.0000     -20.549324      -559.1755
   1   2.0000     -11.284974      -307.0798
   2   2.0000     -11.263816      -306.5040
   3   2.0000     -11.228625      -305.5464
   4   2.0000     -11.227937      -305.5277
   5   2.0000     -11.227565      -305.5176
   6   2.0000     -11.220979      -305.3384
   7   2.0000     -11.219441      -305.2965
   8   2.0000     -11.219284      -305.2923
   9   2.0000      -1.365820       -37.1658
  10   2.0000      -1.112816       -30.2813
  11   2.0000      -1.037279       -28.2258
  12   2.0000      -1.023835       -27.8600
  13   2.0000      -0.929714       -25.2988
  14   2.0000      -0.875678       -23.8284
  15   2.0000      -0.866926       -23.5903
  16   2.0000      -0.736460       -20.0401
  17   2.0000      -0.706411       -19.2224
  18   2.0000      -0.689341       -18.7579
  19   2.0000      -0.640604       -17.4317
  20   2.0000      -0.629456       -17.1284
  21   2.0000      -0.617046       -16.7907
  22   2.0000      -0.613457       -16.6930
  23   2.0000      -0.588792       -16.0218
  24   2.0000      -0.562299       -15.3009
  25   2.0000      -0.527588       -14.3564
  26   2.0000      -0.519082       -14.1249
  27   2.0000      -0.504463       -13.7271
  28   2.0000      -0.483910       -13.1679
  29   2.0000      -0.475785       -12.9468
  30   2.0000      -0.453771       -12.3477
  31   2.0000      -0.414723       -11.2852
  32   2.0000      -0.365203        -9.9377
  33   2.0000      -0.339646        -9.2422
  34   0.0000       0.127834         3.4786
  35   0.0000       0.140534         3.8241
  36   0.0000       0.153369         4.1734
  37   0.0000       0.167504         4.5580
  38   0.0000       0.174355         4.7444

MULLIKEN ATOMIC CHARGES
-----------------------
   0 C :   -0.231017
   1 O :   -0.308467
   2 C :    0.207265
   3 C :   -0.233376
   4 C :   -0.173989
   5 C :   -0.201145
   6 C :   -0.123175
   7 C :   -0.198785
   8 C :   -0.178079
   9 H :    0.122173
  10 H :    0.108251
  11 H :    0.139201
  12 H :    0.077825
  13 H :    0.128175
  14 H :    0.125104
  15 H :    0.123893
  16 H :    0.138049
  17 H :    0.115754
  18 H :    0.123531
  19 H :    0.116682
  20 H :    0.122129
Sum of atomic charges:   -0.0000000

LOEWDIN ATOMIC CHARGES
----------------------
   0 C :   -0.361937
   1 O :    0.150879
   2 C :   -0.298896
   3 C :   -0.157335
   4 C :   -0.156233
   5 C :   -0.247068
   6 C :   -0.247854
   7 C :   -0.156132
   8 C :   -0.150138
   9 H :    0.103570
  10 H :    0.100964
  11 H :    0.113075
  12 H :    0.143231
  13 H :    0.141519
  14 H :    0.141983
  15 H :    0.139090
  16 H :    0.153185
  17 H :    0.148539
  18 H :    0.147130
  19 H :    0.146711
  20 H :    0.145716

  Mayer bond orders larger than 0.1
B(  0-C ,  1-O ) :   0.9165 B(  0-C ,  9-H ) :   0.9302 B(  0-C , 10-H ) :   0.9327
B(  0-C , 11-H ) :   0.9412 B(  1-O ,  2-C ) :   0.9504 B(  2-C ,  3-C ) :   0.9104
B(  2-C ,  8-C ) :   0.9184 B(  2-C , 12-H ) :   0.9387 B(  3-C ,  4-C ) :   1.7922
B(  3-C , 13-H ) :   0.9265 B(  4-C ,  5-C ) :   0.9416 B(  4-C , 14-H ) :   0.9264
B(  5-C ,  6-C ) :   0.9229 B(  5-C , 15-H ) :   0.9327 B(  5-C , 16-H ) :   0.9157
B(  6-C ,  7-C ) :   0.9295 B(  6-C , 17-H ) :   0.9091 B(  6-C , 18-H ) :   0.9210
B(  7-C ,  8-C ) :   1.8302 B(  7-C , 19-H ) :   0.9240 B(  8-C , 20-H ) :   0.9196

MP2 TOTAL ENERGY:     -386.390469203 Eh
FINAL SINGLE POINT ENERGY      -386.390469203198

DIPOLE MOMENT
-------------
                                X             Y             Z
Electronic contribution:     -0.87241      -0.75140      -1.42464
Nuclear contribution   :      1.21296       0.80210       1.38104
                        -----------------------------------------
Total Dipole Moment    :      0.34055       0.05070      -0.04360
                        -----------------------------------------
Magnitude (a.u.)       :      0.34705
Magnitude (Debye)      :      0.88214

                             ****ORCA TERMINATED NORMALLY****
TOTAL RUN TIME: 0 days 0 hours 32 minutes 13 seconds 908 msec
