                         Program Version 3.0.3 - RELEASE   -
|  1> ! RI-MP2 RIJK def2-TZVP def2-TZVP/C def2-TZVP/JK TIGHTSCF
|  2> % maxcore 2000
|  3> % mp2 density relaxed end
|  4> *xyz 0 1
|  5>  C       -0.0625576388     1.5518313818     0.0458637727
|  6>  C        0.0408975345     0.0428187001     0.0542869989
|  7>  C        1.3578769568    -0.6478073347    -0.2168195088
|  8>  O        2.5270533197     0.1075772695    -0.3623923926
|  9>  C        0.7668202458    -0.6946946570     1.1758163319
| 10>  C        1.4359110066     0.0312080671     2.3551449079
| 11>  C        1.4539482049    -1.0043428393     3.5178156244
| 12>  C        0.6028197434    -2.1422804070     3.0072718383
| 13>  C        0.2445109101    -1.9690154928     1.7356586789
| 14>  H        0.8894452217     2.0168391382     0.3131703153
| 15>  H       -0.3474022337     1.9188733576    -0.9470592845
| 16>  H       -0.8207538886     1.9031646354     0.7541048148
| 17>  H       -0.8358591437    -0.4702066150    -0.3362914720
| 18>  H        1.3433069262    -1.5696942091    -0.7996140654
| 19>  H        2.5022516199     0.5364035581    -1.2245082716
| 20>  H        2.4356342222     0.3806925454     2.0917428923
| 21>  H        0.8525996235     0.9117832457     2.6419890387
| 22>  H        2.4726078319    -1.3489715675     3.7411945538
| 23>  H        1.0672219807    -0.5817258568     4.4528659887
| 24>  H        0.3498291306    -3.0034490948     3.6157541549
| 25>  H       -0.3476158539    -2.6606248047     1.1452754634
| 26> *
| 27>
| 28>                          ****END OF INPUT****

CARTESIAN COORDINATES (ANGSTROEM)
---------------------------------
  C     -0.062558    1.551831    0.045864
  C      0.040898    0.042819    0.054287
  C      1.357877   -0.647807   -0.216820
  O      2.527053    0.107577   -0.362392
  C      0.766820   -0.694695    1.175816
  C      1.435911    0.031208    2.355145
  C      1.453948   -1.004343    3.517816
  C      0.602820   -2.142280    3.007272
  C      0.244511   -1.969015    1.735659
  H      0.889445    2.016839    0.313170
  H     -0.347402    1.918873   -0.947059
  H     -0.820754    1.903165    0.754105
  H     -0.835859   -0.470207   -0.336291
  H      1.343307   -1.569694   -0.799614
  H      2.502252    0.536404   -1.224508
  H      2.435634    0.380693    2.091743
  H      0.852600    0.911783    2.641989
  H      2.472608   -1.348972    3.741195
  H      1.067222   -0.581726    4.452866
  H      0.349829   -3.003449    3.615754
  H     -0.347616   -2.660625    1.145275

 Total Charge           Charge          ....    0
 Multiplicity           Mult            ....    1
 Number of Electrons    NEL             ....   68
 Basis Dimension        Dim             ....  351

ORBITAL ENERGIES
----------------

  NO   OCC          E(Eh)            E(eV)
   0   2.0000     -20.561631      -559.5104
   1   2.0000     -11.275103      -306.8111
   2   2.0000     -11.230364      -305.5937
   3   2.0000     -11.227347      -305.5116
   4   2.0000     -11.219552      -305.2995
   5   2.0000     -11.218781      -305.2785
   6   2.0000     -11.217353      -305.2397
   7   2.0000     -11.217048      -305.2314
   8   2.0000     -11.214026      -305.1492
   9   2.0000      -1.370156       -37.2839
  10   2.0000      -1.158635       -31.5281
  11   2.0000      -1.081269       -29.4228
  12   2.0000      -0.967003       -26.3135
  13   2.0000      -0.958133       -26.0721
  14   2.0000      -0.884949       -24.0807
  15   2.0000      -0.793035       -21.5796
  16   2.0000      -0.752822       -20.4853
  17   2.0000      -0.724648       -19.7187
  18   2.0000      -0.680231       -18.5100
  19   2.0000      -0.671176       -18.2636
  20   2.0000      -0.634595       -17.2682
  21   2.0000      -0.617234       -16.7958
  22   2.0000      -0.575510       -15.6604
  23   2.0000      -0.565794       -15.3960
  24   2.0000      -0.542451       -14.7609
  25   2.0000      -0.527116       -14.3436
  26   2.0000      -0.508038       -13.8244
  27   2.0000      -0.501464       -13.6455
  28   2.0000      -0.485910       -13.2223
  29   2.0000      -0.477382       -12.9902
  30   2.0000      -0.467478       -12.7207
  31   2.0000      -0.429241       -11.6802
  32   2.0000      -0.387511       -10.5447
  33   2.0000      -0.318954        -8.6792
  34   0.0000       0.129701         3.5294
  35   0.0000       0.155250         4.2246
  36   0.0000       0.160422         4.3653
  37   0.0000       0.163204         4.4410
  38   0.0000       0.174745         4.7550

MULLIKEN ATOMIC CHARGES
-----------------------
   0 C :   -0.464730
   1 C :   -0.145885
   2 C :   -0.036119
   3 O :   -0.474914
   4 C :    0.244658
   5 C :   -0.295503
   6 C :   -0.149837
   7 C :   -0.174697
   8 C :   -0.227414
   9 H :    0.157526
  10 H :    0.134640
  11 H :    0.139051
  12 H :    0.112215
  13 H :    0.107550
  14 H :    0.324426
  15 H :    0.153400
  16 H :    0.117350
  17 H :    0.113833
  18 H :    0.115628
  19 H :    0.124902
  20 H :    0.123919
Sum of atomic charges:    0.0000000

LOEWDIN ATOMIC CHARGES
----------------------
   0 C :   -0.299579
   1 C :   -0.204861
   2 C :   -0.280888
   3 O :    0.001056
   4 C :   -0.188187
   5 C :   -0.183787
   6 C :   -0.234465
   7 C :   -0.158517
   8 C :   -0.126506
   9 H :    0.130163
  10 H :    0.124471
  11 H :    0.127294
  12 H :    0.148634
  13 H :    0.131197
  14 H :    0.181255
  15 H :    0.142800
  16 H :    0.139671
  17 H :    0.139202
  18 H :    0.135454
  19 H :    0.134938
  20 H :    0.140656

  Mayer bond orders larger than 0.1
B(  0-C ,  1-C ) :   0.8854 B(  0-C ,  9-H ) :   0.9395 B(  0-C , 10-H ) :   0.9358
B(  0-C , 11-H ) :   0.9399 B(  1-C ,  2-C ) :   0.9106 B(  1-C ,  4-C ) :   0.8283
B(  1-C , 12-H ) :   0.9183 B(  2-C ,  3-O ) :   1.0239 B(  2-C ,  4-C ) :   0.7859
B(  2-C , 13-H ) :   0.9586 B(  3-O ,  4-C ) :  -0.1027 B(  3-O , 14-H ) :   0.8404
B(  4-C ,  5-C ) :   0.8953 B(  4-C ,  8-C ) :   0.9174 B(  5-C ,  6-C ) :   0.9658
B(  5-C , 15-H ) :   0.9274 B(  5-C , 16-H ) :   0.9311 B(  6-C ,  7-C ) :   0.9416
B(  6-C , 17-H ) :   0.9135 B(  6-C , 18-H ) :   0.9286 B(  7-C ,  8-C ) :   1.8137
B(  7-C , 19-H ) :   0.9286 B(  8-C , 20-H ) :   0.9112

MP2 TOTAL ENERGY:     -386.405698611 Eh
FINAL SINGLE POINT ENERGY      -386.405698611389

DIPOLE MOMENT
-------------
                                X             Y             Z
Electronic contribution:      1.59416      -3.30295      -1.29033
Nuclear contribution   :     -1.90518       3.44874       0.87140
                        -----------------------------------------
Total Dipole Moment    :     -0.31102       0.14579      -0.41893
                        -----------------------------------------
Magnitude (a.u.)       :      0.54175
Magnitude (Debye)      :      1.37701

                             ****ORCA TERMINATED NORMALLY****
TOTAL RUN TIME: 0 days 0 hours 19 minutes 51 seconds 808 msec
