                         Program Version 3.0.3 - RELEASE   -
|  1> ! RI-MP2 RIJK def2-TZVP def2-TZVP/C def2-TZVP/JK TIGHTSCF
|  2> % maxcore 2000
|  3> % mp2 density relaxed end
|  4> *xyz 0 1
|  5>  C        0.2042041525     0.8919067186    -0.3767645735
|  6>  O       -0.4492420613    -0.0290327413     0.4833330863
|  7>  C        0.4016598120    -0.6334161150     1.3803615493
|  8>  C        0.1505587822    -2.0165033122     1.8435092725
|  9>  O       -0.4372638305    -2.8091698655     0.7878841833
| 10>  C        0.7116503852    -2.6466419763     0.0143136133
| 11>  N        1.0251087854    -3.1509386529    -1.0875818387
| 12>  C        1.3918077786    -1.7436064949     0.9916393999
| 13>  H        0.9734327216     0.3938308984    -0.9807667111
| 14>  H       -0.5619699831     1.3055591660    -1.0348578105
| 15>  H        0.6704765293     1.7108578157     0.1903965133
| 16>  H        0.8206808569     0.0267205192     2.1455672658
| 17>  H        0.0201364708    -2.3696119718     2.8576511311
| 18>  H        0.2803775096    -3.7517525227    -1.4445371211
| 19>  H        2.4466207106    -1.7188585854     1.2228578901
| 20> *
| 21>
| 22>                          ****END OF INPUT****

CARTESIAN COORDINATES (ANGSTROEM)
---------------------------------
  C      0.204204    0.891907   -0.376765
  O     -0.449242   -0.029033    0.483333
  C      0.401660   -0.633416    1.380362
  C      0.150559   -2.016503    1.843509
  O     -0.437264   -2.809170    0.787884
  C      0.711650   -2.646642    0.014314
  N      1.025109   -3.150939   -1.087582
  C      1.391808   -1.743606    0.991639
  H      0.973433    0.393831   -0.980767
  H     -0.561970    1.305559   -1.034858
  H      0.670477    1.710858    0.190397
  H      0.820681    0.026721    2.145567
  H      0.020136   -2.369612    2.857651
  H      0.280378   -3.751753   -1.444537
  H      2.446621   -1.718859    1.222858

 Total Charge           Charge          ....    0
 Multiplicity           Mult            ....    1
 Number of Electrons    NEL             ....   60
 Basis Dimension        Dim             ....  290

ORBITAL ENERGIES
----------------

  NO   OCC          E(Eh)            E(eV)
   0   2.0000     -20.595053      -560.4199
   1   2.0000     -20.578067      -559.9577
   2   2.0000     -15.540905      -422.8895
   3   2.0000     -11.347182      -308.7725
   4   2.0000     -11.318893      -308.0027
   5   2.0000     -11.318089      -307.9809
   6   2.0000     -11.281536      -306.9862
   7   2.0000     -11.262410      -306.4658
   8   2.0000      -1.449868       -39.4529
   9   2.0000      -1.398437       -38.0534
  10   2.0000      -1.201815       -32.7030
  11   2.0000      -1.141015       -31.0486
  12   2.0000      -0.957067       -26.0431
  13   2.0000      -0.901919       -24.5425
  14   2.0000      -0.828263       -22.5382
  15   2.0000      -0.752117       -20.4662
  16   2.0000      -0.731548       -19.9064
  17   2.0000      -0.706223       -19.2173
  18   2.0000      -0.684064       -18.6143
  19   2.0000      -0.648574       -17.6486
  20   2.0000      -0.638911       -17.3857
  21   2.0000      -0.594496       -16.1771
  22   2.0000      -0.579675       -15.7737
  23   2.0000      -0.538484       -14.6529
  24   2.0000      -0.524798       -14.2805
  25   2.0000      -0.480536       -13.0760
  26   2.0000      -0.460382       -12.5276
  27   2.0000      -0.442311       -12.0359
  28   2.0000      -0.418569       -11.3899
  29   2.0000      -0.392611       -10.6835
  30   0.0000       0.135407         3.6846
  31   0.0000       0.156875         4.2688
  32   0.0000       0.164296         4.4707
  33   0.0000       0.172129         4.6839
  34   0.0000       0.188821         5.1381

MULLIKEN ATOMIC CHARGES
-----------------------
   0 C :   -0.216586
   1 O :   -0.285840
   2 C :    0.014592
   3 C :    0.093667
   4 O :   -0.274642
   5 C :    0.175578
   6 N :   -0.372143
   7 C :   -0.193033
   8 H :    0.138038
   9 H :    0.145142
  10 H :    0.114612
  11 H :    0.113245
  12 H :    0.156552
  13 H :    0.234893
  14 H :    0.155925
Sum of atomic charges:    0.0000000

LOEWDIN ATOMIC CHARGES
----------------------
   0 C :   -0.332907
   1 O :    0.187478
   2 C :   -0.291448
   3 C :   -0.190091
   4 O :    0.234764
   5 C :   -0.373100
   6 N :   -0.041823
   7 C :   -0.132329
   8 H :    0.110897
   9 H :    0.116449
  10 H :    0.103708
  11 H :    0.148721
  12 H :    0.136898
  13 H :    0.176539
  14 H :    0.146243

  Mayer bond orders larger than 0.1
B(  0-C ,  1-O ) :   0.8804 B(  0-C ,  8-H ) :   0.9319 B(  0-C ,  9-H ) :   0.9393
B(  0-C , 10-H ) :   0.9339 B(  1-O ,  2-C ) :   1.0306 B(  2-C ,  3-C ) :   0.8749
B(  2-C ,  7-C ) :   0.8773 B(  2-C , 11-H ) :   0.9318 B(  3-C ,  4-O ) :   0.9161
B(  3-C ,  7-C ) :   0.8467 B(  3-C , 12-H ) :   0.9190 B(  4-O ,  5-C ) :   1.0284
B(  5-C ,  6-N ) :   2.0488 B(  5-C ,  7-C ) :   0.9431 B(  6-N , 13-H ) :   0.8446
B(  7-C , 14-H ) :   0.9094

MP2 TOTAL ENERGY:     -399.089879005 Eh
FINAL SINGLE POINT ENERGY      -399.089879005019

DIPOLE MOMENT
-------------
                                X             Y             Z
Electronic contribution:     -1.72306      -4.93291       1.16508
Nuclear contribution   :      2.06608       5.60543      -0.38672
                        -----------------------------------------
Total Dipole Moment    :      0.34302       0.67252       0.77836
                        -----------------------------------------
Magnitude (a.u.)       :      1.08434
Magnitude (Debye)      :      2.75617

                             ****ORCA TERMINATED NORMALLY****
TOTAL RUN TIME: 0 days 0 hours 10 minutes 16 seconds 7 msec
