                         Program Version 3.0.3 - RELEASE   -
|  1> ! RI-MP2 RIJK def2-TZVP def2-TZVP/C def2-TZVP/JK TIGHTSCF
|  2> % maxcore 2000
|  3> % mp2 density relaxed end
|  4> *xyz 0 1
|  5>  C       -0.0123719140     1.5513003247    -0.0785387575
|  6>  C        0.0430270873     0.0396208514     0.0512418396
|  7>  O        0.6218948650    -0.4741161548    -1.1673371624
|  8>  C        1.0211432566    -1.7674129951    -1.1455403059
|  9>  N        1.1148662677    -2.5597267897    -0.1653601165
| 10>  C        0.7815708619    -2.0419580771     1.1583024271
| 11>  C        0.8144845016    -0.5047347724     1.2703380979
| 12>  C        2.2509695523     0.0202504100     1.3538268583
| 13>  O        0.0523574963    -0.0746217532     2.3986971950
| 14>  H        0.9807154307     1.9691595153    -0.2621444569
| 15>  H       -0.6568185610     1.8315183843    -0.9158791338
| 16>  H       -0.4170918203     1.9819381769     0.8395980125
| 17>  H       -0.9790903486    -0.3544409870     0.1262203334
| 18>  H        1.2925574559    -2.0886311431    -2.1497042233
| 19>  H       -0.2210237376    -2.3867423636     1.4402588508
| 20>  H        1.4777182979    -2.4872199829     1.8809249957
| 21>  H        2.8289150930    -0.2440570786     0.4641821619
| 22>  H        2.2655843348     1.1061202664     1.4714464841
| 23>  H        2.7584765813    -0.4227969646     2.2187518823
| 24>  H        0.5197417492    -0.3490781269     3.1946864776
| 25> *
| 26>
| 27>                          ****END OF INPUT****

CARTESIAN COORDINATES (ANGSTROEM)
---------------------------------
  C     -0.012372    1.551300   -0.078539
  C      0.043027    0.039621    0.051242
  O      0.621895   -0.474116   -1.167337
  C      1.021143   -1.767413   -1.145540
  N      1.114866   -2.559727   -0.165360
  C      0.781571   -2.041958    1.158302
  C      0.814485   -0.504735    1.270338
  C      2.250970    0.020250    1.353827
  O      0.052357   -0.074622    2.398697
  H      0.980715    1.969160   -0.262144
  H     -0.656819    1.831518   -0.915879
  H     -0.417092    1.981938    0.839598
  H     -0.979090   -0.354441    0.126220
  H      1.292557   -2.088631   -2.149704
  H     -0.221024   -2.386742    1.440259
  H      1.477718   -2.487220    1.880925
  H      2.828915   -0.244057    0.464182
  H      2.265584    1.106120    1.471446
  H      2.758477   -0.422797    2.218752
  H      0.519742   -0.349078    3.194686

 Total Charge           Charge          ....    0
 Multiplicity           Mult            ....    1
 Number of Electrons    NEL             ....   70
 Basis Dimension        Dim             ....  345

ORBITAL ENERGIES
----------------

  NO   OCC          E(Eh)            E(eV)
   0   2.0000     -20.593886      -560.3881
   1   2.0000     -20.567677      -559.6749
   2   2.0000     -15.545814      -423.0231
   3   2.0000     -11.330487      -308.3182
   4   2.0000     -11.296648      -307.3974
   5   2.0000     -11.295074      -307.3546
   6   2.0000     -11.254495      -306.2504
   7   2.0000     -11.225439      -305.4597
   8   2.0000     -11.219685      -305.3031
   9   2.0000      -1.428447       -38.8700
  10   2.0000      -1.375666       -37.4338
  11   2.0000      -1.216640       -33.1065
  12   2.0000      -1.083507       -29.4837
  13   2.0000      -1.001386       -27.2491
  14   2.0000      -0.954680       -25.9782
  15   2.0000      -0.879844       -23.9418
  16   2.0000      -0.848621       -23.0922
  17   2.0000      -0.733228       -19.9522
  18   2.0000      -0.706999       -19.2384
  19   2.0000      -0.703602       -19.1460
  20   2.0000      -0.667592       -18.1661
  21   2.0000      -0.642177       -17.4745
  22   2.0000      -0.615238       -16.7415
  23   2.0000      -0.592947       -16.1349
  24   2.0000      -0.574433       -15.6311
  25   2.0000      -0.556297       -15.1376
  26   2.0000      -0.548541       -14.9266
  27   2.0000      -0.542804       -14.7704
  28   2.0000      -0.535067       -14.5599
  29   2.0000      -0.527971       -14.3668
  30   2.0000      -0.498863       -13.5747
  31   2.0000      -0.483821       -13.1654
  32   2.0000      -0.455500       -12.3948
  33   2.0000      -0.397289       -10.8108
  34   2.0000      -0.387870       -10.5545
  35   0.0000       0.125248         3.4082
  36   0.0000       0.149937         4.0800
  37   0.0000       0.159250         4.3334
  38   0.0000       0.175900         4.7865
  39   0.0000       0.190281         5.1778

MULLIKEN ATOMIC CHARGES
-----------------------
   0 C :   -0.429336
   1 C :    0.119277
   2 O :   -0.264451
   3 C :    0.075505
   4 N :   -0.271962
   5 C :   -0.137798
   6 C :    0.185988
   7 C :   -0.495045
   8 O :   -0.467520
   9 H :    0.135983
  10 H :    0.145207
  11 H :    0.155089
  12 H :    0.104751
  13 H :    0.137664
  14 H :    0.135749
  15 H :    0.114325
  16 H :    0.153926
  17 H :    0.153192
  18 H :    0.131664
  19 H :    0.317793
Sum of atomic charges:    0.0000000

LOEWDIN ATOMIC CHARGES
----------------------
   0 C :   -0.285175
   1 C :   -0.270802
   2 O :    0.244910
   3 C :   -0.366961
   4 N :    0.069596
   5 C :   -0.266086
   6 C :   -0.395676
   7 C :   -0.272467
   8 O :    0.014213
   9 H :    0.126870
  10 H :    0.129140
  11 H :    0.136413
  12 H :    0.153014
  13 H :    0.133744
  14 H :    0.142277
  15 H :    0.136380
  16 H :    0.136869
  17 H :    0.129180
  18 H :    0.126319
  19 H :    0.178241

  Mayer bond orders larger than 0.1
B(  0-C ,  1-C ) :   0.9108 B(  0-C ,  9-H ) :   0.9365 B(  0-C , 10-H ) :   0.9367
B(  0-C , 11-H ) :   0.9336 B(  1-C ,  2-O ) :   0.8656 B(  1-C ,  6-C ) :   0.8463
B(  1-C , 12-H ) :   0.9380 B(  2-O ,  3-C ) :   1.0716 B(  3-C ,  4-N ) :   1.8382
B(  3-C , 13-H ) :   0.9276 B(  4-N ,  5-C ) :   0.9336 B(  5-C ,  6-C ) :   0.9104
B(  5-C , 14-H ) :   0.9200 B(  5-C , 15-H ) :   0.9216 B(  6-C ,  7-C ) :   0.9286
B(  6-C ,  8-O ) :   0.9432 B(  7-C , 16-H ) :   0.9213 B(  7-C , 17-H ) :   0.9440
B(  7-C , 18-H ) :   0.9248 B(  8-O , 19-H ) :   0.8405

MP2 TOTAL ENERGY:     -439.589933050 Eh
FINAL SINGLE POINT ENERGY      -439.589933050229

DIPOLE MOMENT
-------------
                                X             Y             Z
Electronic contribution:     -1.43793      -4.44696      -2.73709
Nuclear contribution   :      1.62669       4.92074       3.23386
                        -----------------------------------------
Total Dipole Moment    :      0.18877       0.47378       0.49677
                        -----------------------------------------
Magnitude (a.u.)       :      0.71196
Magnitude (Debye)      :      1.80965

                             ****ORCA TERMINATED NORMALLY****
TOTAL RUN TIME: 0 days 0 hours 20 minutes 43 seconds 42 msec
