                         Program Version 3.0.3 - RELEASE   -
|  1> ! RI-MP2 RIJK def2-TZVP def2-TZVP/C def2-TZVP/JK TIGHTSCF
|  2> % maxcore 2000
|  3> % mp2 density relaxed end
|  4> *xyz 0 1
|  5>  O       -0.1615923304     1.4613289809    -0.0086227936
|  6>  C       -0.0457622451     0.1082256577     0.0062531828
|  7>  C       -0.2517690269    -0.7947489575    -1.2108752706
|  8>  C       -1.1232222712    -0.9770489146    -0.0041691390
|  9>  O       -0.3922728197    -1.7548334976     0.9773278887
| 10>  C        0.5593902264    -0.7374415813     1.1201686596
| 11>  O        1.4492123305    -0.6823956864     1.8948291763
| 12>  C       -2.5395987556    -0.9030004167     0.0719955087
| 13>  N       -3.6932154052    -0.8323754668     0.1113839650
| 14>  H        0.4470003180     1.8314323148    -0.6583034260
| 15>  H       -0.7148462432    -0.2776494721    -2.0465739254
| 16>  H        0.4524151925    -1.5812303503    -1.4620362365
| 17> *
| 18>
| 19>                          ****END OF INPUT****

CARTESIAN COORDINATES (ANGSTROEM)
---------------------------------
  O     -0.161592    1.461329   -0.008623
  C     -0.045762    0.108226    0.006253
  C     -0.251769   -0.794749   -1.210875
  C     -1.123222   -0.977049   -0.004169
  O     -0.392273   -1.754833    0.977328
  C      0.559390   -0.737442    1.120169
  O      1.449212   -0.682396    1.894829
  C     -2.539599   -0.903000    0.071996
  N     -3.693215   -0.832375    0.111384
  H      0.447000    1.831432   -0.658303
  H     -0.714846   -0.277649   -2.046574
  H      0.452415   -1.581230   -1.462036

 Total Charge           Charge          ....    0
 Multiplicity           Mult            ....    1
 Number of Electrons    NEL             ....   64
 Basis Dimension        Dim             ....  297

ORBITAL ENERGIES
----------------

  NO   OCC          E(Eh)            E(eV)
   0   2.0000     -20.640752      -561.6634
   1   2.0000     -20.633157      -561.4567
   2   2.0000     -20.592126      -560.3402
   3   2.0000     -15.606370      -424.6709
   4   2.0000     -11.421984      -310.8080
   5   2.0000     -11.382137      -309.7237
   6   2.0000     -11.373765      -309.4959
   7   2.0000     -11.312377      -307.8254
   8   2.0000     -11.306165      -307.6564
   9   2.0000      -1.508323       -41.0436
  10   2.0000      -1.446825       -39.3701
  11   2.0000      -1.423281       -38.7294
  12   2.0000      -1.248702       -33.9789
  13   2.0000      -1.186142       -32.2766
  14   2.0000      -0.989649       -26.9297
  15   2.0000      -0.938279       -25.5319
  16   2.0000      -0.816680       -22.2230
  17   2.0000      -0.793431       -21.5904
  18   2.0000      -0.759655       -20.6713
  19   2.0000      -0.708347       -19.2751
  20   2.0000      -0.696860       -18.9625
  21   2.0000      -0.677257       -18.4291
  22   2.0000      -0.632608       -17.2141
  23   2.0000      -0.610794       -16.6206
  24   2.0000      -0.606176       -16.4949
  25   2.0000      -0.586696       -15.9648
  26   2.0000      -0.558891       -15.2082
  27   2.0000      -0.527535       -14.3550
  28   2.0000      -0.508271       -13.8308
  29   2.0000      -0.487927       -13.2772
  30   2.0000      -0.468330       -12.7439
  31   2.0000      -0.428938       -11.6720
  32   0.0000       0.095586         2.6010
  33   0.0000       0.108576         2.9545
  34   0.0000       0.132538         3.6065
  35   0.0000       0.138741         3.7753
  36   0.0000       0.154584         4.2064

MULLIKEN ATOMIC CHARGES
-----------------------
   0 O :   -0.424102
   1 C :    0.090597
   2 C :   -0.282659
   3 C :    0.344187
   4 O :   -0.229573
   5 C :    0.261509
   6 O :   -0.216608
   7 C :   -0.208034
   8 N :   -0.034085
   9 H :    0.351175
  10 H :    0.177912
  11 H :    0.169680
Sum of atomic charges:    0.0000000

LOEWDIN ATOMIC CHARGES
----------------------
   0 O :    0.082657
   1 C :   -0.283812
   2 C :   -0.123101
   3 C :   -0.238529
   4 O :    0.274845
   5 C :   -0.390660
   6 O :    0.200073
   7 C :   -0.137845
   8 N :    0.106056
   9 H :    0.202432
  10 H :    0.158462
  11 H :    0.149421

  Mayer bond orders larger than 0.1
B(  0-O ,  1-C ) :   1.0859 B(  0-O ,  9-H ) :   0.8195 B(  1-C ,  2-C ) :   0.8731
B(  1-C ,  3-C ) :   0.7508 B(  1-C ,  5-C ) :   0.9285 B(  2-C ,  3-C ) :   0.8556
B(  2-C , 10-H ) :   0.9144 B(  2-C , 11-H ) :   0.8909 B(  3-C ,  4-O ) :   0.9548
B(  3-C ,  7-C ) :   0.9224 B(  4-O ,  5-C ) :   1.0216 B(  5-C ,  6-O ) :   2.0819
B(  7-C ,  8-N ) :   2.8154

MP2 TOTAL ENERGY:     -471.857943767 Eh
FINAL SINGLE POINT ENERGY      -471.857943766855

DIPOLE MOMENT
-------------
                                X             Y             Z
Electronic contribution:     -0.92490      -0.98038       3.17328
Nuclear contribution   :      1.95385       1.48918      -4.85044
                        -----------------------------------------
Total Dipole Moment    :      1.02895       0.50880      -1.67716
                        -----------------------------------------
Magnitude (a.u.)       :      2.03236
Magnitude (Debye)      :      5.16584

                             ****ORCA TERMINATED NORMALLY****
TOTAL RUN TIME: 0 days 0 hours 13 minutes 28 seconds 832 msec
