                         Program Version 3.0.3 - RELEASE   -
|  1> ! RI-MP2 RIJK def2-TZVP def2-TZVP/C def2-TZVP/JK TIGHTSCF
|  2> % maxcore 2000
|  3> % mp2 density relaxed end
|  4> *xyz 0 1
|  5>  C       -0.7356734663     1.3007504330     0.2077621006
|  6>  C       -0.2498862284    -0.1421454415     0.1190765327
|  7>  C        0.7969497148    -0.4067563113    -1.0033858291
|  8>  C        1.9192625303    -0.4382701804     0.0660308209
|  9>  C        0.8481443369    -0.5661383075     1.1757263621
| 10>  C        1.0192742935     0.3275570523     2.3902515343
| 11>  N        0.3462368125    -0.0804659959     3.5075278130
| 12>  O        1.6804827125     1.3505856104     2.3738183181
| 13>  H        0.1005916895     2.0027823100     0.2684169608
| 14>  H       -1.3342249110     1.5514783143    -0.6747331395
| 15>  H       -1.3609614032     1.4580487363     1.0935066969
| 16>  H       -1.1117100612    -0.8163903849     0.1029708610
| 17>  H        0.6496911279    -1.3741083519    -1.4915251141
| 18>  H        0.8746196078     0.3605303957    -1.7785663129
| 19>  H        2.6545345059    -1.2431204259    -0.0001402657
| 20>  H        2.4431927348     0.5144910754     0.1638012691
| 21>  H        0.6934696983    -1.6044020327     1.4857518211
| 22>  H       -0.2360902450    -0.8988011056     3.5145855018
| 23>  H        0.3565804805     0.5163533102     4.3184154590
| 24> *
| 25>
| 26>                          ****END OF INPUT****

CARTESIAN COORDINATES (ANGSTROEM)
---------------------------------
  C     -0.735673    1.300750    0.207762
  C     -0.249886   -0.142145    0.119077
  C      0.796950   -0.406756   -1.003386
  C      1.919263   -0.438270    0.066031
  C      0.848144   -0.566138    1.175726
  C      1.019274    0.327557    2.390252
  N      0.346237   -0.080466    3.507528
  O      1.680483    1.350586    2.373818
  H      0.100592    2.002782    0.268417
  H     -1.334225    1.551478   -0.674733
  H     -1.360961    1.458049    1.093507
  H     -1.111710   -0.816390    0.102971
  H      0.649691   -1.374108   -1.491525
  H      0.874620    0.360530   -1.778566
  H      2.654535   -1.243120   -0.000140
  H      2.443193    0.514491    0.163801
  H      0.693470   -1.604402    1.485752
  H     -0.236090   -0.898801    3.514586
  H      0.356580    0.516353    4.318415

 Total Charge           Charge          ....    0
 Multiplicity           Mult            ....    1
 Number of Electrons    NEL             ....   62
 Basis Dimension        Dim             ....  314

ORBITAL ENERGIES
----------------

  NO   OCC          E(Eh)            E(eV)
   0   2.0000     -20.511399      -558.1435
   1   2.0000     -15.580192      -423.9586
   2   2.0000     -11.343923      -308.6838
   3   2.0000     -11.238118      -305.8047
   4   2.0000     -11.237211      -305.7801
   5   2.0000     -11.219974      -305.3110
   6   2.0000     -11.218374      -305.2675
   7   2.0000     -11.211211      -305.0726
   8   2.0000      -1.375639       -37.4330
   9   2.0000      -1.206689       -32.8357
  10   2.0000      -1.136360       -30.9219
  11   2.0000      -0.981598       -26.7107
  12   2.0000      -0.938734       -25.5443
  13   2.0000      -0.852507       -23.1979
  14   2.0000      -0.805291       -21.9131
  15   2.0000      -0.744930       -20.2706
  16   2.0000      -0.698123       -18.9969
  17   2.0000      -0.682065       -18.5599
  18   2.0000      -0.650057       -17.6890
  19   2.0000      -0.613400       -16.6915
  20   2.0000      -0.598500       -16.2860
  21   2.0000      -0.560309       -15.2468
  22   2.0000      -0.550638       -14.9836
  23   2.0000      -0.541310       -14.7298
  24   2.0000      -0.519930       -14.1480
  25   2.0000      -0.476411       -12.9638
  26   2.0000      -0.464422       -12.6376
  27   2.0000      -0.443082       -12.0569
  28   2.0000      -0.429073       -11.6757
  29   2.0000      -0.411861       -11.2073
  30   2.0000      -0.409429       -11.1411
  31   0.0000       0.118236         3.2174
  32   0.0000       0.150785         4.1031
  33   0.0000       0.159474         4.3395
  34   0.0000       0.165287         4.4977
  35   0.0000       0.183389         4.9903

MULLIKEN ATOMIC CHARGES
-----------------------
   0 C :   -0.445285
   1 C :   -0.047102
   2 C :   -0.202228
   3 C :   -0.299678
   4 C :   -0.064355
   5 C :    0.262289
   6 N :   -0.479544
   7 O :   -0.358664
   8 H :    0.156251
   9 H :    0.133498
  10 H :    0.124864
  11 H :    0.097477
  12 H :    0.113303
  13 H :    0.111821
  14 H :    0.117219
  15 H :    0.152566
  16 H :    0.114397
  17 H :    0.256951
  18 H :    0.256224
Sum of atomic charges:   -0.0000000

LOEWDIN ATOMIC CHARGES
----------------------
   0 C :   -0.295241
   1 C :   -0.223738
   2 C :   -0.221520
   3 C :   -0.211435
   4 C :   -0.184151
   5 C :   -0.464291
   6 N :   -0.019184
   7 O :    0.082330
   8 H :    0.132896
   9 H :    0.124655
  10 H :    0.124149
  11 H :    0.137467
  12 H :    0.130939
  13 H :    0.126928
  14 H :    0.124857
  15 H :    0.145038
  16 H :    0.149886
  17 H :    0.168970
  18 H :    0.171443

  Mayer bond orders larger than 0.1
B(  0-C ,  1-C ) :   0.9130 B(  0-C ,  8-H ) :   0.9332 B(  0-C ,  9-H ) :   0.9341
B(  0-C , 10-H ) :   0.9376 B(  1-C ,  2-C ) :   0.9011 B(  1-C ,  4-C ) :   0.8766
B(  1-C , 11-H ) :   0.9253 B(  2-C ,  3-C ) :   0.9383 B(  2-C , 12-H ) :   0.9245
B(  2-C , 13-H ) :   0.9259 B(  3-C ,  4-C ) :   0.9408 B(  3-C , 14-H ) :   0.9305
B(  3-C , 15-H ) :   0.9234 B(  4-C ,  5-C ) :   0.8728 B(  4-C , 16-H ) :   0.9043
B(  5-C ,  6-N ) :   1.1460 B(  5-C ,  7-O ) :   1.9779 B(  6-N , 17-H ) :   0.8721
B(  6-N , 18-H ) :   0.8574

MP2 TOTAL ENERGY:     -364.473643464 Eh
FINAL SINGLE POINT ENERGY      -364.473643464022

DIPOLE MOMENT
-------------
                                X             Y             Z
Electronic contribution:      2.75388       0.52672       5.46024
Nuclear contribution   :     -3.66658      -1.53927      -5.22445
                        -----------------------------------------
Total Dipole Moment    :     -0.91271      -1.01255       0.23579
                        -----------------------------------------
Magnitude (a.u.)       :      1.38343
Magnitude (Debye)      :      3.51641

                             ****ORCA TERMINATED NORMALLY****
TOTAL RUN TIME: 0 days 0 hours 13 minutes 59 seconds 964 msec
