                         Program Version 3.0.3 - RELEASE   -
|  1> ! RI-MP2 RIJK def2-TZVP def2-TZVP/C def2-TZVP/JK TIGHTSCF
|  2> % maxcore 2000
|  3> % mp2 density relaxed end
|  4> *xyz 0 1
|  5>  C       -0.3270845586     1.3625005410     0.2273633408
|  6>  C        0.0943692707    -0.0970540899    -0.0352875854
|  7>  C        0.7986000015    -0.2406471589    -1.3990218090
|  8>  C        0.9338325206    -0.6057075500     1.0505308217
|  9>  C        1.6355882417    -1.0037302710     1.9451043647
| 10>  C        2.4707577534    -1.5230425728     3.0244248268
| 11>  C        2.1188899515    -2.9502026832     3.4097289164
| 12>  C        2.3418792313    -3.4540764864     4.7691466023
| 13>  O        1.0290385858    -3.1219731016     4.3112028581
| 14>  H        0.5497474839     2.0168770006     0.2574493596
| 15>  H       -0.9913817555     1.7149789189    -0.5683223296
| 16>  H       -0.8509692896     1.4542987882     1.1822625448
| 17>  H       -0.8193745322    -0.7072915494    -0.0651185631
| 18>  H        1.7134144197     0.3597124596    -1.4250876994
| 19>  H        1.0711778952    -1.2812767230    -1.5935531125
| 20>  H        0.1406798476     0.1013712078    -2.2045112194
| 21>  H        3.5278949915    -1.4931186906     2.7254386128
| 22>  H        2.3779044925    -0.8918414842     3.9167990297
| 23>  H        2.1321531650    -3.6631819623     2.5847455374
| 24>  H        2.5299115788    -4.5142087610     4.9326516294
| 25>  H        2.7533905051    -2.7885933619     5.5276148439
| 26> *
| 27>
| 28>                          ****END OF INPUT****

CARTESIAN COORDINATES (ANGSTROEM)
---------------------------------
  C     -0.327085    1.362501    0.227363
  C      0.094369   -0.097054   -0.035288
  C      0.798600   -0.240647   -1.399022
  C      0.933833   -0.605708    1.050531
  C      1.635588   -1.003730    1.945104
  C      2.470758   -1.523043    3.024425
  C      2.118890   -2.950203    3.409729
  C      2.341879   -3.454076    4.769147
  O      1.029039   -3.121973    4.311203
  H      0.549747    2.016877    0.257449
  H     -0.991382    1.714979   -0.568322
  H     -0.850969    1.454299    1.182263
  H     -0.819375   -0.707292   -0.065119
  H      1.713414    0.359712   -1.425088
  H      1.071178   -1.281277   -1.593553
  H      0.140680    0.101371   -2.204511
  H      3.527895   -1.493119    2.725439
  H      2.377904   -0.891841    3.916799
  H      2.132153   -3.663182    2.584746
  H      2.529912   -4.514209    4.932652
  H      2.753391   -2.788593    5.527615

 Total Charge           Charge          ....    0
 Multiplicity           Mult            ....    1
 Number of Electrons    NEL             ....   68
 Basis Dimension        Dim             ....  351

ORBITAL ENERGIES
----------------

  NO   OCC          E(Eh)            E(eV)
   0   2.0000     -20.568189      -559.6889
   1   2.0000     -11.292948      -307.2967
   2   2.0000     -11.284310      -307.0617
   3   2.0000     -11.256585      -306.3072
   4   2.0000     -11.251911      -306.1801
   5   2.0000     -11.219121      -305.2878
   6   2.0000     -11.218352      -305.2669
   7   2.0000     -11.217840      -305.2530
   8   2.0000     -11.214015      -305.1489
   9   2.0000      -1.413318       -38.4583
  10   2.0000      -1.097570       -29.8664
  11   2.0000      -1.060088       -28.8465
  12   2.0000      -0.972388       -26.4600
  13   2.0000      -0.933205       -25.3938
  14   2.0000      -0.912695       -24.8357
  15   2.0000      -0.838426       -22.8147
  16   2.0000      -0.818601       -22.2753
  17   2.0000      -0.709172       -19.2975
  18   2.0000      -0.666633       -18.1400
  19   2.0000      -0.655153       -17.8276
  20   2.0000      -0.626884       -17.0584
  21   2.0000      -0.610923       -16.6241
  22   2.0000      -0.596784       -16.2393
  23   2.0000      -0.567881       -15.4528
  24   2.0000      -0.540039       -14.6952
  25   2.0000      -0.539665       -14.6850
  26   2.0000      -0.529892       -14.4191
  27   2.0000      -0.517272       -14.0757
  28   2.0000      -0.493407       -13.4263
  29   2.0000      -0.490660       -13.3515
  30   2.0000      -0.454127       -12.3574
  31   2.0000      -0.443479       -12.0677
  32   2.0000      -0.364736        -9.9250
  33   2.0000      -0.364148        -9.9090
  34   0.0000       0.130586         3.5534
  35   0.0000       0.152886         4.1602
  36   0.0000       0.170535         4.6405
  37   0.0000       0.175289         4.7699
  38   0.0000       0.181208         4.9309

MULLIKEN ATOMIC CHARGES
-----------------------
   0 C :   -0.377170
   1 C :   -0.140070
   2 C :   -0.376951
   3 C :    0.042754
   4 C :    0.005090
   5 C :   -0.378057
   6 C :    0.067766
   7 C :   -0.068999
   8 O :   -0.327213
   9 H :    0.124958
  10 H :    0.129505
  11 H :    0.139142
  12 H :    0.113317
  13 H :    0.125473
  14 H :    0.134900
  15 H :    0.130040
  16 H :    0.145721
  17 H :    0.152238
  18 H :    0.124592
  19 H :    0.117885
  20 H :    0.115079
Sum of atomic charges:    0.0000000

LOEWDIN ATOMIC CHARGES
----------------------
   0 C :   -0.276860
   1 C :   -0.294641
   2 C :   -0.277862
   3 C :   -0.054313
   4 C :   -0.074801
   5 C :   -0.238016
   6 C :   -0.282794
   7 C :   -0.267494
   8 O :    0.149237
   9 H :    0.125468
  10 H :    0.122420
  11 H :    0.126749
  12 H :    0.166397
  13 H :    0.125446
  14 H :    0.125449
  15 H :    0.122510
  16 H :    0.161265
  17 H :    0.162675
  18 H :    0.140012
  19 H :    0.119267
  20 H :    0.119883

  Mayer bond orders larger than 0.1
B(  0-C ,  1-C ) :   0.9352 B(  0-C ,  9-H ) :   0.9292 B(  0-C , 10-H ) :   0.9390
B(  0-C , 11-H ) :   0.9368 B(  1-C ,  2-C ) :   0.9355 B(  1-C ,  3-C ) :   1.0426
B(  1-C , 12-H ) :   0.9269 B(  2-C , 13-H ) :   0.9294 B(  2-C , 14-H ) :   0.9371
B(  2-C , 15-H ) :   0.9394 B(  3-C ,  4-C ) :   2.6060 B(  4-C ,  5-C ) :   1.0194
B(  5-C ,  6-C ) :   0.9254 B(  5-C , 16-H ) :   0.9363 B(  5-C , 17-H ) :   0.9365
B(  6-C ,  7-C ) :   0.9777 B(  6-C ,  8-O ) :   0.8929 B(  6-C , 18-H ) :   0.9191
B(  7-C ,  8-O ) :   0.9107 B(  7-C , 19-H ) :   0.9178 B(  7-C , 20-H ) :   0.9126

MP2 TOTAL ENERGY:     -386.357587352 Eh
FINAL SINGLE POINT ENERGY      -386.357587352486

DIPOLE MOMENT
-------------
                                X             Y             Z
Electronic contribution:      1.14294      -5.55181       7.24356
Nuclear contribution   :     -0.48798       5.56252      -7.43392
                        -----------------------------------------
Total Dipole Moment    :      0.65496       0.01071      -0.19036
                        -----------------------------------------
Magnitude (a.u.)       :      0.68214
Magnitude (Debye)      :      1.73387

                             ****ORCA TERMINATED NORMALLY****
TOTAL RUN TIME: 0 days 0 hours 17 minutes 12 seconds 166 msec
