                         Program Version 3.0.3 - RELEASE   -
|  1> ! RI-MP2 RIJK def2-TZVP def2-TZVP/C def2-TZVP/JK TIGHTSCF
|  2> % maxcore 2000
|  3> % mp2 density relaxed end
|  4> *xyz 0 1
|  5>  C       -0.3394094722     1.4092438138    -0.0566275570
|  6>  C        0.0780522809    -0.0520897565    -0.1129393108
|  7>  C        1.4197260214    -0.3773984792    -0.8064132402
|  8>  O        1.9767151833    -0.8869120898     0.4287208101
|  9>  C        0.7624822698    -0.6620631436     1.1366035394
| 10>  C        0.8383868281    -0.0085043044     2.5322233354
| 11>  O        0.1508893240    -1.1630941363     3.1117556396
| 12>  C        0.1238026284    -1.8191125208     1.8970832208
| 13>  N       -0.3053751415    -2.9508101821     1.5766004156
| 14>  H        0.4763969260     2.0466070927     0.3016058487
| 15>  H       -0.6255630323     1.7636671681    -1.0524002646
| 16>  H       -1.2000547745     1.5550132941     0.6044668215
| 17>  H       -0.7457328101    -0.6787646098    -0.4612669142
| 18>  H        1.3829437993    -1.1493302072    -1.5819490679
| 19>  H        1.9850033450     0.4863507125    -1.1767632216
| 20>  H        1.8561594445     0.0840396013     2.9185733855
| 21>  H        0.2704968469     0.9105184140     2.6937635912
| 22>  H       -0.6790163071    -3.4578887668     2.3808624585
| 23> *
| 24>
| 25>                          ****END OF INPUT****

CARTESIAN COORDINATES (ANGSTROEM)
---------------------------------
  C     -0.339409    1.409244   -0.056628
  C      0.078052   -0.052090   -0.112939
  C      1.419726   -0.377398   -0.806413
  O      1.976715   -0.886912    0.428721
  C      0.762482   -0.662063    1.136604
  C      0.838387   -0.008504    2.532223
  O      0.150889   -1.163094    3.111756
  C      0.123803   -1.819113    1.897083
  N     -0.305375   -2.950810    1.576600
  H      0.476397    2.046607    0.301606
  H     -0.625563    1.763667   -1.052400
  H     -1.200055    1.555013    0.604467
  H     -0.745733   -0.678765   -0.461267
  H      1.382944   -1.149330   -1.581949
  H      1.985003    0.486351   -1.176763
  H      1.856159    0.084040    2.918573
  H      0.270497    0.910518    2.693764
  H     -0.679016   -3.457889    2.380862

 Total Charge           Charge          ....    0
 Multiplicity           Mult            ....    1
 Number of Electrons    NEL             ....   68
 Basis Dimension        Dim             ....  333

ORBITAL ENERGIES
----------------

  NO   OCC          E(Eh)            E(eV)
   0   2.0000     -20.594479      -560.4043
   1   2.0000     -20.569063      -559.7127
   2   2.0000     -15.542278      -422.9269
   3   2.0000     -11.337236      -308.5019
   4   2.0000     -11.312521      -307.8294
   5   2.0000     -11.300742      -307.5088
   6   2.0000     -11.290114      -307.2196
   7   2.0000     -11.254156      -306.2412
   8   2.0000     -11.238528      -305.8159
   9   2.0000      -1.439859       -39.1805
  10   2.0000      -1.396941       -38.0127
  11   2.0000      -1.199761       -32.6472
  12   2.0000      -1.074299       -29.2332
  13   2.0000      -1.012941       -27.5635
  14   2.0000      -0.931477       -25.3468
  15   2.0000      -0.908411       -24.7191
  16   2.0000      -0.825304       -22.4577
  17   2.0000      -0.725702       -19.7473
  18   2.0000      -0.701170       -19.0798
  19   2.0000      -0.691797       -18.8248
  20   2.0000      -0.686039       -18.6681
  21   2.0000      -0.649151       -17.6643
  22   2.0000      -0.623199       -16.9581
  23   2.0000      -0.603984       -16.4352
  24   2.0000      -0.580745       -15.8029
  25   2.0000      -0.551417       -15.0048
  26   2.0000      -0.544355       -14.8127
  27   2.0000      -0.534476       -14.5438
  28   2.0000      -0.519704       -14.1419
  29   2.0000      -0.472525       -12.8581
  30   2.0000      -0.466969       -12.7069
  31   2.0000      -0.445635       -12.1263
  32   2.0000      -0.418152       -11.3785
  33   2.0000      -0.405544       -11.0354
  34   0.0000       0.126633         3.4459
  35   0.0000       0.150078         4.0838
  36   0.0000       0.160965         4.3801
  37   0.0000       0.162320         4.4170
  38   0.0000       0.180628         4.9151

MULLIKEN ATOMIC CHARGES
-----------------------
   0 C :   -0.464190
   1 C :   -0.057056
   2 C :   -0.040014
   3 O :   -0.315717
   4 C :    0.216120
   5 C :   -0.027716
   6 O :   -0.261653
   7 C :    0.060814
   8 N :   -0.360141
   9 H :    0.139859
  10 H :    0.146079
  11 H :    0.144663
  12 H :    0.135099
  13 H :    0.109963
  14 H :    0.097834
  15 H :    0.122974
  16 H :    0.121565
  17 H :    0.231516
Sum of atomic charges:    0.0000000

LOEWDIN ATOMIC CHARGES
----------------------
   0 C :   -0.294342
   1 C :   -0.213703
   2 C :   -0.231301
   3 O :    0.180430
   4 C :   -0.261035
   5 C :   -0.193666
   6 O :    0.210775
   7 C :   -0.369431
   8 N :   -0.040100
   9 H :    0.127316
  10 H :    0.129871
  11 H :    0.127847
  12 H :    0.157080
  13 H :    0.121838
  14 H :    0.118979
  15 H :    0.130033
  16 H :    0.124285
  17 H :    0.175126

  Mayer bond orders larger than 0.1
B(  0-C ,  1-C ) :   0.8970 B(  0-C ,  9-H ) :   0.9352 B(  0-C , 10-H ) :   0.9341
B(  0-C , 11-H ) :   0.9367 B(  1-C ,  2-C ) :   0.9783 B(  1-C ,  4-C ) :   0.8877
B(  1-C , 12-H ) :   0.9163 B(  2-C ,  3-O ) :   0.9395 B(  2-C , 13-H ) :   0.9135
B(  2-C , 14-H ) :   0.9061 B(  3-O ,  4-C ) :   0.9984 B(  4-C ,  5-C ) :   0.9341
B(  4-C ,  7-C ) :   0.8755 B(  5-C ,  6-O ) :   0.9001 B(  5-C , 15-H ) :   0.9080
B(  5-C , 16-H ) :   0.9103 B(  6-O ,  7-C ) :   1.0758 B(  7-C ,  8-N ) :   2.0865
B(  8-N , 17-H ) :   0.8474

MP2 TOTAL ENERGY:     -438.335068593 Eh
FINAL SINGLE POINT ENERGY      -438.335068593460

DIPOLE MOMENT
-------------
                                X             Y             Z
Electronic contribution:      1.60874      -6.27761       4.57080
Nuclear contribution   :     -1.89460       7.46516      -4.83555
                        -----------------------------------------
Total Dipole Moment    :     -0.28586       1.18755      -0.26475
                        -----------------------------------------
Magnitude (a.u.)       :      1.24983
Magnitude (Debye)      :      3.17683

                             ****ORCA TERMINATED NORMALLY****
TOTAL RUN TIME: 0 days 0 hours 16 minutes 48 seconds 901 msec
