                         Program Version 3.0.3 - RELEASE   -
|  1> ! RI-MP2 RIJK def2-TZVP def2-TZVP/C def2-TZVP/JK TIGHTSCF
|  2> % maxcore 2000
|  3> % mp2 density relaxed end
|  4> *xyz 0 1
|  5>  O       -0.0127284854     1.4380073504    -0.0933544204
|  6>  C       -0.1127153638     0.0385865924    -0.3227536231
|  7>  C       -1.5079454975    -0.4782614737    -0.0681177150
|  8>  C       -2.3669113333    -0.4008963061     1.2183017078
|  9>  N       -3.3181867470    -1.1436825243     0.2561651829
| 10>  C       -2.8399500413    -0.1030492185    -0.7772364033
| 11>  C       -2.0389394519    -1.9287017517    -0.1413268793
| 12>  C       -2.1020242335    -2.7011934918    -1.4338864266
| 13>  O       -1.4527609643    -2.4422810056    -2.4172453451
| 14>  H       -0.5037331096     1.8848262259    -0.7901074567
| 15>  H        0.1999500771    -0.2380083059    -1.3397152950
| 16>  H        0.5891018737    -0.4318640727     0.3755689940
| 17>  H       -2.0649084318    -0.9995386804     2.0823547713
| 18>  H       -2.7442533306     0.5783248023     1.5200982284
| 19>  H       -3.2517086568     0.8919845019    -0.5899702395
| 20>  H       -2.9820485620    -0.4011764971    -1.8168778709
| 21>  H       -1.7354640424    -2.6176457009     0.6594093704
| 22>  H       -2.7954651296    -3.5717891343    -1.4121358200
| 23> *
| 24>
| 25>                          ****END OF INPUT****

CARTESIAN COORDINATES (ANGSTROEM)
---------------------------------
  O     -0.012728    1.438007   -0.093354
  C     -0.112715    0.038587   -0.322754
  C     -1.507945   -0.478261   -0.068118
  C     -2.366911   -0.400896    1.218302
  N     -3.318187   -1.143683    0.256165
  C     -2.839950   -0.103049   -0.777236
  C     -2.038939   -1.928702   -0.141327
  C     -2.102024   -2.701193   -1.433886
  O     -1.452761   -2.442281   -2.417245
  H     -0.503733    1.884826   -0.790107
  H      0.199950   -0.238008   -1.339715
  H      0.589102   -0.431864    0.375569
  H     -2.064908   -0.999539    2.082355
  H     -2.744253    0.578325    1.520098
  H     -3.251709    0.891985   -0.589970
  H     -2.982049   -0.401176   -1.816878
  H     -1.735464   -2.617646    0.659409
  H     -2.795465   -3.571789   -1.412136

 Total Charge           Charge          ....    0
 Multiplicity           Mult            ....    1
 Number of Electrons    NEL             ....   68
 Basis Dimension        Dim             ....  333

ORBITAL ENERGIES
----------------

  NO   OCC          E(Eh)            E(eV)
   0   2.0000     -20.571873      -559.7891
   1   2.0000     -20.565536      -559.6167
   2   2.0000     -15.590367      -424.2355
   3   2.0000     -11.343157      -308.6630
   4   2.0000     -11.287292      -307.1428
   5   2.0000     -11.284083      -307.0555
   6   2.0000     -11.272624      -306.7437
   7   2.0000     -11.272112      -306.7298
   8   2.0000     -11.267855      -306.6139
   9   2.0000      -1.409773       -38.3619
  10   2.0000      -1.369046       -37.2536
  11   2.0000      -1.309073       -35.6217
  12   2.0000      -1.003830       -27.3156
  13   2.0000      -0.990403       -26.9502
  14   2.0000      -0.937144       -25.5010
  15   2.0000      -0.879099       -23.9215
  16   2.0000      -0.832343       -22.6492
  17   2.0000      -0.747250       -20.3337
  18   2.0000      -0.703832       -19.1522
  19   2.0000      -0.689867       -18.7722
  20   2.0000      -0.663666       -18.0593
  21   2.0000      -0.649683       -17.6788
  22   2.0000      -0.646039       -17.5796
  23   2.0000      -0.614733       -16.7277
  24   2.0000      -0.553511       -15.0618
  25   2.0000      -0.546327       -14.8663
  26   2.0000      -0.534637       -14.5482
  27   2.0000      -0.505600       -13.7581
  28   2.0000      -0.500782       -13.6270
  29   2.0000      -0.487671       -13.2702
  30   2.0000      -0.480315       -13.0700
  31   2.0000      -0.462890       -12.5959
  32   2.0000      -0.423295       -11.5184
  33   2.0000      -0.385318       -10.4850
  34   0.0000       0.112196         3.0530
  35   0.0000       0.126614         3.4453
  36   0.0000       0.145157         3.9499
  37   0.0000       0.164126         4.4661
  38   0.0000       0.175299         4.7701

MULLIKEN ATOMIC CHARGES
-----------------------
   0 O :   -0.465490
   1 C :    0.015026
   2 C :   -0.062071
   3 C :   -0.124665
   4 N :   -0.210214
   5 C :   -0.242946
   6 C :    0.006263
   7 C :    0.051804
   8 O :   -0.263112
   9 H :    0.316064
  10 H :    0.137612
  11 H :    0.110462
  12 H :    0.120000
  13 H :    0.123698
  14 H :    0.128256
  15 H :    0.138027
  16 H :    0.122794
  17 H :    0.098493
Sum of atomic charges:    0.0000000

LOEWDIN ATOMIC CHARGES
----------------------
   0 O :   -0.042725
   1 C :   -0.314828
   2 C :   -0.234418
   3 C :   -0.195197
   4 N :    0.108119
   5 C :   -0.202023
   6 C :   -0.210133
   7 C :   -0.272658
   8 O :    0.142028
   9 H :    0.174577
  10 H :    0.129102
  11 H :    0.135623
  12 H :    0.125946
  13 H :    0.128733
  14 H :    0.126507
  15 H :    0.128342
  16 H :    0.154324
  17 H :    0.118679

  Mayer bond orders larger than 0.1
B(  0-O ,  1-C ) :   0.8838 B(  0-O ,  9-H ) :   0.8475 B(  1-C ,  2-C ) :   0.8477
B(  1-C , 10-H ) :   0.9449 B(  1-C , 11-H ) :   0.9122 B(  2-C ,  3-C ) :   0.9165
B(  2-C ,  5-C ) :   0.9104 B(  2-C ,  6-C ) :   0.8723 B(  3-C ,  4-N ) :   0.9089
B(  3-C , 12-H ) :   0.9248 B(  3-C , 13-H ) :   0.9297 B(  4-N ,  5-C ) :   0.9175
B(  4-N ,  6-C ) :   0.9270 B(  5-C , 14-H ) :   0.9306 B(  5-C , 15-H ) :   0.9250
B(  6-C ,  7-C ) :   0.8583 B(  6-C , 16-H ) :   0.8936 B(  7-C ,  8-O ) :   1.9908
B(  7-C , 17-H ) :   0.9523

MP2 TOTAL ENERGY:     -438.284227018 Eh
FINAL SINGLE POINT ENERGY      -438.284227017764

DIPOLE MOMENT
-------------
                                X             Y             Z
Electronic contribution:     -0.16810      -2.29495      -2.25582
Nuclear contribution   :      0.09277       2.31086       2.48293
                        -----------------------------------------
Total Dipole Moment    :     -0.07533       0.01591       0.22711
                        -----------------------------------------
Magnitude (a.u.)       :      0.23981
Magnitude (Debye)      :      0.60954

                             ****ORCA TERMINATED NORMALLY****
TOTAL RUN TIME: 0 days 0 hours 18 minutes 20 seconds 930 msec
