                         Program Version 3.0.3 - RELEASE   -
|  1> ! RI-MP2 RIJK def2-TZVP def2-TZVP/C def2-TZVP/JK TIGHTSCF
|  2> % maxcore 2000
|  3> % mp2 density relaxed end
|  4> *xyz 0 1
|  5>  C       -0.1288930785     1.5554786314    -0.0261833173
|  6>  C        0.0144316965     0.0322057820    -0.0045885818
|  7>  C        0.9319426324    -0.5421352238    -1.1309007256
|  8>  C        1.9933384819    -1.2782885209    -0.3163071361
|  9>  C        3.1139064773    -2.0052539507    -1.0178181817
| 10>  C        1.3007213901    -1.9282378784     0.9319608235
| 11>  O        2.4873319894    -1.6808181366     1.7640067004
| 12>  C        2.2924520964    -0.4512363174     0.9812800050
| 13>  C        0.7550998733    -0.5030481703     1.2178354548
| 14>  H        0.8501602229     2.0455148884     0.0277699243
| 15>  H       -0.6178617209     1.8920852174    -0.9463169611
| 16>  H       -0.7260817872     1.9121690409     0.8198377524
| 17>  H       -0.9852592133    -0.4150003899    -0.0613482104
| 18>  H        0.3983630908    -1.2173018007    -1.8085999688
| 19>  H        1.3720876388     0.2507917402    -1.7470043156
| 20>  H        3.7084850876    -1.3178003125    -1.6301685213
| 21>  H        3.7728560119    -2.4744598190    -0.2825207231
| 22>  H        2.7241295434    -2.7835482873    -1.6836530955
| 23>  H        0.8058271510    -2.8967957115     1.0262088063
| 24>  H        3.0004091007     0.3645008050     1.1377474993
| 25>  H        0.3852384355    -0.2884270061     2.2204186824
| 26> *
| 27>
| 28>                          ****END OF INPUT****

CARTESIAN COORDINATES (ANGSTROEM)
---------------------------------
  C     -0.128893    1.555479   -0.026183
  C      0.014432    0.032206   -0.004589
  C      0.931943   -0.542135   -1.130901
  C      1.993338   -1.278289   -0.316307
  C      3.113906   -2.005254   -1.017818
  C      1.300721   -1.928238    0.931961
  O      2.487332   -1.680818    1.764007
  C      2.292452   -0.451236    0.981280
  C      0.755100   -0.503048    1.217835
  H      0.850160    2.045515    0.027770
  H     -0.617862    1.892085   -0.946317
  H     -0.726082    1.912169    0.819838
  H     -0.985259   -0.415000   -0.061348
  H      0.398363   -1.217302   -1.808600
  H      1.372088    0.250792   -1.747004
  H      3.708485   -1.317800   -1.630169
  H      3.772856   -2.474460   -0.282521
  H      2.724130   -2.783548   -1.683653
  H      0.805827   -2.896796    1.026209
  H      3.000409    0.364501    1.137747
  H      0.385238   -0.288427    2.220419

 Total Charge           Charge          ....    0
 Multiplicity           Mult            ....    1
 Number of Electrons    NEL             ....   68
 Basis Dimension        Dim             ....  351

ORBITAL ENERGIES
----------------

  NO   OCC          E(Eh)            E(eV)
   0   2.0000     -20.541133      -558.9526
   1   2.0000     -11.289622      -307.2062
   2   2.0000     -11.289486      -307.2025
   3   2.0000     -11.243255      -305.9445
   4   2.0000     -11.234813      -305.7148
   5   2.0000     -11.233097      -305.6681
   6   2.0000     -11.224043      -305.4217
   7   2.0000     -11.219321      -305.2932
   8   2.0000     -11.213037      -305.1222
   9   2.0000      -1.391477       -37.8640
  10   2.0000      -1.146804       -31.2061
  11   2.0000      -1.028768       -27.9942
  12   2.0000      -0.987804       -26.8795
  13   2.0000      -0.929107       -25.2823
  14   2.0000      -0.881261       -23.9803
  15   2.0000      -0.863622       -23.5003
  16   2.0000      -0.769889       -20.9497
  17   2.0000      -0.705381       -19.1944
  18   2.0000      -0.683927       -18.6106
  19   2.0000      -0.647662       -17.6238
  20   2.0000      -0.620654       -16.8888
  21   2.0000      -0.593883       -16.1604
  22   2.0000      -0.570906       -15.5351
  23   2.0000      -0.567083       -15.4311
  24   2.0000      -0.542843       -14.7715
  25   2.0000      -0.533489       -14.5170
  26   2.0000      -0.522574       -14.2200
  27   2.0000      -0.503323       -13.6961
  28   2.0000      -0.481787       -13.1101
  29   2.0000      -0.469050       -12.7635
  30   2.0000      -0.446611       -12.1529
  31   2.0000      -0.435765       -11.8578
  32   2.0000      -0.414759       -11.2862
  33   2.0000      -0.389290       -10.5931
  34   0.0000       0.130875         3.5613
  35   0.0000       0.148433         4.0391
  36   0.0000       0.160460         4.3663
  37   0.0000       0.179133         4.8745
  38   0.0000       0.186891         5.0856

MULLIKEN ATOMIC CHARGES
-----------------------
   0 C :   -0.434876
   1 C :   -0.032222
   2 C :   -0.247300
   3 C :    0.136283
   4 C :   -0.458644
   5 C :   -0.032183
   6 O :   -0.331658
   7 C :   -0.066924
   8 C :   -0.050321
   9 H :    0.125892
  10 H :    0.136117
  11 H :    0.133256
  12 H :    0.093921
  13 H :    0.116865
  14 H :    0.114599
  15 H :    0.129462
  16 H :    0.161635
  17 H :    0.129470
  18 H :    0.124630
  19 H :    0.125903
  20 H :    0.126093
Sum of atomic charges:    0.0000000

LOEWDIN ATOMIC CHARGES
----------------------
   0 C :   -0.293708
   1 C :   -0.242822
   2 C :   -0.183017
   3 C :   -0.224124
   4 C :   -0.273256
   5 C :   -0.170841
   6 O :    0.128916
   7 C :   -0.172066
   8 C :   -0.153203
   9 H :    0.123524
  10 H :    0.123923
  11 H :    0.123928
  12 H :    0.149509
  13 H :    0.137644
  14 H :    0.140437
  15 H :    0.127719
  16 H :    0.136607
  17 H :    0.127633
  18 H :    0.125156
  19 H :    0.124833
  20 H :    0.143209

  Mayer bond orders larger than 0.1
B(  0-C ,  1-C ) :   0.8825 B(  0-C ,  9-H ) :   0.9345 B(  0-C , 10-H ) :   0.9407
B(  0-C , 11-H ) :   0.9415 B(  1-C ,  2-C ) :   0.9390 B(  1-C ,  8-C ) :   0.8761
B(  1-C , 12-H ) :   0.9151 B(  2-C ,  3-C ) :   0.9113 B(  2-C , 13-H ) :   0.9085
B(  2-C , 14-H ) :   0.9103 B(  3-C ,  4-C ) :   0.8787 B(  3-C ,  5-C ) :   0.9110
B(  3-C ,  7-C ) :   0.9011 B(  3-C ,  8-C ) :  -0.1179 B(  4-C , 15-H ) :   0.9356
B(  4-C , 16-H ) :   0.9397 B(  4-C , 17-H ) :   0.9366 B(  5-C ,  6-O ) :   0.9092
B(  5-C ,  7-C ) :   0.1066 B(  5-C ,  8-C ) :   0.8936 B(  5-C , 18-H ) :   0.8886
B(  6-O ,  7-C ) :   0.9162 B(  7-C ,  8-C ) :   0.9040 B(  7-C , 19-H ) :   0.8852
B(  8-C , 20-H ) :   0.9205

MP2 TOTAL ENERGY:     -386.371523169 Eh
FINAL SINGLE POINT ENERGY      -386.371523169345

DIPOLE MOMENT
-------------
                                X             Y             Z
Electronic contribution:      1.82630      -3.48300       5.07624
Nuclear contribution   :     -2.34024       3.82660      -5.70724
                        -----------------------------------------
Total Dipole Moment    :     -0.51394       0.34360      -0.63100
                        -----------------------------------------
Magnitude (a.u.)       :      0.88338
Magnitude (Debye)      :      2.24538

                             ****ORCA TERMINATED NORMALLY****
TOTAL RUN TIME: 0 days 0 hours 19 minutes 27 seconds 962 msec
