                         Program Version 3.0.3 - RELEASE   -
|  1> ! RI-MP2 RIJK def2-TZVP def2-TZVP/C def2-TZVP/JK TIGHTSCF
|  2> % maxcore 2000
|  3> % mp2 density relaxed end
|  4> *xyz 0 1
|  5>  C        0.0120665654     1.5361954345     0.1549379364
|  6>  C       -0.0410910161     0.0159403398    -0.0089366271
|  7>  O       -1.3860651247    -0.4509978016    -0.0950319267
|  8>  C        0.6920160805    -0.5178936211    -1.2544326578
|  9>  C        0.8369344254    -2.0437045345    -1.1919630498
| 10>  C       -0.0346952068    -0.0776573456    -2.5507319951
| 11>  C        0.6937123866    -0.4538143245    -3.7591844260
| 12>  N        1.2837580116    -0.7508611715    -4.7078137820
| 13>  H        1.0467808917     1.8918348007     0.1947089489
| 14>  H       -0.5034248400     2.0501365587    -0.6615371920
| 15>  H       -0.4739286019     1.8344546712     1.0909910908
| 16>  H        0.4546935435    -0.4379967492     0.8650574925
| 17>  H       -1.8641393943    -0.1449270783     0.6814750026
| 18>  H        1.6916510262    -0.0673261957    -1.2572870667
| 19>  H        1.3430820572    -2.4298443929    -2.0807369624
| 20>  H        1.4223488894    -2.3391194475    -0.3156227719
| 21>  H       -0.1461581216    -2.5168093650    -1.1167257020
| 22>  H       -1.0324265386    -0.5260621618    -2.5776299887
| 23>  H       -0.1756858535     1.0076967644    -2.5693055531
| 24> *
| 25>
| 26>                          ****END OF INPUT****

CARTESIAN COORDINATES (ANGSTROEM)
---------------------------------
  C      0.012067    1.536195    0.154938
  C     -0.041091    0.015940   -0.008937
  O     -1.386065   -0.450998   -0.095032
  C      0.692016   -0.517894   -1.254433
  C      0.836934   -2.043705   -1.191963
  C     -0.034695   -0.077657   -2.550732
  C      0.693712   -0.453814   -3.759184
  N      1.283758   -0.750861   -4.707814
  H      1.046781    1.891835    0.194709
  H     -0.503425    2.050137   -0.661537
  H     -0.473929    1.834455    1.090991
  H      0.454694   -0.437997    0.865057
  H     -1.864139   -0.144927    0.681475
  H      1.691651   -0.067326   -1.257287
  H      1.343082   -2.429844   -2.080737
  H      1.422349   -2.339119   -0.315623
  H     -0.146158   -2.516809   -1.116726
  H     -1.032427   -0.526062   -2.577630
  H     -0.175686    1.007697   -2.569306

 Total Charge           Charge          ....    0
 Multiplicity           Mult            ....    1
 Number of Electrons    NEL             ....   62
 Basis Dimension        Dim             ....  314

ORBITAL ENERGIES
----------------

  NO   OCC          E(Eh)            E(eV)
   0   2.0000     -20.570923      -559.7633
   1   2.0000     -15.560542      -423.4239
   2   2.0000     -11.299392      -307.4721
   3   2.0000     -11.271730      -306.7194
   4   2.0000     -11.266173      -306.5682
   5   2.0000     -11.254920      -306.2620
   6   2.0000     -11.235847      -305.7430
   7   2.0000     -11.220483      -305.3249
   8   2.0000      -1.378653       -37.5151
   9   2.0000      -1.211700       -32.9720
  10   2.0000      -1.111428       -30.2435
  11   2.0000      -1.020980       -27.7823
  12   2.0000      -0.978871       -26.6364
  13   2.0000      -0.883763       -24.0484
  14   2.0000      -0.793084       -21.5809
  15   2.0000      -0.732498       -19.9323
  16   2.0000      -0.674820       -18.3628
  17   2.0000      -0.649604       -17.6766
  18   2.0000      -0.641237       -17.4489
  19   2.0000      -0.605395       -16.4736
  20   2.0000      -0.585784       -15.9400
  21   2.0000      -0.579486       -15.7686
  22   2.0000      -0.556666       -15.1477
  23   2.0000      -0.545525       -14.8445
  24   2.0000      -0.530592       -14.4381
  25   2.0000      -0.514309       -13.9950
  26   2.0000      -0.503211       -13.6931
  27   2.0000      -0.479347       -13.0437
  28   2.0000      -0.460758       -12.5379
  29   2.0000      -0.447666       -12.1816
  30   2.0000      -0.439394       -11.9565
  31   0.0000       0.113199         3.0803
  32   0.0000       0.150623         4.0987
  33   0.0000       0.154494         4.2040
  34   0.0000       0.160787         4.3752
  35   0.0000       0.173763         4.7283

MULLIKEN ATOMIC CHARGES
-----------------------
   0 C :   -0.439268
   1 C :    0.094669
   2 O :   -0.478252
   3 C :   -0.010510
   4 C :   -0.436446
   5 C :   -0.170193
   6 C :   -0.192482
   7 N :   -0.057828
   8 H :    0.134744
   9 H :    0.140425
  10 H :    0.133492
  11 H :    0.092523
  12 H :    0.314798
  13 H :    0.109298
  14 H :    0.159253
  15 H :    0.128337
  16 H :    0.149125
  17 H :    0.178205
  18 H :    0.150111
Sum of atomic charges:   -0.0000000

LOEWDIN ATOMIC CHARGES
----------------------
   0 C :   -0.302594
   1 C :   -0.353445
   2 O :   -0.016705
   3 C :   -0.250168
   4 C :   -0.283648
   5 C :   -0.221910
   6 C :   -0.195745
   7 N :    0.049847
   8 H :    0.129462
   9 H :    0.123482
  10 H :    0.122963
  11 H :    0.139702
  12 H :    0.175724
  13 H :    0.160915
  14 H :    0.131486
  15 H :    0.124973
  16 H :    0.131234
  17 H :    0.171197
  18 H :    0.163229

  Mayer bond orders larger than 0.1
B(  0-C ,  1-C ) :   0.9125 B(  0-C ,  8-H ) :   0.9323 B(  0-C ,  9-H ) :   0.9384
B(  0-C , 10-H ) :   0.9361 B(  1-C ,  2-O ) :   0.9550 B(  1-C ,  3-C ) :   0.8792
B(  1-C , 11-H ) :   0.9257 B(  2-O , 12-H ) :   0.8436 B(  3-C ,  4-C ) :   0.9129
B(  3-C ,  5-C ) :   0.8975 B(  3-C , 13-H ) :   0.9282 B(  4-C , 14-H ) :   0.9362
B(  4-C , 15-H ) :   0.9350 B(  4-C , 16-H ) :   0.9318 B(  5-C ,  6-C ) :   0.9221
B(  5-C , 17-H ) :   0.9067 B(  5-C , 18-H ) :   0.9070 B(  6-C ,  7-N ) :   2.8946

MP2 TOTAL ENERGY:     -364.472709330 Eh
FINAL SINGLE POINT ENERGY      -364.472709329899

DIPOLE MOMENT
-------------
                                X             Y             Z
Electronic contribution:     -0.03847      -1.17873      -7.10025
Nuclear contribution   :     -0.50825       1.88112       9.03314
                        -----------------------------------------
Total Dipole Moment    :     -0.54672       0.70239       1.93289
                        -----------------------------------------
Magnitude (a.u.)       :      2.12798
Magnitude (Debye)      :      5.40890

                             ****ORCA TERMINATED NORMALLY****
TOTAL RUN TIME: 0 days 0 hours 12 minutes 49 seconds 446 msec
