                         Program Version 3.0.3 - RELEASE   -
|  1> ! RI-MP2 RIJK def2-TZVP def2-TZVP/C def2-TZVP/JK TIGHTSCF
|  2> % maxcore 2000
|  3> % mp2 density relaxed end
|  4> *xyz 0 1
|  5>  N       -0.2227028279     1.4178591909    -0.0454426879
|  6>  C       -0.1088657261     0.0241963292    -0.0431789066
|  7>  C       -1.0890405709    -0.9239281392    -0.0101754034
|  8>  N       -2.4513970709    -0.6573019829     0.0290291220
|  9>  C       -3.4668124759    -1.5756041488     0.0639859619
| 10>  N       -3.2707670176    -2.8361755725     0.0640053981
| 11>  C       -0.3741811908    -2.1558080177    -0.0263927939
| 12>  N        0.9223820499    -1.9576753883    -0.0657895140
| 13>  O        1.1032648073    -0.5812973102    -0.0767719644
| 14>  H        0.2348702688     1.8370523171     0.7593771797
| 15>  H        0.1871757882     1.8304729658    -0.8788570860
| 16>  H       -2.6914640547     0.3215453443     0.0321788402
| 17>  H       -4.4457353157    -1.0830809746     0.0910871866
| 18>  H       -4.1587445561    -3.3300201370     0.0930030103
| 19>  H       -0.7833818877    -3.1521603560    -0.0100152525
| 20> *
| 21>
| 22>                          ****END OF INPUT****

CARTESIAN COORDINATES (ANGSTROEM)
---------------------------------
  N     -0.222703    1.417859   -0.045443
  C     -0.108866    0.024196   -0.043179
  C     -1.089041   -0.923928   -0.010175
  N     -2.451397   -0.657302    0.029029
  C     -3.466812   -1.575604    0.063986
  N     -3.270767   -2.836176    0.064005
  C     -0.374181   -2.155808   -0.026393
  N      0.922382   -1.957675   -0.065790
  O      1.103265   -0.581297   -0.076772
  H      0.234870    1.837052    0.759377
  H      0.187176    1.830473   -0.878857
  H     -2.691464    0.321545    0.032179
  H     -4.445735   -1.083081    0.091087
  H     -4.158745   -3.330020    0.093003
  H     -0.783382   -3.152160   -0.010015

 Total Charge           Charge          ....    0
 Multiplicity           Mult            ....    1
 Number of Electrons    NEL             ....   66
 Basis Dimension        Dim             ....  315

ORBITAL ENERGIES
----------------

  NO   OCC          E(Eh)            E(eV)
   0   2.0000     -20.634912      -561.5045
   1   2.0000     -15.616094      -424.9355
   2   2.0000     -15.603020      -424.5797
   3   2.0000     -15.588216      -424.1769
   4   2.0000     -15.534871      -422.7253
   5   2.0000     -11.330460      -308.3175
   6   2.0000     -11.328859      -308.2739
   7   2.0000     -11.278182      -306.8949
   8   2.0000     -11.269838      -306.6679
   9   2.0000      -1.487379       -40.4736
  10   2.0000      -1.295752       -35.2592
  11   2.0000      -1.231693       -33.5161
  12   2.0000      -1.178636       -32.0723
  13   2.0000      -1.141262       -31.0553
  14   2.0000      -1.036475       -28.2039
  15   2.0000      -0.872003       -23.7284
  16   2.0000      -0.831746       -22.6330
  17   2.0000      -0.790149       -21.5010
  18   2.0000      -0.743863       -20.2415
  19   2.0000      -0.707647       -19.2561
  20   2.0000      -0.707501       -19.2521
  21   2.0000      -0.656315       -17.8592
  22   2.0000      -0.641994       -17.4696
  23   2.0000      -0.636535       -17.3210
  24   2.0000      -0.586582       -15.9617
  25   2.0000      -0.571702       -15.5568
  26   2.0000      -0.564177       -15.3520
  27   2.0000      -0.499346       -13.5879
  28   2.0000      -0.443008       -12.0548
  29   2.0000      -0.436323       -11.8729
  30   2.0000      -0.432291       -11.7632
  31   2.0000      -0.398730       -10.8500
  32   2.0000      -0.313414        -8.5284
  33   0.0000       0.116860         3.1799
  34   0.0000       0.123264         3.3542
  35   0.0000       0.138334         3.7643
  36   0.0000       0.164715         4.4821
  37   0.0000       0.167947         4.5701

MULLIKEN ATOMIC CHARGES
-----------------------
   0 N :   -0.556716
   1 C :    0.150573
   2 C :    0.105530
   3 N :   -0.317352
   4 C :    0.090686
   5 N :   -0.444017
   6 C :   -0.106526
   7 N :   -0.105550
   8 O :   -0.093230
   9 H :    0.261213
  10 H :    0.261221
  11 H :    0.253047
  12 H :    0.101227
  13 H :    0.217336
  14 H :    0.182559
Sum of atomic charges:   -0.0000000

LOEWDIN ATOMIC CHARGES
----------------------
   0 N :   -0.105094
   1 C :   -0.380897
   2 C :   -0.226107
   3 N :    0.141031
   4 C :   -0.355948
   5 N :   -0.111926
   6 C :   -0.240088
   7 N :    0.030461
   8 O :    0.268684
   9 H :    0.174382
  10 H :    0.174385
  11 H :    0.199770
  12 H :    0.119120
  13 H :    0.162550
  14 H :    0.149678

  Mayer bond orders larger than 0.1
B(  0-N ,  1-C ) :   1.1334 B(  0-N ,  9-H ) :   0.8780 B(  0-N , 10-H ) :   0.8780
B(  1-C ,  2-C ) :   1.4616 B(  1-C ,  7-N ) :   0.1265 B(  1-C ,  8-O ) :   1.1378
B(  2-C ,  3-N ) :   0.9831 B(  2-C ,  6-C ) :   1.2604 B(  3-N ,  4-C ) :   1.0866
B(  3-N , 11-H ) :   0.8636 B(  4-C ,  5-N ) :   1.8575 B(  4-C , 12-H ) :   0.9223
B(  5-N , 13-H ) :   0.8625 B(  6-C ,  7-N ) :   1.5912 B(  6-C , 14-H ) :   0.8994
B(  7-N ,  8-O ) :   0.8872

MP2 TOTAL ENERGY:     -449.373045117 Eh
FINAL SINGLE POINT ENERGY      -449.373045116927

DIPOLE MOMENT
-------------
                                X             Y             Z
Electronic contribution:      4.16398      -0.71304      -0.12243
Nuclear contribution   :     -5.33360       2.23078       0.15138
                        -----------------------------------------
Total Dipole Moment    :     -1.16961       1.51774       0.02895
                        -----------------------------------------
Magnitude (a.u.)       :      1.91634
Magnitude (Debye)      :      4.87095

                             ****ORCA TERMINATED NORMALLY****
TOTAL RUN TIME: 0 days 0 hours 16 minutes 17 seconds 470 msec
