                         Program Version 3.0.3 - RELEASE   -
|  1> ! RI-MP2 RIJK def2-TZVP def2-TZVP/C def2-TZVP/JK TIGHTSCF
|  2> % maxcore 2000
|  3> % mp2 density relaxed end
|  4> *xyz 0 1
|  5>  C        0.0189969121     1.4227503244    -0.1516020455
|  6>  N        0.0355147064    -0.0261887645     0.0151101073
|  7>  C        0.7809613440    -0.3850578417     1.2184748973
|  8>  C       -1.2978369391    -0.5808892673     0.0294401416
|  9>  C       -2.1520389360    -0.3845942981    -1.2525490383
| 10>  N       -2.1341448481    -1.8420318108    -1.5131999492
| 11>  C       -1.4428739419    -2.1276421123    -0.2385485667
| 12>  C       -0.2325865401    -2.9371134409    -0.4081964915
| 13>  N        0.7009486931    -3.6087046917    -0.5246120499
| 14>  H        1.0482819426     1.7876671532    -0.2113387952
| 15>  H       -0.4891190521     1.7017903899    -1.0774763281
| 16>  H       -0.4784533162     1.9463940910     0.6874012605
| 17>  H        0.3267384584     0.0336841339     2.1371608103
| 18>  H        0.8416163037    -1.4695439931     1.3240787197
| 19>  H        1.8020235014    -0.0017538242     1.1392682450
| 20>  H       -1.8499964082    -0.3012154042     0.9454687702
| 21>  H       -3.1401373492     0.0471959209    -1.0584805092
| 22>  H       -1.6696977000     0.1830038713    -2.0535489557
| 23>  H       -3.0383712732    -2.2866639165    -1.6075401002
| 24>  H       -2.0609082475    -2.6129819893     0.5271504975
| 25> *
| 26>
| 27>                          ****END OF INPUT****

CARTESIAN COORDINATES (ANGSTROEM)
---------------------------------
  C      0.018997    1.422750   -0.151602
  N      0.035515   -0.026189    0.015110
  C      0.780961   -0.385058    1.218475
  C     -1.297837   -0.580889    0.029440
  C     -2.152039   -0.384594   -1.252549
  N     -2.134145   -1.842032   -1.513200
  C     -1.442874   -2.127642   -0.238549
  C     -0.232587   -2.937113   -0.408196
  N      0.700949   -3.608705   -0.524612
  H      1.048282    1.787667   -0.211339
  H     -0.489119    1.701790   -1.077476
  H     -0.478453    1.946394    0.687401
  H      0.326738    0.033684    2.137161
  H      0.841616   -1.469544    1.324079
  H      1.802024   -0.001754    1.139268
  H     -1.849996   -0.301215    0.945469
  H     -3.140137    0.047196   -1.058481
  H     -1.669698    0.183004   -2.053549
  H     -3.038371   -2.286664   -1.607540
  H     -2.060908   -2.612982    0.527150

 Total Charge           Charge          ....    0
 Multiplicity           Mult            ....    1
 Number of Electrons    NEL             ....   68
 Basis Dimension        Dim             ....  345

ORBITAL ENERGIES
----------------

  NO   OCC          E(Eh)            E(eV)
   0   2.0000     -15.567742      -423.6198
   1   2.0000     -15.564310      -423.5264
   2   2.0000     -15.561954      -423.4623
   3   2.0000     -11.310957      -307.7868
   4   2.0000     -11.287204      -307.1404
   5   2.0000     -11.271026      -306.7002
   6   2.0000     -11.263500      -306.4954
   7   2.0000     -11.254946      -306.2626
   8   2.0000     -11.249220      -306.1068
   9   2.0000      -1.278511       -34.7900
  10   2.0000      -1.226318       -33.3698
  11   2.0000      -1.204957       -32.7885
  12   2.0000      -0.999140       -27.1880
  13   2.0000      -0.982078       -26.7237
  14   2.0000      -0.954086       -25.9620
  15   2.0000      -0.870392       -23.6846
  16   2.0000      -0.796215       -21.6661
  17   2.0000      -0.732555       -19.9338
  18   2.0000      -0.702802       -19.1242
  19   2.0000      -0.646895       -17.6029
  20   2.0000      -0.636756       -17.3270
  21   2.0000      -0.619558       -16.8590
  22   2.0000      -0.586369       -15.9559
  23   2.0000      -0.574339       -15.6286
  24   2.0000      -0.553915       -15.0728
  25   2.0000      -0.551233       -14.9998
  26   2.0000      -0.545064       -14.8320
  27   2.0000      -0.525275       -14.2935
  28   2.0000      -0.510253       -13.8847
  29   2.0000      -0.492333       -13.3971
  30   2.0000      -0.453617       -12.3436
  31   2.0000      -0.438614       -11.9353
  32   2.0000      -0.404441       -11.0054
  33   2.0000      -0.369094       -10.0436
  34   0.0000       0.115348         3.1388
  35   0.0000       0.129567         3.5257
  36   0.0000       0.151157         4.1132
  37   0.0000       0.160938         4.3793
  38   0.0000       0.179700         4.8899

MULLIKEN ATOMIC CHARGES
-----------------------
   0 C :   -0.321882
   1 N :   -0.170702
   2 C :   -0.321503
   3 C :   -0.009230
   4 C :   -0.136311
   5 N :   -0.321713
   6 C :    0.082212
   7 C :   -0.193394
   8 N :   -0.051385
   9 H :    0.143361
  10 H :    0.131721
  11 H :    0.108701
  12 H :    0.106341
  13 H :    0.154366
  14 H :    0.140500
  15 H :    0.084993
  16 H :    0.119244
  17 H :    0.104063
  18 H :    0.213890
  19 H :    0.136729
Sum of atomic charges:   -0.0000000

LOEWDIN ATOMIC CHARGES
----------------------
   0 C :   -0.319143
   1 N :    0.059812
   2 C :   -0.315118
   3 C :   -0.236761
   4 C :   -0.244083
   5 N :    0.014176
   6 C :   -0.241951
   7 C :   -0.174999
   8 N :    0.064913
   9 H :    0.122407
  10 H :    0.117748
  11 H :    0.103958
  12 H :    0.103088
  13 H :    0.125568
  14 H :    0.122724
  15 H :    0.130891
  16 H :    0.120420
  17 H :    0.127119
  18 H :    0.161464
  19 H :    0.157769

  Mayer bond orders larger than 0.1
B(  0-C ,  1-N ) :   0.9097 B(  0-C ,  9-H ) :   0.9382 B(  0-C , 10-H ) :   0.9370
B(  0-C , 11-H ) :   0.9289 B(  1-N ,  2-C ) :   0.8905 B(  1-N ,  3-C ) :   0.9850
B(  2-C , 12-H ) :   0.9244 B(  2-C , 13-H ) :   0.9333 B(  2-C , 14-H ) :   0.9383
B(  3-C ,  4-C ) :   0.9235 B(  3-C ,  6-C ) :   0.9218 B(  3-C , 15-H ) :   0.9198
B(  4-C ,  5-N ) :   0.9855 B(  4-C , 16-H ) :   0.9217 B(  4-C , 17-H ) :   0.8987
B(  5-N ,  6-C ) :   1.0905 B(  5-N , 18-H ) :   0.8764 B(  6-C ,  7-C ) :   0.8727
B(  6-C , 19-H ) :   0.9178 B(  7-C ,  8-N ) :   2.8703

MP2 TOTAL ENERGY:     -398.602567791 Eh
FINAL SINGLE POINT ENERGY      -398.602567791183

DIPOLE MOMENT
-------------
                                X             Y             Z
Electronic contribution:      0.08432      -9.14622      -3.06914
Nuclear contribution   :     -1.54591      10.42504       3.76786
                        -----------------------------------------
Total Dipole Moment    :     -1.46159       1.27882       0.69872
                        -----------------------------------------
Magnitude (a.u.)       :      2.06394
Magnitude (Debye)      :      5.24611

                             ****ORCA TERMINATED NORMALLY****
TOTAL RUN TIME: 0 days 0 hours 21 minutes 33 seconds 211 msec
