                         Program Version 3.0.3 - RELEASE   -
|  1> ! RI-MP2 RIJK def2-TZVP def2-TZVP/C def2-TZVP/JK TIGHTSCF
|  2> % maxcore 2000
|  3> % mp2 density relaxed end
|  4> *xyz 0 1
|  5>  O       -0.1746734472     1.4469072212     0.0375138733
|  6>  C       -0.0197677994     0.0506695022     0.0235534025
|  7>  C        0.3612465635    -0.6238793191     1.3903575821
|  8>  C       -1.0760319602    -1.1356793834     1.5030756422
|  9>  C       -1.7556310043    -2.3196575398     2.1991333892
| 10>  C       -3.0511546607    -1.4521491290     2.3571581040
| 11>  C       -2.2786145416    -0.2073681521     1.8383056098
| 12>  O       -2.5255858999     0.1150452305     0.4519709388
| 13>  C       -1.4057006566    -0.6853236730     0.0558627696
| 14>  H        0.6996095838     1.8381261951     0.1330113323
| 15>  H        0.6125939994    -0.2798720929    -0.8126129672
| 16>  H        1.0985598007    -1.4241241358     1.2668639948
| 17>  H        0.7043605132     0.0547736213     2.1775499129
| 18>  H       -1.8380122395    -3.2474554910     1.6256571226
| 19>  H       -1.2973903382    -2.5555033626     3.1646645409
| 20>  H       -3.8742707857    -1.7276607628     1.6948703571
| 21>  H       -3.4280487006    -1.3715232950     3.3794084279
| 22>  H       -2.2329098236     0.6795761129     2.4753444659
| 23>  H       -1.6253913633    -1.3440292666    -0.7896099587
| 24> *
| 25>
| 26>                          ****END OF INPUT****

CARTESIAN COORDINATES (ANGSTROEM)
---------------------------------
  O     -0.174673    1.446907    0.037514
  C     -0.019768    0.050670    0.023553
  C      0.361247   -0.623879    1.390358
  C     -1.076032   -1.135679    1.503076
  C     -1.755631   -2.319658    2.199133
  C     -3.051155   -1.452149    2.357158
  C     -2.278615   -0.207368    1.838306
  O     -2.525586    0.115045    0.451971
  C     -1.405701   -0.685324    0.055863
  H      0.699610    1.838126    0.133011
  H      0.612594   -0.279872   -0.812613
  H      1.098560   -1.424124    1.266864
  H      0.704361    0.054774    2.177550
  H     -1.838012   -3.247455    1.625657
  H     -1.297390   -2.555503    3.164665
  H     -3.874271   -1.727661    1.694870
  H     -3.428049   -1.371523    3.379408
  H     -2.232910    0.679576    2.475344
  H     -1.625391   -1.344029   -0.789610

 Total Charge           Charge          ....    0
 Multiplicity           Mult            ....    1
 Number of Electrons    NEL             ....   68
 Basis Dimension        Dim             ....  339

ORBITAL ENERGIES
----------------

  NO   OCC          E(Eh)            E(eV)
   0   2.0000     -20.557923      -559.4095
   1   2.0000     -20.541173      -558.9537
   2   2.0000     -11.285160      -307.0848
   3   2.0000     -11.278259      -306.8970
   4   2.0000     -11.276543      -306.8503
   5   2.0000     -11.232819      -305.6605
   6   2.0000     -11.227937      -305.5277
   7   2.0000     -11.227612      -305.5189
   8   2.0000     -11.222881      -305.3901
   9   2.0000      -1.385498       -37.7013
  10   2.0000      -1.358418       -36.9644
  11   2.0000      -1.126977       -30.6666
  12   2.0000      -1.065833       -29.0028
  13   2.0000      -0.905065       -24.6281
  14   2.0000      -0.882837       -24.0232
  15   2.0000      -0.873011       -23.7558
  16   2.0000      -0.797819       -21.7098
  17   2.0000      -0.710855       -19.3433
  18   2.0000      -0.693456       -18.8699
  19   2.0000      -0.677556       -18.4372
  20   2.0000      -0.640408       -17.4264
  21   2.0000      -0.633924       -17.2499
  22   2.0000      -0.596969       -16.2444
  23   2.0000      -0.576216       -15.6796
  24   2.0000      -0.566502       -15.4153
  25   2.0000      -0.549759       -14.9597
  26   2.0000      -0.516479       -14.0541
  27   2.0000      -0.508644       -13.8409
  28   2.0000      -0.491319       -13.3695
  29   2.0000      -0.471141       -12.8204
  30   2.0000      -0.430927       -11.7261
  31   2.0000      -0.414148       -11.2695
  32   2.0000      -0.404945       -11.0191
  33   2.0000      -0.373702       -10.1689
  34   0.0000       0.134230         3.6526
  35   0.0000       0.142309         3.8724
  36   0.0000       0.161357         4.3908
  37   0.0000       0.168374         4.5817
  38   0.0000       0.181814         4.9474

MULLIKEN ATOMIC CHARGES
-----------------------
   0 O :   -0.432299
   1 C :   -0.006299
   2 C :   -0.257154
   3 C :    0.082306
   4 C :   -0.246464
   5 C :   -0.215202
   6 C :    0.012330
   7 O :   -0.325556
   8 C :    0.092320
   9 H :    0.315258
  10 H :    0.083067
  11 H :    0.113013
  12 H :    0.112257
  13 H :    0.115423
  14 H :    0.115829
  15 H :    0.124252
  16 H :    0.115141
  17 H :    0.095923
  18 H :    0.105854
Sum of atomic charges:   -0.0000000

LOEWDIN ATOMIC CHARGES
----------------------
   0 O :   -0.001973
   1 C :   -0.301838
   2 C :   -0.200481
   3 C :   -0.196650
   4 C :   -0.207510
   5 C :   -0.210542
   6 C :   -0.202016
   7 O :    0.167975
   8 C :   -0.199006
   9 H :    0.177363
  10 H :    0.123777
  11 H :    0.136011
  12 H :    0.130376
  13 H :    0.127949
  14 H :    0.136036
  15 H :    0.136598
  16 H :    0.128752
  17 H :    0.128141
  18 H :    0.127037

  Mayer bond orders larger than 0.1
B(  0-O ,  1-C ) :   1.1066 B(  0-O ,  9-H ) :   0.8415 B(  1-C ,  2-C ) :   0.9040
B(  1-C ,  8-C ) :   0.8243 B(  1-C , 10-H ) :   0.9370 B(  2-C ,  3-C ) :   0.9274
B(  2-C , 11-H ) :   0.8957 B(  2-C , 12-H ) :   0.9056 B(  3-C ,  4-C ) :   0.9063
B(  3-C ,  6-C ) :   0.9392 B(  3-C ,  8-C ) :   0.9476 B(  4-C ,  5-C ) :   0.9478
B(  4-C , 13-H ) :   0.9163 B(  4-C , 14-H ) :   0.9072 B(  5-C ,  6-C ) :   0.8739
B(  5-C , 15-H ) :   0.9143 B(  5-C , 16-H ) :   0.9157 B(  6-C ,  7-O ) :   0.9690
B(  6-C , 17-H ) :   0.9296 B(  7-O ,  8-C ) :   0.9599 B(  8-C , 18-H ) :   0.9244

MP2 TOTAL ENERGY:     -422.256846810 Eh
FINAL SINGLE POINT ENERGY      -422.256846810075

DIPOLE MOMENT
-------------
                                X             Y             Z
Electronic contribution:     -0.82333       3.63962      -2.95062
Nuclear contribution   :      1.80062      -4.22311       3.38309
                        -----------------------------------------
Total Dipole Moment    :      0.97728      -0.58350       0.43247
                        -----------------------------------------
Magnitude (a.u.)       :      1.21762
Magnitude (Debye)      :      3.09493

                             ****ORCA TERMINATED NORMALLY****
TOTAL RUN TIME: 0 days 0 hours 17 minutes 19 seconds 506 msec
