                         Program Version 3.0.3 - RELEASE   -
|  1> ! RI-MP2 RIJK def2-TZVP def2-TZVP/C def2-TZVP/JK TIGHTSCF
|  2> % maxcore 2000
|  3> % mp2 density relaxed end
|  4> *xyz 0 1
|  5>  C       -0.1192596901     1.5541206130     0.0587493124
|  6>  C        0.0568580444     0.0340237896    -0.0283818458
|  7>  C        0.8190390664    -0.4603784746    -1.2757992548
|  8>  C        2.3165133637    -0.1187663995    -1.1757383651
|  9>  O        3.0100747181    -0.1727366367    -2.4097304259
| 10>  C        0.5577372635    -1.9686625061    -1.4777530687
| 11>  C        1.1586519835    -2.6076848260    -2.7179214948
| 12>  C        2.4937240192    -3.3328084051    -2.6695839453
| 13>  C        1.2089627730    -4.1071902309    -2.8290310865
| 14>  H        0.8376381170     2.0817274424     0.1147848360
| 15>  H       -0.6563211301     1.9373121816    -0.8158741505
| 16>  H       -0.6948258594     1.8286779270     0.9484395878
| 17>  H        0.5690039615    -0.3310575328     0.8732902804
| 18>  H       -0.9351713403    -0.4342476267    -0.0156337888
| 19>  H        0.4321257584     0.0770634005    -2.1538301464
| 20>  H        2.4397500159     0.9094385580    -0.8224667595
| 21>  H        2.7861211614    -0.7725938252    -0.4197236698
| 22>  H        2.9583277365    -1.0798809910    -2.7271657804
| 23>  H        0.9120349305    -2.5144066951    -0.5907999336
| 24>  H       -0.5295662530    -2.1223851841    -1.5078733781
| 25>  H        0.9452370222    -2.0783259356    -3.6437137869
| 26>  H        3.1597475625    -3.2729438925    -3.5247459251
| 27>  H        3.0039350253    -3.3947719554    -1.7135602458
| 28>  H        0.8634294196    -4.6856962123    -1.9781447147
| 29>  H        1.0034362904    -4.5642841325    -3.7904272002
| 30> *
| 31>
| 32>                          ****END OF INPUT****

CARTESIAN COORDINATES (ANGSTROEM)
---------------------------------
  C     -0.119260    1.554121    0.058749
  C      0.056858    0.034024   -0.028382
  C      0.819039   -0.460378   -1.275799
  C      2.316513   -0.118766   -1.175738
  O      3.010075   -0.172737   -2.409730
  C      0.557737   -1.968663   -1.477753
  C      1.158652   -2.607685   -2.717921
  C      2.493724   -3.332808   -2.669584
  C      1.208963   -4.107190   -2.829031
  H      0.837638    2.081727    0.114785
  H     -0.656321    1.937312   -0.815874
  H     -0.694826    1.828678    0.948440
  H      0.569004   -0.331058    0.873290
  H     -0.935171   -0.434248   -0.015634
  H      0.432126    0.077063   -2.153830
  H      2.439750    0.909439   -0.822467
  H      2.786121   -0.772594   -0.419724
  H      2.958328   -1.079881   -2.727166
  H      0.912035   -2.514407   -0.590800
  H     -0.529566   -2.122385   -1.507873
  H      0.945237   -2.078326   -3.643714
  H      3.159748   -3.272944   -3.524746
  H      3.003935   -3.394772   -1.713560
  H      0.863429   -4.685696   -1.978145
  H      1.003436   -4.564284   -3.790427

 Total Charge           Charge          ....    0
 Multiplicity           Mult            ....    1
 Number of Electrons    NEL             ....   72
 Basis Dimension        Dim             ....  375

ORBITAL ENERGIES
----------------

  NO   OCC          E(Eh)            E(eV)
   0   2.0000     -20.540241      -558.9284
   1   2.0000     -11.264481      -306.5221
   2   2.0000     -11.239284      -305.8365
   3   2.0000     -11.233627      -305.6825
   4   2.0000     -11.230080      -305.5860
   5   2.0000     -11.226744      -305.4952
   6   2.0000     -11.224090      -305.4230
   7   2.0000     -11.222013      -305.3665
   8   2.0000     -11.213440      -305.1332
   9   2.0000      -1.347778       -36.6749
  10   2.0000      -1.152249       -31.3543
  11   2.0000      -1.084342       -29.5064
  12   2.0000      -0.992844       -27.0166
  13   2.0000      -0.929030       -25.2802
  14   2.0000      -0.860201       -23.4072
  15   2.0000      -0.832023       -22.6405
  16   2.0000      -0.787627       -21.4324
  17   2.0000      -0.773988       -21.0613
  18   2.0000      -0.689931       -18.7740
  19   2.0000      -0.669567       -18.2198
  20   2.0000      -0.632542       -17.2123
  21   2.0000      -0.621800       -16.9200
  22   2.0000      -0.611050       -16.6275
  23   2.0000      -0.571165       -15.5422
  24   2.0000      -0.564852       -15.3704
  25   2.0000      -0.557100       -15.1595
  26   2.0000      -0.530771       -14.4430
  27   2.0000      -0.520927       -14.1751
  28   2.0000      -0.506554       -13.7840
  29   2.0000      -0.500324       -13.6145
  30   2.0000      -0.482368       -13.1259
  31   2.0000      -0.468738       -12.7550
  32   2.0000      -0.460430       -12.5289
  33   2.0000      -0.426337       -11.6012
  34   2.0000      -0.417444       -11.3592
  35   2.0000      -0.401286       -10.9196
  36   0.0000       0.138554         3.7703
  37   0.0000       0.147784         4.0214
  38   0.0000       0.149352         4.0641
  39   0.0000       0.160149         4.3579
  40   0.0000       0.177863         4.8399

MULLIKEN ATOMIC CHARGES
-----------------------
   0 C :   -0.399588
   1 C :   -0.199223
   2 C :   -0.059051
   3 C :   -0.060431
   4 O :   -0.471168
   5 C :   -0.232706
   6 C :   -0.151818
   7 C :   -0.333252
   8 C :   -0.242828
   9 H :    0.123403
  10 H :    0.126381
  11 H :    0.134863
  12 H :    0.108898
  13 H :    0.111601
  14 H :    0.080802
  15 H :    0.111185
  16 H :    0.091491
  17 H :    0.323988
  18 H :    0.117157
  19 H :    0.120949
  20 H :    0.142545
  21 H :    0.148839
  22 H :    0.143734
  23 H :    0.129606
  24 H :    0.134622
Sum of atomic charges:   -0.0000000

LOEWDIN ATOMIC CHARGES
----------------------
   0 C :   -0.318909
   1 C :   -0.270918
   2 C :   -0.266379
   3 C :   -0.325680
   4 O :   -0.042153
   5 C :   -0.233083
   6 C :   -0.243241
   7 C :   -0.250492
   8 C :   -0.227386
   9 H :    0.118166
  10 H :    0.121734
  11 H :    0.121486
  12 H :    0.137799
  13 H :    0.138089
  14 H :    0.154398
  15 H :    0.128652
  16 H :    0.117073
  17 H :    0.166639
  18 H :    0.145335
  19 H :    0.145699
  20 H :    0.150434
  21 H :    0.131789
  22 H :    0.133582
  23 H :    0.134785
  24 H :    0.132582

  Mayer bond orders larger than 0.1
B(  0-C ,  1-C ) :   0.9283 B(  0-C ,  9-H ) :   0.9392 B(  0-C , 10-H ) :   0.9394
B(  0-C , 11-H ) :   0.9431 B(  1-C ,  2-C ) :   0.9062 B(  1-C , 12-H ) :   0.9211
B(  1-C , 13-H ) :   0.9361 B(  2-C ,  3-C ) :   0.9222 B(  2-C ,  5-C ) :   0.9353
B(  2-C , 14-H ) :   0.9246 B(  3-C ,  4-O ) :   0.9431 B(  3-C , 15-H ) :   0.9318
B(  3-C , 16-H ) :   0.9290 B(  4-O , 17-H ) :   0.8404 B(  5-C ,  6-C ) :   0.8862
B(  5-C , 18-H ) :   0.9256 B(  5-C , 19-H ) :   0.9303 B(  6-C ,  7-C ) :   0.8911
B(  6-C ,  8-C ) :   0.8793 B(  6-C , 20-H ) :   0.9285 B(  7-C ,  8-C ) :   0.8960
B(  7-C , 21-H ) :   0.9300 B(  7-C , 22-H ) :   0.9271 B(  8-C , 23-H ) :   0.9279
B(  8-C , 24-H ) :   0.9313

MP2 TOTAL ENERGY:     -388.804420985 Eh
FINAL SINGLE POINT ENERGY      -388.804420985491

DIPOLE MOMENT
-------------
                                X             Y             Z
Electronic contribution:      3.04057      -1.30123      -3.44652
Nuclear contribution   :     -3.53401       0.71270       3.68555
                        -----------------------------------------
Total Dipole Moment    :     -0.49343      -0.58852       0.23903
                        -----------------------------------------
Magnitude (a.u.)       :      0.80435
Magnitude (Debye)      :      2.04449

                             ****ORCA TERMINATED NORMALLY****
TOTAL RUN TIME: 0 days 0 hours 19 minutes 57 seconds 109 msec
