                         Program Version 3.0.3 - RELEASE   -
|  1> ! RI-MP2 RIJK def2-TZVP def2-TZVP/C def2-TZVP/JK TIGHTSCF
|  2> % maxcore 2000
|  3> % mp2 density relaxed end
|  4> *xyz 0 1
|  5>  C       -0.1576873304     1.4585349557     0.0985315414
|  6>  C        0.0926771731    -0.0306920319    -0.1798759714
|  7>  C        0.9099343734    -0.2253296154    -1.3765369155
|  8>  C        1.5731043014    -0.3714195137    -2.3669420800
|  9>  N        0.7848681640    -0.6130867618     0.9868761382
| 10>  C       -0.0427932163    -1.0643525932     2.0885878783
| 11>  C        0.6752998312    -2.0573678522     1.2200952686
| 12>  C       -0.1100103627    -2.9037968292     0.3528900612
| 13>  N       -0.7243212265    -3.5957761478    -0.3412736919
| 14>  H        0.7898481722     1.9724968586     0.2746537309
| 15>  H       -0.6577538244     1.9204169472    -0.7557045668
| 16>  H       -0.7931342260     1.5766325761     0.9811963577
| 17>  H       -0.8794110406    -0.5261343045    -0.3446824205
| 18>  H        2.1540829328    -0.5132075321    -3.2446860378
| 19>  H        0.3324374747    -0.8621927572     3.0873174967
| 20>  H       -1.1251008439    -1.0205693359     1.9775917067
| 21>  H        1.5877658679    -2.5249578328     1.5782523944
| 22> *
| 23>
| 24>                          ****END OF INPUT****

CARTESIAN COORDINATES (ANGSTROEM)
---------------------------------
  C     -0.157687    1.458535    0.098532
  C      0.092677   -0.030692   -0.179876
  C      0.909934   -0.225330   -1.376537
  C      1.573104   -0.371420   -2.366942
  N      0.784868   -0.613087    0.986876
  C     -0.042793   -1.064353    2.088588
  C      0.675300   -2.057368    1.220095
  C     -0.110010   -2.903797    0.352890
  N     -0.724321   -3.595776   -0.341274
  H      0.789848    1.972497    0.274654
  H     -0.657754    1.920417   -0.755705
  H     -0.793134    1.576633    0.981196
  H     -0.879411   -0.526134   -0.344682
  H      2.154083   -0.513208   -3.244686
  H      0.332437   -0.862193    3.087317
  H     -1.125101   -1.020569    1.977592
  H      1.587766   -2.524958    1.578252

 Total Charge           Charge          ....    0
 Multiplicity           Mult            ....    1
 Number of Electrons    NEL             ....   64
 Basis Dimension        Dim             ....  327

ORBITAL ENERGIES
----------------

  NO   OCC          E(Eh)            E(eV)
   0   2.0000     -15.602347      -424.5614
   1   2.0000     -15.578248      -423.9057
   2   2.0000     -11.318596      -307.9946
   3   2.0000     -11.305745      -307.6450
   4   2.0000     -11.295900      -307.3771
   5   2.0000     -11.281110      -306.9746
   6   2.0000     -11.237658      -305.7922
   7   2.0000     -11.235826      -305.7424
   8   2.0000     -11.230227      -305.5900
   9   2.0000      -1.321056       -35.9478
  10   2.0000      -1.221404       -33.2361
  11   2.0000      -1.104525       -30.0557
  12   2.0000      -1.012159       -27.5422
  13   2.0000      -0.952480       -25.9183
  14   2.0000      -0.921872       -25.0854
  15   2.0000      -0.851260       -23.1639
  16   2.0000      -0.764687       -20.8082
  17   2.0000      -0.713377       -19.4120
  18   2.0000      -0.709545       -19.3077
  19   2.0000      -0.658781       -17.9263
  20   2.0000      -0.610189       -16.6041
  21   2.0000      -0.602624       -16.3982
  22   2.0000      -0.565026       -15.3751
  23   2.0000      -0.559976       -15.2377
  24   2.0000      -0.540039       -14.6952
  25   2.0000      -0.528350       -14.3771
  26   2.0000      -0.517493       -14.0817
  27   2.0000      -0.476472       -12.9654
  28   2.0000      -0.459686       -12.5087
  29   2.0000      -0.410076       -11.1587
  30   2.0000      -0.399547       -10.8722
  31   2.0000      -0.389099       -10.5879
  32   0.0000       0.125733         3.4214
  33   0.0000       0.146526         3.9872
  34   0.0000       0.148768         4.0482
  35   0.0000       0.157811         4.2943
  36   0.0000       0.162250         4.4150

MULLIKEN ATOMIC CHARGES
-----------------------
   0 C :   -0.383635
   1 C :   -0.096556
   2 C :   -0.032164
   3 C :   -0.119796
   4 N :   -0.193881
   5 C :   -0.156306
   6 C :    0.017996
   7 C :   -0.185722
   8 N :   -0.049200
   9 H :    0.144093
  10 H :    0.144743
  11 H :    0.132180
  12 H :    0.130537
  13 H :    0.195082
  14 H :    0.148573
  15 H :    0.143200
  16 H :    0.160857
Sum of atomic charges:    0.0000000

LOEWDIN ATOMIC CHARGES
----------------------
   0 C :   -0.264350
   1 C :   -0.296862
   2 C :   -0.081932
   3 C :   -0.077567
   4 N :    0.163060
   5 C :   -0.212115
   6 C :   -0.236312
   7 C :   -0.182838
   8 N :    0.073476
   9 H :    0.132874
  10 H :    0.132468
  11 H :    0.124822
  12 H :    0.162703
  13 H :    0.129037
  14 H :    0.132357
  15 H :    0.135459
  16 H :    0.165720

  Mayer bond orders larger than 0.1
B(  0-C ,  1-C ) :   0.8865 B(  0-C ,  9-H ) :   0.9316 B(  0-C , 10-H ) :   0.9352
B(  0-C , 11-H ) :   0.9322 B(  1-C ,  2-C ) :   1.1063 B(  1-C ,  4-N ) :   0.8204
B(  1-C , 12-H ) :   0.9603 B(  2-C ,  3-C ) :   2.6148 B(  3-C , 13-H ) :   0.8891
B(  4-N ,  5-C ) :   0.8801 B(  4-N ,  6-C ) :   0.9271 B(  5-C ,  6-C ) :   0.8915
B(  5-C , 14-H ) :   0.9216 B(  5-C , 15-H ) :   0.9130 B(  6-C ,  7-C ) :   0.9698
B(  6-C , 16-H ) :   0.9044 B(  7-C ,  8-N ) :   2.8196

MP2 TOTAL ENERGY:     -380.129081811 Eh
FINAL SINGLE POINT ENERGY      -380.129081810726

DIPOLE MOMENT
-------------
                                X             Y             Z
Electronic contribution:      1.21662      -6.69112      -1.85271
Nuclear contribution   :     -1.02930       7.58729       2.67065
                        -----------------------------------------
Total Dipole Moment    :      0.18732       0.89617       0.81793
                        -----------------------------------------
Magnitude (a.u.)       :      1.22769
Magnitude (Debye)      :      3.12054

                             ****ORCA TERMINATED NORMALLY****
TOTAL RUN TIME: 0 days 0 hours 17 minutes 40 seconds 93 msec
