                         Program Version 3.0.3 - RELEASE   -
|  1> ! RI-MP2 RIJK def2-TZVP def2-TZVP/C def2-TZVP/JK TIGHTSCF
|  2> % maxcore 2000
|  3> % mp2 density relaxed end
|  4> *xyz 0 1
|  5>  C       -0.0183238053     1.5265762514     0.0167903496
|  6>  C        1.3080590048     0.8011624087     0.0039207284
|  7>  C        0.0161865924     0.0234641366    -0.0018565541
|  8>  C       -0.3515692385    -0.7255780915     1.2586243519
|  9>  O        0.3174340152    -1.9774713986     1.3459356394
| 10>  C        0.2524550441    -2.7821712066     0.2043375699
| 11>  C       -1.0422670332    -3.1548016092    -0.4651734484
| 12>  C       -0.0637126281    -2.2142965998    -1.1570837419
| 13>  C       -0.4000421257    -0.7245225853    -1.2603477650
| 14>  H       -0.3206234273     2.0272018522     0.9314304445
| 15>  H       -0.3320429932     2.0369045820    -0.8885705767
| 16>  H        1.8934433718     0.8254340002    -0.9092875758
| 17>  H        1.9022894232     0.8029408136     0.9116851472
| 18>  H       -0.0482183897    -0.1710766873     2.1515702032
| 19>  H       -1.4441214539    -0.8668095260     1.3132366295
| 20>  H        1.0181254623    -3.5475459503     0.2759827383
| 21>  H       -1.1546843643    -4.1670644263    -0.8382545101
| 22>  H       -1.9620829139    -2.7157835588    -0.0917939334
| 23>  H        0.4932472488    -2.6260764066    -1.9924236853
| 24>  H       -1.4767451319    -0.5903151107    -1.4307598702
| 25>  H        0.1041116924    -0.2904271574    -2.1296161010
| 26> *
| 27>
| 28>                          ****END OF INPUT****

CARTESIAN COORDINATES (ANGSTROEM)
---------------------------------
  C     -0.018324    1.526576    0.016790
  C      1.308059    0.801162    0.003921
  C      0.016187    0.023464   -0.001857
  C     -0.351569   -0.725578    1.258624
  O      0.317434   -1.977471    1.345936
  C      0.252455   -2.782171    0.204338
  C     -1.042267   -3.154802   -0.465173
  C     -0.063713   -2.214297   -1.157084
  C     -0.400042   -0.724523   -1.260348
  H     -0.320623    2.027202    0.931430
  H     -0.332043    2.036905   -0.888571
  H      1.893443    0.825434   -0.909288
  H      1.902289    0.802941    0.911685
  H     -0.048218   -0.171077    2.151570
  H     -1.444121   -0.866810    1.313237
  H      1.018125   -3.547546    0.275983
  H     -1.154684   -4.167064   -0.838255
  H     -1.962083   -2.715784   -0.091794
  H      0.493247   -2.626076   -1.992424
  H     -1.476745   -0.590315   -1.430760
  H      0.104112   -0.290427   -2.129616

 Total Charge           Charge          ....    0
 Multiplicity           Mult            ....    1
 Number of Electrons    NEL             ....   68
 Basis Dimension        Dim             ....  351

ORBITAL ENERGIES
----------------

  NO   OCC          E(Eh)            E(eV)
   0   2.0000     -20.552677      -559.2668
   1   2.0000     -11.277604      -306.8792
   2   2.0000     -11.273928      -306.7792
   3   2.0000     -11.234555      -305.7078
   4   2.0000     -11.229215      -305.5625
   5   2.0000     -11.228598      -305.5457
   6   2.0000     -11.225976      -305.4743
   7   2.0000     -11.222692      -305.3850
   8   2.0000     -11.219360      -305.2943
   9   2.0000      -1.376109       -37.4458
  10   2.0000      -1.156469       -31.4691
  11   2.0000      -1.130030       -30.7497
  12   2.0000      -0.988771       -26.9058
  13   2.0000      -0.932668       -25.3792
  14   2.0000      -0.827060       -22.5055
  15   2.0000      -0.814679       -22.1685
  16   2.0000      -0.802734       -21.8435
  17   2.0000      -0.715581       -19.4719
  18   2.0000      -0.697718       -18.9859
  19   2.0000      -0.670908       -18.2563
  20   2.0000      -0.637321       -17.3424
  21   2.0000      -0.630703       -17.1623
  22   2.0000      -0.587051       -15.9745
  23   2.0000      -0.582173       -15.8417
  24   2.0000      -0.553235       -15.0543
  25   2.0000      -0.541584       -14.7372
  26   2.0000      -0.517474       -14.0812
  27   2.0000      -0.511501       -13.9186
  28   2.0000      -0.493985       -13.4420
  29   2.0000      -0.469663       -12.7802
  30   2.0000      -0.418391       -11.3850
  31   2.0000      -0.408447       -11.1144
  32   2.0000      -0.389940       -10.6108
  33   2.0000      -0.366798        -9.9811
  34   0.0000       0.139143         3.7863
  35   0.0000       0.154720         4.2101
  36   0.0000       0.168028         4.5723
  37   0.0000       0.171525         4.6674
  38   0.0000       0.182470         4.9653

MULLIKEN ATOMIC CHARGES
-----------------------
   0 C :   -0.293478
   1 C :   -0.297427
   2 C :    0.084151
   3 C :   -0.062704
   4 O :   -0.296121
   5 C :    0.054894
   6 C :   -0.318475
   7 C :   -0.101597
   8 C :   -0.238627
   9 H :    0.128843
  10 H :    0.125618
  11 H :    0.125331
  12 H :    0.130182
  13 H :    0.115177
  14 H :    0.101097
  15 H :    0.119489
  16 H :    0.128501
  17 H :    0.130633
  18 H :    0.122067
  19 H :    0.121692
  20 H :    0.120753
Sum of atomic charges:   -0.0000000

LOEWDIN ATOMIC CHARGES
----------------------
   0 C :   -0.207468
   1 C :   -0.203520
   2 C :   -0.258478
   3 C :   -0.263299
   4 O :    0.190938
   5 C :   -0.285957
   6 C :   -0.218167
   7 C :   -0.199600
   8 C :   -0.198008
   9 H :    0.133841
  10 H :    0.134252
  11 H :    0.132734
  12 H :    0.135182
  13 H :    0.137426
  14 H :    0.126101
  15 H :    0.140932
  16 H :    0.131354
  17 H :    0.134954
  18 H :    0.144969
  19 H :    0.144918
  20 H :    0.146895

  Mayer bond orders larger than 0.1
B(  0-C ,  1-C ) :   0.9320 B(  0-C ,  2-C ) :   0.8557 B(  0-C ,  9-H ) :   0.9204
B(  0-C , 10-H ) :   0.9173 B(  1-C ,  2-C ) :   0.8524 B(  1-C , 11-H ) :   0.9232
B(  1-C , 12-H ) :   0.9258 B(  2-C ,  3-C ) :   0.9479 B(  2-C ,  8-C ) :   0.9362
B(  3-C ,  4-O ) :   0.9453 B(  3-C , 13-H ) :   0.9066 B(  3-C , 14-H ) :   0.9438
B(  4-O ,  5-C ) :   0.9882 B(  5-C ,  6-C ) :   0.8745 B(  5-C ,  7-C ) :   0.8766
B(  5-C , 15-H ) :   0.9475 B(  6-C ,  7-C ) :   0.8619 B(  6-C , 16-H ) :   0.9219
B(  6-C , 17-H ) :   0.9186 B(  7-C ,  8-C ) :   0.9196 B(  7-C , 18-H ) :   0.9186
B(  8-C , 19-H ) :   0.9306 B(  8-C , 20-H ) :   0.9206

MP2 TOTAL ENERGY:     -386.382209715 Eh
FINAL SINGLE POINT ENERGY      -386.382209714897

DIPOLE MOMENT
-------------
                                X             Y             Z
Electronic contribution:      1.07430      -2.66597       2.22726
Nuclear contribution   :     -1.25388       2.88834      -2.69085
                        -----------------------------------------
Total Dipole Moment    :     -0.17958       0.22237      -0.46358
                        -----------------------------------------
Magnitude (a.u.)       :      0.54462
Magnitude (Debye)      :      1.38431

                             ****ORCA TERMINATED NORMALLY****
TOTAL RUN TIME: 0 days 0 hours 19 minutes 8 seconds 252 msec
