                         Program Version 3.0.3 - RELEASE   -
|  1> ! RI-MP2 RIJK def2-TZVP def2-TZVP/C def2-TZVP/JK TIGHTSCF
|  2> % maxcore 2000
|  3> % mp2 density relaxed end
|  4> *xyz 0 1
|  5>  O        0.2501144903     1.0256513640    -0.5537098132
|  6>  C       -0.0420121514    -0.3274898333    -0.2351179072
|  7>  C       -1.5079307127    -0.4210877009     0.1840505354
|  8>  C       -2.4544997305    -0.0419002111    -0.9893974326
|  9>  C       -2.9502795035    -1.3739198479    -1.4928377241
| 10>  C       -2.6433573976    -2.3748605611    -0.6680104925
| 11>  C       -3.0036255074    -3.8162904566    -0.8192785036
| 12>  O       -3.7420915218    -4.0106897499    -2.0121185628
| 13>  C       -1.8770898711    -1.8869885166     0.5433235741
| 14>  H        1.1393157702     1.0645915771    -0.9168132514
| 15>  H        0.1305669990    -0.9880502946    -1.1008325578
| 16>  H        0.5980663957    -0.6851496775     0.5876951000
| 17>  H       -1.6466993627     0.2480892900     1.0379608871
| 18>  H       -3.2906017849     0.5842939234    -0.6486493976
| 19>  H       -1.9281118973     0.5462801135    -1.7486847656
| 20>  H       -3.5171694421    -1.4925497683    -2.4077991785
| 21>  H       -2.0800561239    -4.4239184024    -0.8158988825
| 22>  H       -3.5801766983    -4.1392152844     0.0671006068
| 23>  H       -3.9600536128    -4.9443533700    -2.0789343215
| 24>  H       -0.9866544372    -2.4966241043     0.7533587177
| 25>  H       -2.4976573200    -1.9413993992     1.4487381898
| 26> *
| 27>
| 28>                          ****END OF INPUT****

CARTESIAN COORDINATES (ANGSTROEM)
---------------------------------
  O      0.250114    1.025651   -0.553710
  C     -0.042012   -0.327490   -0.235118
  C     -1.507931   -0.421088    0.184051
  C     -2.454500   -0.041900   -0.989397
  C     -2.950280   -1.373920   -1.492838
  C     -2.643357   -2.374861   -0.668010
  C     -3.003626   -3.816290   -0.819279
  O     -3.742092   -4.010690   -2.012119
  C     -1.877090   -1.886989    0.543324
  H      1.139316    1.064592   -0.916813
  H      0.130567   -0.988050   -1.100833
  H      0.598066   -0.685150    0.587695
  H     -1.646699    0.248089    1.037961
  H     -3.290602    0.584294   -0.648649
  H     -1.928112    0.546280   -1.748685
  H     -3.517169   -1.492550   -2.407799
  H     -2.080056   -4.423918   -0.815899
  H     -3.580177   -4.139215    0.067101
  H     -3.960054   -4.944353   -2.078934
  H     -0.986654   -2.496624    0.753359
  H     -2.497657   -1.941399    1.448738

 Total Charge           Charge          ....    0
 Multiplicity           Mult            ....    1
 Number of Electrons    NEL             ....   70
 Basis Dimension        Dim             ....  351

ORBITAL ENERGIES
----------------

  NO   OCC          E(Eh)            E(eV)
   0   2.0000     -20.557090      -559.3869
   1   2.0000     -20.551530      -559.2356
   2   2.0000     -11.281497      -306.9852
   3   2.0000     -11.269844      -306.6680
   4   2.0000     -11.223525      -305.4076
   5   2.0000     -11.221759      -305.3596
   6   2.0000     -11.218742      -305.2775
   7   2.0000     -11.210276      -305.0471
   8   2.0000     -11.207387      -304.9685
   9   2.0000      -1.362503       -37.0756
  10   2.0000      -1.355994       -36.8985
  11   2.0000      -1.133262       -30.8376
  12   2.0000      -1.014962       -27.6185
  13   2.0000      -0.966775       -26.3073
  14   2.0000      -0.911887       -24.8137
  15   2.0000      -0.866970       -23.5915
  16   2.0000      -0.763664       -20.7803
  17   2.0000      -0.708478       -19.2787
  18   2.0000      -0.695498       -18.9255
  19   2.0000      -0.689266       -18.7559
  20   2.0000      -0.649792       -17.6817
  21   2.0000      -0.639336       -17.3972
  22   2.0000      -0.627347       -17.0710
  23   2.0000      -0.599463       -16.3122
  24   2.0000      -0.556082       -15.1318
  25   2.0000      -0.539092       -14.6694
  26   2.0000      -0.534578       -14.5466
  27   2.0000      -0.503975       -13.7138
  28   2.0000      -0.479326       -13.0431
  29   2.0000      -0.478955       -13.0330
  30   2.0000      -0.469467       -12.7748
  31   2.0000      -0.466298       -12.6886
  32   2.0000      -0.449678       -12.2363
  33   2.0000      -0.434522       -11.8239
  34   2.0000      -0.328157        -8.9296
  35   0.0000       0.130683         3.5561
  36   0.0000       0.139558         3.7976
  37   0.0000       0.152692         4.1550
  38   0.0000       0.165288         4.4977
  39   0.0000       0.172661         4.6983

MULLIKEN ATOMIC CHARGES
-----------------------
   0 O :   -0.470041
   1 C :   -0.154732
   2 C :    0.044312
   3 C :   -0.171651
   4 C :   -0.220581
   5 C :   -0.003556
   6 C :   -0.104690
   7 O :   -0.461606
   8 C :   -0.234252
   9 H :    0.315737
  10 H :    0.113289
  11 H :    0.098994
  12 H :    0.097902
  13 H :    0.112693
  14 H :    0.138811
  15 H :    0.139982
  16 H :    0.103886
  17 H :    0.103695
  18 H :    0.313566
  19 H :    0.116902
  20 H :    0.121339
Sum of atomic charges:    0.0000000

LOEWDIN ATOMIC CHARGES
----------------------
   0 O :   -0.047663
   1 C :   -0.333957
   2 C :   -0.225058
   3 C :   -0.217651
   4 C :   -0.131485
   5 C :   -0.182984
   6 C :   -0.316849
   7 O :   -0.037947
   8 C :   -0.191229
   9 H :    0.171662
  10 H :    0.121942
  11 H :    0.115491
  12 H :    0.148710
  13 H :    0.139973
  14 H :    0.142910
  15 H :    0.142444
  16 H :    0.123859
  17 H :    0.124728
  18 H :    0.173035
  19 H :    0.138982
  20 H :    0.141086

  Mayer bond orders larger than 0.1
B(  0-O ,  1-C ) :   1.0071 B(  0-O ,  9-H ) :   0.8482 B(  1-C ,  2-C ) :   0.9014
B(  1-C , 10-H ) :   0.9264 B(  1-C , 11-H ) :   0.9300 B(  2-C ,  3-C ) :   0.9202
B(  2-C ,  8-C ) :   0.8854 B(  2-C , 12-H ) :   0.9284 B(  3-C ,  4-C ) :   0.9268
B(  3-C , 13-H ) :   0.9090 B(  3-C , 14-H ) :   0.9298 B(  4-C ,  5-C ) :   1.7496
B(  4-C , 15-H ) :   0.9300 B(  5-C ,  6-C ) :   0.9140 B(  5-C ,  7-O ) :  -0.1185
B(  5-C ,  8-C ) :   0.9334 B(  6-C ,  7-O ) :   1.0535 B(  6-C , 16-H ) :   0.9407
B(  6-C , 17-H ) :   0.9238 B(  7-O , 18-H ) :   0.8484 B(  8-C , 19-H ) :   0.9282
B(  8-C , 20-H ) :   0.9007

MP2 TOTAL ENERGY:     -423.527432545 Eh
FINAL SINGLE POINT ENERGY      -423.527432544759

DIPOLE MOMENT
-------------
                                X             Y             Z
Electronic contribution:     -1.32748      -0.03954      -2.02546
Nuclear contribution   :      1.82041      -0.86060       2.30959
                        -----------------------------------------
Total Dipole Moment    :      0.49293      -0.90014       0.28413
                        -----------------------------------------
Magnitude (a.u.)       :      1.06488
Magnitude (Debye)      :      2.70671

                             ****ORCA TERMINATED NORMALLY****
TOTAL RUN TIME: 0 days 0 hours 27 minutes 12 seconds 92 msec
