                         Program Version 3.0.3 - RELEASE   -
|  1> ! RI-MP2 RIJK def2-TZVP def2-TZVP/C def2-TZVP/JK TIGHTSCF
|  2> % maxcore 2000
|  3> % mp2 density relaxed end
|  4> *xyz 0 1
|  5>  C       -0.0153279529     1.4346991751    -0.0820821717
|  6>  N       -0.0071557479    -0.0203731399     0.0207848099
|  7>  C        1.3084311279    -0.6396195332     0.0670500719
|  8>  C       -1.1806097394    -0.6859338779    -0.0239352254
|  9>  O       -2.2782184451    -0.1489133239    -0.0852508342
| 10>  C       -1.1821151016    -2.2501113010     0.0115511327
| 11>  O       -2.4983724415    -2.6847643212     0.1276647506
| 12>  C       -0.5412242916    -2.7798094212    -1.2134269253
| 13>  N       -0.0231494615    -3.1821123483    -2.1649261039
| 14>  H        0.5227600451     1.7539272895    -0.9820931431
| 15>  H       -1.0471454640     1.7757388621    -0.1339591941
| 16>  H        0.4758201023     1.8765741172     0.7919057191
| 17>  H        1.2502838224    -1.6929566831     0.3338185715
| 18>  H        1.8150926414    -0.5623724290    -0.9020671201
| 19>  H        1.9189900811    -0.1315423702     0.8210283961
| 20>  H       -0.5985703568    -2.6025515617     0.8732452719
| 21>  H       -3.0258048778    -1.8741699831    -0.0149844959
| 22> *
| 23>
| 24>                          ****END OF INPUT****

CARTESIAN COORDINATES (ANGSTROEM)
---------------------------------
  C     -0.015328    1.434699   -0.082082
  N     -0.007156   -0.020373    0.020785
  C      1.308431   -0.639620    0.067050
  C     -1.180610   -0.685934   -0.023935
  O     -2.278218   -0.148913   -0.085251
  C     -1.182115   -2.250111    0.011551
  O     -2.498372   -2.684764    0.127665
  C     -0.541224   -2.779809   -1.213427
  N     -0.023149   -3.182112   -2.164926
  H      0.522760    1.753927   -0.982093
  H     -1.047145    1.775739   -0.133959
  H      0.475820    1.876574    0.791906
  H      1.250284   -1.692957    0.333819
  H      1.815093   -0.562372   -0.902067
  H      1.918990   -0.131542    0.821028
  H     -0.598570   -2.602552    0.873245
  H     -3.025805   -1.874170   -0.014984

 Total Charge           Charge          ....    0
 Multiplicity           Mult            ....    1
 Number of Electrons    NEL             ....   68
 Basis Dimension        Dim             ....  327

ORBITAL ENERGIES
----------------

  NO   OCC          E(Eh)            E(eV)
   0   2.0000     -20.582157      -560.0690
   1   2.0000     -20.554899      -559.3272
   2   2.0000     -15.624088      -425.1531
   3   2.0000     -15.588308      -424.1794
   4   2.0000     -11.389617      -309.9272
   5   2.0000     -11.361406      -309.1596
   6   2.0000     -11.293628      -307.3153
   7   2.0000     -11.287337      -307.1440
   8   2.0000     -11.278904      -306.9146
   9   2.0000      -1.437171       -39.1074
  10   2.0000      -1.387631       -37.7593
  11   2.0000      -1.283097       -34.9148
  12   2.0000      -1.232049       -33.5258
  13   2.0000      -1.046183       -28.4681
  14   2.0000      -0.999548       -27.1991
  15   2.0000      -0.956657       -26.0320
  16   2.0000      -0.801272       -21.8037
  17   2.0000      -0.756199       -20.5772
  18   2.0000      -0.748658       -20.3720
  19   2.0000      -0.708575       -19.2813
  20   2.0000      -0.678546       -18.4642
  21   2.0000      -0.657575       -17.8935
  22   2.0000      -0.635384       -17.2897
  23   2.0000      -0.596305       -16.2263
  24   2.0000      -0.585978       -15.9453
  25   2.0000      -0.579557       -15.7706
  26   2.0000      -0.564950       -15.3731
  27   2.0000      -0.561308       -15.2740
  28   2.0000      -0.548256       -14.9188
  29   2.0000      -0.511412       -13.9162
  30   2.0000      -0.490931       -13.3589
  31   2.0000      -0.481841       -13.1116
  32   2.0000      -0.451534       -12.2869
  33   2.0000      -0.407920       -11.1001
  34   0.0000       0.110333         3.0023
  35   0.0000       0.136821         3.7231
  36   0.0000       0.140093         3.8121
  37   0.0000       0.156135         4.2486
  38   0.0000       0.171769         4.6741

MULLIKEN ATOMIC CHARGES
-----------------------
   0 C :   -0.326611
   1 N :   -0.097208
   2 C :   -0.318556
   3 C :    0.259344
   4 O :   -0.407270
   5 C :    0.091163
   6 O :   -0.449885
   7 C :   -0.140632
   8 N :   -0.063679
   9 H :    0.146266
  10 H :    0.188581
  11 H :    0.144361
  12 H :    0.152229
  13 H :    0.164014
  14 H :    0.150776
  15 H :    0.156404
  16 H :    0.350703
Sum of atomic charges:   -0.0000000

LOEWDIN ATOMIC CHARGES
----------------------
   0 C :   -0.272440
   1 N :    0.163462
   2 C :   -0.274800
   3 C :   -0.411501
   4 O :    0.077850
   5 C :   -0.330838
   6 O :    0.022477
   7 C :   -0.169034
   8 N :    0.070990
   9 H :    0.123289
  10 H :    0.137279
  11 H :    0.121758
  12 H :    0.130837
  13 H :    0.127307
  14 H :    0.125322
  15 H :    0.165546
  16 H :    0.192498

  Mayer bond orders larger than 0.1
B(  0-C ,  1-N ) :   0.8543 B(  0-C ,  9-H ) :   0.9286 B(  0-C , 10-H ) :   0.9224
B(  0-C , 11-H ) :   0.9332 B(  1-N ,  2-C ) :   0.8757 B(  1-N ,  3-C ) :   1.2636
B(  2-C , 12-H ) :   0.9251 B(  2-C , 13-H ) :   0.9312 B(  2-C , 14-H ) :   0.9254
B(  3-C ,  4-O ) :   1.7691 B(  3-C ,  5-C ) :   0.8906 B(  5-C ,  6-O ) :   1.1438
B(  5-C ,  7-C ) :   0.8109 B(  5-C , 15-H ) :   0.9376 B(  6-O , 16-H ) :   0.7767
B(  7-C ,  8-N ) :   2.8321

MP2 TOTAL ENERGY:     -454.441620331 Eh
FINAL SINGLE POINT ENERGY      -454.441620330894

DIPOLE MOMENT
-------------
                                X             Y             Z
Electronic contribution:     -5.50402      -6.13471      -2.24175
Nuclear contribution   :      6.74677       7.45223       3.28684
                        -----------------------------------------
Total Dipole Moment    :      1.24276       1.31752       1.04510
                        -----------------------------------------
Magnitude (a.u.)       :      2.09106
Magnitude (Debye)      :      5.31505

                             ****ORCA TERMINATED NORMALLY****
TOTAL RUN TIME: 0 days 0 hours 17 minutes 41 seconds 166 msec
