                         Program Version 3.0.3 - RELEASE   -
|  1> ! RI-MP2 RIJK def2-TZVP def2-TZVP/C def2-TZVP/JK TIGHTSCF
|  2> % maxcore 2000
|  3> % mp2 density relaxed end
|  4> *xyz 0 1
|  5>  C        0.9270663515     1.2239310511     0.2929088999
|  6>  O        0.0814385987     0.1740289298    -0.1310464270
|  7>  C        0.5212960662    -0.5334028820    -1.2677600287
|  8>  C        1.7052649094    -1.4496942768    -1.0502151257
|  9>  C        0.3043956862    -2.0215839951    -1.1684922307
| 10>  C       -0.3806315477    -2.6476370628     0.0259107003
| 11>  C        0.2640388404     0.2253406786    -2.5727720666
| 12>  C        0.9071335407    -0.3987703443    -3.8178258683
| 13>  C       -1.2483292257     0.4196189669    -2.7699777293
| 14>  H        1.9521433396     0.8727915455     0.4768373143
| 15>  H        0.9703916612     2.0495368186    -0.4310534114
| 16>  H        0.5091463150     1.6062113170     1.2276793672
| 17>  H        2.4165592620    -1.6230222038    -1.8493522167
| 18>  H        2.1421043107    -1.4405688427    -0.0565139341
| 19>  H        0.0891579200    -2.5146683631    -2.1130480405
| 20>  H       -0.1909554735    -2.0673618331     0.9309110922
| 21>  H       -1.4657429818    -2.6901740870    -0.1185448418
| 22>  H       -0.0243399869    -3.6711002348     0.1868119572
| 23>  H        0.7147741063     1.2202856255    -2.4514742687
| 24>  H        0.5252326931    -1.4063860174    -4.0153386171
| 25>  H        0.6774537364     0.2103455967    -4.6978788655
| 26>  H        1.9960208769    -0.4571891303    -3.7340397193
| 27>  H       -1.7034183060     0.8484470988    -1.8740046202
| 28>  H       -1.4524322453     1.0843003847    -3.6157567956
| 29>  H       -1.7395180973    -0.5393369200    -2.9711670341
| 30> *
| 31>
| 32>                          ****END OF INPUT****

CARTESIAN COORDINATES (ANGSTROEM)
---------------------------------
  C      0.927066    1.223931    0.292909
  O      0.081439    0.174029   -0.131046
  C      0.521296   -0.533403   -1.267760
  C      1.705265   -1.449694   -1.050215
  C      0.304396   -2.021584   -1.168492
  C     -0.380632   -2.647637    0.025911
  C      0.264039    0.225341   -2.572772
  C      0.907134   -0.398770   -3.817826
  C     -1.248329    0.419619   -2.769978
  H      1.952143    0.872792    0.476837
  H      0.970392    2.049537   -0.431053
  H      0.509146    1.606211    1.227679
  H      2.416559   -1.623022   -1.849352
  H      2.142104   -1.440569   -0.056514
  H      0.089158   -2.514668   -2.113048
  H     -0.190955   -2.067362    0.930911
  H     -1.465743   -2.690174   -0.118545
  H     -0.024340   -3.671100    0.186812
  H      0.714774    1.220286   -2.451474
  H      0.525233   -1.406386   -4.015339
  H      0.677454    0.210346   -4.697879
  H      1.996021   -0.457189   -3.734040
  H     -1.703418    0.848447   -1.874005
  H     -1.452432    1.084300   -3.615757
  H     -1.739518   -0.539337   -2.971167

 Total Charge           Charge          ....    0
 Multiplicity           Mult            ....    1
 Number of Electrons    NEL             ....   72
 Basis Dimension        Dim             ....  375

ORBITAL ENERGIES
----------------

  NO   OCC          E(Eh)            E(eV)
   0   2.0000     -20.551936      -559.2466
   1   2.0000     -11.277893      -306.8871
   2   2.0000     -11.267076      -306.5927
   3   2.0000     -11.228224      -305.5355
   4   2.0000     -11.223182      -305.3983
   5   2.0000     -11.216730      -305.2227
   6   2.0000     -11.214053      -305.1499
   7   2.0000     -11.206645      -304.9483
   8   2.0000     -11.204793      -304.8979
   9   2.0000      -1.375228       -37.4219
  10   2.0000      -1.137999       -30.9665
  11   2.0000      -1.054513       -28.6948
  12   2.0000      -0.953736       -25.9525
  13   2.0000      -0.936320       -25.4786
  14   2.0000      -0.919144       -25.0112
  15   2.0000      -0.837501       -22.7896
  16   2.0000      -0.791208       -21.5299
  17   2.0000      -0.731613       -19.9082
  18   2.0000      -0.669054       -18.2059
  19   2.0000      -0.654325       -17.8051
  20   2.0000      -0.624991       -17.0069
  21   2.0000      -0.618159       -16.8210
  22   2.0000      -0.593983       -16.1631
  23   2.0000      -0.574327       -15.6282
  24   2.0000      -0.552737       -15.0407
  25   2.0000      -0.549577       -14.9548
  26   2.0000      -0.541821       -14.7437
  27   2.0000      -0.530259       -14.4291
  28   2.0000      -0.512800       -13.9540
  29   2.0000      -0.491038       -13.3618
  30   2.0000      -0.486996       -13.2518
  31   2.0000      -0.479005       -13.0344
  32   2.0000      -0.466544       -12.6953
  33   2.0000      -0.445514       -12.1230
  34   2.0000      -0.384528       -10.4635
  35   2.0000      -0.382298       -10.4029
  36   0.0000       0.137960         3.7541
  37   0.0000       0.152028         4.1369
  38   0.0000       0.161856         4.4043
  39   0.0000       0.170917         4.6509
  40   0.0000       0.196169         5.3380

MULLIKEN ATOMIC CHARGES
-----------------------
   0 C :   -0.213876
   1 O :   -0.334928
   2 C :    0.236673
   3 C :   -0.324760
   4 C :   -0.086987
   5 C :   -0.415436
   6 C :   -0.026075
   7 C :   -0.427807
   8 C :   -0.415851
   9 H :    0.113788
  10 H :    0.112358
  11 H :    0.139241
  12 H :    0.131662
  13 H :    0.134946
  14 H :    0.114876
  15 H :    0.139293
  16 H :    0.128544
  17 H :    0.129458
  18 H :    0.074611
  19 H :    0.126734
  20 H :    0.136759
  21 H :    0.133180
  22 H :    0.147608
  23 H :    0.126943
  24 H :    0.119047
Sum of atomic charges:   -0.0000000

LOEWDIN ATOMIC CHARGES
----------------------
   0 C :   -0.350804
   1 O :    0.192959
   2 C :   -0.303868
   3 C :   -0.195845
   4 C :   -0.211854
   5 C :   -0.293909
   6 C :   -0.269485
   7 C :   -0.288658
   8 C :   -0.287168
   9 H :    0.103353
  10 H :    0.101007
  11 H :    0.112963
  12 H :    0.130770
  13 H :    0.138699
  14 H :    0.148301
  15 H :    0.129069
  16 H :    0.125336
  17 H :    0.123459
  18 H :    0.153338
  19 H :    0.122465
  20 H :    0.126177
  21 H :    0.122097
  22 H :    0.127893
  23 H :    0.120322
  24 H :    0.123384

  Mayer bond orders larger than 0.1
B(  0-C ,  1-O ) :   0.8996 B(  0-C ,  9-H ) :   0.9345 B(  0-C , 10-H ) :   0.9338
B(  0-C , 11-H ) :   0.9405 B(  1-O ,  2-C ) :   0.8927 B(  2-C ,  3-C ) :   0.8978
B(  2-C ,  4-C ) :   0.8578 B(  2-C ,  6-C ) :   0.9170 B(  3-C ,  4-C ) :   0.8796
B(  3-C , 12-H ) :   0.9180 B(  3-C , 13-H ) :   0.9216 B(  4-C ,  5-C ) :   0.8936
B(  4-C , 14-H ) :   0.9340 B(  5-C , 15-H ) :   0.9343 B(  5-C , 16-H ) :   0.9401
B(  5-C , 17-H ) :   0.9405 B(  6-C ,  7-C ) :   0.8997 B(  6-C ,  8-C ) :   0.9262
B(  6-C , 18-H ) :   0.9154 B(  7-C , 19-H ) :   0.9352 B(  7-C , 20-H ) :   0.9358
B(  7-C , 21-H ) :   0.9395 B(  8-C , 22-H ) :   0.9369 B(  8-C , 23-H ) :   0.9397
B(  8-C , 24-H ) :   0.9298

MP2 TOTAL ENERGY:     -388.796943938 Eh
FINAL SINGLE POINT ENERGY      -388.796943937681

DIPOLE MOMENT
-------------
                                X             Y             Z
Electronic contribution:      0.30198       0.18855       2.81976
Nuclear contribution   :      0.06730      -0.01445      -2.99137
                        -----------------------------------------
Total Dipole Moment    :      0.36928       0.17410      -0.17161
                        -----------------------------------------
Magnitude (a.u.)       :      0.44286
Magnitude (Debye)      :      1.12566

                             ****ORCA TERMINATED NORMALLY****
TOTAL RUN TIME: 0 days 0 hours 22 minutes 9 seconds 898 msec
