                         Program Version 3.0.3 - RELEASE   -
|  1> ! RI-MP2 RIJK def2-TZVP def2-TZVP/C def2-TZVP/JK TIGHTSCF
|  2> % maxcore 2000
|  3> % mp2 density relaxed end
|  4> *xyz 0 1
|  5>  C        0.7106668674    -0.4525444652     1.3913040787
|  6>  O        0.1123935286    -0.1467475955     0.1357606229
|  7>  C       -1.1671627409    -0.6419671942    -0.0539649587
|  8>  C       -2.2318539463     0.0489399938     0.7820397045
|  9>  O       -1.9800572639     0.9248173791     1.5722831024
| 10>  C       -1.5588574945    -0.9130870415    -1.5453951341
| 11>  C       -0.5624107239    -2.0935119799    -1.5994566876
| 12>  C       -1.3894987615    -2.1924521191    -0.2966971529
| 13>  O       -2.6022903939    -1.8436742354    -1.0640428970
| 14>  H        1.7210032614    -0.0402953841     1.3574017509
| 15>  H        0.1607804218     0.0020572688     2.2190233959
| 16>  H        0.7784052539    -1.5392798943     1.5445431321
| 17>  H       -3.2622563910    -0.3098669218     0.6100534331
| 18>  H       -1.8382957063    -0.1886439614    -2.3099825390
| 19>  H       -0.8028954523    -2.8534335599    -2.3432335986
| 20>  H        0.4992763143    -1.8661367908    -1.5229131454
| 21>  H       -1.4722725231    -3.0031375385     0.4272441326
| 22> *
| 23>
| 24>                          ****END OF INPUT****

CARTESIAN COORDINATES (ANGSTROEM)
---------------------------------
  C      0.710667   -0.452544    1.391304
  O      0.112394   -0.146748    0.135761
  C     -1.167163   -0.641967   -0.053965
  C     -2.231854    0.048940    0.782040
  O     -1.980057    0.924817    1.572283
  C     -1.558857   -0.913087   -1.545395
  C     -0.562411   -2.093512   -1.599457
  C     -1.389499   -2.192452   -0.296697
  O     -2.602290   -1.843674   -1.064043
  H      1.721003   -0.040295    1.357402
  H      0.160780    0.002057    2.219023
  H      0.778405   -1.539280    1.544543
  H     -3.262256   -0.309867    0.610053
  H     -1.838296   -0.188644   -2.309983
  H     -0.802895   -2.853434   -2.343234
  H      0.499276   -1.866137   -1.522913
  H     -1.472273   -3.003138    0.427244

 Total Charge           Charge          ....    0
 Multiplicity           Mult            ....    1
 Number of Electrons    NEL             ....   68
 Basis Dimension        Dim             ....  327

ORBITAL ENERGIES
----------------

  NO   OCC          E(Eh)            E(eV)
   0   2.0000     -20.575611      -559.8908
   1   2.0000     -20.572645      -559.8101
   2   2.0000     -20.560794      -559.4876
   3   2.0000     -11.332186      -308.3645
   4   2.0000     -11.324102      -308.1445
   5   2.0000     -11.322400      -308.0982
   6   2.0000     -11.319338      -308.0148
   7   2.0000     -11.279149      -306.9213
   8   2.0000     -11.252345      -306.1919
   9   2.0000      -1.433565       -39.0093
  10   2.0000      -1.403103       -38.1804
  11   2.0000      -1.383451       -37.6456
  12   2.0000      -1.087838       -29.6016
  13   2.0000      -0.989212       -26.9178
  14   2.0000      -0.928935       -25.2776
  15   2.0000      -0.906115       -24.6566
  16   2.0000      -0.828670       -22.5492
  17   2.0000      -0.753942       -20.5158
  18   2.0000      -0.728141       -19.8137
  19   2.0000      -0.699276       -19.0283
  20   2.0000      -0.676412       -18.4061
  21   2.0000      -0.648433       -17.6448
  22   2.0000      -0.640343       -17.4246
  23   2.0000      -0.605543       -16.4777
  24   2.0000      -0.568783       -15.4774
  25   2.0000      -0.565203       -15.3799
  26   2.0000      -0.549833       -14.9617
  27   2.0000      -0.533244       -14.5103
  28   2.0000      -0.503228       -13.6935
  29   2.0000      -0.484900       -13.1948
  30   2.0000      -0.477780       -13.0011
  31   2.0000      -0.464156       -12.6303
  32   2.0000      -0.444364       -12.0917
  33   2.0000      -0.393708       -10.7133
  34   0.0000       0.112121         3.0510
  35   0.0000       0.141390         3.8474
  36   0.0000       0.165507         4.5037
  37   0.0000       0.168943         4.5972
  38   0.0000       0.178439         4.8556

MULLIKEN ATOMIC CHARGES
-----------------------
   0 C :   -0.230363
   1 O :   -0.312968
   2 C :    0.299069
   3 C :    0.020937
   4 O :   -0.268676
   5 C :   -0.037987
   6 C :   -0.163407
   7 C :   -0.102630
   8 O :   -0.319009
   9 H :    0.144444
  10 H :    0.156020
  11 H :    0.109368
  12 H :    0.131381
  13 H :    0.150443
  14 H :    0.131240
  15 H :    0.141547
  16 H :    0.150590
Sum of atomic charges:    0.0000000

LOEWDIN ATOMIC CHARGES
----------------------
   0 C :   -0.330379
   1 O :    0.200699
   2 C :   -0.314748
   3 C :   -0.258927
   4 O :    0.139872
   5 C :   -0.179764
   6 C :   -0.190863
   7 C :   -0.195302
   8 O :    0.140663
   9 H :    0.116242
  10 H :    0.112646
  11 H :    0.102723
  12 H :    0.127730
  13 H :    0.130034
  14 H :    0.135539
  15 H :    0.136756
  16 H :    0.127078

  Mayer bond orders larger than 0.1
B(  0-C ,  1-O ) :   0.8705 B(  0-C ,  9-H ) :   0.9419 B(  0-C , 10-H ) :   0.9302
B(  0-C , 11-H ) :   0.9294 B(  1-O ,  2-C ) :   0.9794 B(  2-C ,  3-C ) :   0.8441
B(  2-C ,  5-C ) :   0.8964 B(  2-C ,  7-C ) :   0.8656 B(  3-C ,  4-O ) :   1.9563
B(  3-C , 12-H ) :   0.9396 B(  5-C ,  6-C ) :   0.9289 B(  5-C ,  8-O ) :   0.8957
B(  5-C , 13-H ) :   0.8789 B(  6-C ,  7-C ) :   0.9174 B(  6-C , 14-H ) :   0.9244
B(  6-C , 15-H ) :   0.9097 B(  7-C ,  8-O ) :   0.9027 B(  7-C , 16-H ) :   0.8786

MP2 TOTAL ENERGY:     -458.139279285 Eh
FINAL SINGLE POINT ENERGY      -458.139279285215

DIPOLE MOMENT
-------------
                                X             Y             Z
Electronic contribution:     -4.22445       2.38380      -0.56093
Nuclear contribution   :      4.83003      -3.20257       0.32246
                        -----------------------------------------
Total Dipole Moment    :      0.60558      -0.81877      -0.23847
                        -----------------------------------------
Magnitude (a.u.)       :      1.04593
Magnitude (Debye)      :      2.65855

                             ****ORCA TERMINATED NORMALLY****
TOTAL RUN TIME: 0 days 0 hours 17 minutes 15 seconds 810 msec
