                         Program Version 3.0.3 - RELEASE   -
|  1> ! RI-MP2 RIJK def2-TZVP def2-TZVP/C def2-TZVP/JK TIGHTSCF
|  2> % maxcore 2000
|  3> % mp2 density relaxed end
|  4> *xyz 0 1
|  5>  C        0.0593530024     1.5849136822     0.0802841850
|  6>  C       -0.0624704797     0.0573476616     0.0796434187
|  7>  C       -1.4954053916    -0.4789598672    -0.1003598263
|  8>  C       -2.0909523710    -0.1130660161    -1.4676498033
|  9>  C       -1.5358187845    -1.9919544995     0.1166402542
| 10>  C       -1.2023227346    -2.5747059462     1.5200456086
| 11>  C       -2.3273122663    -3.6275711989     1.3143381590
| 12>  C       -3.2065434989    -4.0146489485     2.4931745020
| 13>  C       -2.9110728436    -2.7142446295     0.2004423036
| 14>  H        1.0910195486     1.8954040259     0.2743012741
| 15>  H       -0.2381575934     2.0210626039    -0.8782539122
| 16>  H       -0.5720181379     2.0308287082     0.8574292371
| 17>  H        0.5749601415    -0.3609944720    -0.7121497055
| 18>  H        0.3386079555    -0.3283136866     1.0251814324
| 19>  H       -2.1245068300    -0.0190151411     0.6783291904
| 20>  H       -2.1509231472     0.9695491164    -1.6113701642
| 21>  H       -1.4802485220    -0.5243670521    -2.2809366011
| 22>  H       -3.1029628393    -0.5156207394    -1.5772015216
| 23>  H       -0.9105442199    -2.4808221577    -0.6424124332
| 24>  H       -0.1879480252    -2.9378262045     1.7050590235
| 25>  H       -1.4671074287    -1.8655657287     2.3141261171
| 26>  H       -1.9016799595    -4.5295397265     0.8590434003
| 27>  H       -3.6425999961    -3.1267982248     2.9656970974
| 28>  H       -4.0321497913    -4.6635853581     2.1791073063
| 29>  H       -2.6349605001    -4.5517759714     3.2588030162
| 30>  H       -3.6821206889    -2.0466073975     0.6042041060
| 31>  H       -3.3039723283    -3.1910260819    -0.7014484545
| 32> *
| 33>
| 34>                          ****END OF INPUT****

CARTESIAN COORDINATES (ANGSTROEM)
---------------------------------
  C      0.059353    1.584914    0.080284
  C     -0.062470    0.057348    0.079643
  C     -1.495405   -0.478960   -0.100360
  C     -2.090952   -0.113066   -1.467650
  C     -1.535819   -1.991954    0.116640
  C     -1.202323   -2.574706    1.520046
  C     -2.327312   -3.627571    1.314338
  C     -3.206543   -4.014649    2.493175
  C     -2.911073   -2.714245    0.200442
  H      1.091020    1.895404    0.274301
  H     -0.238158    2.021063   -0.878254
  H     -0.572018    2.030829    0.857429
  H      0.574960   -0.360994   -0.712150
  H      0.338608   -0.328314    1.025181
  H     -2.124507   -0.019015    0.678329
  H     -2.150923    0.969549   -1.611370
  H     -1.480249   -0.524367   -2.280937
  H     -3.102963   -0.515621   -1.577202
  H     -0.910544   -2.480822   -0.642412
  H     -0.187948   -2.937826    1.705059
  H     -1.467107   -1.865566    2.314126
  H     -1.901680   -4.529540    0.859043
  H     -3.642600   -3.126798    2.965697
  H     -4.032150   -4.663585    2.179107
  H     -2.634961   -4.551776    3.258803
  H     -3.682121   -2.046607    0.604204
  H     -3.303972   -3.191026   -0.701448

 Total Charge           Charge          ....    0
 Multiplicity           Mult            ....    1
 Number of Electrons    NEL             ....   72
 Basis Dimension        Dim             ....  387

ORBITAL ENERGIES
----------------

  NO   OCC          E(Eh)            E(eV)
   0   2.0000     -11.220695      -305.3306
   1   2.0000     -11.218292      -305.2652
   2   2.0000     -11.217295      -305.2381
   3   2.0000     -11.213194      -305.1265
   4   2.0000     -11.211193      -305.0721
   5   2.0000     -11.211108      -305.0697
   6   2.0000     -11.208707      -305.0044
   7   2.0000     -11.208517      -304.9993
   8   2.0000     -11.206559      -304.9460
   9   2.0000      -1.135780       -30.9061
  10   2.0000      -1.068789       -29.0832
  11   2.0000      -0.988205       -26.8904
  12   2.0000      -0.959982       -26.1224
  13   2.0000      -0.895254       -24.3611
  14   2.0000      -0.877324       -23.8732
  15   2.0000      -0.820870       -22.3370
  16   2.0000      -0.756802       -20.5936
  17   2.0000      -0.741292       -20.1716
  18   2.0000      -0.648821       -17.6553
  19   2.0000      -0.621009       -16.8985
  20   2.0000      -0.616690       -16.7810
  21   2.0000      -0.581725       -15.8295
  22   2.0000      -0.568395       -15.4668
  23   2.0000      -0.555017       -15.1028
  24   2.0000      -0.546424       -14.8689
  25   2.0000      -0.533982       -14.5304
  26   2.0000      -0.530838       -14.4448
  27   2.0000      -0.519842       -14.1456
  28   2.0000      -0.501329       -13.6419
  29   2.0000      -0.479119       -13.0375
  30   2.0000      -0.469180       -12.7670
  31   2.0000      -0.458073       -12.4648
  32   2.0000      -0.439926       -11.9710
  33   2.0000      -0.439231       -11.9521
  34   2.0000      -0.418105       -11.3772
  35   2.0000      -0.405190       -11.0258
  36   0.0000       0.134354         3.6560
  37   0.0000       0.145955         3.9716
  38   0.0000       0.148856         4.0506
  39   0.0000       0.162951         4.4341
  40   0.0000       0.174639         4.7522

MULLIKEN ATOMIC CHARGES
-----------------------
   0 C :   -0.406639
   1 C :   -0.191801
   2 C :   -0.077374
   3 C :   -0.422108
   4 C :   -0.010713
   5 C :   -0.292648
   6 C :    0.041294
   7 C :   -0.417198
   8 C :   -0.288948
   9 H :    0.133833
  10 H :    0.127513
  11 H :    0.121985
  12 H :    0.102692
  13 H :    0.114765
  14 H :    0.073401
  15 H :    0.134737
  16 H :    0.120128
  17 H :    0.135298
  18 H :    0.088650
  19 H :    0.120819
  20 H :    0.102988
  21 H :    0.090836
  22 H :    0.117448
  23 H :    0.128841
  24 H :    0.128748
  25 H :    0.103267
  26 H :    0.120185
Sum of atomic charges:    0.0000000

LOEWDIN ATOMIC CHARGES
----------------------
   0 C :   -0.320206
   1 C :   -0.269891
   2 C :   -0.276000
   3 C :   -0.289738
   4 C :   -0.214178
   5 C :   -0.204537
   6 C :   -0.258599
   7 C :   -0.305989
   8 C :   -0.203038
   9 H :    0.120615
  10 H :    0.118512
  11 H :    0.120527
  12 H :    0.136577
  13 H :    0.139659
  14 H :    0.150900
  15 H :    0.120989
  16 H :    0.123845
  17 H :    0.124602
  18 H :    0.151833
  19 H :    0.122325
  20 H :    0.136799
  21 H :    0.148156
  22 H :    0.120986
  23 H :    0.123225
  24 H :    0.123184
  25 H :    0.136969
  26 H :    0.122471

  Mayer bond orders larger than 0.1
B(  0-C ,  1-C ) :   0.9145 B(  0-C ,  9-H ) :   0.9431 B(  0-C , 10-H ) :   0.9429
B(  0-C , 11-H ) :   0.9382 B(  1-C ,  2-C ) :   0.9264 B(  1-C , 12-H ) :   0.9254
B(  1-C , 13-H ) :   0.9368 B(  2-C ,  3-C ) :   0.9085 B(  2-C ,  4-C ) :   0.9016
B(  2-C , 14-H ) :   0.9138 B(  3-C , 15-H ) :   0.9426 B(  3-C , 16-H ) :   0.9316
B(  3-C , 17-H ) :   0.9403 B(  4-C ,  5-C ) :   0.9354 B(  4-C ,  8-C ) :   0.9371
B(  4-C , 18-H ) :   0.9165 B(  5-C ,  6-C ) :   0.9417 B(  5-C , 19-H ) :   0.9282
B(  5-C , 20-H ) :   0.9099 B(  6-C ,  7-C ) :   0.8743 B(  6-C ,  8-C ) :   0.9414
B(  6-C , 21-H ) :   0.9271 B(  7-C , 22-H ) :   0.9386 B(  7-C , 23-H ) :   0.9416
B(  7-C , 24-H ) :   0.9415 B(  8-C , 25-H ) :   0.9102 B(  8-C , 26-H ) :   0.9278

MP2 TOTAL ENERGY:     -352.913531408 Eh
FINAL SINGLE POINT ENERGY      -352.913531407944

DIPOLE MOMENT
-------------
                                X             Y             Z
Electronic contribution:     -0.06783      -2.87715       0.12926
Nuclear contribution   :      0.09462       2.82837      -0.12501
                        -----------------------------------------
Total Dipole Moment    :      0.02679      -0.04878       0.00425
                        -----------------------------------------
Magnitude (a.u.)       :      0.05581
Magnitude (Debye)      :      0.14187

                             ****ORCA TERMINATED NORMALLY****
TOTAL RUN TIME: 0 days 0 hours 20 minutes 10 seconds 469 msec
