                         Program Version 3.0.3 - RELEASE   -
|  1> ! RI-MP2 RIJK def2-TZVP def2-TZVP/C def2-TZVP/JK TIGHTSCF
|  2> % maxcore 2000
|  3> % mp2 density relaxed end
|  4> *xyz 0 1
|  5>  C        0.2609843208     0.8499268575    -0.4035768519
|  6>  N       -0.2845108180    -0.1163543092     0.5267092903
|  7>  C        0.5059811454    -0.9676960981     1.0018906776
|  8>  O        0.0495914302    -1.9126575942     1.8637221317
|  9>  C        1.0121159179    -2.7544061917     2.4324472516
| 10>  C        0.8116347859    -4.2413995049     2.3832416414
| 11>  C        0.2947456033    -4.6137384757     0.9958154540
| 12>  O        1.3882032138    -3.9031401861     0.3461227403
| 13>  C        1.9533993776    -3.5854956380     1.6101617458
| 14>  H        1.3424606106     0.7383252295    -0.5856187500
| 15>  H       -0.2580832470     0.7673029750    -1.3652987618
| 16>  H        0.0773217652     1.8636824733    -0.0296314239
| 17>  H        1.5800985351    -1.0403013806     0.7836504247
| 18>  H        1.4250579886    -2.3871439316     3.3706382658
| 19>  H        0.7966799003    -4.8705258094     3.2624958019
| 20>  H        0.3609589208    -5.6838380252     0.7784976804
| 21>  H       -0.6843059441    -4.2202189858     0.7079968241
| 22>  H        3.0335859936    -3.6013163648     1.7063192179
| 23> *
| 24>
| 25>                          ****END OF INPUT****

CARTESIAN COORDINATES (ANGSTROEM)
---------------------------------
  C      0.260984    0.849927   -0.403577
  N     -0.284511   -0.116354    0.526709
  C      0.505981   -0.967696    1.001891
  O      0.049591   -1.912658    1.863722
  C      1.012116   -2.754406    2.432447
  C      0.811635   -4.241400    2.383242
  C      0.294746   -4.613738    0.995815
  O      1.388203   -3.903140    0.346123
  C      1.953399   -3.585496    1.610162
  H      1.342461    0.738325   -0.585619
  H     -0.258083    0.767303   -1.365299
  H      0.077322    1.863682   -0.029631
  H      1.580099   -1.040301    0.783650
  H      1.425058   -2.387144    3.370638
  H      0.796680   -4.870526    3.262496
  H      0.360959   -5.683838    0.778498
  H     -0.684306   -4.220219    0.707997
  H      3.033586   -3.601316    1.706319

 Total Charge           Charge          ....    0
 Multiplicity           Mult            ....    1
 Number of Electrons    NEL             ....   68
 Basis Dimension        Dim             ....  333

ORBITAL ENERGIES
----------------

  NO   OCC          E(Eh)            E(eV)
   0   2.0000     -20.592907      -560.3615
   1   2.0000     -20.569641      -559.7284
   2   2.0000     -15.538818      -422.8327
   3   2.0000     -11.325433      -308.1807
   4   2.0000     -11.308330      -307.7153
   5   2.0000     -11.307624      -307.6961
   6   2.0000     -11.294936      -307.3508
   7   2.0000     -11.254810      -306.2590
   8   2.0000     -11.243112      -305.9406
   9   2.0000      -1.437177       -39.1076
  10   2.0000      -1.400068       -38.0978
  11   2.0000      -1.217863       -33.1397
  12   2.0000      -1.127928       -30.6925
  13   2.0000      -0.965162       -26.2634
  14   2.0000      -0.947907       -25.7939
  15   2.0000      -0.847927       -23.0733
  16   2.0000      -0.796996       -21.6874
  17   2.0000      -0.769645       -20.9431
  18   2.0000      -0.743208       -20.2237
  19   2.0000      -0.713720       -19.4213
  20   2.0000      -0.669026       -18.2051
  21   2.0000      -0.650177       -17.6922
  22   2.0000      -0.620166       -16.8756
  23   2.0000      -0.595286       -16.1986
  24   2.0000      -0.581566       -15.8252
  25   2.0000      -0.564409       -15.3583
  26   2.0000      -0.548315       -14.9204
  27   2.0000      -0.537422       -14.6240
  28   2.0000      -0.512745       -13.9525
  29   2.0000      -0.493003       -13.4153
  30   2.0000      -0.429715       -11.6931
  31   2.0000      -0.407436       -11.0869
  32   2.0000      -0.402252       -10.9458
  33   2.0000      -0.375249       -10.2110
  34   0.0000       0.141783         3.8581
  35   0.0000       0.151868         4.1325
  36   0.0000       0.162811         4.4303
  37   0.0000       0.168222         4.5776
  38   0.0000       0.174665         4.7529

MULLIKEN ATOMIC CHARGES
-----------------------
   0 C :   -0.245569
   1 N :   -0.190001
   2 C :    0.088243
   3 O :   -0.227248
   4 C :   -0.023012
   5 C :   -0.209178
   6 C :   -0.011129
   7 O :   -0.333993
   8 C :    0.056564
   9 H :    0.092498
  10 H :    0.136206
  11 H :    0.134411
  12 H :    0.066729
  13 H :    0.125578
  14 H :    0.150868
  15 H :    0.120858
  16 H :    0.129399
  17 H :    0.138775
Sum of atomic charges:    0.0000000

LOEWDIN ATOMIC CHARGES
----------------------
   0 C :   -0.337554
   1 N :    0.061599
   2 C :   -0.350694
   3 O :    0.275631
   4 C :   -0.282239
   5 C :   -0.174359
   6 C :   -0.227712
   7 O :    0.153831
   8 C :   -0.243474
   9 H :    0.101243
  10 H :    0.117589
  11 H :    0.116579
  12 H :    0.114464
  13 H :    0.149423
  14 H :    0.139336
  15 H :    0.127317
  16 H :    0.127785
  17 H :    0.131235

  Mayer bond orders larger than 0.1
B(  0-C ,  1-N ) :   0.8829 B(  0-C ,  9-H ) :   0.9275 B(  0-C , 10-H ) :   0.9323
B(  0-C , 11-H ) :   0.9325 B(  1-N ,  2-C ) :   1.9018 B(  2-C ,  3-O ) :   1.0105
B(  2-C , 12-H ) :   0.9239 B(  3-O ,  4-C ) :   0.9572 B(  4-C ,  5-C ) :   0.8802
B(  4-C ,  8-C ) :   0.8874 B(  4-C , 13-H ) :   0.9422 B(  5-C ,  6-C ) :   0.9690
B(  5-C ,  8-C ) :   0.8779 B(  5-C , 14-H ) :   0.9096 B(  6-C ,  7-O ) :   0.8987
B(  6-C , 15-H ) :   0.9156 B(  6-C , 16-H ) :   0.9162 B(  7-O ,  8-C ) :   0.9527
B(  8-C , 17-H ) :   0.9198

MP2 TOTAL ENERGY:     -438.287903788 Eh
FINAL SINGLE POINT ENERGY      -438.287903788409

DIPOLE MOMENT
-------------
                                X             Y             Z
Electronic contribution:     -0.61315      -3.01634       2.25732
Nuclear contribution   :      1.55921       2.43678      -1.72232
                        -----------------------------------------
Total Dipole Moment    :      0.94606      -0.57956       0.53500
                        -----------------------------------------
Magnitude (a.u.)       :      1.23172
Magnitude (Debye)      :      3.13079

                             ****ORCA TERMINATED NORMALLY****
TOTAL RUN TIME: 0 days 0 hours 14 minutes 34 seconds 64 msec
