                         Program Version 3.0.3 - RELEASE   -
|  1> ! RI-MP2 RIJK def2-TZVP def2-TZVP/C def2-TZVP/JK TIGHTSCF
|  2> % maxcore 2000
|  3> % mp2 density relaxed end
|  4> *xyz 0 1
|  5>  N       -0.0046708917    -1.1859024880    -0.0779587826
|  6>  C       -0.0054438801    -0.0278325559    -0.0413025281
|  7>  C       -0.0175095720     1.3911035029     0.0318419540
|  8>  C        0.2791448786     2.3069999278    -1.1511558945
|  9>  C        1.1249297912     2.4303073331     0.0651444183
| 10>  N        0.4311224883     3.2452258299     1.0793465770
| 11>  C       -0.6426345095     2.2164893817     1.1481100631
| 12>  C       -2.0863819099     2.4881053642     1.4179161625
| 13>  C       -1.2462171717     1.6933140170     2.4069287262
| 14>  H        0.7369607993     1.8067930057    -1.9975984850
| 15>  H       -0.4305464879     3.0926549827    -1.3921733991
| 16>  H        2.1951237365     2.2689983976     0.0804292641
| 17>  H        0.9589953582     3.2396594090     1.9480247125
| 18>  H       -2.3534648922     3.5036381229     1.6885984049
| 19>  H       -2.8321338493     1.9582194052     0.8349897319
| 20>  H       -1.4130401485     0.6237465257     2.4850787572
| 21>  H       -0.9717515194     2.1754338386     3.3402106276
| 22> *
| 23>
| 24>                          ****END OF INPUT****

CARTESIAN COORDINATES (ANGSTROEM)
---------------------------------
  N     -0.004671   -1.185902   -0.077959
  C     -0.005444   -0.027833   -0.041303
  C     -0.017510    1.391104    0.031842
  C      0.279145    2.307000   -1.151156
  C      1.124930    2.430307    0.065144
  N      0.431122    3.245226    1.079347
  C     -0.642635    2.216489    1.148110
  C     -2.086382    2.488105    1.417916
  C     -1.246217    1.693314    2.406929
  H      0.736961    1.806793   -1.997598
  H     -0.430546    3.092655   -1.392173
  H      2.195124    2.268998    0.080429
  H      0.958995    3.239659    1.948025
  H     -2.353465    3.503638    1.688598
  H     -2.832134    1.958219    0.834990
  H     -1.413040    0.623747    2.485079
  H     -0.971752    2.175434    3.340211

 Total Charge           Charge          ....    0
 Multiplicity           Mult            ....    1
 Number of Electrons    NEL             ....   64
 Basis Dimension        Dim             ....  327

ORBITAL ENERGIES
----------------

  NO   OCC          E(Eh)            E(eV)
   0   2.0000     -15.574501      -423.8037
   1   2.0000     -15.569533      -423.6685
   2   2.0000     -11.302322      -307.5518
   3   2.0000     -11.294829      -307.3479
   4   2.0000     -11.287484      -307.1481
   5   2.0000     -11.275959      -306.8344
   6   2.0000     -11.262609      -306.4712
   7   2.0000     -11.243638      -305.9549
   8   2.0000     -11.237690      -305.7931
   9   2.0000      -1.299689       -35.3663
  10   2.0000      -1.215296       -33.0699
  11   2.0000      -1.144653       -31.1476
  12   2.0000      -1.099204       -29.9109
  13   2.0000      -0.930704       -25.3257
  14   2.0000      -0.848926       -23.1005
  15   2.0000      -0.829968       -22.5846
  16   2.0000      -0.821729       -22.3604
  17   2.0000      -0.720315       -19.6008
  18   2.0000      -0.688090       -18.7239
  19   2.0000      -0.651163       -17.7190
  20   2.0000      -0.628758       -17.1094
  21   2.0000      -0.594027       -16.1643
  22   2.0000      -0.560985       -15.2652
  23   2.0000      -0.560021       -15.2389
  24   2.0000      -0.538293       -14.6477
  25   2.0000      -0.529747       -14.4151
  26   2.0000      -0.514311       -13.9951
  27   2.0000      -0.482554       -13.1310
  28   2.0000      -0.459865       -12.5136
  29   2.0000      -0.427493       -11.6327
  30   2.0000      -0.390930       -10.6378
  31   2.0000      -0.371243       -10.1020
  32   0.0000       0.129334         3.5194
  33   0.0000       0.140001         3.8096
  34   0.0000       0.151450         4.1212
  35   0.0000       0.164699         4.4817
  36   0.0000       0.173076         4.7096

MULLIKEN ATOMIC CHARGES
-----------------------
   0 N :   -0.050810
   1 C :   -0.264380
   2 C :    0.140395
   3 C :   -0.230984
   4 C :   -0.024848
   5 N :   -0.311731
   6 C :    0.022936
   7 C :   -0.237414
   8 C :   -0.286124
   9 H :    0.153986
  10 H :    0.146423
  11 H :    0.150455
  12 H :    0.216246
  13 H :    0.136898
  14 H :    0.144031
  15 H :    0.152883
  16 H :    0.142037
Sum of atomic charges:   -0.0000000

LOEWDIN ATOMIC CHARGES
----------------------
   0 N :    0.065090
   1 C :   -0.163053
   2 C :   -0.167491
   3 C :   -0.148114
   4 C :   -0.174269
   5 N :    0.045745
   6 C :   -0.234447
   7 C :   -0.195220
   8 C :   -0.196607
   9 H :    0.150806
  10 H :    0.144645
  11 H :    0.139692
  12 H :    0.173420
  13 H :    0.140161
  14 H :    0.139198
  15 H :    0.143247
  16 H :    0.137197

  Mayer bond orders larger than 0.1
B(  0-N ,  1-C ) :   2.8759 B(  1-C ,  2-C ) :   0.9107 B(  2-C ,  3-C ) :   0.8260
B(  2-C ,  4-C ) :   0.8186 B(  2-C ,  6-C ) :   0.8816 B(  3-C ,  4-C ) :   0.9218
B(  3-C ,  9-H ) :   0.9233 B(  3-C , 10-H ) :   0.8987 B(  4-C ,  5-N ) :   1.0050
B(  4-C , 11-H ) :   0.9053 B(  5-N ,  6-C ) :   0.9701 B(  5-N , 12-H ) :   0.8713
B(  6-C ,  7-C ) :   0.8540 B(  6-C ,  8-C ) :   0.9134 B(  7-C ,  8-C ) :   0.9026
B(  7-C , 13-H ) :   0.9194 B(  7-C , 14-H ) :   0.9182 B(  8-C , 15-H ) :   0.9053
B(  8-C , 16-H ) :   0.9218

MP2 TOTAL ENERGY:     -380.137788491 Eh
FINAL SINGLE POINT ENERGY      -380.137788491351

DIPOLE MOMENT
-------------
                                X             Y             Z
Electronic contribution:      2.25193      -3.99735      -2.01438
Nuclear contribution   :     -2.01882       5.15378       2.32964
                        -----------------------------------------
Total Dipole Moment    :      0.23311       1.15643       0.31526
                        -----------------------------------------
Magnitude (a.u.)       :      1.22109
Magnitude (Debye)      :      3.10376

                             ****ORCA TERMINATED NORMALLY****
TOTAL RUN TIME: 0 days 0 hours 17 minutes 39 seconds 61 msec
