                         Program Version 3.0.3 - RELEASE   -
|  1> ! RI-MP2 RIJK def2-TZVP def2-TZVP/C def2-TZVP/JK TIGHTSCF
|  2> % maxcore 2000
|  3> % mp2 density relaxed end
|  4> *xyz 0 1
|  5>  C        0.4090214503     1.3971718624    -0.2698350030
|  6>  C        0.1275178792    -0.0498605657     0.0826167155
|  7>  O        0.8998916033    -0.9855809757    -0.7162953759
|  8>  C        1.4469539459    -1.6473200137     0.4617696764
|  9>  C        2.9647947840    -1.6355113750     0.3995816574
| 10>  O        3.4137708968    -2.2630531492    -0.7853031775
| 11>  C        0.7267277730    -0.6476678267     1.3595593347
| 12>  C        1.1487959420     0.0325803958     2.6019312272
| 13>  N        0.0624720408    -0.9707160678     2.6089634307
| 14>  H        1.4700265950     1.6313726201    -0.1468935146
| 15>  H        0.1277802662     1.5934134415    -1.3092520821
| 16>  H       -0.1755567259     2.0692770327     0.3684941184
| 17>  H       -0.9469054202    -0.2655813493    -0.0206540527
| 18>  H        1.0705547746    -2.6747362739     0.5411767199
| 19>  H        3.3250493977    -0.5962034562     0.4688768714
| 20>  H        3.3851234771    -2.1956667739     1.2422805375
| 21>  H        2.9294898461    -1.8411404564    -1.5058328626
| 22>  H        2.0539695921    -0.2728684848     3.1197321951
| 23>  H        0.8954560501     1.0835402271     2.7192619983
| 24>  H       -0.8451124782    -0.5125887412     2.6598894759
| 25> *
| 26>
| 27>                          ****END OF INPUT****

CARTESIAN COORDINATES (ANGSTROEM)
---------------------------------
  C      0.409021    1.397172   -0.269835
  C      0.127518   -0.049861    0.082617
  O      0.899892   -0.985581   -0.716295
  C      1.446954   -1.647320    0.461770
  C      2.964795   -1.635511    0.399582
  O      3.413771   -2.263053   -0.785303
  C      0.726728   -0.647668    1.359559
  C      1.148796    0.032580    2.601931
  N      0.062472   -0.970716    2.608963
  H      1.470027    1.631373   -0.146894
  H      0.127780    1.593413   -1.309252
  H     -0.175557    2.069277    0.368494
  H     -0.946905   -0.265581   -0.020654
  H      1.070555   -2.674736    0.541177
  H      3.325049   -0.596203    0.468877
  H      3.385123   -2.195667    1.242281
  H      2.929490   -1.841140   -1.505833
  H      2.053970   -0.272868    3.119732
  H      0.895456    1.083540    2.719262
  H     -0.845112   -0.512589    2.659889

 Total Charge           Charge          ....    0
 Multiplicity           Mult            ....    1
 Number of Electrons    NEL             ....   70
 Basis Dimension        Dim             ....  345

ORBITAL ENERGIES
----------------

  NO   OCC          E(Eh)            E(eV)
   0   2.0000     -20.558324      -559.4204
   1   2.0000     -20.551190      -559.2263
   2   2.0000     -15.572590      -423.7517
   3   2.0000     -11.297850      -307.4301
   4   2.0000     -11.285431      -307.0922
   5   2.0000     -11.278221      -306.8960
   6   2.0000     -11.276117      -306.8387
   7   2.0000     -11.270108      -306.6752
   8   2.0000     -11.231025      -305.6117
   9   2.0000      -1.393753       -37.9260
  10   2.0000      -1.353846       -36.8400
  11   2.0000      -1.274108       -34.6702
  12   2.0000      -1.034235       -28.1430
  13   2.0000      -1.005320       -27.3561
  14   2.0000      -0.917642       -24.9703
  15   2.0000      -0.895678       -24.3726
  16   2.0000      -0.843978       -22.9658
  17   2.0000      -0.749714       -20.4008
  18   2.0000      -0.719237       -19.5714
  19   2.0000      -0.693745       -18.8778
  20   2.0000      -0.676527       -18.4092
  21   2.0000      -0.639601       -17.4044
  22   2.0000      -0.618461       -16.8292
  23   2.0000      -0.586656       -15.9637
  24   2.0000      -0.575741       -15.6667
  25   2.0000      -0.564165       -15.3517
  26   2.0000      -0.556974       -15.1560
  27   2.0000      -0.539383       -14.6774
  28   2.0000      -0.518563       -14.1108
  29   2.0000      -0.502192       -13.6653
  30   2.0000      -0.469277       -12.7697
  31   2.0000      -0.462022       -12.5723
  32   2.0000      -0.451184       -12.2773
  33   2.0000      -0.417123       -11.3505
  34   2.0000      -0.396130       -10.7792
  35   0.0000       0.123460         3.3595
  36   0.0000       0.140743         3.8298
  37   0.0000       0.159061         4.3283
  38   0.0000       0.166706         4.5363
  39   0.0000       0.177754         4.8369

MULLIKEN ATOMIC CHARGES
-----------------------
   0 C :   -0.427195
   1 C :    0.151445
   2 O :   -0.362010
   3 C :    0.119437
   4 C :   -0.045456
   5 O :   -0.474448
   6 C :   -0.060118
   7 C :   -0.174218
   8 N :   -0.356135
   9 H :    0.136359
  10 H :    0.147292
  11 H :    0.125685
  12 H :    0.094478
  13 H :    0.102049
  14 H :    0.096703
  15 H :    0.113024
  16 H :    0.328831
  17 H :    0.129385
  18 H :    0.133855
  19 H :    0.221037
Sum of atomic charges:   -0.0000000

LOEWDIN ATOMIC CHARGES
----------------------
   0 C :   -0.292931
   1 C :   -0.268004
   2 O :    0.146602
   3 C :   -0.245268
   4 C :   -0.330751
   5 O :   -0.041188
   6 C :   -0.268637
   7 C :   -0.236355
   8 N :    0.014078
   9 H :    0.126910
  10 H :    0.131198
  11 H :    0.127771
  12 H :    0.139227
  13 H :    0.143798
  14 H :    0.118675
  15 H :    0.132637
  16 H :    0.179664
  17 H :    0.128793
  18 H :    0.124745
  19 H :    0.169036

  Mayer bond orders larger than 0.1
B(  0-C ,  1-C ) :   0.9030 B(  0-C ,  9-H ) :   0.9379 B(  0-C , 10-H ) :   0.9319
B(  0-C , 11-H ) :   0.9277 B(  1-C ,  2-O ) :   0.9246 B(  1-C ,  6-C ) :   0.9279
B(  1-C , 12-H ) :   0.9136 B(  2-O ,  3-C ) :   0.9026 B(  3-C ,  4-C ) :   0.9399
B(  3-C ,  6-C ) :   0.8957 B(  3-C , 13-H ) :   0.9061 B(  4-C ,  5-O ) :   0.9270
B(  4-C , 14-H ) :   0.9152 B(  4-C , 15-H ) :   0.9270 B(  5-O , 16-H ) :   0.8316
B(  6-C ,  7-C ) :   0.9279 B(  6-C ,  8-N ) :   0.9370 B(  7-C ,  8-N ) :   0.9523
B(  7-C , 17-H ) :   0.9081 B(  7-C , 18-H ) :   0.9188 B(  8-N , 19-H ) :   0.8638

MP2 TOTAL ENERGY:     -439.518134434 Eh
FINAL SINGLE POINT ENERGY      -439.518134433779

DIPOLE MOMENT
-------------
                                X             Y             Z
Electronic contribution:      0.07758      -4.72036      -1.07054
Nuclear contribution   :     -0.71586       5.96120       1.50095
                        -----------------------------------------
Total Dipole Moment    :     -0.63828       1.24084       0.43041
                        -----------------------------------------
Magnitude (a.u.)       :      1.46025
Magnitude (Debye)      :      3.71166

                             ****ORCA TERMINATED NORMALLY****
TOTAL RUN TIME: 0 days 0 hours 27 minutes 12 seconds 96 msec
