                         Program Version 3.0.3 - RELEASE   -
|  1> ! RI-MP2 RIJK def2-TZVP def2-TZVP/C def2-TZVP/JK TIGHTSCF
|  2> % maxcore 2000
|  3> % mp2 density relaxed end
|  4> *xyz 0 1
|  5>  C       -0.1099324867     1.5142742920     0.0233177019
|  6>  N        0.1173098724     0.0736780793     0.0908233452
|  7>  C        1.3851525347    -0.5499880333    -0.1726780536
|  8>  C        2.5727638233     0.3032300425     0.3026100906
|  9>  C        1.9358490599     0.2309774696     1.7168644260
| 10>  O        2.3279104977     0.5305325437     2.8087189890
| 11>  C        0.7526208996    -0.5898970938     1.2275445739
| 12>  C        0.0182734263    -1.6406567482     2.0037402331
| 13>  H        0.7156229235     2.1433327927     0.3807099997
| 14>  H       -0.3208620278     1.7808908904    -1.0168562021
| 15>  H       -0.9966982976     1.7486545921     0.6188226217
| 16>  H        1.4323182841    -1.3636637454    -0.8882330184
| 17>  H        3.5288883865    -0.2290875539     0.3029157402
| 18>  H        2.7126981209     1.2825034844    -0.1615738154
| 19>  H       -0.6305936896    -1.1813970707     2.7572175209
| 20>  H       -0.6076189016    -2.2369548698     1.3352537868
| 21>  H        0.7165144442    -2.3018402616     2.5260434206
| 22> *
| 23>
| 24>                          ****END OF INPUT****

CARTESIAN COORDINATES (ANGSTROEM)
---------------------------------
  C     -0.109932    1.514274    0.023318
  N      0.117310    0.073678    0.090823
  C      1.385153   -0.549988   -0.172678
  C      2.572764    0.303230    0.302610
  C      1.935849    0.230977    1.716864
  O      2.327910    0.530533    2.808719
  C      0.752621   -0.589897    1.227545
  C      0.018273   -1.640657    2.003740
  H      0.715623    2.143333    0.380710
  H     -0.320862    1.780891   -1.016856
  H     -0.996698    1.748655    0.618823
  H      1.432318   -1.363664   -0.888233
  H      3.528888   -0.229088    0.302916
  H      2.712698    1.282503   -0.161574
  H     -0.630594   -1.181397    2.757218
  H     -0.607619   -2.236955    1.335254
  H      0.716514   -2.301840    2.526043

 Total Charge           Charge          ....    0
 Multiplicity           Mult            ....    1
 Number of Electrons    NEL             ....   60
 Basis Dimension        Dim             ....  302

ORBITAL ENERGIES
----------------

  NO   OCC          E(Eh)            E(eV)
   0   2.0000     -20.554257      -559.3098
   1   2.0000     -15.580912      -423.9782
   2   2.0000     -11.336953      -308.4942
   3   2.0000     -11.282425      -307.0104
   4   2.0000     -11.279697      -306.9362
   5   2.0000     -11.257893      -306.3428
   6   2.0000     -11.249405      -306.1119
   7   2.0000     -11.228376      -305.5396
   8   2.0000      -1.398288       -38.0493
   9   2.0000      -1.309097       -35.6223
  10   2.0000      -1.069479       -29.1020
  11   2.0000      -1.012504       -27.5516
  12   2.0000      -0.956506       -26.0278
  13   2.0000      -0.865079       -23.5400
  14   2.0000      -0.797055       -21.6890
  15   2.0000      -0.705016       -19.1845
  16   2.0000      -0.684581       -18.6284
  17   2.0000      -0.665327       -18.1045
  18   2.0000      -0.646292       -17.5865
  19   2.0000      -0.609816       -16.5939
  20   2.0000      -0.582222       -15.8431
  21   2.0000      -0.572152       -15.5691
  22   2.0000      -0.566371       -15.4117
  23   2.0000      -0.560021       -15.2390
  24   2.0000      -0.534622       -14.5478
  25   2.0000      -0.517202       -14.0738
  26   2.0000      -0.467049       -12.7090
  27   2.0000      -0.439233       -11.9521
  28   2.0000      -0.404989       -11.0203
  29   2.0000      -0.375035       -10.2052
  30   0.0000       0.134827         3.6688
  31   0.0000       0.137651         3.7457
  32   0.0000       0.155333         4.2268
  33   0.0000       0.165358         4.4996
  34   0.0000       0.178404         4.8546

MULLIKEN ATOMIC CHARGES
-----------------------
   0 C :   -0.301609
   1 N :   -0.206193
   2 C :   -0.064797
   3 C :   -0.240129
   4 C :    0.110595
   5 O :   -0.253218
   6 C :    0.098109
   7 C :   -0.402261
   8 H :    0.120167
   9 H :    0.142683
  10 H :    0.146322
  11 H :    0.145010
  12 H :    0.137551
  13 H :    0.141503
  14 H :    0.141841
  15 H :    0.147533
  16 H :    0.136894
Sum of atomic charges:   -0.0000000

LOEWDIN ATOMIC CHARGES
----------------------
   0 C :   -0.314290
   1 N :    0.149460
   2 C :   -0.187984
   3 C :   -0.201891
   4 C :   -0.290559
   5 O :    0.161897
   6 C :   -0.230554
   7 C :   -0.266479
   8 H :    0.111259
   9 H :    0.120998
  10 H :    0.123363
  11 H :    0.136230
  12 H :    0.149587
  13 H :    0.134394
  14 H :    0.135783
  15 H :    0.135863
  16 H :    0.132922

  Mayer bond orders larger than 0.1
B(  0-C ,  1-N ) :   0.8751 B(  0-C ,  8-H ) :   0.9200 B(  0-C ,  9-H ) :   0.9353
B(  0-C , 10-H ) :   0.9381 B(  1-N ,  2-C ) :   0.9341 B(  1-N ,  6-C ) :   0.8427
B(  2-C ,  3-C ) :   0.9029 B(  2-C ,  6-C ) :   0.8243 B(  2-C , 11-H ) :   0.9130
B(  3-C ,  4-C ) :   0.9333 B(  3-C ,  6-C ) :  -0.1242 B(  3-C , 12-H ) :   0.8981
B(  3-C , 13-H ) :   0.9057 B(  4-C ,  5-O ) :   2.0451 B(  4-C ,  6-C ) :   0.8620
B(  6-C ,  7-C ) :   0.8689 B(  7-C , 14-H ) :   0.9311 B(  7-C , 15-H ) :   0.9463
B(  7-C , 16-H ) :   0.9331

MP2 TOTAL ENERGY:     -363.209462297 Eh
FINAL SINGLE POINT ENERGY      -363.209462296667

DIPOLE MOMENT
-------------
                                X             Y             Z
Electronic contribution:      3.13650       0.19305       2.27027
Nuclear contribution   :     -3.27919      -0.35514      -3.09998
                        -----------------------------------------
Total Dipole Moment    :     -0.14268      -0.16209      -0.82970
                        -----------------------------------------
Magnitude (a.u.)       :      0.85734
Magnitude (Debye)      :      2.17919

                             ****ORCA TERMINATED NORMALLY****
TOTAL RUN TIME: 0 days 0 hours 13 minutes 50 seconds 384 msec
