                         Program Version 3.0.3 - RELEASE   -
|  1> ! RI-MP2 RIJK def2-TZVP def2-TZVP/C def2-TZVP/JK TIGHTSCF
|  2> % maxcore 2000
|  3> % mp2 density relaxed end
|  4> *xyz 0 1
|  5>  C       -0.2521499094     1.5717129782    -0.0907541779
|  6>  C        0.0089907234     0.0763871059     0.0442416204
|  7>  C        1.1286342039    -0.5396367458    -0.9035440147
|  8>  N        1.8313928323    -0.8720569786     0.3390863845
|  9>  N        2.8763996884    -1.4919488741     0.9038373614
| 10>  C        2.5928211269    -1.3690708232     2.2159361138
| 11>  C        3.5427530238    -1.9177084242     3.2360409585
| 12>  C        1.3594711918    -0.6887300922     2.4606312753
| 13>  C        0.9125909223    -0.3935403845     1.1871018103
| 14>  H        0.6820756696     2.1399889794    -0.0449136058
| 15>  H       -0.7474909590     1.7976209721    -1.0408179517
| 16>  H       -0.9000554617     1.9247706985     0.7174502451
| 17>  H       -0.9287897074    -0.4840343826    -0.0226313196
| 18>  H        0.8246360478    -1.4096163124    -1.4922802638
| 19>  H        1.6552350467     0.1790318846    -1.5384909791
| 20>  H        3.9604046408    -1.1241009294     3.8659416643
| 21>  H        3.0472819666    -2.6327016631     3.9020164662
| 22>  H        4.3687501302    -2.4275347289     2.7357993660
| 23>  H        0.9138573630    -0.4736354898     3.4177328669
| 24> *
| 25>
| 26>                          ****END OF INPUT****

CARTESIAN COORDINATES (ANGSTROEM)
---------------------------------
  C     -0.252150    1.571713   -0.090754
  C      0.008991    0.076387    0.044242
  C      1.128634   -0.539637   -0.903544
  N      1.831393   -0.872057    0.339086
  N      2.876400   -1.491949    0.903837
  C      2.592821   -1.369071    2.215936
  C      3.542753   -1.917708    3.236041
  C      1.359471   -0.688730    2.460631
  C      0.912591   -0.393540    1.187102
  H      0.682076    2.139989   -0.044914
  H     -0.747491    1.797621   -1.040818
  H     -0.900055    1.924771    0.717450
  H     -0.928790   -0.484034   -0.022631
  H      0.824636   -1.409616   -1.492280
  H      1.655235    0.179032   -1.538491
  H      3.960405   -1.124101    3.865942
  H      3.047282   -2.632702    3.902016
  H      4.368750   -2.427535    2.735799
  H      0.913857   -0.473635    3.417733

 Total Charge           Charge          ....    0
 Multiplicity           Mult            ....    1
 Number of Electrons    NEL             ....   66
 Basis Dimension        Dim             ....  339

ORBITAL ENERGIES
----------------

  NO   OCC          E(Eh)            E(eV)
   0   2.0000     -15.615880      -424.9297
   1   2.0000     -15.569060      -423.6557
   2   2.0000     -11.289451      -307.2016
   3   2.0000     -11.270331      -306.6813
   4   2.0000     -11.263409      -306.4929
   5   2.0000     -11.252323      -306.1913
   6   2.0000     -11.233228      -305.6717
   7   2.0000     -11.214008      -305.1487
   8   2.0000     -11.209921      -305.0375
   9   2.0000      -1.378300       -37.5055
  10   2.0000      -1.176493       -32.0140
  11   2.0000      -1.049753       -28.5652
  12   2.0000      -1.017861       -27.6974
  13   2.0000      -0.979009       -26.6402
  14   2.0000      -0.888561       -24.1790
  15   2.0000      -0.859198       -23.3800
  16   2.0000      -0.766489       -20.8572
  17   2.0000      -0.712575       -19.3902
  18   2.0000      -0.687554       -18.7093
  19   2.0000      -0.668013       -18.1776
  20   2.0000      -0.602219       -16.3872
  21   2.0000      -0.596702       -16.2371
  22   2.0000      -0.574833       -15.6420
  23   2.0000      -0.556489       -15.1428
  24   2.0000      -0.545063       -14.8319
  25   2.0000      -0.537634       -14.6298
  26   2.0000      -0.529812       -14.4169
  27   2.0000      -0.522833       -14.2270
  28   2.0000      -0.495650       -13.4873
  29   2.0000      -0.478298       -13.0152
  30   2.0000      -0.435040       -11.8380
  31   2.0000      -0.332319        -9.0429
  32   2.0000      -0.328253        -8.9322
  33   0.0000       0.127732         3.4758
  34   0.0000       0.158024         4.3001
  35   0.0000       0.161422         4.3925
  36   0.0000       0.168525         4.5858
  37   0.0000       0.182831         4.9751

MULLIKEN ATOMIC CHARGES
-----------------------
   0 C :   -0.412397
   1 C :   -0.012555
   2 C :   -0.162446
   3 N :    0.125827
   4 N :   -0.302658
   5 C :    0.135083
   6 C :   -0.444611
   7 C :   -0.324918
   8 C :    0.045372
   9 H :    0.137366
  10 H :    0.136321
  11 H :    0.138087
  12 H :    0.119086
  13 H :    0.132496
  14 H :    0.133070
  15 H :    0.136281
  16 H :    0.136322
  17 H :    0.150035
  18 H :    0.134239
Sum of atomic charges:    0.0000000

LOEWDIN ATOMIC CHARGES
----------------------
   0 C :   -0.291505
   1 C :   -0.208567
   2 C :   -0.165975
   3 N :    0.221443
   4 N :    0.046114
   5 C :   -0.289448
   6 C :   -0.281577
   7 C :   -0.170653
   8 C :   -0.186738
   9 H :    0.128773
  10 H :    0.125199
  11 H :    0.129214
  12 H :    0.150928
  13 H :    0.130101
  14 H :    0.130703
  15 H :    0.128986
  16 H :    0.129038
  17 H :    0.134714
  18 H :    0.139251

  Mayer bond orders larger than 0.1
B(  0-C ,  1-C ) :   0.8927 B(  0-C ,  9-H ) :   0.9324 B(  0-C , 10-H ) :   0.9359
B(  0-C , 11-H ) :   0.9354 B(  1-C ,  2-C ) :   0.9170 B(  1-C ,  8-C ) :   0.9220
B(  1-C , 12-H ) :   0.9099 B(  2-C ,  3-N ) :   0.8671 B(  2-C , 13-H ) :   0.9147
B(  2-C , 14-H ) :   0.9146 B(  3-N ,  4-N ) :   1.0326 B(  3-N ,  8-C ) :   1.2035
B(  4-N ,  5-C ) :   1.5260 B(  5-C ,  6-C ) :   0.8639 B(  5-C ,  7-C ) :   1.2967
B(  6-C , 15-H ) :   0.9332 B(  6-C , 16-H ) :   0.9365 B(  6-C , 17-H ) :   0.9507
B(  7-C ,  8-C ) :   1.3821 B(  7-C , 18-H ) :   0.9249

MP2 TOTAL ENERGY:     -381.385118998 Eh
FINAL SINGLE POINT ENERGY      -381.385118998312

DIPOLE MOMENT
-------------
                                X             Y             Z
Electronic contribution:      1.60452      -2.86326      -0.54245
Nuclear contribution   :     -2.54338       3.38320       0.17966
                        -----------------------------------------
Total Dipole Moment    :     -0.93886       0.51994      -0.36278
                        -----------------------------------------
Magnitude (a.u.)       :      1.13288
Magnitude (Debye)      :      2.87955

                             ****ORCA TERMINATED NORMALLY****
TOTAL RUN TIME: 0 days 0 hours 18 minutes 7 seconds 53 msec
