                         Program Version 3.0.3 - RELEASE   -
|  1> ! RI-MP2 RIJK def2-TZVP def2-TZVP/C def2-TZVP/JK TIGHTSCF
|  2> % maxcore 2000
|  3> % mp2 density relaxed end
|  4> *xyz 0 1
|  5>  O       -0.0790932837     1.3987971694     0.0139731300
|  6>  C       -0.0356983241    -0.0237619461     0.0057914864
|  7>  C       -1.4525056851    -0.5467152832     0.0098649113
|  8>  C       -2.3576734759    -0.1397576706    -1.1835558815
|  9>  C       -3.6081402842    -0.8898506122    -0.7404737298
| 10>  C       -3.1385958331    -2.1233882144     0.0092922200
| 11>  C       -1.6140709910    -2.0895001147     0.0019472971
| 12>  C       -3.6006280400    -0.8984303800     0.7775647960
| 13>  C       -2.3458038623    -0.1533050911     1.2166914089
| 14>  H        0.8246221807     1.7266303637     0.0109439412
| 15>  H        0.4938630098    -0.3965658535    -0.8866856673
| 16>  H        0.5026445923    -0.4064950079     0.8887651019
| 17>  H       -2.4949158999     0.9432312733    -1.2427832068
| 18>  H       -1.9607954461    -0.4947001788    -2.1418656525
| 19>  H       -4.5302858648    -0.8819835974    -1.3068588365
| 20>  H       -3.7028345677    -3.0467578838     0.0068700085
| 21>  H       -1.1791602173    -2.5511903787    -0.8918967094
| 22>  H       -1.1703714280    -2.5612512086     0.8861674150
| 23>  H       -4.5171226017    -0.8970235602     1.3531011288
| 24>  H       -1.9394871339    -0.5190205945     2.1669604406
| 25>  H       -2.4824076739     0.9289380492     1.2894980378
| 26> *
| 27>
| 28>                          ****END OF INPUT****

CARTESIAN COORDINATES (ANGSTROEM)
---------------------------------
  O     -0.079093    1.398797    0.013973
  C     -0.035698   -0.023762    0.005791
  C     -1.452506   -0.546715    0.009865
  C     -2.357673   -0.139758   -1.183556
  C     -3.608140   -0.889851   -0.740474
  C     -3.138596   -2.123388    0.009292
  C     -1.614071   -2.089500    0.001947
  C     -3.600628   -0.898430    0.777565
  C     -2.345804   -0.153305    1.216691
  H      0.824622    1.726630    0.010944
  H      0.493863   -0.396566   -0.886686
  H      0.502645   -0.406495    0.888765
  H     -2.494916    0.943231   -1.242783
  H     -1.960795   -0.494700   -2.141866
  H     -4.530286   -0.881984   -1.306859
  H     -3.702835   -3.046758    0.006870
  H     -1.179160   -2.551190   -0.891897
  H     -1.170371   -2.561251    0.886167
  H     -4.517123   -0.897024    1.353101
  H     -1.939487   -0.519021    2.166960
  H     -2.482408    0.928938    1.289498

 Total Charge           Charge          ....    0
 Multiplicity           Mult            ....    1
 Number of Electrons    NEL             ....   68
 Basis Dimension        Dim             ....  351

ORBITAL ENERGIES
----------------

  NO   OCC          E(Eh)            E(eV)
   0   2.0000     -20.553083      -559.2778
   1   2.0000     -11.272583      -306.7426
   2   2.0000     -11.225914      -305.4727
   3   2.0000     -11.218911      -305.2821
   4   2.0000     -11.217579      -305.2458
   5   2.0000     -11.217095      -305.2327
   6   2.0000     -11.216866      -305.2264
   7   2.0000     -11.210082      -305.0418
   8   2.0000     -11.210061      -305.0413
   9   2.0000      -1.356835       -36.9213
  10   2.0000      -1.205168       -32.7943
  11   2.0000      -1.034187       -28.1417
  12   2.0000      -0.956991       -26.0410
  13   2.0000      -0.954476       -25.9726
  14   2.0000      -0.905210       -24.6320
  15   2.0000      -0.747119       -20.3301
  16   2.0000      -0.743082       -20.2203
  17   2.0000      -0.737203       -20.0603
  18   2.0000      -0.696275       -18.9466
  19   2.0000      -0.670583       -18.2475
  20   2.0000      -0.633613       -17.2415
  21   2.0000      -0.606142       -16.4940
  22   2.0000      -0.601307       -16.3624
  23   2.0000      -0.572344       -15.5743
  24   2.0000      -0.539890       -14.6911
  25   2.0000      -0.510021       -13.8784
  26   2.0000      -0.499312       -13.5870
  27   2.0000      -0.498353       -13.5609
  28   2.0000      -0.467093       -12.7103
  29   2.0000      -0.460790       -12.5387
  30   2.0000      -0.439535       -11.9603
  31   2.0000      -0.423035       -11.5114
  32   2.0000      -0.381413       -10.3788
  33   2.0000      -0.381297       -10.3756
  34   0.0000       0.132651         3.6096
  35   0.0000       0.152229         4.1424
  36   0.0000       0.170685         4.6446
  37   0.0000       0.180257         4.9050
  38   0.0000       0.186392         5.0720

MULLIKEN ATOMIC CHARGES
-----------------------
   0 O :   -0.469742
   1 C :   -0.087287
   2 C :    0.148981
   3 C :   -0.259394
   4 C :   -0.136310
   5 C :   -0.139303
   6 C :   -0.249087
   7 C :   -0.136310
   8 C :   -0.259398
   9 H :    0.311107
  10 H :    0.099575
  11 H :    0.099566
  12 H :    0.129257
  13 H :    0.106076
  14 H :    0.126924
  15 H :    0.127723
  16 H :    0.112678
  17 H :    0.112681
  18 H :    0.126924
  19 H :    0.106080
  20 H :    0.129259
Sum of atomic charges:    0.0000000

LOEWDIN ATOMIC CHARGES
----------------------
   0 O :   -0.043887
   1 C :   -0.309052
   2 C :   -0.258508
   3 C :   -0.178865
   4 C :   -0.173831
   5 C :   -0.175045
   6 C :   -0.181632
   7 C :   -0.173830
   8 C :   -0.178864
   9 H :    0.171249
  10 H :    0.121312
  11 H :    0.121311
  12 H :    0.143591
  13 H :    0.138198
  14 H :    0.139702
  15 H :    0.139502
  16 H :    0.138577
  17 H :    0.138578
  18 H :    0.139702
  19 H :    0.138199
  20 H :    0.143592

  Mayer bond orders larger than 0.1
B(  0-O ,  1-C ) :   1.0729 B(  0-O ,  2-C ) :  -0.1053 B(  0-O ,  9-H ) :   0.8497
B(  1-C ,  2-C ) :   0.8486 B(  1-C , 10-H ) :   0.9339 B(  1-C , 11-H ) :   0.9339
B(  2-C ,  3-C ) :   0.9317 B(  2-C ,  6-C ) :   0.9273 B(  2-C ,  8-C ) :   0.9317
B(  3-C ,  4-C ) :   0.9674 B(  3-C , 12-H ) :   0.9223 B(  3-C , 13-H ) :   0.9225
B(  4-C ,  5-C ) :   0.8480 B(  4-C ,  7-C ) :   0.8531 B(  4-C , 14-H ) :   0.9358
B(  5-C ,  6-C ) :   0.9664 B(  5-C ,  7-C ) :   0.8480 B(  5-C , 15-H ) :   0.9363
B(  6-C , 16-H ) :   0.9202 B(  6-C , 17-H ) :   0.9202 B(  7-C ,  8-C ) :   0.9674
B(  7-C , 18-H ) :   0.9358 B(  8-C , 19-H ) :   0.9225 B(  8-C , 20-H ) :   0.9223

MP2 TOTAL ENERGY:     -386.437247206 Eh
FINAL SINGLE POINT ENERGY      -386.437247205998

DIPOLE MOMENT
-------------
                                X             Y             Z
Electronic contribution:     -0.61995       1.19525       0.00986
Nuclear contribution   :      1.14724      -1.43175      -0.01404
                        -----------------------------------------
Total Dipole Moment    :      0.52729      -0.23650      -0.00417
                        -----------------------------------------
Magnitude (a.u.)       :      0.57792
Magnitude (Debye)      :      1.46894

                             ****ORCA TERMINATED NORMALLY****
TOTAL RUN TIME: 0 days 0 hours 20 minutes 38 seconds 368 msec
