                         Program Version 3.0.3 - RELEASE   -
|  1> ! RI-MP2 RIJK def2-TZVP def2-TZVP/C def2-TZVP/JK TIGHTSCF
|  2> % maxcore 2000
|  3> % mp2 density relaxed end
|  4> *xyz 0 1
|  5>  C       -0.0371429916     1.5721721703     0.0219143563
|  6>  C        0.0643645570     0.0458995720     0.0110184226
|  7>  C        0.8438610362    -0.5458936390    -1.1841020365
|  8>  C        1.3817646364    -1.8890144759    -0.6452085094
|  9>  C        2.6306305207    -2.4304460751    -1.3413695805
| 10>  O        3.7430679675    -1.5464028044    -1.3146811697
| 11>  N        1.5625643366    -1.7395676234     0.8204541649
| 12>  C        2.2650180264    -0.5024915334     1.2305583105
| 13>  C        0.7828360310    -0.5536191408     1.2182383432
| 14>  H        0.9575086100     2.0307325672     0.0323629810
| 15>  H       -0.5667428008     1.9390142222    -0.8634503627
| 16>  H       -0.5794943124     1.9290797840     0.9039667529
| 17>  H       -0.9525875827    -0.3695559960     0.0039407236
| 18>  H        0.2140276937    -0.6801543662    -2.0675059236
| 19>  H        1.6728338778     0.1060986831    -1.4766643171
| 20>  H        0.6048362285    -2.6578672951    -0.7600411345
| 21>  H        2.8913507296    -3.4032051871    -0.9013780687
| 22>  H        2.4018812059    -2.5975566760    -2.3999270769
| 23>  H        4.1073943601    -1.5726526726    -0.4253186176
| 24>  H        2.7977938371    -0.5903026274     2.1732234025
| 25>  H        2.7702016955     0.0965761227     0.4798461217
| 26>  H        0.2391042975    -0.6239677092     2.1568778779
| 27> *
| 28>
| 29>                          ****END OF INPUT****

CARTESIAN COORDINATES (ANGSTROEM)
---------------------------------
  C     -0.037143    1.572172    0.021914
  C      0.064365    0.045900    0.011018
  C      0.843861   -0.545894   -1.184102
  C      1.381765   -1.889014   -0.645209
  C      2.630631   -2.430446   -1.341370
  O      3.743068   -1.546403   -1.314681
  N      1.562564   -1.739568    0.820454
  C      2.265018   -0.502492    1.230558
  C      0.782836   -0.553619    1.218238
  H      0.957509    2.030733    0.032363
  H     -0.566743    1.939014   -0.863450
  H     -0.579494    1.929080    0.903967
  H     -0.952588   -0.369556    0.003941
  H      0.214028   -0.680154   -2.067506
  H      1.672834    0.106099   -1.476664
  H      0.604836   -2.657867   -0.760041
  H      2.891351   -3.403205   -0.901378
  H      2.401881   -2.597557   -2.399927
  H      4.107394   -1.572653   -0.425319
  H      2.797794   -0.590303    2.173223
  H      2.770202    0.096576    0.479846
  H      0.239104   -0.623968    2.156878

 Total Charge           Charge          ....    0
 Multiplicity           Mult            ....    1
 Number of Electrons    NEL             ....   70
 Basis Dimension        Dim             ....  357

ORBITAL ENERGIES
----------------

  NO   OCC          E(Eh)            E(eV)
   0   2.0000     -20.553646      -559.2931
   1   2.0000     -15.555758      -423.2937
   2   2.0000     -11.272148      -306.7308
   3   2.0000     -11.253467      -306.2224
   4   2.0000     -11.253096      -306.2123
   5   2.0000     -11.249659      -306.1188
   6   2.0000     -11.233587      -305.6815
   7   2.0000     -11.218238      -305.2638
   8   2.0000     -11.217885      -305.2542
   9   2.0000      -1.359162       -36.9847
  10   2.0000      -1.277647       -34.7665
  11   2.0000      -1.068640       -29.0792
  12   2.0000      -1.036604       -28.2074
  13   2.0000      -0.927555       -25.2400
  14   2.0000      -0.891435       -24.2572
  15   2.0000      -0.865418       -23.5492
  16   2.0000      -0.770506       -20.9665
  17   2.0000      -0.754751       -20.5378
  18   2.0000      -0.697782       -18.9876
  19   2.0000      -0.678089       -18.4517
  20   2.0000      -0.640973       -17.4418
  21   2.0000      -0.616862       -16.7857
  22   2.0000      -0.598183       -16.2774
  23   2.0000      -0.580499       -15.7962
  24   2.0000      -0.564060       -15.3488
  25   2.0000      -0.557434       -15.1686
  26   2.0000      -0.537348       -14.6220
  27   2.0000      -0.504995       -13.7416
  28   2.0000      -0.500150       -13.6098
  29   2.0000      -0.483526       -13.1574
  30   2.0000      -0.467637       -12.7250
  31   2.0000      -0.449659       -12.2358
  32   2.0000      -0.443176       -12.0594
  33   2.0000      -0.416914       -11.3448
  34   2.0000      -0.371526       -10.1097
  35   0.0000       0.133577         3.6348
  36   0.0000       0.148814         4.0494
  37   0.0000       0.149621         4.0714
  38   0.0000       0.172495         4.6938
  39   0.0000       0.186903         5.0859

MULLIKEN ATOMIC CHARGES
-----------------------
   0 C :   -0.405531
   1 C :   -0.051204
   2 C :   -0.298782
   3 C :    0.017896
   4 C :   -0.061048
   5 O :   -0.481753
   6 N :   -0.243313
   7 C :   -0.305094
   8 C :    0.009252
   9 H :    0.124449
  10 H :    0.133548
  11 H :    0.131670
  12 H :    0.093065
  13 H :    0.128596
  14 H :    0.142451
  15 H :    0.094521
  16 H :    0.124117
  17 H :    0.111665
  18 H :    0.326972
  19 H :    0.128219
  20 H :    0.156311
  21 H :    0.123994
Sum of atomic charges:   -0.0000000

LOEWDIN ATOMIC CHARGES
----------------------
   0 C :   -0.290577
   1 C :   -0.258579
   2 C :   -0.216718
   3 C :   -0.288607
   4 C :   -0.325490
   5 O :   -0.044814
   6 N :    0.122018
   7 C :   -0.255695
   8 C :   -0.228318
   9 H :    0.124055
  10 H :    0.124231
  11 H :    0.124078
  12 H :    0.155266
  13 H :    0.138018
  14 H :    0.143562
  15 H :    0.153912
  16 H :    0.123964
  17 H :    0.132735
  18 H :    0.173392
  19 H :    0.125678
  20 H :    0.128334
  21 H :    0.139553

  Mayer bond orders larger than 0.1
B(  0-C ,  1-C ) :   0.8947 B(  0-C ,  9-H ) :   0.9351 B(  0-C , 10-H ) :   0.9384
B(  0-C , 11-H ) :   0.9409 B(  1-C ,  2-C ) :   0.9214 B(  1-C ,  8-C ) :   0.9301
B(  1-C , 12-H ) :   0.9219 B(  2-C ,  3-C ) :   0.9234 B(  2-C , 13-H ) :   0.9206
B(  2-C , 14-H ) :   0.9268 B(  3-C ,  4-C ) :   0.9011 B(  3-C ,  6-N ) :   0.9167
B(  3-C , 15-H ) :   0.9145 B(  4-C ,  5-O ) :   0.9305 B(  4-C , 16-H ) :   0.9417
B(  4-C , 17-H ) :   0.9361 B(  5-O , 18-H ) :   0.8438 B(  6-N ,  7-C ) :   0.8948
B(  6-N ,  8-C ) :   0.8927 B(  7-C ,  8-C ) :   0.9067 B(  7-C , 19-H ) :   0.9243
B(  7-C , 20-H ) :   0.9186 B(  8-C , 21-H ) :   0.9168

MP2 TOTAL ENERGY:     -403.649248578 Eh
FINAL SINGLE POINT ENERGY      -403.649248577813

DIPOLE MOMENT
-------------
                                X             Y             Z
Electronic contribution:      2.63624      -4.05530       1.07634
Nuclear contribution   :     -3.00942       4.26971      -0.94889
                        -----------------------------------------
Total Dipole Moment    :     -0.37317       0.21441       0.12744
                        -----------------------------------------
Magnitude (a.u.)       :      0.44885
Magnitude (Debye)      :      1.14090

                             ****ORCA TERMINATED NORMALLY****
TOTAL RUN TIME: 0 days 0 hours 31 minutes 57 seconds 709 msec
