                         Program Version 3.0.3 - RELEASE   -
|  1> ! RI-MP2 RIJK def2-TZVP def2-TZVP/C def2-TZVP/JK TIGHTSCF
|  2> % maxcore 2000
|  3> % mp2 density relaxed end
|  4> *xyz 0 1
|  5>  C        0.1905405175     1.4321555042     0.3476657172
|  6>  C       -0.1577486009     0.0155880408    -0.1176198461
|  7>  C        0.6731429724    -0.4543543949    -1.3116607053
|  8>  C        2.0539201537    -1.0435015824    -1.0368497264
|  9>  C        0.9375065179    -1.9485590781    -1.4640110762
| 10>  C        0.5091022597     0.3048588813    -2.5174139732
| 11>  C        0.3469905575     0.9607362663    -3.5243202355
| 12>  C        0.1738557096     1.6873111217    -4.6605587819
| 13>  C        0.0191213235     2.3338546660    -5.6694970697
| 14>  H        1.2395041438     1.5002627450     0.6543228709
| 15>  H        0.0295614770     2.1579057913    -0.4549766269
| 16>  H       -0.4303842102     1.7256325109     1.1993474418
| 17>  H       -0.0033605087    -0.6952617629     0.7030543991
| 18>  H       -1.2202684250    -0.0391185584    -0.3824599597
| 19>  H        2.8434348066    -0.8305656977    -1.7472654771
| 20>  H        2.3704135129    -1.0670568851     0.0006083998
| 21>  H        0.4840740329    -2.5987012341    -0.7235928926
| 22>  H        0.9610674062    -2.3522043451    -2.4690405514
| 23>  H       -0.1158966865     2.9006142214    -6.5567175468
| 24> *
| 25>
| 26>                          ****END OF INPUT****

CARTESIAN COORDINATES (ANGSTROEM)
---------------------------------
  C      0.190541    1.432156    0.347666
  C     -0.157749    0.015588   -0.117620
  C      0.673143   -0.454354   -1.311661
  C      2.053920   -1.043502   -1.036850
  C      0.937507   -1.948559   -1.464011
  C      0.509102    0.304859   -2.517414
  C      0.346991    0.960736   -3.524320
  C      0.173856    1.687311   -4.660559
  C      0.019121    2.333855   -5.669497
  H      1.239504    1.500263    0.654323
  H      0.029561    2.157906   -0.454977
  H     -0.430384    1.725633    1.199347
  H     -0.003361   -0.695262    0.703054
  H     -1.220268   -0.039119   -0.382460
  H      2.843435   -0.830566   -1.747265
  H      2.370414   -1.067057    0.000608
  H      0.484074   -2.598701   -0.723593
  H      0.961067   -2.352204   -2.469041
  H     -0.115897    2.900614   -6.556718

 Total Charge           Charge          ....    0
 Multiplicity           Mult            ....    1
 Number of Electrons    NEL             ....   64
 Basis Dimension        Dim             ....  339

ORBITAL ENERGIES
----------------

  NO   OCC          E(Eh)            E(eV)
   0   2.0000     -11.267692      -306.6095
   1   2.0000     -11.253702      -306.2288
   2   2.0000     -11.250902      -306.1526
   3   2.0000     -11.242480      -305.9234
   4   2.0000     -11.241764      -305.9040
   5   2.0000     -11.241460      -305.8957
   6   2.0000     -11.241095      -305.8858
   7   2.0000     -11.235731      -305.7398
   8   2.0000     -11.215522      -305.1899
   9   2.0000      -1.176332       -32.0096
  10   2.0000      -1.077403       -29.3176
  11   2.0000      -1.032385       -28.0926
  12   2.0000      -1.007751       -27.4223
  13   2.0000      -0.894411       -24.3382
  14   2.0000      -0.848584       -23.0912
  15   2.0000      -0.836192       -22.7539
  16   2.0000      -0.790507       -21.5108
  17   2.0000      -0.705016       -19.1845
  18   2.0000      -0.685883       -18.6638
  19   2.0000      -0.650309       -17.6958
  20   2.0000      -0.605759       -16.4835
  21   2.0000      -0.584206       -15.8971
  22   2.0000      -0.539752       -14.6874
  23   2.0000      -0.531988       -14.4761
  24   2.0000      -0.506598       -13.7852
  25   2.0000      -0.500621       -13.6226
  26   2.0000      -0.485557       -13.2127
  27   2.0000      -0.480818       -13.0837
  28   2.0000      -0.440649       -11.9907
  29   2.0000      -0.429697       -11.6927
  30   2.0000      -0.347366        -9.4523
  31   2.0000      -0.332291        -9.0421
  32   0.0000       0.118428         3.2226
  33   0.0000       0.120482         3.2785
  34   0.0000       0.137095         3.7305
  35   0.0000       0.157687         4.2909
  36   0.0000       0.160650         4.3715

MULLIKEN ATOMIC CHARGES
-----------------------
   0 C :   -0.412182
   1 C :   -0.207074
   2 C :   -0.022711
   3 C :   -0.270405
   4 C :   -0.262644
   5 C :   -0.138627
   6 C :    0.067621
   7 C :    0.007521
   8 C :   -0.151931
   9 H :    0.126126
  10 H :    0.144379
  11 H :    0.134445
  12 H :    0.110396
  13 H :    0.123479
  14 H :    0.144279
  15 H :    0.135422
  16 H :    0.136027
  17 H :    0.144521
  18 H :    0.191358
Sum of atomic charges:   -0.0000000

LOEWDIN ATOMIC CHARGES
----------------------
   0 C :   -0.307222
   1 C :   -0.234068
   2 C :   -0.236988
   3 C :   -0.183780
   4 C :   -0.182968
   5 C :    0.018638
   6 C :   -0.056017
   7 C :   -0.102653
   8 C :   -0.055947
   9 H :    0.122542
  10 H :    0.127737
  11 H :    0.121791
  12 H :    0.142728
  13 H :    0.145033
  14 H :    0.139467
  15 H :    0.136958
  16 H :    0.136077
  17 H :    0.139703
  18 H :    0.128969

  Mayer bond orders larger than 0.1
B(  0-C ,  1-C ) :   0.9335 B(  0-C ,  9-H ) :   0.9382 B(  0-C , 10-H ) :   0.9342
B(  0-C , 11-H ) :   0.9379 B(  1-C ,  2-C ) :   0.9356 B(  1-C , 12-H ) :   0.9194
B(  1-C , 13-H ) :   0.9302 B(  2-C ,  3-C ) :   0.8424 B(  2-C ,  4-C ) :   0.8286
B(  2-C ,  5-C ) :   1.1254 B(  2-C ,  6-C ) :  -0.2022 B(  3-C ,  4-C ) :   0.9235
B(  3-C , 14-H ) :   0.9277 B(  3-C , 15-H ) :   0.9255 B(  4-C , 16-H ) :   0.9237
B(  4-C , 17-H ) :   0.9273 B(  5-C ,  6-C ) :   2.5103 B(  5-C ,  7-C ) :   0.1008
B(  5-C ,  8-C ) :   0.1237 B(  6-C ,  7-C ) :   1.2704 B(  7-C ,  8-C ) :   2.5307
B(  8-C , 18-H ) :   0.8887

MP2 TOTAL ENERGY:     -348.025240771 Eh
FINAL SINGLE POINT ENERGY      -348.025240770601

DIPOLE MOMENT
-------------
                                X             Y             Z
Electronic contribution:     -0.68447       2.26157     -10.21204
Nuclear contribution   :      0.75889      -2.53321      10.63657
                        -----------------------------------------
Total Dipole Moment    :      0.07442      -0.27164       0.42452
                        -----------------------------------------
Magnitude (a.u.)       :      0.50946
Magnitude (Debye)      :      1.29494

                             ****ORCA TERMINATED NORMALLY****
TOTAL RUN TIME: 0 days 0 hours 17 minutes 23 seconds 402 msec
