                         Program Version 3.0.3 - RELEASE   -
|  1> ! RI-MP2 RIJK def2-TZVP def2-TZVP/C def2-TZVP/JK TIGHTSCF
|  2> % maxcore 2000
|  3> % mp2 density relaxed end
|  4> *xyz 0 1
|  5>  O       -0.0169513126     1.4852915802    -0.0236562445
|  6>  C        0.0864888024     0.0806332650     0.1287844323
|  7>  C       -1.2669809175    -0.5695369117     0.0350761883
|  8>  C       -2.3359711301    -0.4227038270     1.1367478596
|  9>  N       -2.7623966046    -1.8380783127     0.9205129642
| 10>  C       -1.6385867553    -2.0744171554    -0.0285404002
| 11>  C       -2.0692154179    -1.7566492782    -1.4483089921
| 12>  N       -2.4813969082    -2.4161748060    -2.4275086866
| 13>  O       -1.8338392351    -0.3900241435    -1.3119282555
| 14>  H       -0.4235465640     1.6428696522    -0.8838555653
| 15>  H        0.7581850814    -0.3651146539    -0.6210404120
| 16>  H        0.5206271794    -0.0970734039     1.1179405468
| 17>  H       -1.8901290417    -0.2287239739     2.1193225121
| 18>  H       -3.1209604545     0.3138248133     0.9457516716
| 19>  H       -2.6974902023    -2.4107850071     1.7526272036
| 20>  H       -0.9786879020    -2.9226151725     0.1504521780
| 21>  H       -2.6863498176    -1.8155444952    -3.2283114902
| 22> *
| 23>
| 24>                          ****END OF INPUT****

CARTESIAN COORDINATES (ANGSTROEM)
---------------------------------
  O     -0.016951    1.485292   -0.023656
  C      0.086489    0.080633    0.128784
  C     -1.266981   -0.569537    0.035076
  C     -2.335971   -0.422704    1.136748
  N     -2.762397   -1.838078    0.920513
  C     -1.638587   -2.074417   -0.028540
  C     -2.069215   -1.756649   -1.448309
  N     -2.481397   -2.416175   -2.427509
  O     -1.833839   -0.390024   -1.311928
  H     -0.423547    1.642870   -0.883856
  H      0.758185   -0.365115   -0.621040
  H      0.520627   -0.097073    1.117941
  H     -1.890129   -0.228724    2.119323
  H     -3.120960    0.313825    0.945752
  H     -2.697490   -2.410785    1.752627
  H     -0.978688   -2.922615    0.150452
  H     -2.686350   -1.815544   -3.228311

 Total Charge           Charge          ....    0
 Multiplicity           Mult            ....    1
 Number of Electrons    NEL             ....   68
 Basis Dimension        Dim             ....  327

ORBITAL ENERGIES
----------------

  NO   OCC          E(Eh)            E(eV)
   0   2.0000     -20.597940      -560.4984
   1   2.0000     -20.571866      -559.7889
   2   2.0000     -15.568750      -423.6472
   3   2.0000     -15.544020      -422.9743
   4   2.0000     -11.343306      -308.6671
   5   2.0000     -11.313963      -307.8686
   6   2.0000     -11.298183      -307.4392
   7   2.0000     -11.291551      -307.2587
   8   2.0000     -11.273760      -306.7746
   9   2.0000      -1.443218       -39.2720
  10   2.0000      -1.375902       -37.4402
  11   2.0000      -1.244712       -33.8703
  12   2.0000      -1.203291       -32.7432
  13   2.0000      -1.024035       -27.8654
  14   2.0000      -0.979619       -26.6568
  15   2.0000      -0.922438       -25.1008
  16   2.0000      -0.816879       -22.2284
  17   2.0000      -0.741111       -20.1667
  18   2.0000      -0.731800       -19.9133
  19   2.0000      -0.706105       -19.2141
  20   2.0000      -0.687939       -18.7198
  21   2.0000      -0.679070       -18.4784
  22   2.0000      -0.626586       -17.0503
  23   2.0000      -0.616404       -16.7732
  24   2.0000      -0.598763       -16.2932
  25   2.0000      -0.577508       -15.7148
  26   2.0000      -0.545426       -14.8418
  27   2.0000      -0.520111       -14.1529
  28   2.0000      -0.503318       -13.6960
  29   2.0000      -0.475364       -12.9353
  30   2.0000      -0.467386       -12.7182
  31   2.0000      -0.445332       -12.1181
  32   2.0000      -0.408760       -11.1229
  33   2.0000      -0.393513       -10.7080
  34   0.0000       0.119681         3.2567
  35   0.0000       0.136333         3.7098
  36   0.0000       0.157503         4.2859
  37   0.0000       0.166826         4.5396
  38   0.0000       0.177836         4.8392

MULLIKEN ATOMIC CHARGES
-----------------------
   0 O :   -0.466939
   1 C :    0.000597
   2 C :    0.112082
   3 C :   -0.136881
   4 N :   -0.349237
   5 C :   -0.003683
   6 C :    0.117798
   7 N :   -0.344372
   8 O :   -0.303155
   9 H :    0.329195
  10 H :    0.113153
  11 H :    0.113064
  12 H :    0.123110
  13 H :    0.115336
  14 H :    0.213806
  15 H :    0.135153
  16 H :    0.230972
Sum of atomic charges:   -0.0000000

LOEWDIN ATOMIC CHARGES
----------------------
   0 O :   -0.033985
   1 C :   -0.314152
   2 C :   -0.273335
   3 C :   -0.216752
   4 N :   -0.001171
   5 C :   -0.172680
   6 C :   -0.365906
   7 N :   -0.038163
   8 O :    0.229984
   9 H :    0.181703
  10 H :    0.128195
  11 H :    0.137737
  12 H :    0.129707
  13 H :    0.130805
  14 H :    0.162387
  15 H :    0.140693
  16 H :    0.174932

  Mayer bond orders larger than 0.1
B(  0-O ,  1-C ) :   0.9209 B(  0-O ,  9-H ) :   0.8350 B(  1-C ,  2-C ) :   0.9717
B(  1-C , 10-H ) :   0.9154 B(  1-C , 11-H ) :   0.9152 B(  2-C ,  3-C ) :   0.9282
B(  2-C ,  5-C ) :   0.8921 B(  2-C ,  8-O ) :   0.8423 B(  3-C ,  4-N ) :   0.9579
B(  3-C , 12-H ) :   0.9137 B(  3-C , 13-H ) :   0.8995 B(  4-N ,  5-C ) :   0.9944
B(  4-N , 14-H ) :   0.8745 B(  5-C ,  6-C ) :   0.8807 B(  5-C , 15-H ) :   0.9016
B(  6-C ,  7-N ) :   2.1182 B(  6-C ,  8-O ) :   1.0446 B(  7-N , 16-H ) :   0.8438

MP2 TOTAL ENERGY:     -454.366265697 Eh
FINAL SINGLE POINT ENERGY      -454.366265696942

DIPOLE MOMENT
-------------
                                X             Y             Z
Electronic contribution:     -1.28072      -0.59931      -3.09478
Nuclear contribution   :      1.87980       0.65476       3.78711
                        -----------------------------------------
Total Dipole Moment    :      0.59908       0.05545       0.69234
                        -----------------------------------------
Magnitude (a.u.)       :      0.91722
Magnitude (Debye)      :      2.33140

                             ****ORCA TERMINATED NORMALLY****
TOTAL RUN TIME: 0 days 0 hours 15 minutes 45 seconds 803 msec
