                         Program Version 3.0.3 - RELEASE   -
|  1> ! RI-MP2 RIJK def2-TZVP def2-TZVP/C def2-TZVP/JK TIGHTSCF
|  2> % maxcore 2000
|  3> % mp2 density relaxed end
|  4> *xyz 0 1
|  5>  C       -0.1429856700     1.5432850235     0.2850250298
|  6>  C       -0.0657419015     0.0348452420     0.2154383207
|  7>  C        1.1439586841    -0.6521121933    -0.3573791094
|  8>  C        0.8581333982    -0.7634431739     1.1277283360
|  9>  C        1.7722422302    -0.1410662293     2.1931567649
| 10>  C        1.5799767988    -1.0056593567     3.4749565490
| 11>  O        0.8886908357    -0.3330762713     4.5298220109
| 12>  C        0.8135894990    -2.2085969980     2.9765515161
| 13>  C        0.3950360561    -2.0440866295     1.7200789109
| 14>  H        0.8422774526     1.9896610664     0.4496952658
| 15>  H       -0.5369829928     1.9543495594    -0.6510978412
| 16>  H       -0.7997576551     1.8777887390     1.0963177535
| 17>  H       -1.0189606923    -0.4462069363     0.0058292987
| 18>  H        1.0082642248    -1.5329814185    -0.9769236318
| 19>  H        1.9839514679    -0.0281787960    -0.6494806910
| 20>  H        2.8165548951    -0.1766071602     1.8671653516
| 21>  H        1.5370599047     0.9019263127     2.4202027689
| 22>  H        2.5438737124    -1.2705185323     3.9214582400
| 23>  H       -0.0298006948    -0.2434026957     4.2514249559
| 24>  H        0.5911136934    -3.0535358352     3.6177764261
| 25>  H       -0.2170684865    -2.7454291270     1.1609995247
| 26> *
| 27>
| 28>                          ****END OF INPUT****

CARTESIAN COORDINATES (ANGSTROEM)
---------------------------------
  C     -0.142986    1.543285    0.285025
  C     -0.065742    0.034845    0.215438
  C      1.143959   -0.652112   -0.357379
  C      0.858133   -0.763443    1.127728
  C      1.772242   -0.141066    2.193157
  C      1.579977   -1.005659    3.474957
  O      0.888691   -0.333076    4.529822
  C      0.813589   -2.208597    2.976552
  C      0.395036   -2.044087    1.720079
  H      0.842277    1.989661    0.449695
  H     -0.536983    1.954350   -0.651098
  H     -0.799758    1.877789    1.096318
  H     -1.018961   -0.446207    0.005829
  H      1.008264   -1.532981   -0.976924
  H      1.983951   -0.028179   -0.649481
  H      2.816555   -0.176607    1.867165
  H      1.537060    0.901926    2.420203
  H      2.543874   -1.270519    3.921458
  H     -0.029801   -0.243403    4.251425
  H      0.591114   -3.053536    3.617776
  H     -0.217068   -2.745429    1.161000

 Total Charge           Charge          ....    0
 Multiplicity           Mult            ....    1
 Number of Electrons    NEL             ....   68
 Basis Dimension        Dim             ....  351

ORBITAL ENERGIES
----------------

  NO   OCC          E(Eh)            E(eV)
   0   2.0000     -20.547905      -559.1369
   1   2.0000     -11.279067      -306.9190
   2   2.0000     -11.240537      -305.8706
   3   2.0000     -11.235906      -305.7445
   4   2.0000     -11.235520      -305.7341
   5   2.0000     -11.225857      -305.4711
   6   2.0000     -11.221594      -305.3551
   7   2.0000     -11.221530      -305.3534
   8   2.0000     -11.221052      -305.3404
   9   2.0000      -1.352956       -36.8158
  10   2.0000      -1.172255       -31.8987
  11   2.0000      -1.085570       -29.5399
  12   2.0000      -0.968253       -26.3475
  13   2.0000      -0.966776       -26.3073
  14   2.0000      -0.887319       -24.1452
  15   2.0000      -0.801254       -21.8032
  16   2.0000      -0.766727       -20.8637
  17   2.0000      -0.733025       -19.9466
  18   2.0000      -0.694118       -18.8879
  19   2.0000      -0.641994       -17.4695
  20   2.0000      -0.628192       -17.0940
  21   2.0000      -0.620183       -16.8760
  22   2.0000      -0.589971       -16.0539
  23   2.0000      -0.571338       -15.5469
  24   2.0000      -0.552591       -15.0368
  25   2.0000      -0.548600       -14.9282
  26   2.0000      -0.519538       -14.1373
  27   2.0000      -0.506485       -13.7821
  28   2.0000      -0.490886       -13.3577
  29   2.0000      -0.477115       -12.9830
  30   2.0000      -0.450375       -12.2553
  31   2.0000      -0.427564       -11.6346
  32   2.0000      -0.405232       -11.0269
  33   2.0000      -0.335149        -9.1199
  34   0.0000       0.131100         3.5674
  35   0.0000       0.146797         3.9945
  36   0.0000       0.158190         4.3046
  37   0.0000       0.160271         4.3612
  38   0.0000       0.165307         4.4982

MULLIKEN ATOMIC CHARGES
-----------------------
   0 C :   -0.424990
   1 C :   -0.094565
   2 C :   -0.327860
   3 C :    0.167341
   4 C :   -0.296893
   5 C :    0.157483
   6 O :   -0.467180
   7 C :   -0.236229
   8 C :   -0.189672
   9 H :    0.132859
  10 H :    0.138571
  11 H :    0.133007
  12 H :    0.118274
  13 H :    0.132670
  14 H :    0.128093
  15 H :    0.120121
  16 H :    0.133512
  17 H :    0.104902
  18 H :    0.308120
  19 H :    0.132187
  20 H :    0.130246
Sum of atomic charges:   -0.0000000

LOEWDIN ATOMIC CHARGES
----------------------
   0 C :   -0.294833
   1 C :   -0.212071
   2 C :   -0.185373
   3 C :   -0.204578
   4 C :   -0.178448
   5 C :   -0.310819
   6 O :   -0.031323
   7 C :   -0.153372
   8 C :   -0.110605
   9 H :    0.126722
  10 H :    0.127259
  11 H :    0.125198
  12 H :    0.148615
  13 H :    0.133427
  14 H :    0.137032
  15 H :    0.142828
  16 H :    0.143075
  17 H :    0.142444
  18 H :    0.173017
  19 H :    0.138491
  20 H :    0.143314

  Mayer bond orders larger than 0.1
B(  0-C ,  1-C ) :   0.9038 B(  0-C ,  9-H ) :   0.9355 B(  0-C , 10-H ) :   0.9366
B(  0-C , 11-H ) :   0.9413 B(  1-C ,  2-C ) :   0.9117 B(  1-C ,  3-C ) :   0.8038
B(  1-C , 12-H ) :   0.9295 B(  2-C ,  3-C ) :   0.8409 B(  2-C , 13-H ) :   0.9272
B(  2-C , 14-H ) :   0.9209 B(  3-C ,  4-C ) :   0.8884 B(  3-C ,  8-C ) :   0.9383
B(  4-C ,  5-C ) :   0.9379 B(  4-C , 15-H ) :   0.9108 B(  4-C , 16-H ) :   0.9310
B(  5-C ,  6-O ) :   0.9273 B(  5-C ,  7-C ) :   0.9601 B(  5-C , 17-H ) :   0.9368
B(  6-O , 18-H ) :   0.8437 B(  7-C ,  8-C ) :   1.7565 B(  7-C , 19-H ) :   0.9366
B(  8-C , 20-H ) :   0.9099

MP2 TOTAL ENERGY:     -386.410425952 Eh
FINAL SINGLE POINT ENERGY      -386.410425952273

DIPOLE MOMENT
-------------
                                X             Y             Z
Electronic contribution:      0.52319      -3.92547       4.49218
Nuclear contribution   :     -0.82220       3.84068      -5.21684
                        -----------------------------------------
Total Dipole Moment    :     -0.29901      -0.08479      -0.72465
                        -----------------------------------------
Magnitude (a.u.)       :      0.78849
Magnitude (Debye)      :      2.00418

                             ****ORCA TERMINATED NORMALLY****
TOTAL RUN TIME: 0 days 0 hours 18 minutes 12 seconds 370 msec
