                         Program Version 3.0.3 - RELEASE   -
|  1> ! RI-MP2 RIJK def2-TZVP def2-TZVP/C def2-TZVP/JK TIGHTSCF
|  2> % maxcore 2000
|  3> % mp2 density relaxed end
|  4> *xyz 0 1
|  5>  O       -0.0833458698     0.7437167261     2.1963741127
|  6>  C        0.3332728745     0.8656230431     1.0703347487
|  7>  C        1.3846851738     1.8333651011     0.6088594632
|  8>  C        0.9568873999     3.2045142832    -0.0451904308
|  9>  C        0.5490298076     3.6463720192     1.3898450084
| 10>  C        1.9369551146     2.9471572295     1.5448116662
| 11>  C        2.4186782546     3.7238243100     0.2540635606
| 12>  C        3.5952774730     3.1650754572    -0.5575574137
| 13>  C        2.6416873749     5.2391353884     0.3526702773
| 14>  H       -0.0425554490     0.2018650301     0.2548801565
| 15>  H        2.1048077948     1.2575087534     0.0230623059
| 16>  H        0.3883417264     3.3271392208    -0.9698439771
| 17>  H        0.4886044453     4.7123576878     1.5937208600
| 18>  H       -0.2927476155     3.1258699358     1.8412885654
| 19>  H        2.4953453471     2.7916361962     2.4691568860
| 20>  H        3.5847441885     2.0858950518    -0.7121209725
| 21>  H        3.6257134058     3.6357347216    -1.5467326673
| 22>  H        4.5394154565     3.4101723695    -0.0583498058
| 23>  H        3.6038678762     5.4422220591     0.8362185009
| 24>  H        2.6908273453     5.6754157360    -0.6514833989
| 25>  H        1.8777088656     5.7822793599     0.9073286144
| 26> *
| 27>
| 28>                          ****END OF INPUT****

CARTESIAN COORDINATES (ANGSTROEM)
---------------------------------
  O     -0.083346    0.743717    2.196374
  C      0.333273    0.865623    1.070335
  C      1.384685    1.833365    0.608859
  C      0.956887    3.204514   -0.045190
  C      0.549030    3.646372    1.389845
  C      1.936955    2.947157    1.544812
  C      2.418678    3.723824    0.254064
  C      3.595277    3.165075   -0.557557
  C      2.641687    5.239135    0.352670
  H     -0.042555    0.201865    0.254880
  H      2.104808    1.257509    0.023062
  H      0.388342    3.327139   -0.969844
  H      0.488604    4.712358    1.593721
  H     -0.292748    3.125870    1.841289
  H      2.495345    2.791636    2.469157
  H      3.584744    2.085895   -0.712121
  H      3.625713    3.635735   -1.546733
  H      4.539415    3.410172   -0.058350
  H      3.603868    5.442222    0.836219
  H      2.690827    5.675416   -0.651483
  H      1.877709    5.782279    0.907329

 Total Charge           Charge          ....    0
 Multiplicity           Mult            ....    1
 Number of Electrons    NEL             ....   68
 Basis Dimension        Dim             ....  351

ORBITAL ENERGIES
----------------

  NO   OCC          E(Eh)            E(eV)
   0   2.0000     -20.552567      -559.2638
   1   2.0000     -11.327775      -308.2444
   2   2.0000     -11.258679      -306.3642
   3   2.0000     -11.254451      -306.2492
   4   2.0000     -11.250480      -306.1411
   5   2.0000     -11.246749      -306.0396
   6   2.0000     -11.227820      -305.5245
   7   2.0000     -11.218901      -305.2818
   8   2.0000     -11.216806      -305.2248
   9   2.0000      -1.391069       -37.8529
  10   2.0000      -1.218251       -33.1503
  11   2.0000      -1.036171       -28.1957
  12   2.0000      -0.966981       -26.3129
  13   2.0000      -0.927400       -25.2358
  14   2.0000      -0.865212       -23.5436
  15   2.0000      -0.859709       -23.3939
  16   2.0000      -0.774308       -21.0700
  17   2.0000      -0.698188       -18.9987
  18   2.0000      -0.680120       -18.5070
  19   2.0000      -0.675515       -18.3817
  20   2.0000      -0.639751       -17.4085
  21   2.0000      -0.620076       -16.8731
  22   2.0000      -0.598260       -16.2795
  23   2.0000      -0.565807       -15.3964
  24   2.0000      -0.536316       -14.5939
  25   2.0000      -0.532836       -14.4992
  26   2.0000      -0.516186       -14.0461
  27   2.0000      -0.513112       -13.9625
  28   2.0000      -0.472545       -12.8586
  29   2.0000      -0.457230       -12.4419
  30   2.0000      -0.448421       -12.2021
  31   2.0000      -0.435908       -11.8617
  32   2.0000      -0.423180       -11.5153
  33   2.0000      -0.405926       -11.0458
  34   0.0000       0.126489         3.4419
  35   0.0000       0.135463         3.6861
  36   0.0000       0.160136         4.3575
  37   0.0000       0.169593         4.6149
  38   0.0000       0.179180         4.8757

MULLIKEN ATOMIC CHARGES
-----------------------
   0 O :   -0.268168
   1 C :    0.044226
   2 C :   -0.058504
   3 C :   -0.125087
   4 C :   -0.243479
   5 C :   -0.089206
   6 C :    0.070842
   7 C :   -0.411655
   8 C :   -0.410763
   9 H :    0.077211
  10 H :    0.100437
  11 H :    0.136020
  12 H :    0.112976
  13 H :    0.138454
  14 H :    0.140385
  15 H :    0.125841
  16 H :    0.133109
  17 H :    0.134770
  18 H :    0.133794
  19 H :    0.132351
  20 H :    0.126449
Sum of atomic charges:    0.0000000

LOEWDIN ATOMIC CHARGES
----------------------
   0 O :    0.132235
   1 C :   -0.284477
   2 C :   -0.189468
   3 C :   -0.115398
   4 C :   -0.185315
   5 C :   -0.116107
   6 C :   -0.233749
   7 C :   -0.273060
   8 C :   -0.271249
   9 H :    0.112375
  10 H :    0.153269
  11 H :    0.126516
  12 H :    0.123645
  13 H :    0.134839
  14 H :    0.130037
  15 H :    0.119609
  16 H :    0.128372
  17 H :    0.129397
  18 H :    0.128740
  19 H :    0.128066
  20 H :    0.121724

  Mayer bond orders larger than 0.1
B(  0-O ,  1-C ) :   2.0008 B(  1-C ,  2-C ) :   0.8452 B(  1-C ,  9-H ) :   0.9562
B(  2-C ,  3-C ) :   0.8808 B(  2-C ,  5-C ) :   0.8844 B(  2-C , 10-H ) :   0.8986
B(  3-C ,  4-C ) :   0.9259 B(  3-C ,  6-C ) :   0.8748 B(  3-C , 11-H ) :   0.8754
B(  4-C ,  5-C ) :   0.9082 B(  4-C , 12-H ) :   0.9417 B(  4-C , 13-H ) :   0.9103
B(  5-C ,  6-C ) :   0.8825 B(  5-C , 14-H ) :   0.8750 B(  6-C ,  7-C ) :   0.9259
B(  6-C ,  8-C ) :   0.9306 B(  7-C , 15-H ) :   0.9284 B(  7-C , 16-H ) :   0.9369
B(  7-C , 17-H ) :   0.9371 B(  8-C , 18-H ) :   0.9390 B(  8-C , 19-H ) :   0.9390
B(  8-C , 20-H ) :   0.9302

MP2 TOTAL ENERGY:     -386.366202119 Eh
FINAL SINGLE POINT ENERGY      -386.366202118631

DIPOLE MOMENT
-------------
                                X             Y             Z
Electronic contribution:     -5.75166      -6.73172       3.96414
Nuclear contribution   :      6.27656       7.17475      -4.81650
                        -----------------------------------------
Total Dipole Moment    :      0.52491       0.44303      -0.85236
                        -----------------------------------------
Magnitude (a.u.)       :      1.09468
Magnitude (Debye)      :      2.78245

                             ****ORCA TERMINATED NORMALLY****
TOTAL RUN TIME: 0 days 0 hours 23 minutes 0 seconds 990 msec
