                         Program Version 3.0.3 - RELEASE   -
|  1> ! RI-MP2 RIJK def2-TZVP def2-TZVP/C def2-TZVP/JK TIGHTSCF
|  2> % maxcore 2000
|  3> % mp2 density relaxed end
|  4> *xyz 0 1
|  5>  C        0.0139681669     1.4884409854    -0.0403675994
|  6>  C       -0.0364038426    -0.0103420196    -0.0357930548
|  7>  C       -1.2315334046    -0.9346184321    -0.2089407995
|  8>  N       -0.4112135857    -2.0739587057     0.3658195100
|  9>  C        0.5240624572    -0.9916733374     0.9549153831
| 10>  C        1.1864312244    -0.8893118272    -0.3862259076
| 11>  C        0.6275297502    -2.2647936379    -0.7453143945
| 12>  C        1.5276572727    -3.3715317463    -0.4750941907
| 13>  C        2.2921282236    -4.2766235124    -0.2729472927
| 14>  H        0.9834944194     1.8551102029     0.3127164279
| 15>  H       -0.1443376288     1.8897648429    -1.0478882543
| 16>  H       -0.7582004640     1.9096788392     0.6130949402
| 17>  H       -2.0455395184    -0.6969417883     0.4823048324
| 18>  H       -1.6428688503    -1.1238144555    -1.2080483468
| 19>  H        0.8665572241    -0.9402045117     1.9783510668
| 20>  H        2.1475563898    -0.4585591194    -0.6369870282
| 21>  H        0.1706892665    -2.3903254676    -1.7349700365
| 22>  H        2.9578436297    -5.0830615094    -0.0887091154
| 23> *
| 24>
| 25>                          ****END OF INPUT****

CARTESIAN COORDINATES (ANGSTROEM)
---------------------------------
  C      0.013968    1.488441   -0.040368
  C     -0.036404   -0.010342   -0.035793
  C     -1.231533   -0.934618   -0.208941
  N     -0.411214   -2.073959    0.365820
  C      0.524062   -0.991673    0.954915
  C      1.186431   -0.889312   -0.386226
  C      0.627530   -2.264794   -0.745314
  C      1.527657   -3.371532   -0.475094
  C      2.292128   -4.276624   -0.272947
  H      0.983494    1.855110    0.312716
  H     -0.144338    1.889765   -1.047888
  H     -0.758200    1.909679    0.613095
  H     -2.045540   -0.696942    0.482305
  H     -1.642869   -1.123814   -1.208048
  H      0.866557   -0.940205    1.978351
  H      2.147556   -0.458559   -0.636987
  H      0.170689   -2.390325   -1.734970
  H      2.957844   -5.083062   -0.088709

 Total Charge           Charge          ....    0
 Multiplicity           Mult            ....    1
 Number of Electrons    NEL             ....   64
 Basis Dimension        Dim             ....  333

ORBITAL ENERGIES
----------------

  NO   OCC          E(Eh)            E(eV)
   0   2.0000     -15.565891      -423.5694
   1   2.0000     -11.286338      -307.1169
   2   2.0000     -11.263437      -306.4937
   3   2.0000     -11.258227      -306.3519
   4   2.0000     -11.251839      -306.1781
   5   2.0000     -11.246340      -306.0285
   6   2.0000     -11.231919      -305.6361
   7   2.0000     -11.229550      -305.5716
   8   2.0000     -11.220652      -305.3295
   9   2.0000      -1.308983       -35.6192
  10   2.0000      -1.072323       -29.1794
  11   2.0000      -1.041826       -28.3495
  12   2.0000      -0.992603       -27.0101
  13   2.0000      -0.947339       -25.7784
  14   2.0000      -0.890654       -24.2359
  15   2.0000      -0.783015       -21.3069
  16   2.0000      -0.745217       -20.2784
  17   2.0000      -0.708607       -19.2822
  18   2.0000      -0.668818       -18.1995
  19   2.0000      -0.655148       -17.8275
  20   2.0000      -0.626563       -17.0497
  21   2.0000      -0.613514       -16.6946
  22   2.0000      -0.577412       -15.7122
  23   2.0000      -0.553603       -15.0643
  24   2.0000      -0.544533       -14.8175
  25   2.0000      -0.496738       -13.5169
  26   2.0000      -0.481042       -13.0898
  27   2.0000      -0.435447       -11.8491
  28   2.0000      -0.397647       -10.8205
  29   2.0000      -0.390346       -10.6218
  30   2.0000      -0.376352       -10.2411
  31   2.0000      -0.361776        -9.8444
  32   0.0000       0.133609         3.6357
  33   0.0000       0.154966         4.2168
  34   0.0000       0.164437         4.4746
  35   0.0000       0.174329         4.7437
  36   0.0000       0.178307         4.8520

MULLIKEN ATOMIC CHARGES
-----------------------
   0 C :   -0.427570
   1 C :    0.020652
   2 C :   -0.081932
   3 N :   -0.200453
   4 C :   -0.115977
   5 C :   -0.181270
   6 C :   -0.111557
   7 C :   -0.035806
   8 C :   -0.111215
   9 H :    0.136669
  10 H :    0.139729
  11 H :    0.138622
  12 H :    0.118172
  13 H :    0.106867
  14 H :    0.151607
  15 H :    0.140816
  16 H :    0.122088
  17 H :    0.190560
Sum of atomic charges:    0.0000000

LOEWDIN ATOMIC CHARGES
----------------------
   0 C :   -0.272645
   1 C :   -0.223673
   2 C :   -0.206677
   3 N :    0.135314
   4 C :   -0.131819
   5 C :   -0.129110
   6 C :   -0.216977
   7 C :   -0.077234
   8 C :   -0.086822
   9 H :    0.132783
  10 H :    0.130362
  11 H :    0.130146
  12 H :    0.136098
  13 H :    0.121079
  14 H :    0.134350
  15 H :    0.143600
  16 H :    0.154174
  17 H :    0.127051

  Mayer bond orders larger than 0.1
B(  0-C ,  1-C ) :   0.8830 B(  0-C ,  9-H ) :   0.9314 B(  0-C , 10-H ) :   0.9404
B(  0-C , 11-H ) :   0.9409 B(  1-C ,  2-C ) :   0.9763 B(  1-C ,  4-C ) :   0.8706
B(  1-C ,  5-C ) :   0.7926 B(  2-C ,  3-N ) :   0.9256 B(  2-C , 12-H ) :   0.9151
B(  2-C , 13-H ) :   0.9184 B(  3-N ,  4-C ) :   0.9183 B(  3-N ,  6-C ) :   0.9197
B(  4-C ,  5-C ) :   0.9039 B(  4-C , 14-H ) :   0.8993 B(  5-C ,  6-C ) :   0.9311
B(  5-C , 15-H ) :   0.9255 B(  6-C ,  7-C ) :   1.2197 B(  6-C ,  8-C ) :  -0.1342
B(  6-C , 16-H ) :   0.9010 B(  7-C ,  8-C ) :   2.5730 B(  8-C , 17-H ) :   0.8889

MP2 TOTAL ENERGY:     -364.028682836 Eh
FINAL SINGLE POINT ENERGY      -364.028682835663

DIPOLE MOMENT
-------------
                                X             Y             Z
Electronic contribution:      1.77328      -6.40765       0.26538
Nuclear contribution   :     -1.57270       7.26231      -0.48389
                        -----------------------------------------
Total Dipole Moment    :      0.20059       0.85466      -0.21851
                        -----------------------------------------
Magnitude (a.u.)       :      0.90467
Magnitude (Debye)      :      2.29949

                             ****ORCA TERMINATED NORMALLY****
TOTAL RUN TIME: 0 days 0 hours 18 minutes 58 seconds 720 msec
