                         Program Version 3.0.3 - RELEASE   -
|  1> ! RI-MP2 RIJK def2-TZVP def2-TZVP/C def2-TZVP/JK TIGHTSCF
|  2> % maxcore 2000
|  3> % mp2 density relaxed end
|  4> *xyz 0 1
|  5>  N        0.2435425992    -1.0725002939     0.8338911392
|  6>  C        0.1444885411     0.0249967433     0.4813545473
|  7>  C        0.0284608837     1.4036800313     0.0382369588
|  8>  C       -0.5165527669     2.4207920018     1.0994473413
|  9>  C        0.8669903877     3.1362521226     1.1147288596
| 10>  C        1.7807781013     2.7540713436     2.2474566912
| 11>  C        2.7400291310     1.9089037659     1.8700903102
| 12>  C        2.6794027850     1.5644784252     0.3987218168
| 13>  C        1.3689762656     2.2318665496    -0.0604780334
| 14>  H       -0.5410590788     1.4102927161    -0.8944104477
| 15>  H       -1.3305553529     3.0295467930     0.7004209188
| 16>  H       -0.8340152061     1.9805832220     2.0459743402
| 17>  H        0.8244540521     4.2165294443     0.9455219837
| 18>  H        1.6423353826     3.1328224024     3.2546069727
| 19>  H        3.5017152619     1.5008625163     2.5253912277
| 20>  H        3.5477935317     1.9637833029    -0.1415608946
| 21>  H        2.6784560082     0.4816969310     0.2259580911
| 22>  H        1.4533074635     2.7160828126    -1.0335031231
| 23> *
| 24>
| 25>                          ****END OF INPUT****

CARTESIAN COORDINATES (ANGSTROEM)
---------------------------------
  N      0.243543   -1.072500    0.833891
  C      0.144489    0.024997    0.481355
  C      0.028461    1.403680    0.038237
  C     -0.516553    2.420792    1.099447
  C      0.866990    3.136252    1.114729
  C      1.780778    2.754071    2.247457
  C      2.740029    1.908904    1.870090
  C      2.679403    1.564478    0.398722
  C      1.368976    2.231867   -0.060478
  H     -0.541059    1.410293   -0.894410
  H     -1.330555    3.029547    0.700421
  H     -0.834015    1.980583    2.045974
  H      0.824454    4.216529    0.945522
  H      1.642335    3.132822    3.254607
  H      3.501715    1.500863    2.525391
  H      3.547794    1.963783   -0.141561
  H      2.678456    0.481697    0.225958
  H      1.453307    2.716083   -1.033503

 Total Charge           Charge          ....    0
 Multiplicity           Mult            ....    1
 Number of Electrons    NEL             ....   64
 Basis Dimension        Dim             ....  333

ORBITAL ENERGIES
----------------

  NO   OCC          E(Eh)            E(eV)
   0   2.0000     -15.561504      -423.4501
   1   2.0000     -11.278835      -306.9127
   2   2.0000     -11.265886      -306.5604
   3   2.0000     -11.253529      -306.2241
   4   2.0000     -11.247953      -306.0724
   5   2.0000     -11.245674      -306.0103
   6   2.0000     -11.235612      -305.7366
   7   2.0000     -11.234969      -305.7191
   8   2.0000     -11.231160      -305.6154
   9   2.0000      -1.215498       -33.0754
  10   2.0000      -1.178273       -32.0624
  11   2.0000      -1.074099       -29.2277
  12   2.0000      -0.991732       -26.9864
  13   2.0000      -0.936785       -25.4912
  14   2.0000      -0.883809       -24.0497
  15   2.0000      -0.784659       -21.3516
  16   2.0000      -0.733683       -19.9645
  17   2.0000      -0.708901       -19.2902
  18   2.0000      -0.665450       -18.1078
  19   2.0000      -0.660759       -17.9802
  20   2.0000      -0.599957       -16.3256
  21   2.0000      -0.580774       -15.8037
  22   2.0000      -0.552290       -15.0286
  23   2.0000      -0.540385       -14.7046
  24   2.0000      -0.526771       -14.3342
  25   2.0000      -0.500956       -13.6317
  26   2.0000      -0.492452       -13.4003
  27   2.0000      -0.489946       -13.3321
  28   2.0000      -0.466039       -12.6816
  29   2.0000      -0.436648       -11.8818
  30   2.0000      -0.431039       -11.7292
  31   2.0000      -0.354619        -9.6497
  32   0.0000       0.124087         3.3766
  33   0.0000       0.139456         3.7948
  34   0.0000       0.155398         4.2286
  35   0.0000       0.162515         4.4223
  36   0.0000       0.164574         4.4783

MULLIKEN ATOMIC CHARGES
-----------------------
   0 N :   -0.055238
   1 C :   -0.241079
   2 C :   -0.010850
   3 C :   -0.201748
   4 C :   -0.044797
   5 C :   -0.208395
   6 C :   -0.185368
   7 C :   -0.202232
   8 C :   -0.024287
   9 H :    0.142269
  10 H :    0.128631
  11 H :    0.131707
  12 H :    0.116164
  13 H :    0.131286
  14 H :    0.130950
  15 H :    0.124119
  16 H :    0.144522
  17 H :    0.124345
Sum of atomic charges:   -0.0000000

LOEWDIN ATOMIC CHARGES
----------------------
   0 N :    0.056862
   1 C :   -0.179431
   2 C :   -0.187751
   3 C :   -0.167055
   4 C :   -0.183797
   5 C :   -0.143418
   6 C :   -0.143619
   7 C :   -0.219886
   8 C :   -0.136540
   9 H :    0.169092
  10 H :    0.134713
  11 H :    0.139019
  12 H :    0.144391
  13 H :    0.140306
  14 H :    0.139306
  15 H :    0.141784
  16 H :    0.149615
  17 H :    0.146409

  Mayer bond orders larger than 0.1
B(  0-N ,  1-C ) :   2.8632 B(  1-C ,  2-C ) :   0.9566 B(  2-C ,  3-C ) :   0.8755
B(  2-C ,  8-C ) :   0.9013 B(  2-C ,  9-H ) :   0.9034 B(  3-C ,  4-C ) :   0.9038
B(  3-C , 10-H ) :   0.9192 B(  3-C , 11-H ) :   0.9114 B(  4-C ,  5-C ) :   0.9393
B(  4-C ,  8-C ) :   0.9367 B(  4-C , 12-H ) :   0.9113 B(  5-C ,  6-C ) :   1.7892
B(  5-C , 13-H ) :   0.9247 B(  6-C ,  7-C ) :   0.9576 B(  6-C , 14-H ) :   0.9274
B(  7-C ,  8-C ) :   0.9470 B(  7-C , 15-H ) :   0.9179 B(  7-C , 16-H ) :   0.9025
B(  8-C , 17-H ) :   0.9109

MP2 TOTAL ENERGY:     -364.162740348 Eh
FINAL SINGLE POINT ENERGY      -364.162740347770

DIPOLE MOMENT
-------------
                                X             Y             Z
Electronic contribution:     -1.44954      -4.08544      -0.05225
Nuclear contribution   :      1.50017       5.61503      -0.33456
                        -----------------------------------------
Total Dipole Moment    :      0.05064       1.52959      -0.38681
                        -----------------------------------------
Magnitude (a.u.)       :      1.57856
Magnitude (Debye)      :      4.01237

                             ****ORCA TERMINATED NORMALLY****
TOTAL RUN TIME: 0 days 0 hours 18 minutes 15 seconds 577 msec
