                         Program Version 3.0.3 - RELEASE   -
|  1> ! RI-MP2 RIJK def2-TZVP def2-TZVP/C def2-TZVP/JK TIGHTSCF
|  2> % maxcore 2000
|  3> % mp2 density relaxed end
|  4> *xyz 0 1
|  5>  C        0.0342666245     1.5715833928     0.0814548242
|  6>  C        0.0224662313     0.0328156124     0.0201234599
|  7>  C        0.6393860109    -0.4982466062    -1.1894126037
|  8>  C        1.1641384789    -0.9261361378    -2.1873113225
|  9>  C        1.7445807484    -1.3941446714    -3.3974030591
| 10>  C        1.3940864951    -0.9906481164    -4.8458316653
| 11>  C        1.8368656081    -2.4213398905    -5.3101386958
| 12>  C        2.1793211559    -2.7408221935    -3.8501837168
| 13>  O        3.1374055427    -1.7783765343    -3.4164583776
| 14>  H        1.0580727990     1.9531820868     0.0479711219
| 15>  H       -0.5129335033     1.9985523547    -0.7632983748
| 16>  H       -0.4346183534     1.9183351191     1.0070474079
| 17>  H        0.5444618754    -0.3742930322     0.8955763739
| 18>  H       -1.0111028745    -0.3303988428     0.0906748274
| 19>  H        0.3269150998    -0.8120198448    -4.9899750226
| 20>  H        1.9666534477    -0.1432585208    -5.2281660187
| 21>  H        1.0031567637    -3.0113579104    -5.6974658647
| 22>  H        2.6802427365    -2.4793907386    -6.0018183484
| 23>  H        2.1602098132    -3.6917525460    -3.3294364653
| 24> *
| 25>
| 26>                          ****END OF INPUT****

CARTESIAN COORDINATES (ANGSTROEM)
---------------------------------
  C      0.034267    1.571583    0.081455
  C      0.022466    0.032816    0.020123
  C      0.639386   -0.498247   -1.189413
  C      1.164138   -0.926136   -2.187311
  C      1.744581   -1.394145   -3.397403
  C      1.394086   -0.990648   -4.845832
  C      1.836866   -2.421340   -5.310139
  C      2.179321   -2.740822   -3.850184
  O      3.137406   -1.778377   -3.416458
  H      1.058073    1.953182    0.047971
  H     -0.512934    1.998552   -0.763298
  H     -0.434618    1.918335    1.007047
  H      0.544462   -0.374293    0.895576
  H     -1.011103   -0.330399    0.090675
  H      0.326915   -0.812020   -4.989975
  H      1.966653   -0.143259   -5.228166
  H      1.003157   -3.011358   -5.697466
  H      2.680243   -2.479391   -6.001818
  H      2.160210   -3.691753   -3.329436

 Total Charge           Charge          ....    0
 Multiplicity           Mult            ....    1
 Number of Electrons    NEL             ....   66
 Basis Dimension        Dim             ....  339

ORBITAL ENERGIES
----------------

  NO   OCC          E(Eh)            E(eV)
   0   2.0000     -20.569509      -559.7248
   1   2.0000     -11.306896      -307.6763
   2   2.0000     -11.290878      -307.2404
   3   2.0000     -11.254297      -306.2450
   4   2.0000     -11.237817      -305.7965
   5   2.0000     -11.236085      -305.7494
   6   2.0000     -11.233242      -305.6721
   7   2.0000     -11.226485      -305.4882
   8   2.0000     -11.223607      -305.4099
   9   2.0000      -1.420215       -38.6460
  10   2.0000      -1.090398       -29.6712
  11   2.0000      -1.078801       -29.3557
  12   2.0000      -1.013391       -27.5758
  13   2.0000      -0.923092       -25.1186
  14   2.0000      -0.886243       -24.1159
  15   2.0000      -0.861027       -23.4297
  16   2.0000      -0.784896       -21.3581
  17   2.0000      -0.731811       -19.9136
  18   2.0000      -0.653608       -17.7856
  19   2.0000      -0.634105       -17.2549
  20   2.0000      -0.628880       -17.1127
  21   2.0000      -0.624064       -16.9816
  22   2.0000      -0.582409       -15.8481
  23   2.0000      -0.552698       -15.0397
  24   2.0000      -0.527714       -14.3598
  25   2.0000      -0.522737       -14.2244
  26   2.0000      -0.515078       -14.0160
  27   2.0000      -0.501816       -13.6551
  28   2.0000      -0.491599       -13.3771
  29   2.0000      -0.452283       -12.3072
  30   2.0000      -0.442586       -12.0434
  31   2.0000      -0.376523       -10.2457
  32   2.0000      -0.348658        -9.4875
  33   0.0000       0.131037         3.5657
  34   0.0000       0.153610         4.1799
  35   0.0000       0.156182         4.2499
  36   0.0000       0.170264         4.6331
  37   0.0000       0.176395         4.7999

MULLIKEN ATOMIC CHARGES
-----------------------
   0 C :   -0.364006
   1 C :   -0.292915
   2 C :    0.097954
   3 C :    0.042459
   4 C :   -0.052556
   5 C :   -0.239433
   6 C :   -0.162555
   7 C :   -0.024098
   8 O :   -0.308723
   9 H :    0.135250
  10 H :    0.129912
  11 H :    0.133202
  12 H :    0.146780
  13 H :    0.142381
  14 H :    0.124547
  15 H :    0.122109
  16 H :    0.115290
  17 H :    0.118651
  18 H :    0.135754
Sum of atomic charges:    0.0000000

LOEWDIN ATOMIC CHARGES
----------------------
   0 C :   -0.298451
   1 C :   -0.275886
   2 C :   -0.049339
   3 C :   -0.042466
   4 C :   -0.271591
   5 C :   -0.178219
   6 C :   -0.218201
   7 C :   -0.218046
   8 O :    0.201387
   9 H :    0.125538
  10 H :    0.124166
  11 H :    0.121445
  12 H :    0.155977
  13 H :    0.154021
  14 H :    0.138390
  15 H :    0.133330
  16 H :    0.135426
  17 H :    0.131222
  18 H :    0.131297

  Mayer bond orders larger than 0.1
B(  0-C ,  1-C ) :   0.9383 B(  0-C ,  9-H ) :   0.9349 B(  0-C , 10-H ) :   0.9354
B(  0-C , 11-H ) :   0.9388 B(  1-C ,  2-C ) :   0.9336 B(  1-C , 12-H ) :   0.9380
B(  1-C , 13-H ) :   0.9384 B(  2-C ,  3-C ) :   2.6397 B(  2-C ,  4-C ) :  -0.2130
B(  3-C ,  4-C ) :   1.1224 B(  4-C ,  5-C ) :   0.9391 B(  4-C ,  7-C ) :   0.8926
B(  4-C ,  8-O ) :   0.8805 B(  5-C ,  6-C ) :   0.9897 B(  5-C , 14-H ) :   0.9200
B(  5-C , 15-H ) :   0.9100 B(  6-C ,  7-C ) :   0.9147 B(  6-C , 16-H ) :   0.9096
B(  6-C , 17-H ) :   0.9139 B(  7-C ,  8-O ) :   0.9167 B(  7-C , 18-H ) :   0.9229

MP2 TOTAL ENERGY:     -385.137787300 Eh
FINAL SINGLE POINT ENERGY      -385.137787300443

DIPOLE MOMENT
-------------
                                X             Y             Z
Electronic contribution:      4.60354      -4.74126      -2.60040
Nuclear contribution   :     -5.44614       4.68847       2.62864
                        -----------------------------------------
Total Dipole Moment    :     -0.84260      -0.05278       0.02824
                        -----------------------------------------
Magnitude (a.u.)       :      0.84472
Magnitude (Debye)      :      2.14711

                             ****ORCA TERMINATED NORMALLY****
TOTAL RUN TIME: 0 days 0 hours 16 minutes 14 seconds 680 msec
