                         Program Version 3.0.3 - RELEASE   -
|  1> ! RI-MP2 RIJK def2-TZVP def2-TZVP/C def2-TZVP/JK TIGHTSCF
|  2> % maxcore 2000
|  3> % mp2 density relaxed end
|  4> *xyz 0 1
|  5>  C       -0.0150417121     1.5113383142     0.0106499683
|  6>  C        1.3151486396     0.7525054668    -0.0068124900
|  7>  C        0.0182015766     0.0243198406     0.0020061059
|  8>  C       -0.5758500941    -1.0387450535     0.9465473390
|  9>  C       -1.8267649372    -1.0385469397     0.0144020802
| 10>  C       -0.5946191376    -1.0281950631    -0.9423593014
| 11>  C        0.0422569453    -2.1047690309    -0.0101246865
| 12>  H       -0.2875587661     2.0262136414     0.9270574859
| 13>  H       -0.3056612419     2.0364112091    -0.8943376213
| 14>  H        1.8969889567     0.7798550366    -0.9232615688
| 15>  H        1.9151037750     0.7696748339     0.8981312266
| 16>  H       -0.5609168240    -1.0376701269     2.0380205372
| 17>  H       -2.4305146851    -1.9504834733     0.0153077437
| 18>  H       -2.4466039646    -0.1390676671     0.0255848457
| 19>  H       -0.6013784716    -1.0149278089    -2.0338335821
| 20>  H        1.1319904255    -2.1805489373    -0.0213758821
| 21>  H       -0.4354677446    -3.0885990618    -0.0108730403
| 22> *
| 23>
| 24>                          ****END OF INPUT****

CARTESIAN COORDINATES (ANGSTROEM)
---------------------------------
  C     -0.015042    1.511338    0.010650
  C      1.315149    0.752505   -0.006812
  C      0.018202    0.024320    0.002006
  C     -0.575850   -1.038745    0.946547
  C     -1.826765   -1.038547    0.014402
  C     -0.594619   -1.028195   -0.942359
  C      0.042257   -2.104769   -0.010125
  H     -0.287559    2.026214    0.927057
  H     -0.305661    2.036411   -0.894338
  H      1.896989    0.779855   -0.923262
  H      1.915104    0.769675    0.898131
  H     -0.560917   -1.037670    2.038021
  H     -2.430515   -1.950483    0.015308
  H     -2.446604   -0.139068    0.025585
  H     -0.601378   -1.014928   -2.033834
  H      1.131990   -2.180549   -0.021376
  H     -0.435468   -3.088599   -0.010873

 Total Charge           Charge          ....    0
 Multiplicity           Mult            ....    1
 Number of Electrons    NEL             ....   52
 Basis Dimension        Dim             ....  277

ORBITAL ENERGIES
----------------

  NO   OCC          E(Eh)            E(eV)
   0   2.0000     -11.240382      -305.8663
   1   2.0000     -11.240267      -305.8632
   2   2.0000     -11.237512      -305.7882
   3   2.0000     -11.224642      -305.4380
   4   2.0000     -11.224621      -305.4375
   5   2.0000     -11.217731      -305.2500
   6   2.0000     -11.217149      -305.2342
   7   2.0000      -1.214845       -33.0576
   8   2.0000      -1.100540       -29.9472
   9   2.0000      -0.900533       -24.5047
  10   2.0000      -0.854357       -23.2482
  11   2.0000      -0.831666       -22.6308
  12   2.0000      -0.815855       -22.2005
  13   2.0000      -0.698929       -19.0188
  14   2.0000      -0.672000       -18.2860
  15   2.0000      -0.634170       -17.2566
  16   2.0000      -0.632781       -17.2188
  17   2.0000      -0.573921       -15.6172
  18   2.0000      -0.510643       -13.8953
  19   2.0000      -0.504663       -13.7326
  20   2.0000      -0.471688       -12.8353
  21   2.0000      -0.450972       -12.2716
  22   2.0000      -0.441700       -12.0193
  23   2.0000      -0.432209       -11.7610
  24   2.0000      -0.398988       -10.8570
  25   2.0000      -0.390488       -10.6257
  26   0.0000       0.152508         4.1500
  27   0.0000       0.161224         4.3871
  28   0.0000       0.164740         4.4828
  29   0.0000       0.171526         4.6674
  30   0.0000       0.194733         5.2989

MULLIKEN ATOMIC CHARGES
-----------------------
   0 C :   -0.286460
   1 C :   -0.286461
   2 C :   -0.024930
   3 C :   -0.094235
   4 C :   -0.208135
   5 C :   -0.094234
   6 C :   -0.208135
   7 H :    0.124476
   8 H :    0.124477
   9 H :    0.124476
  10 H :    0.124477
  11 H :    0.128315
  12 H :    0.109500
  13 H :    0.114529
  14 H :    0.128315
  15 H :    0.114529
  16 H :    0.109500
Sum of atomic charges:    0.0000000

LOEWDIN ATOMIC CHARGES
----------------------
   0 C :   -0.208090
   1 C :   -0.208090
   2 C :   -0.207053
   3 C :   -0.146127
   4 C :   -0.188545
   5 C :   -0.146127
   6 C :   -0.188545
   7 H :    0.132995
   8 H :    0.132995
   9 H :    0.132995
  10 H :    0.132995
  11 H :    0.125115
  12 H :    0.126371
  13 H :    0.128813
  14 H :    0.125115
  15 H :    0.128813
  16 H :    0.126371

  Mayer bond orders larger than 0.1
B(  0-C ,  1-C ) :   0.9521 B(  0-C ,  2-C ) :   0.8871 B(  0-C ,  7-H ) :   0.9177
B(  0-C ,  8-H ) :   0.9177 B(  1-C ,  2-C ) :   0.8871 B(  1-C ,  9-H ) :   0.9177
B(  1-C , 10-H ) :   0.9177 B(  2-C ,  3-C ) :   0.8393 B(  2-C ,  5-C ) :   0.8393
B(  3-C ,  4-C ) :   0.9178 B(  3-C ,  6-C ) :   0.9178 B(  3-C , 11-H ) :   0.8860
B(  4-C ,  5-C ) :   0.9178 B(  4-C , 12-H ) :   0.9248 B(  4-C , 13-H ) :   0.9280
B(  5-C ,  6-C ) :   0.9178 B(  5-C , 14-H ) :   0.8860 B(  6-C , 15-H ) :   0.9280
B(  6-C , 16-H ) :   0.9248

MP2 TOTAL ENERGY:     -272.002498786 Eh
FINAL SINGLE POINT ENERGY      -272.002498786091

DIPOLE MOMENT
-------------
                                X             Y             Z
Electronic contribution:     -0.19281      -0.33799       0.00002
Nuclear contribution   :      0.17934       0.31438      -0.00002
                        -----------------------------------------
Total Dipole Moment    :     -0.01347      -0.02361       0.00000
                        -----------------------------------------
Magnitude (a.u.)       :      0.02718
Magnitude (Debye)      :      0.06909

                             ****ORCA TERMINATED NORMALLY****
TOTAL RUN TIME: 0 days 0 hours 9 minutes 8 seconds 581 msec
