                         Program Version 3.0.3 - RELEASE   -
|  1> ! RI-MP2 RIJK def2-TZVP def2-TZVP/C def2-TZVP/JK TIGHTSCF
|  2> % maxcore 2000
|  3> % mp2 density relaxed end
|  4> *xyz 0 1
|  5>  C       -0.1717662318     1.3249997777     0.1006395161
|  6>  C        0.0876291747    -0.1518808694    -0.1073711258
|  7>  C        0.9538839645    -0.5466653808    -1.2663540475
|  8>  C        1.4907315163    -0.6677709193     0.1864274575
|  9>  C        1.4219442964    -2.1616415742     0.0455303574
| 10>  C        1.1250411226    -3.3422568709     0.5788232656
| 11>  C        0.5372109077    -4.2331896997    -0.5215318231
| 12>  C        0.0845759331    -3.2118917734    -1.6237118272
| 13>  C        1.1098912587    -2.0836659667    -1.4274106688
| 14>  H        0.7050541799     1.9238834211    -0.1678725183
| 15>  H       -1.0091520636     1.6666403126    -0.5178823511
| 16>  H       -0.4168644373     1.5420270326     1.1457791215
| 17>  H       -0.7440166390    -0.7973757979     0.1682837205
| 18>  H        1.2374675171     0.1806620995    -2.0187757471
| 19>  H        2.2149485576    -0.0591292240     0.7138945245
| 20>  H        1.2048368271    -3.6549722839     1.6133851061
| 21>  H        1.2799997111    -4.9389621091    -0.9222180219
| 22>  H       -0.2965607036    -4.8413822762    -0.1535562320
| 23>  H        0.0687473598    -3.6481938355    -2.6267167322
| 24>  H       -0.9265494158    -2.8591569554    -1.3913482581
| 25>  H        2.0165887846    -2.2681845371    -2.0207091060
| 26> *
| 27>
| 28>                          ****END OF INPUT****

CARTESIAN COORDINATES (ANGSTROEM)
---------------------------------
  C     -0.171766    1.325000    0.100640
  C      0.087629   -0.151881   -0.107371
  C      0.953884   -0.546665   -1.266354
  C      1.490732   -0.667771    0.186427
  C      1.421944   -2.161642    0.045530
  C      1.125041   -3.342257    0.578823
  C      0.537211   -4.233190   -0.521532
  C      0.084576   -3.211892   -1.623712
  C      1.109891   -2.083666   -1.427411
  H      0.705054    1.923883   -0.167873
  H     -1.009152    1.666640   -0.517882
  H     -0.416864    1.542027    1.145779
  H     -0.744017   -0.797376    0.168284
  H      1.237468    0.180662   -2.018776
  H      2.214949   -0.059129    0.713895
  H      1.204837   -3.654972    1.613385
  H      1.280000   -4.938962   -0.922218
  H     -0.296561   -4.841382   -0.153556
  H      0.068747   -3.648194   -2.626717
  H     -0.926549   -2.859157   -1.391348
  H      2.016589   -2.268185   -2.020709

 Total Charge           Charge          ....    0
 Multiplicity           Mult            ....    1
 Number of Electrons    NEL             ....   66
 Basis Dimension        Dim             ....  351

ORBITAL ENERGIES
----------------

  NO   OCC          E(Eh)            E(eV)
   0   2.0000     -11.238440      -305.8135
   1   2.0000     -11.236632      -305.7643
   2   2.0000     -11.234751      -305.7131
   3   2.0000     -11.222108      -305.3691
   4   2.0000     -11.221770      -305.3599
   5   2.0000     -11.221204      -305.3445
   6   2.0000     -11.220002      -305.3118
   7   2.0000     -11.217552      -305.2451
   8   2.0000     -11.213574      -305.1369
   9   2.0000      -1.202364       -32.7180
  10   2.0000      -1.097197       -29.8562
  11   2.0000      -0.992352       -27.0033
  12   2.0000      -0.959397       -26.1065
  13   2.0000      -0.905997       -24.6534
  14   2.0000      -0.831330       -22.6216
  15   2.0000      -0.799558       -21.7571
  16   2.0000      -0.752446       -20.4751
  17   2.0000      -0.691996       -18.8302
  18   2.0000      -0.666927       -18.1480
  19   2.0000      -0.635381       -17.2896
  20   2.0000      -0.613711       -16.6999
  21   2.0000      -0.566727       -15.4214
  22   2.0000      -0.564123       -15.3506
  23   2.0000      -0.537293       -14.6205
  24   2.0000      -0.524765       -14.2796
  25   2.0000      -0.510715       -13.8973
  26   2.0000      -0.502286       -13.6679
  27   2.0000      -0.478047       -13.0083
  28   2.0000      -0.467156       -12.7119
  29   2.0000      -0.445761       -12.1298
  30   2.0000      -0.416697       -11.3389
  31   2.0000      -0.368399       -10.0247
  32   2.0000      -0.318796        -8.6749
  33   0.0000       0.146191         3.9781
  34   0.0000       0.148526         4.0416
  35   0.0000       0.151212         4.1147
  36   0.0000       0.166459         4.5296
  37   0.0000       0.173014         4.7079

MULLIKEN ATOMIC CHARGES
-----------------------
   0 C :   -0.441529
   1 C :   -0.000023
   2 C :   -0.187480
   3 C :   -0.182936
   4 C :   -0.053969
   5 C :   -0.203404
   6 C :   -0.170093
   7 C :   -0.257334
   8 C :    0.023298
   9 H :    0.130396
  10 H :    0.137913
  11 H :    0.138653
  12 H :    0.122272
  13 H :    0.124702
  14 H :    0.134624
  15 H :    0.127791
  16 H :    0.110858
  17 H :    0.116912
  18 H :    0.118868
  19 H :    0.111544
  20 H :    0.098937
Sum of atomic charges:    0.0000000

LOEWDIN ATOMIC CHARGES
----------------------
   0 C :   -0.288083
   1 C :   -0.206461
   2 C :   -0.135968
   3 C :   -0.119047
   4 C :   -0.121518
   5 C :   -0.141091
   6 C :   -0.231314
   7 C :   -0.222563
   8 C :   -0.164196
   9 H :    0.128202
  10 H :    0.126883
  11 H :    0.125919
  12 H :    0.146768
  13 H :    0.136035
  14 H :    0.138793
  15 H :    0.133226
  16 H :    0.135068
  17 H :    0.132646
  18 H :    0.128302
  19 H :    0.137500
  20 H :    0.160897

  Mayer bond orders larger than 0.1
B(  0-C ,  1-C ) :   0.8715 B(  0-C ,  9-H ) :   0.9336 B(  0-C , 10-H ) :   0.9412
B(  0-C , 11-H ) :   0.9450 B(  1-C ,  2-C ) :   0.8620 B(  1-C ,  3-C ) :   0.8480
B(  1-C , 12-H ) :   0.9227 B(  2-C ,  3-C ) :   0.8731 B(  2-C ,  8-C ) :   0.9253
B(  2-C , 13-H ) :   0.9322 B(  3-C ,  4-C ) :   0.9347 B(  3-C , 14-H ) :   0.9194
B(  4-C ,  5-C ) :   1.7256 B(  4-C ,  8-C ) :   0.9364 B(  5-C ,  6-C ) :   0.9177
B(  5-C , 15-H ) :   0.9245 B(  6-C ,  7-C ) :   0.9512 B(  6-C , 16-H ) :   0.9096
B(  6-C , 17-H ) :   0.9283 B(  7-C ,  8-C ) :   0.9021 B(  7-C , 18-H ) :   0.9341
B(  7-C , 19-H ) :   0.9237 B(  8-C , 20-H ) :   0.8966

MP2 TOTAL ENERGY:     -349.259580474 Eh
FINAL SINGLE POINT ENERGY      -349.259580473788

DIPOLE MOMENT
-------------
                                X             Y             Z
Electronic contribution:      2.83608      -1.79009       0.63176
Nuclear contribution   :     -2.96809       1.97818      -0.67315
                        -----------------------------------------
Total Dipole Moment    :     -0.13201       0.18808      -0.04139
                        -----------------------------------------
Magnitude (a.u.)       :      0.23349
Magnitude (Debye)      :      0.59348

                             ****ORCA TERMINATED NORMALLY****
TOTAL RUN TIME: 0 days 0 hours 20 minutes 42 seconds 242 msec
