                         Program Version 3.0.3 - RELEASE   -
|  1> ! RI-MP2 RIJK def2-TZVP def2-TZVP/C def2-TZVP/JK TIGHTSCF
|  2> % maxcore 2000
|  3> % mp2 density relaxed end
|  4> *xyz 0 1
|  5>  N       -0.1088708068     1.2721699632     0.1109527437
|  6>  C       -0.2059260338     0.0332667507     0.3214785931
|  7>  O       -0.8586966472    -0.7487853501    -0.5701817155
|  8>  C       -0.8790159509    -2.1255073358    -0.2864313408
|  9>  C       -1.8640737619    -2.6524143485     0.7328428287
| 10>  C       -2.0964492559    -2.8499295648    -0.7377836538
| 11>  C       -3.2112061802    -2.2980661049    -1.6190355620
| 12>  O       -3.2276798117    -3.5232808722    -2.3894625811
| 13>  C       -2.2053835411    -4.1238622512    -1.5674464346
| 14>  H        0.4045453728     1.7144328859     0.8705829662
| 15>  H        0.1881086193    -0.5248628273     1.1806734785
| 16>  H        0.0895002109    -2.6130720337    -0.3842605700
| 17>  H       -1.5687715915    -3.5042916456     1.3377194063
| 18>  H       -2.4895485644    -1.9243412850     1.2400774431
| 19>  H       -4.1696187741    -2.1172719195    -1.1161329297
| 20>  H       -2.9451976956    -1.4257583482    -2.2258654519
| 21>  H       -1.3151677386    -4.4012374219    -2.1471837726
| 22>  H       -2.5756875194    -5.0070338611    -1.0296531679
| 23> *
| 24>
| 25>                          ****END OF INPUT****

CARTESIAN COORDINATES (ANGSTROEM)
---------------------------------
  N     -0.108871    1.272170    0.110953
  C     -0.205926    0.033267    0.321479
  O     -0.858697   -0.748785   -0.570182
  C     -0.879016   -2.125507   -0.286431
  C     -1.864074   -2.652414    0.732843
  C     -2.096449   -2.849930   -0.737784
  C     -3.211206   -2.298066   -1.619036
  O     -3.227680   -3.523281   -2.389463
  C     -2.205384   -4.123862   -1.567446
  H      0.404545    1.714433    0.870583
  H      0.188109   -0.524863    1.180673
  H      0.089500   -2.613072   -0.384261
  H     -1.568772   -3.504292    1.337719
  H     -2.489549   -1.924341    1.240077
  H     -4.169619   -2.117272   -1.116133
  H     -2.945198   -1.425758   -2.225865
  H     -1.315168   -4.401237   -2.147184
  H     -2.575688   -5.007034   -1.029653

 Total Charge           Charge          ....    0
 Multiplicity           Mult            ....    1
 Number of Electrons    NEL             ....   68
 Basis Dimension        Dim             ....  333

ORBITAL ENERGIES
----------------

  NO   OCC          E(Eh)            E(eV)
   0   2.0000     -20.602953      -560.6348
   1   2.0000     -20.552746      -559.2686
   2   2.0000     -15.546664      -423.0462
   3   2.0000     -11.343582      -308.6746
   4   2.0000     -11.309138      -307.7373
   5   2.0000     -11.288586      -307.1780
   6   2.0000     -11.283675      -307.0444
   7   2.0000     -11.256127      -306.2948
   8   2.0000     -11.249956      -306.1269
   9   2.0000      -1.440230       -39.1907
  10   2.0000      -1.382453       -37.6185
  11   2.0000      -1.210885       -32.9499
  12   2.0000      -1.153473       -31.3876
  13   2.0000      -0.946810       -25.7640
  14   2.0000      -0.943283       -25.6680
  15   2.0000      -0.886930       -24.1346
  16   2.0000      -0.812245       -22.1023
  17   2.0000      -0.766005       -20.8441
  18   2.0000      -0.729078       -19.8392
  19   2.0000      -0.705932       -19.2094
  20   2.0000      -0.674548       -18.3554
  21   2.0000      -0.664049       -18.0697
  22   2.0000      -0.629505       -17.1297
  23   2.0000      -0.609288       -16.5796
  24   2.0000      -0.583466       -15.8769
  25   2.0000      -0.567433       -15.4406
  26   2.0000      -0.552098       -15.0234
  27   2.0000      -0.531028       -14.4500
  28   2.0000      -0.475940       -12.9510
  29   2.0000      -0.464748       -12.6464
  30   2.0000      -0.442917       -12.0524
  31   2.0000      -0.435251       -11.8438
  32   2.0000      -0.405221       -11.0266
  33   2.0000      -0.400441       -10.8966
  34   0.0000       0.131478         3.5777
  35   0.0000       0.145743         3.9659
  36   0.0000       0.152158         4.1404
  37   0.0000       0.160289         4.3617
  38   0.0000       0.165760         4.5106

MULLIKEN ATOMIC CHARGES
-----------------------
   0 N :   -0.331528
   1 C :    0.057985
   2 O :   -0.214626
   3 C :   -0.030445
   4 C :   -0.299645
   5 C :   -0.003936
   6 C :   -0.009389
   7 O :   -0.326566
   8 C :    0.001503
   9 H :    0.227476
  10 H :    0.092228
  11 H :    0.128788
  12 H :    0.140166
  13 H :    0.153463
  14 H :    0.096621
  15 H :    0.124250
  16 H :    0.097609
  17 H :    0.096048
Sum of atomic charges:   -0.0000000

LOEWDIN ATOMIC CHARGES
----------------------
   0 N :   -0.075239
   1 C :   -0.389580
   2 O :    0.272685
   3 C :   -0.265082
   4 C :   -0.189015
   5 C :   -0.220508
   6 C :   -0.217167
   7 O :    0.116049
   8 C :   -0.228377
   9 H :    0.169376
  10 H :    0.111470
  11 H :    0.140521
  12 H :    0.138806
  13 H :    0.145304
  14 H :    0.121530
  15 H :    0.127634
  16 H :    0.121139
  17 H :    0.120454

  Mayer bond orders larger than 0.1
B(  0-N ,  1-C ) :   1.9649 B(  0-N ,  9-H ) :   0.8496 B(  1-C ,  2-O ) :   1.0205
B(  1-C , 10-H ) :   0.9305 B(  2-O ,  3-C ) :   0.9479 B(  3-C ,  4-C ) :   0.9048
B(  3-C ,  5-C ) :   0.8424 B(  3-C , 11-H ) :   0.9295 B(  4-C ,  5-C ) :   0.8630
B(  4-C , 12-H ) :   0.9143 B(  4-C , 13-H ) :   0.9136 B(  5-C ,  6-C ) :   0.9717
B(  5-C ,  8-C ) :   0.9696 B(  6-C ,  7-O ) :   0.9513 B(  6-C , 14-H ) :   0.9096
B(  6-C , 15-H ) :   0.9093 B(  7-O ,  8-C ) :   0.9713 B(  8-C , 16-H ) :   0.9067
B(  8-C , 17-H ) :   0.9084

MP2 TOTAL ENERGY:     -438.299945638 Eh
FINAL SINGLE POINT ENERGY      -438.299945638293

DIPOLE MOMENT
-------------
                                X             Y             Z
Electronic contribution:      0.38362       1.95330      -2.11881
Nuclear contribution   :      0.25426      -2.70773       3.55844
                        -----------------------------------------
Total Dipole Moment    :      0.63788      -0.75443       1.43963
                        -----------------------------------------
Magnitude (a.u.)       :      1.74602
Magnitude (Debye)      :      4.43802

                             ****ORCA TERMINATED NORMALLY****
TOTAL RUN TIME: 0 days 0 hours 14 minutes 45 seconds 810 msec
