                         Program Version 3.0.3 - RELEASE   -
|  1> ! RI-MP2 RIJK def2-TZVP def2-TZVP/C def2-TZVP/JK TIGHTSCF
|  2> % maxcore 2000
|  3> % mp2 density relaxed end
|  4> *xyz 0 1
|  5>  O        0.1833240224     1.3273058965     0.1804921104
|  6>  C        0.0588168542    -0.0564433641     0.1227162151
|  7>  C       -0.3477464746    -0.7037146359    -1.1722394434
|  8>  C       -1.2973482280    -0.7168705888     0.0248308530
|  9>  C       -1.1987881260    -1.9429895141     0.8682681273
| 10>  C        0.0083236939    -2.0718823256     1.4270122054
| 11>  C        0.8911739920    -0.8802569131     1.1063837183
| 12>  C        2.2943403593    -1.1764810038     0.6149358166
| 13>  O        2.8321248917    -0.5609523705    -0.2715488500
| 14>  H        1.0051353440     1.5464618716    -0.2761906220
| 15>  H       -0.5898264997    -0.0080883743    -1.9685579133
| 16>  H        0.0996210631    -1.6401826943    -1.4871467632
| 17>  H       -2.2126923531    -0.1398383457    -0.0296657949
| 18>  H       -2.0122419914    -2.6517495673     0.9737844238
| 19>  H        0.3380379942    -2.8982681950     2.0457264966
| 20>  H        1.0470637399    -0.2833107999     2.0240293686
| 21>  H        2.8326856080    -1.9873785956     1.1556250417
| 22> *
| 23>
| 24>                          ****END OF INPUT****

CARTESIAN COORDINATES (ANGSTROEM)
---------------------------------
  O      0.183324    1.327306    0.180492
  C      0.058817   -0.056443    0.122716
  C     -0.347746   -0.703715   -1.172239
  C     -1.297348   -0.716871    0.024831
  C     -1.198788   -1.942990    0.868268
  C      0.008324   -2.071882    1.427012
  C      0.891174   -0.880257    1.106384
  C      2.294340   -1.176481    0.614936
  O      2.832125   -0.560952   -0.271549
  H      1.005135    1.546462   -0.276191
  H     -0.589826   -0.008088   -1.968558
  H      0.099621   -1.640183   -1.487147
  H     -2.212692   -0.139838   -0.029666
  H     -2.012242   -2.651750    0.973784
  H      0.338038   -2.898268    2.045726
  H      1.047064   -0.283311    2.024029
  H      2.832686   -1.987379    1.155625

 Total Charge           Charge          ....    0
 Multiplicity           Mult            ....    1
 Number of Electrons    NEL             ....   66
 Basis Dimension        Dim             ....  327

ORBITAL ENERGIES
----------------

  NO   OCC          E(Eh)            E(eV)
   0   2.0000     -20.565582      -559.6179
   1   2.0000     -20.565006      -559.6023
   2   2.0000     -11.340892      -308.6014
   3   2.0000     -11.294670      -307.3436
   4   2.0000     -11.255622      -306.2810
   5   2.0000     -11.246049      -306.0206
   6   2.0000     -11.241977      -305.9097
   7   2.0000     -11.240060      -305.8576
   8   2.0000     -11.232589      -305.6543
   9   2.0000      -1.405074       -38.2340
  10   2.0000      -1.378390       -37.5079
  11   2.0000      -1.186787       -32.2941
  12   2.0000      -1.058898       -28.8141
  13   2.0000      -0.998104       -27.1598
  14   2.0000      -0.848518       -23.0894
  15   2.0000      -0.844101       -22.9692
  16   2.0000      -0.767915       -20.8960
  17   2.0000      -0.754965       -20.5437
  18   2.0000      -0.717324       -19.5194
  19   2.0000      -0.677274       -18.4296
  20   2.0000      -0.653494       -17.7825
  21   2.0000      -0.629371       -17.1261
  22   2.0000      -0.612683       -16.6720
  23   2.0000      -0.607266       -16.5246
  24   2.0000      -0.574119       -15.6226
  25   2.0000      -0.558525       -15.1982
  26   2.0000      -0.518980       -14.1222
  27   2.0000      -0.510683       -13.8964
  28   2.0000      -0.495168       -13.4742
  29   2.0000      -0.461161       -12.5488
  30   2.0000      -0.419232       -11.4079
  31   2.0000      -0.400691       -10.9034
  32   2.0000      -0.348665        -9.4877
  33   0.0000       0.113726         3.0946
  34   0.0000       0.142254         3.8709
  35   0.0000       0.148661         4.0453
  36   0.0000       0.162457         4.4207
  37   0.0000       0.168857         4.5948

MULLIKEN ATOMIC CHARGES
-----------------------
   0 O :   -0.462768
   1 C :    0.162965
   2 C :   -0.301150
   3 C :   -0.065431
   4 C :   -0.168898
   5 C :   -0.260058
   6 C :    0.050821
   7 C :    0.075222
   8 O :   -0.274647
   9 H :    0.335928
  10 H :    0.134811
  11 H :    0.133113
  12 H :    0.143356
  13 H :    0.136130
  14 H :    0.138060
  15 H :    0.130969
  16 H :    0.091578
Sum of atomic charges:    0.0000000

LOEWDIN ATOMIC CHARGES
----------------------
   0 O :    0.031490
   1 C :   -0.312861
   2 C :   -0.173624
   3 C :   -0.159211
   4 C :   -0.126286
   5 C :   -0.132100
   6 C :   -0.200939
   7 C :   -0.260248
   8 O :    0.135450
   9 H :    0.188954
  10 H :    0.141379
  11 H :    0.137422
  12 H :    0.151019
  13 H :    0.141828
  14 H :    0.139101
  15 H :    0.183909
  16 H :    0.114716

  Mayer bond orders larger than 0.1
B(  0-O ,  1-C ) :   1.0173 B(  0-O ,  9-H ) :   0.8304 B(  1-C ,  2-C ) :   0.9018
B(  1-C ,  3-C ) :   0.8837 B(  1-C ,  6-C ) :   0.9157 B(  2-C ,  3-C ) :   0.8676
B(  2-C , 10-H ) :   0.9229 B(  2-C , 11-H ) :   0.9027 B(  3-C ,  4-C ) :   0.9338
B(  3-C , 12-H ) :   0.9100 B(  4-C ,  5-C ) :   1.7920 B(  4-C , 13-H ) :   0.9261
B(  5-C ,  6-C ) :   0.8966 B(  5-C , 14-H ) :   0.9144 B(  6-C ,  7-C ) :   0.8446
B(  6-C , 15-H ) :   0.8557 B(  7-C ,  8-O ) :   1.9807 B(  7-C , 16-H ) :   0.9429

MP2 TOTAL ENERGY:     -421.112213149 Eh
FINAL SINGLE POINT ENERGY      -421.112213148637

DIPOLE MOMENT
-------------
                                X             Y             Z
Electronic contribution:      2.53104       1.67010       0.30109
Nuclear contribution   :     -2.73642      -2.30022       0.04361
                        -----------------------------------------
Total Dipole Moment    :     -0.20538      -0.63012       0.34470
                        -----------------------------------------
Magnitude (a.u.)       :      0.74703
Magnitude (Debye)      :      1.89879

                             ****ORCA TERMINATED NORMALLY****
TOTAL RUN TIME: 0 days 0 hours 18 minutes 11 seconds 483 msec
