                         Program Version 3.0.3 - RELEASE   -
|  1> ! RI-MP2 RIJK def2-TZVP def2-TZVP/C def2-TZVP/JK TIGHTSCF
|  2> % maxcore 2000
|  3> % mp2 density relaxed end
|  4> *xyz 0 1
|  5>  C       -0.0932689949     1.5385336429     0.0194258284
|  6>  N        0.1785263433     0.1057649680     0.0677103673
|  7>  C        1.2986842679    -0.6714111867    -0.3816431636
|  8>  C        2.7230253627    -0.2176030133     0.0897964847
|  9>  C        2.7558633310     1.0370039501     0.9157596427
| 10>  C        2.2447607562    -0.2365908440     1.5333755479
| 11>  C        0.8236130516    -0.7176070661     1.0473592264
| 12>  C        0.0542099356    -1.7510641390     1.8163264491
| 13>  H        0.5435134417     2.0499224498    -0.7097137379
| 14>  H       -1.1354674560     1.6913864625    -0.2867586877
| 15>  H        0.0368337303     2.0154336252     0.9968075137
| 16>  H        1.1587848427    -1.3864536797    -1.1874974970
| 17>  H        3.6214672894    -0.6687340807    -0.3115104707
| 18>  H        3.7528676646     1.3092251942     1.2534069622
| 19>  H        2.1287730180     1.8918800920     0.7150062028
| 20>  H        2.7347801170    -0.6975749775     2.3818539742
| 21>  H       -0.3663458902    -1.3248039338     2.7360912686
| 22>  H       -0.7705030143    -2.1359650169     1.2112006240
| 23>  H        0.6999931435    -2.5872278469     2.1070047048
| 24> *
| 25>
| 26>                          ****END OF INPUT****

CARTESIAN COORDINATES (ANGSTROEM)
---------------------------------
  C     -0.093269    1.538534    0.019426
  N      0.178526    0.105765    0.067710
  C      1.298684   -0.671411   -0.381643
  C      2.723025   -0.217603    0.089796
  C      2.755863    1.037004    0.915760
  C      2.244761   -0.236591    1.533376
  C      0.823613   -0.717607    1.047359
  C      0.054210   -1.751064    1.816326
  H      0.543513    2.049922   -0.709714
  H     -1.135467    1.691386   -0.286759
  H      0.036834    2.015434    0.996808
  H      1.158785   -1.386454   -1.187497
  H      3.621467   -0.668734   -0.311510
  H      3.752868    1.309225    1.253407
  H      2.128773    1.891880    0.715006
  H      2.734780   -0.697575    2.381854
  H     -0.366346   -1.324804    2.736091
  H     -0.770503   -2.135965    1.211201
  H      0.699993   -2.587228    2.107005

 Total Charge           Charge          ....    0
 Multiplicity           Mult            ....    1
 Number of Electrons    NEL             ....   60
 Basis Dimension        Dim             ....  314

ORBITAL ENERGIES
----------------

  NO   OCC          E(Eh)            E(eV)
   0   2.0000     -15.549727      -423.1296
   1   2.0000     -11.263153      -306.4860
   2   2.0000     -11.253485      -306.2229
   3   2.0000     -11.243773      -305.9586
   4   2.0000     -11.231464      -305.6237
   5   2.0000     -11.229832      -305.5793
   6   2.0000     -11.229236      -305.5631
   7   2.0000     -11.214181      -305.1534
   8   2.0000      -1.289018       -35.0760
   9   2.0000      -1.133712       -30.8499
  10   2.0000      -1.013060       -27.5668
  11   2.0000      -0.963658       -26.2225
  12   2.0000      -0.857588       -23.3362
  13   2.0000      -0.839424       -22.8419
  14   2.0000      -0.756164       -20.5763
  15   2.0000      -0.723190       -19.6790
  16   2.0000      -0.682491       -18.5715
  17   2.0000      -0.641884       -17.4666
  18   2.0000      -0.609926       -16.5969
  19   2.0000      -0.590538       -16.0694
  20   2.0000      -0.570257       -15.5175
  21   2.0000      -0.557644       -15.1743
  22   2.0000      -0.548352       -14.9214
  23   2.0000      -0.533186       -14.5087
  24   2.0000      -0.477783       -13.0011
  25   2.0000      -0.457824       -12.4580
  26   2.0000      -0.447344       -12.1728
  27   2.0000      -0.416239       -11.3264
  28   2.0000      -0.364221        -9.9110
  29   2.0000      -0.323920        -8.8143
  30   0.0000       0.146425         3.9844
  31   0.0000       0.159863         4.3501
  32   0.0000       0.164689         4.4814
  33   0.0000       0.178007         4.8438
  34   0.0000       0.197489         5.3740

MULLIKEN ATOMIC CHARGES
-----------------------
   0 C :   -0.336831
   1 N :   -0.196192
   2 C :   -0.112765
   3 C :   -0.109441
   4 C :   -0.248242
   5 C :   -0.156301
   6 C :    0.109424
   7 C :   -0.431305
   8 H :    0.140928
   9 H :    0.142155
  10 H :    0.139211
  11 H :    0.126667
  12 H :    0.135946
  13 H :    0.126372
  14 H :    0.132409
  15 H :    0.137204
  16 H :    0.129655
  17 H :    0.143420
  18 H :    0.127685
Sum of atomic charges:   -0.0000000

LOEWDIN ATOMIC CHARGES
----------------------
   0 C :   -0.329532
   1 N :    0.157750
   2 C :   -0.187082
   3 C :   -0.171246
   4 C :   -0.207149
   5 C :   -0.152650
   6 C :   -0.250558
   7 C :   -0.273699
   8 H :    0.116252
   9 H :    0.113986
  10 H :    0.115564
  11 H :    0.132653
  12 H :    0.136707
  13 H :    0.142672
  14 H :    0.128621
  15 H :    0.138200
  16 H :    0.128520
  17 H :    0.132823
  18 H :    0.128166

  Mayer bond orders larger than 0.1
B(  0-C ,  1-N ) :   0.8514 B(  0-C ,  8-H ) :   0.9326 B(  0-C ,  9-H ) :   0.9400
B(  0-C , 10-H ) :   0.9319 B(  1-N ,  2-C ) :   0.9674 B(  1-N ,  6-C ) :   0.9425
B(  2-C ,  3-C ) :   0.8392 B(  2-C ,  6-C ) :   0.8896 B(  2-C , 11-H ) :   0.9227
B(  3-C ,  4-C ) :   0.9023 B(  3-C ,  5-C ) :   0.8834 B(  3-C , 12-H ) :   0.9204
B(  4-C ,  5-C ) :   0.8960 B(  4-C , 13-H ) :   0.9368 B(  4-C , 14-H ) :   0.9024
B(  5-C ,  6-C ) :   0.8551 B(  5-C , 15-H ) :   0.9224 B(  6-C ,  7-C ) :   0.8675
B(  7-C , 16-H ) :   0.9380 B(  7-C , 17-H ) :   0.9490 B(  7-C , 18-H ) :   0.9378

MP2 TOTAL ENERGY:     -327.231424907 Eh
FINAL SINGLE POINT ENERGY      -327.231424907144

DIPOLE MOMENT
-------------
                                X             Y             Z
Electronic contribution:      1.21071      -1.07628      -1.54294
Nuclear contribution   :     -0.92093       1.15015       1.69104
                        -----------------------------------------
Total Dipole Moment    :      0.28978       0.07388       0.14810
                        -----------------------------------------
Magnitude (a.u.)       :      0.33371
Magnitude (Debye)      :      0.84822

                             ****ORCA TERMINATED NORMALLY****
TOTAL RUN TIME: 0 days 0 hours 14 minutes 46 seconds 790 msec
