                         Program Version 3.0.3 - RELEASE   -
|  1> ! RI-MP2 RIJK def2-TZVP def2-TZVP/C def2-TZVP/JK TIGHTSCF
|  2> % maxcore 2000
|  3> % mp2 density relaxed end
|  4> *xyz 0 1
|  5>  N       -0.1030405050     1.2380779456     0.3162454249
|  6>  C       -0.0303983331     0.0088372257     0.0195826194
|  7>  O        1.1525475147    -0.6099007149    -0.2484146476
|  8>  C        1.1273973318    -1.8458083708    -0.9790868565
|  9>  O        0.1306128854    -2.7098940429    -0.5655334519
| 10>  C       -1.1493664183    -2.1229763504    -0.7876712559
| 11>  C       -1.2604013953    -0.8504640864     0.0248090301
| 12>  C       -2.0978243595    -0.7873601815     1.2616423628
| 13>  N       -2.5593728606    -0.1813750491     0.0110221395
| 14>  H        0.8191016976     1.6737651979     0.2993780381
| 15>  H        1.0221639886    -1.6006744262    -2.0491595444
| 16>  H        2.0913302696    -2.3191035722    -0.7882162310
| 17>  H       -1.2839962115    -1.9061773575    -1.8592989759
| 18>  H       -1.9009746160    -2.8543298933    -0.4869883736
| 19>  H       -2.6389373888    -1.6764578388     1.5760270775
| 20>  H       -1.7540252721    -0.1342657394     2.0573923499
| 21>  H       -2.3823468176     0.8228614440     0.0452755647
| 22> *
| 23>
| 24>                          ****END OF INPUT****

CARTESIAN COORDINATES (ANGSTROEM)
---------------------------------
  N     -0.103041    1.238078    0.316245
  C     -0.030398    0.008837    0.019583
  O      1.152548   -0.609901   -0.248415
  C      1.127397   -1.845808   -0.979087
  O      0.130613   -2.709894   -0.565533
  C     -1.149366   -2.122976   -0.787671
  C     -1.260401   -0.850464    0.024809
  C     -2.097824   -0.787360    1.261642
  N     -2.559373   -0.181375    0.011022
  H      0.819102    1.673765    0.299378
  H      1.022164   -1.600674   -2.049160
  H      2.091330   -2.319104   -0.788216
  H     -1.283996   -1.906177   -1.859299
  H     -1.900975   -2.854330   -0.486988
  H     -2.638937   -1.676458    1.576027
  H     -1.754025   -0.134266    2.057392
  H     -2.382347    0.822861    0.045276

 Total Charge           Charge          ....    0
 Multiplicity           Mult            ....    1
 Number of Electrons    NEL             ....   68
 Basis Dimension        Dim             ....  327

ORBITAL ENERGIES
----------------

  NO   OCC          E(Eh)            E(eV)
   0   2.0000     -20.605523      -560.7048
   1   2.0000     -20.589623      -560.2721
   2   2.0000     -15.569295      -423.6620
   3   2.0000     -15.541592      -422.9082
   4   2.0000     -11.357516      -309.0537
   5   2.0000     -11.352145      -308.9076
   6   2.0000     -11.299744      -307.4817
   7   2.0000     -11.284246      -307.0599
   8   2.0000     -11.269741      -306.6652
   9   2.0000      -1.464123       -39.8408
  10   2.0000      -1.391447       -37.8632
  11   2.0000      -1.288386       -35.0588
  12   2.0000      -1.197803       -32.5939
  13   2.0000      -1.027221       -27.9521
  14   2.0000      -0.927244       -25.2316
  15   2.0000      -0.899400       -24.4739
  16   2.0000      -0.885048       -24.0834
  17   2.0000      -0.763451       -20.7746
  18   2.0000      -0.748990       -20.3811
  19   2.0000      -0.718982       -19.5645
  20   2.0000      -0.694148       -18.8887
  21   2.0000      -0.655256       -17.8304
  22   2.0000      -0.651121       -17.7179
  23   2.0000      -0.613330       -16.6895
  24   2.0000      -0.604501       -16.4493
  25   2.0000      -0.585713       -15.9381
  26   2.0000      -0.557295       -15.1648
  27   2.0000      -0.509278       -13.8582
  28   2.0000      -0.492834       -13.4107
  29   2.0000      -0.476645       -12.9702
  30   2.0000      -0.461800       -12.5662
  31   2.0000      -0.455768       -12.4021
  32   2.0000      -0.427961       -11.6454
  33   2.0000      -0.384696       -10.4681
  34   0.0000       0.134590         3.6624
  35   0.0000       0.161453         4.3934
  36   0.0000       0.165506         4.5037
  37   0.0000       0.172798         4.7021
  38   0.0000       0.183097         4.9823

MULLIKEN ATOMIC CHARGES
-----------------------
   0 N :   -0.423214
   1 C :    0.157339
   2 O :   -0.261411
   3 C :    0.068194
   4 O :   -0.293801
   5 C :   -0.047506
   6 C :    0.131595
   7 C :   -0.185242
   8 N :   -0.392518
   9 H :    0.224869
  10 H :    0.099644
  11 H :    0.144863
  12 H :    0.115900
  13 H :    0.139860
  14 H :    0.124558
  15 H :    0.148759
  16 H :    0.248111
Sum of atomic charges:   -0.0000000

LOEWDIN ATOMIC CHARGES
----------------------
   0 N :   -0.056539
   1 C :   -0.378434
   2 O :    0.232193
   3 C :   -0.364948
   4 O :    0.180402
   5 C :   -0.253459
   6 C :   -0.290748
   7 C :   -0.221390
   8 N :    0.031779
   9 H :    0.169246
  10 H :    0.112982
  11 H :    0.127975
  12 H :    0.131278
  13 H :    0.141319
  14 H :    0.127382
  15 H :    0.131710
  16 H :    0.179251

  Mayer bond orders larger than 0.1
B(  0-N ,  1-C ) :   1.9433 B(  0-N ,  9-H ) :   0.8558 B(  1-C ,  2-O ) :   1.0873
B(  1-C ,  6-C ) :   0.9147 B(  2-O ,  3-C ) :   0.8859 B(  3-C ,  4-O ) :   1.0185
B(  3-C , 10-H ) :   0.9307 B(  3-C , 11-H ) :   0.9276 B(  4-O ,  5-C ) :   0.8896
B(  5-C ,  6-C ) :   0.8990 B(  5-C , 12-H ) :   0.9460 B(  5-C , 13-H ) :   0.9243
B(  6-C ,  7-C ) :   0.9072 B(  6-C ,  8-N ) :   0.8982 B(  7-C ,  8-N ) :   0.9384
B(  7-C , 14-H ) :   0.9158 B(  7-C , 15-H ) :   0.9088 B(  8-N , 16-H ) :   0.8559

MP2 TOTAL ENERGY:     -454.393163704 Eh
FINAL SINGLE POINT ENERGY      -454.393163703697

DIPOLE MOMENT
-------------
                                X             Y             Z
Electronic contribution:      2.36997       0.48097       0.01955
Nuclear contribution   :     -1.89313      -0.85287      -0.24687
                        -----------------------------------------
Total Dipole Moment    :      0.47683      -0.37190      -0.22731
                        -----------------------------------------
Magnitude (a.u.)       :      0.64603
Magnitude (Debye)      :      1.64207

                             ****ORCA TERMINATED NORMALLY****
TOTAL RUN TIME: 0 days 0 hours 19 minutes 43 seconds 168 msec
