                         Program Version 3.0.3 - RELEASE   -
|  1> ! RI-MP2 RIJK def2-TZVP def2-TZVP/C def2-TZVP/JK TIGHTSCF
|  2> % maxcore 2000
|  3> % mp2 density relaxed end
|  4> *xyz 0 1
|  5>  C       -0.0636401934     1.5580903007    -0.2054484096
|  6>  C       -0.0483665176     0.0609949842     0.1062231412
|  7>  N       -1.3722429342    -0.5352377713     0.0529328487
|  8>  C       -1.9086490025    -1.3014894353    -0.9314709395
|  9>  C       -3.2135415356    -1.5841755494    -0.5750833697
| 10>  C       -4.2176883305    -2.4051958890    -1.3253943727
| 11>  C       -3.3642774404    -0.9223418848     0.6650464277
| 12>  N       -2.2547117390    -0.2897336472     1.0397146669
| 13>  H        0.9465896918     1.9712421085    -0.1258462574
| 14>  H       -0.4346667659     1.7435249413    -1.2178925931
| 15>  H       -0.7120238086     2.0812122814     0.5013648035
| 16>  H        0.5807832060    -0.4813898832    -0.6055290186
| 17>  H        0.3526742922    -0.1149446558     1.1085675503
| 18>  H       -1.3312707929    -1.5898764367    -1.7967437852
| 19>  H       -4.5528716926    -3.2711592211    -0.7431840836
| 20>  H       -5.1114500838    -1.8233842018    -1.5780179025
| 21>  H       -3.7974525469    -2.7831684076    -2.2618359891
| 22>  H       -4.2376023060    -0.8900648430     1.3016887228
| 23> *
| 24>
| 25>                          ****END OF INPUT****

CARTESIAN COORDINATES (ANGSTROEM)
---------------------------------
  C     -0.063640    1.558090   -0.205448
  C     -0.048367    0.060995    0.106223
  N     -1.372243   -0.535238    0.052933
  C     -1.908649   -1.301489   -0.931471
  C     -3.213542   -1.584176   -0.575083
  C     -4.217688   -2.405196   -1.325394
  C     -3.364277   -0.922342    0.665046
  N     -2.254712   -0.289734    1.039715
  H      0.946590    1.971242   -0.125846
  H     -0.434667    1.743525   -1.217893
  H     -0.712024    2.081212    0.501365
  H      0.580783   -0.481390   -0.605529
  H      0.352674   -0.114945    1.108568
  H     -1.331271   -1.589876   -1.796744
  H     -4.552872   -3.271159   -0.743184
  H     -5.111450   -1.823384   -1.578018
  H     -3.797453   -2.783168   -2.261836
  H     -4.237602   -0.890065    1.301689

 Total Charge           Charge          ....    0
 Multiplicity           Mult            ....    1
 Number of Electrons    NEL             ....   60
 Basis Dimension        Dim             ....  308

ORBITAL ENERGIES
----------------

  NO   OCC          E(Eh)            E(eV)
   0   2.0000     -15.627839      -425.2551
   1   2.0000     -15.574843      -423.8130
   2   2.0000     -11.272987      -306.7536
   3   2.0000     -11.261034      -306.4283
   4   2.0000     -11.239551      -305.8437
   5   2.0000     -11.223725      -305.4131
   6   2.0000     -11.221171      -305.3436
   7   2.0000     -11.218359      -305.2671
   8   2.0000      -1.369325       -37.2612
   9   2.0000      -1.123369       -30.5684
  10   2.0000      -1.067886       -29.0587
  11   2.0000      -1.010641       -27.5010
  12   2.0000      -0.939341       -25.5608
  13   2.0000      -0.866069       -23.5669
  14   2.0000      -0.779782       -21.2189
  15   2.0000      -0.765593       -20.8328
  16   2.0000      -0.697683       -18.9849
  17   2.0000      -0.639517       -17.4021
  18   2.0000      -0.612760       -16.6741
  19   2.0000      -0.594327       -16.1725
  20   2.0000      -0.573350       -15.6016
  21   2.0000      -0.565943       -15.4001
  22   2.0000      -0.554578       -15.0908
  23   2.0000      -0.531480       -14.4623
  24   2.0000      -0.520170       -14.1546
  25   2.0000      -0.515211       -14.0196
  26   2.0000      -0.502133       -13.6637
  27   2.0000      -0.444754       -12.1024
  28   2.0000      -0.344494        -9.3742
  29   2.0000      -0.324255        -8.8234
  30   0.0000       0.136304         3.7090
  31   0.0000       0.149142         4.0583
  32   0.0000       0.154794         4.2122
  33   0.0000       0.170359         4.6357
  34   0.0000       0.186255         5.0683

MULLIKEN ATOMIC CHARGES
-----------------------
   0 C :   -0.382443
   1 C :   -0.153276
   2 N :    0.137115
   3 C :   -0.176252
   4 C :    0.020230
   5 C :   -0.421841
   6 C :   -0.123475
   7 N :   -0.267302
   8 H :    0.128748
   9 H :    0.127632
  10 H :    0.153189
  11 H :    0.126684
  12 H :    0.138437
  13 H :    0.144021
  14 H :    0.143175
  15 H :    0.143152
  16 H :    0.134156
  17 H :    0.128052
Sum of atomic charges:   -0.0000000

LOEWDIN ATOMIC CHARGES
----------------------
   0 C :   -0.311368
   1 C :   -0.273734
   2 N :    0.192438
   3 C :   -0.209605
   4 C :   -0.227533
   5 C :   -0.275531
   6 C :   -0.254972
   7 N :    0.041839
   8 H :    0.124488
   9 H :    0.122875
  10 H :    0.129566
  11 H :    0.137912
  12 H :    0.141417
  13 H :    0.138019
  14 H :    0.130394
  15 H :    0.130457
  16 H :    0.129837
  17 H :    0.133502

  Mayer bond orders larger than 0.1
B(  0-C ,  1-C ) :   0.9295 B(  0-C ,  8-H ) :   0.9314 B(  0-C ,  9-H ) :   0.9327
B(  0-C , 10-H ) :   0.9332 B(  1-C ,  2-N ) :   0.8647 B(  1-C , 11-H ) :   0.9295
B(  1-C , 12-H ) :   0.9280 B(  2-N ,  3-C ) :   1.2083 B(  2-N ,  7-N ) :   1.0247
B(  3-C ,  4-C ) :   1.4222 B(  3-C ,  7-N ) :   0.1022 B(  3-C , 13-H ) :   0.9008
B(  4-C ,  5-C ) :   0.8549 B(  4-C ,  6-C ) :   1.3004 B(  5-C , 14-H ) :   0.9349
B(  5-C , 15-H ) :   0.9389 B(  5-C , 16-H ) :   0.9520 B(  6-C ,  7-N ) :   1.4697
B(  6-C , 17-H ) :   0.9391

MP2 TOTAL ENERGY:     -343.406982791 Eh
FINAL SINGLE POINT ENERGY      -343.406982790767

DIPOLE MOMENT
-------------
                                X             Y             Z
Electronic contribution:     -1.31478      -1.42797       2.87078
Nuclear contribution   :      1.84347       1.28983      -3.59505
                        -----------------------------------------
Total Dipole Moment    :      0.52869      -0.13814      -0.72427
                        -----------------------------------------
Magnitude (a.u.)       :      0.90728
Magnitude (Debye)      :      2.30613

                             ****ORCA TERMINATED NORMALLY****
TOTAL RUN TIME: 0 days 0 hours 11 minutes 35 seconds 531 msec
