                         Program Version 3.0.3 - RELEASE   -
|  1> ! RI-MP2 RIJK def2-TZVP def2-TZVP/C def2-TZVP/JK TIGHTSCF
|  2> % maxcore 2000
|  3> % mp2 density relaxed end
|  4> *xyz 0 1
|  5>  O       -0.0890948399     1.4039220190    -0.2934301038
|  6>  C        0.0056110397     0.0243217226    -0.0390119981
|  7>  C        0.2755232555    -0.3675645542     1.4465889533
|  8>  C       -1.1025322045    -1.0842049339     1.5205553321
|  9>  C       -1.3937201537    -0.7036861747     0.0360328268
| 10>  O       -2.4883041824     0.1556498578    -0.1650442701
| 11>  C       -1.3151828284    -1.8669843602    -0.9662004786
| 12>  C        0.1899210235    -2.1540444540    -1.1214889867
| 13>  C        0.8268001597    -0.7523991713    -1.0812212793
| 14>  H        0.8001162617     1.7716587288    -0.2465646341
| 15>  H        1.1493242987    -1.0047156842     1.6108807412
| 16>  H        0.3492393403     0.5100279665     2.0920365546
| 17>  H       -1.0670030139    -2.1571947364     1.7301025982
| 18>  H       -1.8070593119    -0.6110915041     2.2075882865
| 19>  H       -3.2920197404    -0.3572658064    -0.0269017532
| 20>  H       -1.8925935664    -2.7435774332    -0.6514892419
| 21>  H       -1.7290909029    -1.5124261419    -1.9174289546
| 22>  H        0.5517941922    -2.7630841096    -0.2844003275
| 23>  H        0.4253073624    -2.7010204659    -2.0383057164
| 24>  H        0.6928749727    -0.2520866210    -2.0474627211
| 25>  H        1.8989074080    -0.7706655238    -0.8551308470
| 26> *
| 27>
| 28>                          ****END OF INPUT****

CARTESIAN COORDINATES (ANGSTROEM)
---------------------------------
  O     -0.089095    1.403922   -0.293430
  C      0.005611    0.024322   -0.039012
  C      0.275523   -0.367565    1.446589
  C     -1.102532   -1.084205    1.520555
  C     -1.393720   -0.703686    0.036033
  O     -2.488304    0.155650   -0.165044
  C     -1.315183   -1.866984   -0.966200
  C      0.189921   -2.154044   -1.121489
  C      0.826800   -0.752399   -1.081221
  H      0.800116    1.771659   -0.246565
  H      1.149324   -1.004716    1.610881
  H      0.349239    0.510028    2.092037
  H     -1.067003   -2.157195    1.730103
  H     -1.807059   -0.611092    2.207588
  H     -3.292020   -0.357266   -0.026902
  H     -1.892594   -2.743577   -0.651489
  H     -1.729091   -1.512426   -1.917429
  H      0.551794   -2.763084   -0.284400
  H      0.425307   -2.701020   -2.038306
  H      0.692875   -0.252087   -2.047463
  H      1.898907   -0.770666   -0.855131

 Total Charge           Charge          ....    0
 Multiplicity           Mult            ....    1
 Number of Electrons    NEL             ....   70
 Basis Dimension        Dim             ....  351

ORBITAL ENERGIES
----------------

  NO   OCC          E(Eh)            E(eV)
   0   2.0000     -20.548490      -559.1528
   1   2.0000     -20.548485      -559.1527
   2   2.0000     -11.276399      -306.8464
   3   2.0000     -11.275889      -306.8325
   4   2.0000     -11.225024      -305.4484
   5   2.0000     -11.218502      -305.2710
   6   2.0000     -11.218463      -305.2699
   7   2.0000     -11.217788      -305.2515
   8   2.0000     -11.217249      -305.2369
   9   2.0000      -1.369771       -37.2734
  10   2.0000      -1.348075       -36.6830
  11   2.0000      -1.136397       -30.9229
  12   2.0000      -1.043349       -28.3910
  13   2.0000      -0.963703       -26.2237
  14   2.0000      -0.890555       -24.2332
  15   2.0000      -0.852884       -23.2081
  16   2.0000      -0.795907       -21.6577
  17   2.0000      -0.728930       -19.8352
  18   2.0000      -0.703015       -19.1300
  19   2.0000      -0.648832       -17.6556
  20   2.0000      -0.640575       -17.4309
  21   2.0000      -0.622153       -16.9296
  22   2.0000      -0.609928       -16.5970
  23   2.0000      -0.583644       -15.8818
  24   2.0000      -0.575889       -15.6707
  25   2.0000      -0.551526       -15.0078
  26   2.0000      -0.541313       -14.7299
  27   2.0000      -0.498503       -13.5650
  28   2.0000      -0.497306       -13.5324
  29   2.0000      -0.476769       -12.9735
  30   2.0000      -0.472263       -12.8509
  31   2.0000      -0.468978       -12.7615
  32   2.0000      -0.428217       -11.6524
  33   2.0000      -0.406388       -11.0584
  34   2.0000      -0.393093       -10.6966
  35   0.0000       0.136378         3.7110
  36   0.0000       0.140264         3.8168
  37   0.0000       0.150525         4.0960
  38   0.0000       0.165592         4.5060
  39   0.0000       0.175150         4.7661

MULLIKEN ATOMIC CHARGES
-----------------------
   0 O :   -0.435915
   1 C :    0.209288
   2 C :   -0.246560
   3 C :   -0.246515
   4 C :    0.209126
   5 O :   -0.435904
   6 C :   -0.302434
   7 C :   -0.239429
   8 C :   -0.302465
   9 H :    0.313913
  10 H :    0.112962
  11 H :    0.104677
  12 H :    0.112944
  13 H :    0.104691
  14 H :    0.313912
  15 H :    0.119015
  16 H :    0.123205
  17 H :    0.114044
  18 H :    0.129220
  19 H :    0.123205
  20 H :    0.119020
Sum of atomic charges:   -0.0000000

LOEWDIN ATOMIC CHARGES
----------------------
   0 O :    0.023617
   1 C :   -0.318465
   2 C :   -0.205630
   3 C :   -0.205637
   4 C :   -0.318459
   5 O :    0.023608
   6 C :   -0.228103
   7 C :   -0.249869
   8 C :   -0.228115
   9 H :    0.177889
  10 H :    0.128057
  11 H :    0.134497
  12 H :    0.128051
  13 H :    0.134507
  14 H :    0.177889
  15 H :    0.132982
  16 H :    0.145236
  17 H :    0.135903
  18 H :    0.133823
  19 H :    0.145234
  20 H :    0.132985

  Mayer bond orders larger than 0.1
B(  0-O ,  1-C ) :   1.1074 B(  0-O ,  9-H ) :   0.8394 B(  1-C ,  2-C ) :   0.9373
B(  1-C ,  4-C ) :   0.8197 B(  1-C ,  8-C ) :   0.9421 B(  2-C ,  3-C ) :   0.9988
B(  2-C , 10-H ) :   0.9081 B(  2-C , 11-H ) :   0.8963 B(  3-C ,  4-C ) :   0.9374
B(  3-C , 12-H ) :   0.9081 B(  3-C , 13-H ) :   0.8963 B(  4-C ,  5-O ) :   1.1075
B(  4-C ,  6-C ) :   0.9421 B(  5-O , 14-H ) :   0.8394 B(  6-C ,  7-C ) :   0.9285
B(  6-C , 15-H ) :   0.9193 B(  6-C , 16-H ) :   0.9320 B(  7-C ,  8-C ) :   0.9285
B(  7-C , 17-H ) :   0.9306 B(  7-C , 18-H ) :   0.9264 B(  8-C , 19-H ) :   0.9320
B(  8-C , 20-H ) :   0.9193

MP2 TOTAL ENERGY:     -423.532673477 Eh
FINAL SINGLE POINT ENERGY      -423.532673477028

DIPOLE MOMENT
-------------
                                X             Y             Z
Electronic contribution:     -2.49187       4.75777      -0.30785
Nuclear contribution   :      2.92239      -5.56609       0.49302
                        -----------------------------------------
Total Dipole Moment    :      0.43052      -0.80832       0.18517
                        -----------------------------------------
Magnitude (a.u.)       :      0.93435
Magnitude (Debye)      :      2.37493

                             ****ORCA TERMINATED NORMALLY****
TOTAL RUN TIME: 0 days 0 hours 19 minutes 48 seconds 320 msec
