                         Program Version 3.0.3 - RELEASE   -
|  1> ! RI-MP2 RIJK def2-TZVP def2-TZVP/C def2-TZVP/JK TIGHTSCF
|  2> % maxcore 2000
|  3> % mp2 density relaxed end
|  4> *xyz 0 1
|  5>  C       -0.0271521890     1.4524090783     0.0336982051
|  6>  C        0.0362169073    -0.0478422939     0.0093162112
|  7>  C        0.6227109668    -0.9652466643    -1.1074863540
|  8>  C        0.0733908173    -1.9264212370    -0.0076503930
|  9>  O       -0.0107632014    -3.2989983994    -0.0201558736
| 10>  C        0.7219268406    -0.9870567448     1.0527905644
| 11>  C       -1.1982686041    -1.0304699077     0.0312466742
| 12>  C       -2.0497837149    -1.0479996408     1.2085398294
| 13>  N       -2.7364138439    -1.0397268921     2.1391994242
| 14>  H        0.9803568363     1.8810767164     0.0256078180
| 15>  H       -0.5653514899     1.8399625732    -0.8374703557
| 16>  H       -0.5384096606     1.8069820273     0.9343506767
| 17>  H        0.1057397792    -0.9668580451    -2.0708511984
| 18>  H        1.7086080873    -0.9342228707    -1.2268963158
| 19>  H        0.8746857505    -3.6664855447     0.0742979050
| 20>  H        1.8148423748    -0.9576727514     1.0720404516
| 21>  H        0.2969483942    -1.0044682658     2.0582029282
| 22>  H       -1.8041417505    -1.0407572174    -0.8786312473
| 23> *
| 24>
| 25>                          ****END OF INPUT****

CARTESIAN COORDINATES (ANGSTROEM)
---------------------------------
  C     -0.027152    1.452409    0.033698
  C      0.036217   -0.047842    0.009316
  C      0.622711   -0.965247   -1.107486
  C      0.073391   -1.926421   -0.007650
  O     -0.010763   -3.298998   -0.020156
  C      0.721927   -0.987057    1.052791
  C     -1.198269   -1.030470    0.031247
  C     -2.049784   -1.048000    1.208540
  N     -2.736414   -1.039727    2.139199
  H      0.980357    1.881077    0.025608
  H     -0.565351    1.839963   -0.837470
  H     -0.538410    1.806982    0.934351
  H      0.105740   -0.966858   -2.070851
  H      1.708608   -0.934223   -1.226896
  H      0.874686   -3.666486    0.074298
  H      1.814842   -0.957673    1.072040
  H      0.296948   -1.004468    2.058203
  H     -1.804142   -1.040757   -0.878631

 Total Charge           Charge          ....    0
 Multiplicity           Mult            ....    1
 Number of Electrons    NEL             ....   66
 Basis Dimension        Dim             ....  333

ORBITAL ENERGIES
----------------

  NO   OCC          E(Eh)            E(eV)
   0   2.0000     -20.584575      -560.1348
   1   2.0000     -15.564138      -423.5217
   2   2.0000     -11.329434      -308.2896
   3   2.0000     -11.282763      -307.0196
   4   2.0000     -11.282044      -307.0000
   5   2.0000     -11.266942      -306.5891
   6   2.0000     -11.250111      -306.1311
   7   2.0000     -11.247726      -306.0662
   8   2.0000     -11.235642      -305.7374
   9   2.0000      -1.400499       -38.1095
  10   2.0000      -1.242079       -33.7987
  11   2.0000      -1.205574       -32.8053
  12   2.0000      -1.005120       -27.3507
  13   2.0000      -0.980938       -26.6927
  14   2.0000      -0.936786       -25.4912
  15   2.0000      -0.833491       -22.6804
  16   2.0000      -0.787355       -21.4250
  17   2.0000      -0.708852       -19.2888
  18   2.0000      -0.690145       -18.7798
  19   2.0000      -0.659751       -17.9527
  20   2.0000      -0.631448       -17.1826
  21   2.0000      -0.605461       -16.4754
  22   2.0000      -0.584205       -15.8970
  23   2.0000      -0.582787       -15.8584
  24   2.0000      -0.557544       -15.1715
  25   2.0000      -0.537289       -14.6204
  26   2.0000      -0.517800       -14.0901
  27   2.0000      -0.497100       -13.5268
  28   2.0000      -0.477811       -13.0019
  29   2.0000      -0.473372       -12.8811
  30   2.0000      -0.445655       -12.1269
  31   2.0000      -0.432999       -11.7825
  32   2.0000      -0.421483       -11.4691
  33   0.0000       0.119278         3.2457
  34   0.0000       0.133348         3.6286
  35   0.0000       0.158764         4.3202
  36   0.0000       0.168541         4.5862
  37   0.0000       0.175416         4.7733

MULLIKEN ATOMIC CHARGES
-----------------------
   0 C :   -0.391178
   1 C :   -0.064097
   2 C :   -0.173773
   3 C :    0.085171
   4 O :   -0.442161
   5 C :   -0.216285
   6 C :    0.099435
   7 C :   -0.266426
   8 N :   -0.041203
   9 H :    0.140303
  10 H :    0.139836
  11 H :    0.154727
  12 H :    0.119505
  13 H :    0.123890
  14 H :    0.329238
  15 H :    0.119427
  16 H :    0.147081
  17 H :    0.136510
Sum of atomic charges:    0.0000000

LOEWDIN ATOMIC CHARGES
----------------------
   0 C :   -0.270244
   1 C :   -0.197978
   2 C :   -0.158181
   3 C :   -0.319733
   4 O :    0.041228
   5 C :   -0.154476
   6 C :   -0.136159
   7 C :   -0.169141
   8 N :    0.063985
   9 H :    0.133513
  10 H :    0.132675
  11 H :    0.136701
  12 H :    0.132887
  13 H :    0.132179
  14 H :    0.189531
  15 H :    0.131629
  16 H :    0.140515
  17 H :    0.171069

  Mayer bond orders larger than 0.1
B(  0-C ,  1-C ) :   0.8451 B(  0-C ,  9-H ) :   0.9396 B(  0-C , 10-H ) :   0.9394
B(  0-C , 11-H ) :   0.9393 B(  1-C ,  2-C ) :   0.8966 B(  1-C ,  5-C ) :   0.9057
B(  1-C ,  6-C ) :   0.8224 B(  2-C ,  3-C ) :   0.8947 B(  2-C , 12-H ) :   0.9263
B(  2-C , 13-H ) :   0.9255 B(  3-C ,  4-O ) :   1.0541 B(  3-C ,  5-C ) :   0.8934
B(  3-C ,  6-C ) :   0.8659 B(  4-O , 14-H ) :   0.8306 B(  5-C , 15-H ) :   0.9260
B(  5-C , 16-H ) :   0.9102 B(  6-C ,  7-C ) :   0.9364 B(  6-C , 17-H ) :   0.8966
B(  7-C ,  8-N ) :   2.8760

MP2 TOTAL ENERGY:     -401.239863174 Eh
FINAL SINGLE POINT ENERGY      -401.239863173962

DIPOLE MOMENT
-------------
                                X             Y             Z
Electronic contribution:     -4.98352      -5.33216       2.68117
Nuclear contribution   :      6.63051       5.68818      -3.77107
                        -----------------------------------------
Total Dipole Moment    :      1.64698       0.35602      -1.08990
                        -----------------------------------------
Magnitude (a.u.)       :      2.00679
Magnitude (Debye)      :      5.10084

                             ****ORCA TERMINATED NORMALLY****
TOTAL RUN TIME: 0 days 0 hours 17 minutes 38 seconds 588 msec
