                         Program Version 3.0.3 - RELEASE   -
|  1> ! RI-MP2 RIJK def2-TZVP def2-TZVP/C def2-TZVP/JK TIGHTSCF
|  2> % maxcore 2000
|  3> % mp2 density relaxed end
|  4> *xyz 0 1
|  5>  C       -0.6805361216     1.2022748293     0.3634975213
|  6>  N       -0.0413609754    -0.1070581738     0.2470225550
|  7>  C        1.1784028423    -0.2905153763    -0.5606361528
|  8>  C        1.9175784082     0.8165666058    -1.2133700089
|  9>  O        1.9810229349     1.9683267416    -0.8388190939
| 10>  C        1.1672517428    -0.4179771854     0.9622518994
| 11>  C        1.8839951142     0.5334522421     1.8628317249
| 12>  C        1.6903369342     0.3978579035     3.3582767100
| 13>  C        3.0006749136     0.0045779633     2.7322984141
| 14>  H        0.0027947384     2.0555347582     0.3395496863
| 15>  H       -1.3922204038     1.3066267255    -0.4608665198
| 16>  H       -1.2441217555     1.2137897597     1.3011980331
| 17>  H        1.1804060086    -1.2079591888    -1.1469060002
| 18>  H        2.4455320620     0.4989854247    -2.1405360064
| 19>  H        1.1951970700    -1.4496351598     1.3191622579
| 20>  H        2.0110301632     1.5359219840     1.4758759667
| 21>  H        1.6460986409     1.3069382509     3.9472119258
| 22>  H        1.0423203506    -0.3958813924     3.7154225764
| 23>  H        3.2341930814    -1.0537357960     2.6714944581
| 24>  H        3.8644811308     0.6405952537     2.8881418731
| 25> *
| 26>
| 27>                          ****END OF INPUT****

CARTESIAN COORDINATES (ANGSTROEM)
---------------------------------
  C     -0.680536    1.202275    0.363498
  N     -0.041361   -0.107058    0.247023
  C      1.178403   -0.290515   -0.560636
  C      1.917578    0.816567   -1.213370
  O      1.981023    1.968327   -0.838819
  C      1.167252   -0.417977    0.962252
  C      1.883995    0.533452    1.862832
  C      1.690337    0.397858    3.358277
  C      3.000675    0.004578    2.732298
  H      0.002795    2.055535    0.339550
  H     -1.392220    1.306627   -0.460867
  H     -1.244122    1.213790    1.301198
  H      1.180406   -1.207959   -1.146906
  H      2.445532    0.498985   -2.140536
  H      1.195197   -1.449635    1.319162
  H      2.011030    1.535922    1.475876
  H      1.646099    1.306938    3.947212
  H      1.042320   -0.395881    3.715423
  H      3.234193   -1.053736    2.671494
  H      3.864481    0.640595    2.888142

 Total Charge           Charge          ....    0
 Multiplicity           Mult            ....    1
 Number of Electrons    NEL             ....   68
 Basis Dimension        Dim             ....  345

ORBITAL ENERGIES
----------------

  NO   OCC          E(Eh)            E(eV)
   0   2.0000     -20.556529      -559.3716
   1   2.0000     -15.572204      -423.7412
   2   2.0000     -11.337548      -308.5104
   3   2.0000     -11.280867      -306.9680
   4   2.0000     -11.269632      -306.6623
   5   2.0000     -11.242108      -305.9133
   6   2.0000     -11.236317      -305.7557
   7   2.0000     -11.231586      -305.6270
   8   2.0000     -11.230828      -305.6064
   9   2.0000      -1.395791       -37.9814
  10   2.0000      -1.282597       -34.9012
  11   2.0000      -1.145633       -31.1743
  12   2.0000      -1.009495       -27.4697
  13   2.0000      -0.938996       -25.5514
  14   2.0000      -0.878891       -23.9158
  15   2.0000      -0.827666       -22.5219
  16   2.0000      -0.772154       -21.0114
  17   2.0000      -0.767019       -20.8716
  18   2.0000      -0.702380       -19.1127
  19   2.0000      -0.676566       -18.4103
  20   2.0000      -0.650206       -17.6930
  21   2.0000      -0.626573       -17.0499
  22   2.0000      -0.608840       -16.5674
  23   2.0000      -0.590284       -16.0625
  24   2.0000      -0.570757       -15.5311
  25   2.0000      -0.542995       -14.7756
  26   2.0000      -0.533365       -14.5136
  27   2.0000      -0.521017       -14.1776
  28   2.0000      -0.490511       -13.3475
  29   2.0000      -0.463829       -12.6214
  30   2.0000      -0.441048       -12.0015
  31   2.0000      -0.423571       -11.5260
  32   2.0000      -0.403910       -10.9910
  33   2.0000      -0.362290        -9.8584
  34   0.0000       0.109916         2.9910
  35   0.0000       0.149574         4.0701
  36   0.0000       0.157343         4.2815
  37   0.0000       0.164154         4.4669
  38   0.0000       0.172488         4.6936

MULLIKEN ATOMIC CHARGES
-----------------------
   0 C :   -0.310486
   1 N :   -0.197646
   2 C :   -0.089421
   3 C :    0.116309
   4 O :   -0.306476
   5 C :   -0.046276
   6 C :   -0.112524
   7 C :   -0.265669
   8 C :   -0.256725
   9 H :    0.152457
  10 H :    0.139920
  11 H :    0.137507
  12 H :    0.129055
  13 H :    0.087941
  14 H :    0.124842
  15 H :    0.167534
  16 H :    0.133983
  17 H :    0.132599
  18 H :    0.128110
  19 H :    0.134965
Sum of atomic charges:   -0.0000000

LOEWDIN ATOMIC CHARGES
----------------------
   0 C :   -0.317921
   1 N :    0.129164
   2 C :   -0.236649
   3 C :   -0.293466
   4 O :    0.116162
   5 C :   -0.209004
   6 C :   -0.213466
   7 C :   -0.221145
   8 C :   -0.220965
   9 H :    0.114542
  10 H :    0.120271
  11 H :    0.121728
  12 H :    0.147428
  13 H :    0.117489
  14 H :    0.153043
  15 H :    0.158591
  16 H :    0.132894
  17 H :    0.134431
  18 H :    0.133406
  19 H :    0.133469

  Mayer bond orders larger than 0.1
B(  0-C ,  1-N ) :   0.8740 B(  0-C ,  9-H ) :   0.9224 B(  0-C , 10-H ) :   0.9367
B(  0-C , 11-H ) :   0.9328 B(  1-N ,  2-C ) :   0.9110 B(  1-N ,  5-C ) :   0.9422
B(  2-C ,  3-C ) :   0.9443 B(  2-C ,  5-C ) :   0.8789 B(  2-C , 12-H ) :   0.9012
B(  3-C ,  4-O ) :   1.8807 B(  3-C , 13-H ) :   0.9402 B(  5-C ,  6-C ) :   0.9315
B(  5-C , 14-H ) :   0.9036 B(  6-C ,  7-C ) :   0.8634 B(  6-C ,  8-C ) :   0.8769
B(  6-C , 15-H ) :   0.9072 B(  7-C ,  8-C ) :   0.9146 B(  7-C , 16-H ) :   0.9264
B(  7-C , 17-H ) :   0.9261 B(  8-C , 18-H ) :   0.9301 B(  8-C , 19-H ) :   0.9282

MP2 TOTAL ENERGY:     -402.406819670 Eh
FINAL SINGLE POINT ENERGY      -402.406819669891

DIPOLE MOMENT
-------------
                                X             Y             Z
Electronic contribution:      0.79261       0.36658      -5.05272
Nuclear contribution   :     -0.66346      -0.87247       5.25657
                        -----------------------------------------
Total Dipole Moment    :      0.12915      -0.50589       0.20385
                        -----------------------------------------
Magnitude (a.u.)       :      0.56049
Magnitude (Debye)      :      1.42466

                             ****ORCA TERMINATED NORMALLY****
TOTAL RUN TIME: 0 days 0 hours 20 minutes 38 seconds 454 msec
