                         Program Version 3.0.3 - RELEASE   -
|  1> ! RI-MP2 RIJK def2-TZVP def2-TZVP/C def2-TZVP/JK TIGHTSCF
|  2> % maxcore 2000
|  3> % mp2 density relaxed end
|  4> *xyz 0 1
|  5>  C        0.0988999728     1.5286183725     0.0081213874
|  6>  C       -0.0547682479     0.0095340073     0.0028511380
|  7>  C       -1.4678839656    -0.5059111046     0.0129821517
|  8>  N       -2.4202579600     0.3639263230     0.0243043567
|  9>  O       -3.7348115692    -0.1077353576     0.0337710272
| 10>  C       -3.9839483788    -1.4216652050     0.0310930727
| 11>  C       -3.0420505604    -2.3834056798     0.0195434022
| 12>  C       -1.6518479521    -1.9905481132     0.0090425728
| 13>  O       -0.6913565418    -2.7450711044    -0.0017465793
| 14>  H        1.1594688144     1.7944529204     0.0000824394
| 15>  H       -0.3759875640     1.9809010608    -0.8664727634
| 16>  H       -0.3607083435     1.9732158084     0.8947399892
| 17>  H        0.4400925102    -0.4382621871    -0.8683768026
| 18>  H        0.4552635474    -0.4458735245     0.8612753456
| 19>  H       -5.0542423736    -1.6009457133     0.0395824150
| 20>  H       -3.3139280278    -3.4308937328     0.0180718472
| 21> *
| 22>
| 23>                          ****END OF INPUT****

CARTESIAN COORDINATES (ANGSTROEM)
---------------------------------
  C      0.098900    1.528618    0.008121
  C     -0.054768    0.009534    0.002851
  C     -1.467884   -0.505911    0.012982
  N     -2.420258    0.363926    0.024304
  O     -3.734812   -0.107735    0.033771
  C     -3.983948   -1.421665    0.031093
  C     -3.042051   -2.383406    0.019543
  C     -1.651848   -1.990548    0.009043
  O     -0.691357   -2.745071   -0.001747
  H      1.159469    1.794453    0.000082
  H     -0.375988    1.980901   -0.866473
  H     -0.360708    1.973216    0.894740
  H      0.440093   -0.438262   -0.868377
  H      0.455264   -0.445874    0.861275
  H     -5.054242   -1.600946    0.039582
  H     -3.313928   -3.430894    0.018072

 Total Charge           Charge          ....    0
 Multiplicity           Mult            ....    1
 Number of Electrons    NEL             ....   66
 Basis Dimension        Dim             ....  321

ORBITAL ENERGIES
----------------

  NO   OCC          E(Eh)            E(eV)
   0   2.0000     -20.664383      -562.3064
   1   2.0000     -20.549530      -559.1811
   2   2.0000     -15.662161      -426.1891
   3   2.0000     -11.350631      -308.8664
   4   2.0000     -11.349793      -308.8436
   5   2.0000     -11.309403      -307.7445
   6   2.0000     -11.253134      -306.2133
   7   2.0000     -11.244445      -305.9769
   8   2.0000     -11.220986      -305.3386
   9   2.0000      -1.502824       -40.8939
  10   2.0000      -1.391561       -37.8663
  11   2.0000      -1.220321       -33.2066
  12   2.0000      -1.106916       -30.1207
  13   2.0000      -1.044825       -28.4311
  14   2.0000      -0.929013       -25.2797
  15   2.0000      -0.902795       -24.5663
  16   2.0000      -0.842411       -22.9232
  17   2.0000      -0.749488       -20.3946
  18   2.0000      -0.734096       -19.9758
  19   2.0000      -0.679161       -18.4809
  20   2.0000      -0.666635       -18.1401
  21   2.0000      -0.635332       -17.2883
  22   2.0000      -0.622977       -16.9521
  23   2.0000      -0.620251       -16.8779
  24   2.0000      -0.569574       -15.4989
  25   2.0000      -0.556864       -15.1530
  26   2.0000      -0.533335       -14.5128
  27   2.0000      -0.522749       -14.2247
  28   2.0000      -0.505309       -13.7501
  29   2.0000      -0.503650       -13.7050
  30   2.0000      -0.443261       -12.0617
  31   2.0000      -0.424056       -11.5391
  32   2.0000      -0.377994       -10.2858
  33   0.0000       0.070571         1.9203
  34   0.0000       0.116487         3.1698
  35   0.0000       0.137575         3.7436
  36   0.0000       0.152028         4.1369
  37   0.0000       0.179724         4.8905

MULLIKEN ATOMIC CHARGES
-----------------------
   0 C :   -0.358076
   1 C :   -0.190212
   2 C :    0.020791
   3 N :   -0.085087
   4 O :   -0.118237
   5 C :    0.063450
   6 C :   -0.234131
   7 C :    0.226069
   8 O :   -0.325446
   9 H :    0.136581
  10 H :    0.132916
  11 H :    0.132900
  12 H :    0.140937
  13 H :    0.141008
  14 H :    0.162365
  15 H :    0.154173
Sum of atomic charges:   -0.0000000

LOEWDIN ATOMIC CHARGES
----------------------
   0 C :   -0.309976
   1 C :   -0.247038
   2 C :   -0.210061
   3 N :    0.100621
   4 O :    0.255649
   5 C :   -0.229182
   6 C :   -0.145672
   7 C :   -0.341805
   8 O :    0.125569
   9 H :    0.123534
  10 H :    0.125744
  11 H :    0.125744
  12 H :    0.158914
  13 H :    0.158915
  14 H :    0.148339
  15 H :    0.160706

  Mayer bond orders larger than 0.1
B(  0-C ,  1-C ) :   0.9342 B(  0-C ,  9-H ) :   0.9387 B(  0-C , 10-H ) :   0.9339
B(  0-C , 11-H ) :   0.9339 B(  1-C ,  2-C ) :   0.9235 B(  1-C , 12-H ) :   0.9113
B(  1-C , 13-H ) :   0.9114 B(  2-C ,  3-N ) :   1.6703 B(  2-C ,  7-C ) :   0.8907
B(  3-N ,  4-O ) :   0.8057 B(  4-O ,  5-C ) :   1.1121 B(  5-C ,  6-C ) :   1.5586
B(  5-C , 14-H ) :   0.9235 B(  6-C ,  7-C ) :   1.1538 B(  6-C , 15-H ) :   0.9064
B(  7-C ,  8-O ) :   1.9001

MP2 TOTAL ENERGY:     -437.147199965 Eh
FINAL SINGLE POINT ENERGY      -437.147199965276

DIPOLE MOMENT
-------------
                                X             Y             Z
Electronic contribution:     -6.31852      -4.90957       0.03375
Nuclear contribution   :      5.60926       4.96983      -0.02757
                        -----------------------------------------
Total Dipole Moment    :     -0.70926       0.06026       0.00619
                        -----------------------------------------
Magnitude (a.u.)       :      0.71184
Magnitude (Debye)      :      1.80935

                             ****ORCA TERMINATED NORMALLY****
TOTAL RUN TIME: 0 days 0 hours 16 minutes 33 seconds 341 msec
