                         Program Version 3.0.3 - RELEASE   -
|  1> ! RI-MP2 RIJK def2-TZVP def2-TZVP/C def2-TZVP/JK TIGHTSCF
|  2> % maxcore 2000
|  3> % mp2 density relaxed end
|  4> *xyz 0 1
|  5>  C        0.4778911171     0.7861437424    -0.5043013328
|  6>  O       -0.1000318443    -0.3754973498     0.0380818900
|  7>  C       -1.5059396697    -0.3031737528     0.1958637680
|  8>  C       -2.2823474103    -0.5213969705    -1.1366287188
|  9>  C       -2.6676383303    -1.9850586337    -1.1245083910
| 10>  O       -1.5662471706    -2.8607940827    -0.8491965336
| 11>  C       -2.4784113037    -2.5515610427     0.2196076752
| 12>  C       -3.2551254281    -3.7072847205     0.7882059278
| 13>  C       -1.9425877129    -1.4564840002     1.1289047387
| 14>  H        1.5595884020     0.6312865972    -0.5187458700
| 15>  H        0.1434782641     0.9888841863    -1.5332506379
| 16>  H        0.2536065016     1.6758516826     0.1069968568
| 17>  H       -1.7601417699     0.6742455512     0.6334353032
| 18>  H       -3.1870143521     0.0979645611    -1.1703975663
| 19>  H       -1.6700331233    -0.2581066893    -2.0039759893
| 20>  H       -3.4065152363    -2.3699065879    -1.8250993982
| 21>  H       -3.5928076852    -4.3730464986    -0.0099409257
| 22>  H       -2.6330393537    -4.2907713564     1.4759883981
| 23>  H       -4.1294670937    -3.3549007146     1.3460999206
| 24>  H       -1.0938521362    -1.7878307404     1.7333422245
| 25>  H       -2.7356430445    -1.1261803407     1.8098677207
| 26> *
| 27>
| 28>                          ****END OF INPUT****

CARTESIAN COORDINATES (ANGSTROEM)
---------------------------------
  C      0.477891    0.786144   -0.504301
  O     -0.100032   -0.375497    0.038082
  C     -1.505940   -0.303174    0.195864
  C     -2.282347   -0.521397   -1.136629
  C     -2.667638   -1.985059   -1.124508
  O     -1.566247   -2.860794   -0.849197
  C     -2.478411   -2.551561    0.219608
  C     -3.255125   -3.707285    0.788206
  C     -1.942588   -1.456484    1.128905
  H      1.559588    0.631287   -0.518746
  H      0.143478    0.988884   -1.533251
  H      0.253607    1.675852    0.106997
  H     -1.760142    0.674246    0.633435
  H     -3.187014    0.097965   -1.170398
  H     -1.670033   -0.258107   -2.003976
  H     -3.406515   -2.369907   -1.825099
  H     -3.592808   -4.373046   -0.009941
  H     -2.633039   -4.290771    1.475988
  H     -4.129467   -3.354901    1.346100
  H     -1.093852   -1.787831    1.733342
  H     -2.735643   -1.126180    1.809868

 Total Charge           Charge          ....    0
 Multiplicity           Mult            ....    1
 Number of Electrons    NEL             ....   70
 Basis Dimension        Dim             ....  351

ORBITAL ENERGIES
----------------

  NO   OCC          E(Eh)            E(eV)
   0   2.0000     -20.551755      -559.2417
   1   2.0000     -20.547947      -559.1381
   2   2.0000     -11.282727      -307.0186
   3   2.0000     -11.281765      -306.9924
   4   2.0000     -11.275001      -306.8084
   5   2.0000     -11.266669      -306.5816
   6   2.0000     -11.226986      -305.5018
   7   2.0000     -11.223169      -305.3980
   8   2.0000     -11.222637      -305.3835
   9   2.0000      -1.403062       -38.1792
  10   2.0000      -1.369489       -37.2657
  11   2.0000      -1.081646       -29.4331
  12   2.0000      -1.015012       -27.6199
  13   2.0000      -0.966145       -26.2902
  14   2.0000      -0.919786       -25.0287
  15   2.0000      -0.868687       -23.6382
  16   2.0000      -0.786143       -21.3920
  17   2.0000      -0.761478       -20.7209
  18   2.0000      -0.692426       -18.8419
  19   2.0000      -0.664041       -18.0695
  20   2.0000      -0.636691       -17.3252
  21   2.0000      -0.627311       -17.0700
  22   2.0000      -0.607098       -16.5200
  23   2.0000      -0.583487       -15.8775
  24   2.0000      -0.568580       -15.4719
  25   2.0000      -0.555489       -15.1156
  26   2.0000      -0.540080       -14.6963
  27   2.0000      -0.524328       -14.2677
  28   2.0000      -0.508186       -13.8285
  29   2.0000      -0.496013       -13.4972
  30   2.0000      -0.492887       -13.4121
  31   2.0000      -0.471048       -12.8179
  32   2.0000      -0.431507       -11.7419
  33   2.0000      -0.404016       -10.9938
  34   2.0000      -0.401900       -10.9362
  35   0.0000       0.135046         3.6748
  36   0.0000       0.151806         4.1308
  37   0.0000       0.168670         4.5897
  38   0.0000       0.176012         4.7895
  39   0.0000       0.190342         5.1795

MULLIKEN ATOMIC CHARGES
-----------------------
   0 C :   -0.226564
   1 O :   -0.298932
   2 C :    0.095853
   3 C :   -0.213817
   4 C :   -0.006210
   5 O :   -0.326433
   6 C :    0.148035
   7 C :   -0.429559
   8 C :   -0.170119
   9 H :    0.142364
  10 H :    0.105642
  11 H :    0.107006
  12 H :    0.079999
  13 H :    0.112767
  14 H :    0.116543
  15 H :    0.117051
  16 H :    0.142250
  17 H :    0.140827
  18 H :    0.129152
  19 H :    0.119446
  20 H :    0.114700
Sum of atomic charges:    0.0000000

LOEWDIN ATOMIC CHARGES
----------------------
   0 C :   -0.363447
   1 O :    0.161553
   2 C :   -0.294681
   3 C :   -0.220218
   4 C :   -0.246856
   5 O :    0.189170
   6 C :   -0.322657
   7 C :   -0.269078
   8 C :   -0.187855
   9 H :    0.114534
  10 H :    0.098234
  11 H :    0.099908
  12 H :    0.130748
  13 H :    0.142938
  14 H :    0.143599
  15 H :    0.133946
  16 H :    0.133289
  17 H :    0.131803
  18 H :    0.129845
  19 H :    0.150235
  20 H :    0.144989

  Mayer bond orders larger than 0.1
B(  0-C ,  1-O ) :   0.9233 B(  0-C ,  9-H ) :   0.9419 B(  0-C , 10-H ) :   0.9320
B(  0-C , 11-H ) :   0.9347 B(  1-O ,  2-C ) :   0.9529 B(  2-C ,  3-C ) :   0.9389
B(  2-C ,  8-C ) :   0.9116 B(  2-C , 12-H ) :   0.9408 B(  3-C ,  4-C ) :   0.9273
B(  3-C , 13-H ) :   0.9038 B(  3-C , 14-H ) :   0.9117 B(  4-C ,  5-O ) :   0.9341
B(  4-C ,  6-C ) :   0.9315 B(  4-C , 15-H ) :   0.9258 B(  5-O ,  6-C ) :   0.8955
B(  6-C ,  7-C ) :   0.8758 B(  6-C ,  8-C ) :   0.9880 B(  7-C , 16-H ) :   0.9409
B(  7-C , 17-H ) :   0.9430 B(  7-C , 18-H ) :   0.9325 B(  8-C , 19-H ) :   0.8985
B(  8-C , 20-H ) :   0.9108

MP2 TOTAL ENERGY:     -423.511029264 Eh
FINAL SINGLE POINT ENERGY      -423.511029264137

DIPOLE MOMENT
-------------
                                X             Y             Z
Electronic contribution:      1.33569      -2.64012      -1.45285
Nuclear contribution   :     -2.13461       3.35295       1.62637
                        -----------------------------------------
Total Dipole Moment    :     -0.79892       0.71284       0.17352
                        -----------------------------------------
Magnitude (a.u.)       :      1.08467
Magnitude (Debye)      :      2.75702

                             ****ORCA TERMINATED NORMALLY****
TOTAL RUN TIME: 0 days 0 hours 29 minutes 14 seconds 32 msec
