                         Program Version 3.0.3 - RELEASE   -
|  1> ! RI-MP2 RIJK def2-TZVP def2-TZVP/C def2-TZVP/JK TIGHTSCF
|  2> % maxcore 2000
|  3> % mp2 density relaxed end
|  4> *xyz 0 1
|  5>  C       -0.3140470914     1.5595349416     0.0415498749
|  6>  C        0.0538478097     0.1009218510     0.0833117284
|  7>  C       -1.0505463947    -0.9898822248     0.0584338211
|  8>  C       -0.3357151824    -1.7354084419     1.2290315529
|  9>  C        0.7787450155    -0.6552244206     1.2452605847
| 10>  C        1.8716511321    -0.8663497881     0.2122085780
| 11>  C        3.3489456702    -0.6904844714     0.3405712030
| 12>  C        2.7545092170    -2.0409349579    -0.0477813843
| 13>  O        1.1363850925    -0.2230972619    -0.8346360298
| 14>  H        0.5633242017     2.1875722762     0.2220546385
| 15>  H       -0.7202865916     1.8177569759    -0.9432960350
| 16>  H       -1.0744196530     1.7921495098     0.7940339086
| 17>  H       -2.0470379117    -0.6198283409     0.3151349769
| 18>  H       -1.1037980906    -1.5231390646    -0.8927599038
| 19>  H       -0.9252990932    -1.7545579145     2.1483946780
| 20>  H        0.0069488464    -2.7512257670     1.0173821900
| 21>  H        1.0604076540    -0.2034004714     2.1967126736
| 22>  H        3.8466554218    -0.1238106858    -0.4392503329
| 23>  H        3.7766222224    -0.5769845229     1.3318235697
| 24>  H        2.7769757494    -2.8479492749     0.6779016509
| 25>  H        2.8682526661    -2.3549569860    -1.0798132932
| 26> *
| 27>
| 28>                          ****END OF INPUT****

CARTESIAN COORDINATES (ANGSTROEM)
---------------------------------
  C     -0.314047    1.559535    0.041550
  C      0.053848    0.100922    0.083312
  C     -1.050546   -0.989882    0.058434
  C     -0.335715   -1.735408    1.229032
  C      0.778745   -0.655224    1.245261
  C      1.871651   -0.866350    0.212209
  C      3.348946   -0.690484    0.340571
  C      2.754509   -2.040935   -0.047781
  O      1.136385   -0.223097   -0.834636
  H      0.563324    2.187572    0.222055
  H     -0.720287    1.817757   -0.943296
  H     -1.074420    1.792150    0.794034
  H     -2.047038   -0.619828    0.315135
  H     -1.103798   -1.523139   -0.892760
  H     -0.925299   -1.754558    2.148395
  H      0.006949   -2.751226    1.017382
  H      1.060408   -0.203400    2.196713
  H      3.846655   -0.123811   -0.439250
  H      3.776622   -0.576985    1.331824
  H      2.776976   -2.847949    0.677902
  H      2.868253   -2.354957   -1.079813

 Total Charge           Charge          ....    0
 Multiplicity           Mult            ....    1
 Number of Electrons    NEL             ....   68
 Basis Dimension        Dim             ....  351

ORBITAL ENERGIES
----------------

  NO   OCC          E(Eh)            E(eV)
   0   2.0000     -20.543051      -559.0048
   1   2.0000     -11.284129      -307.0568
   2   2.0000     -11.283518      -307.0401
   3   2.0000     -11.229584      -305.5725
   4   2.0000     -11.224497      -305.4341
   5   2.0000     -11.221412      -305.3501
   6   2.0000     -11.220780      -305.3329
   7   2.0000     -11.219088      -305.2869
   8   2.0000     -11.216132      -305.2065
   9   2.0000      -1.380470       -37.5645
  10   2.0000      -1.125756       -30.6334
  11   2.0000      -1.108136       -30.1539
  12   2.0000      -0.989019       -26.9126
  13   2.0000      -0.927404       -25.2360
  14   2.0000      -0.848983       -23.1020
  15   2.0000      -0.826274       -22.4841
  16   2.0000      -0.776671       -21.1343
  17   2.0000      -0.693849       -18.8806
  18   2.0000      -0.675617       -18.3845
  19   2.0000      -0.665169       -18.1002
  20   2.0000      -0.637878       -17.3576
  21   2.0000      -0.610277       -16.6065
  22   2.0000      -0.582414       -15.8483
  23   2.0000      -0.566541       -15.4164
  24   2.0000      -0.547304       -14.8929
  25   2.0000      -0.524741       -14.2789
  26   2.0000      -0.519171       -14.1274
  27   2.0000      -0.510920       -13.9028
  28   2.0000      -0.473583       -12.8869
  29   2.0000      -0.469104       -12.7650
  30   2.0000      -0.452004       -12.2997
  31   2.0000      -0.427202       -11.6247
  32   2.0000      -0.391554       -10.6547
  33   2.0000      -0.363271        -9.8851
  34   0.0000       0.140279         3.8172
  35   0.0000       0.150797         4.1034
  36   0.0000       0.161608         4.3976
  37   0.0000       0.173436         4.7194
  38   0.0000       0.190428         5.1818

MULLIKEN ATOMIC CHARGES
-----------------------
   0 C :   -0.425725
   1 C :    0.195975
   2 C :   -0.234983
   3 C :   -0.258923
   4 C :   -0.013058
   5 C :    0.121891
   6 C :   -0.281361
   7 C :   -0.275012
   8 O :   -0.327001
   9 H :    0.137179
  10 H :    0.138863
  11 H :    0.125483
  12 H :    0.114472
  13 H :    0.115922
  14 H :    0.118255
  15 H :    0.114726
  16 H :    0.116747
  17 H :    0.132210
  18 H :    0.124529
  19 H :    0.127539
  20 H :    0.132269
Sum of atomic charges:    0.0000000

LOEWDIN ATOMIC CHARGES
----------------------
   0 C :   -0.274349
   1 C :   -0.285581
   2 C :   -0.194688
   3 C :   -0.212508
   4 C :   -0.134159
   5 C :   -0.291347
   6 C :   -0.207016
   7 C :   -0.210201
   8 O :    0.206566
   9 H :    0.130825
  10 H :    0.133778
  11 H :    0.129089
  12 H :    0.131775
  13 H :    0.135004
  14 H :    0.130699
  15 H :    0.129842
  16 H :    0.138894
  17 H :    0.138280
  18 H :    0.132494
  19 H :    0.133541
  20 H :    0.139060

  Mayer bond orders larger than 0.1
B(  0-C ,  1-C ) :   0.8926 B(  0-C ,  9-H ) :   0.9402 B(  0-C , 10-H ) :   0.9365
B(  0-C , 11-H ) :   0.9342 B(  1-C ,  2-C ) :   0.9116 B(  1-C ,  4-C ) :   0.9057
B(  1-C ,  8-O ) :   0.9063 B(  2-C ,  3-C ) :   0.9928 B(  2-C , 12-H ) :   0.9154
B(  2-C , 13-H ) :   0.9028 B(  3-C ,  4-C ) :   0.9273 B(  3-C , 14-H ) :   0.9210
B(  3-C , 15-H ) :   0.9182 B(  4-C ,  5-C ) :   0.9175 B(  4-C , 16-H ) :   0.9007
B(  5-C ,  6-C ) :   0.8622 B(  5-C ,  7-C ) :   0.8434 B(  5-C ,  8-O ) :   0.9603
B(  6-C ,  7-C ) :   0.9332 B(  6-C , 17-H ) :   0.9153 B(  6-C , 18-H ) :   0.9147
B(  7-C , 19-H ) :   0.9157 B(  7-C , 20-H ) :   0.9138

MP2 TOTAL ENERGY:     -386.366546001 Eh
FINAL SINGLE POINT ENERGY      -386.366546001497

DIPOLE MOMENT
-------------
                                X             Y             Z
Electronic contribution:      1.52277      -0.24968      -1.65357
Nuclear contribution   :     -1.73885       0.22736       2.27989
                        -----------------------------------------
Total Dipole Moment    :     -0.21609      -0.02232       0.62631
                        -----------------------------------------
Magnitude (a.u.)       :      0.66292
Magnitude (Debye)      :      1.68500

                             ****ORCA TERMINATED NORMALLY****
TOTAL RUN TIME: 0 days 0 hours 18 minutes 45 seconds 376 msec
