                         Program Version 3.0.3 - RELEASE   -
|  1> ! RI-MP2 RIJK def2-TZVP def2-TZVP/C def2-TZVP/JK TIGHTSCF
|  2> % maxcore 2000
|  3> % mp2 density relaxed end
|  4> *xyz 0 1
|  5>  O        0.1610628818     1.4142350964    -0.0509719217
|  6>  C        0.1215597198     0.0101129989     0.0526872131
|  7>  C       -1.3259008866    -0.4939879624     0.0795256622
|  8>  O       -2.0334737432     0.0558234114    -1.0278961351
|  9>  C       -1.4270163752    -2.0171300939     0.1030067247
| 10>  C       -2.8480432319    -2.6416495056    -0.0201258560
| 11>  C       -2.3030524241    -3.3627063824    -1.2721037363
| 12>  O       -2.6855071078    -4.2110589286    -2.0259968519
| 13>  N       -1.1063736171    -2.6579034802    -1.1932053678
| 14>  H       -0.5207003296     1.6416059626    -0.6971388730
| 15>  H        0.6562072423    -0.4717649247    -0.7871505160
| 16>  H        0.6412908668    -0.2690999217     0.9764884344
| 17>  H       -1.8178608236    -0.0921659989     0.9733863891
| 18>  H       -1.7963921749    -0.4814115911    -1.7968662543
| 19>  H       -0.8485219732    -2.4236462756     0.9404423809
| 20>  H       -3.1467518250    -3.3135394454     0.7852812904
| 21>  H       -3.6399911789    -1.9210162772    -0.2278158508
| 22>  H       -0.2075767097    -2.9266562815    -1.5716560020
| 23> *
| 24>
| 25>                          ****END OF INPUT****

CARTESIAN COORDINATES (ANGSTROEM)
---------------------------------
  O      0.161063    1.414235   -0.050972
  C      0.121560    0.010113    0.052687
  C     -1.325901   -0.493988    0.079526
  O     -2.033474    0.055823   -1.027896
  C     -1.427016   -2.017130    0.103007
  C     -2.848043   -2.641650   -0.020126
  C     -2.303052   -3.362706   -1.272104
  O     -2.685507   -4.211059   -2.025997
  N     -1.106374   -2.657903   -1.193205
  H     -0.520700    1.641606   -0.697139
  H      0.656207   -0.471765   -0.787151
  H      0.641291   -0.269100    0.976488
  H     -1.817861   -0.092166    0.973386
  H     -1.796392   -0.481412   -1.796866
  H     -0.848522   -2.423646    0.940442
  H     -3.146752   -3.313539    0.785281
  H     -3.639991   -1.921016   -0.227816
  H     -0.207577   -2.926656   -1.571656

 Total Charge           Charge          ....    0
 Multiplicity           Mult            ....    1
 Number of Electrons    NEL             ....   70
 Basis Dimension        Dim             ....  333

ORBITAL ENERGIES
----------------

  NO   OCC          E(Eh)            E(eV)
   0   2.0000     -20.579180      -559.9879
   1   2.0000     -20.559902      -559.4634
   2   2.0000     -20.543359      -559.0132
   3   2.0000     -15.600451      -424.5099
   4   2.0000     -11.366360      -309.2944
   5   2.0000     -11.302440      -307.5550
   6   2.0000     -11.301331      -307.5249
   7   2.0000     -11.289499      -307.2029
   8   2.0000     -11.259794      -306.3946
   9   2.0000      -1.406230       -38.2655
  10   2.0000      -1.395285       -37.9676
  11   2.0000      -1.360723       -37.0271
  12   2.0000      -1.280247       -34.8373
  13   2.0000      -1.048994       -28.5446
  14   2.0000      -1.011068       -27.5126
  15   2.0000      -0.907116       -24.6839
  16   2.0000      -0.838174       -22.8079
  17   2.0000      -0.795905       -21.6577
  18   2.0000      -0.720713       -19.6116
  19   2.0000      -0.713362       -19.4116
  20   2.0000      -0.703110       -19.1326
  21   2.0000      -0.665063       -18.0973
  22   2.0000      -0.653275       -17.7765
  23   2.0000      -0.628926       -17.1139
  24   2.0000      -0.609359       -16.5815
  25   2.0000      -0.590289       -16.0626
  26   2.0000      -0.564974       -15.3737
  27   2.0000      -0.550310       -14.9747
  28   2.0000      -0.539916       -14.6919
  29   2.0000      -0.525453       -14.2983
  30   2.0000      -0.512555       -13.9473
  31   2.0000      -0.482237       -13.1223
  32   2.0000      -0.448962       -12.2169
  33   2.0000      -0.430730       -11.7207
  34   2.0000      -0.418079       -11.3765
  35   0.0000       0.116167         3.1611
  36   0.0000       0.140479         3.8226
  37   0.0000       0.144635         3.9357
  38   0.0000       0.156670         4.2632
  39   0.0000       0.173635         4.7248

MULLIKEN ATOMIC CHARGES
-----------------------
   0 O :   -0.474504
   1 C :   -0.006529
   2 C :    0.061201
   3 O :   -0.497266
   4 C :   -0.012457
   5 C :   -0.213148
   6 C :    0.219836
   7 O :   -0.289426
   8 N :   -0.413718
   9 H :    0.330937
  10 H :    0.079805
  11 H :    0.108681
  12 H :    0.113038
  13 H :    0.329380
  14 H :    0.128283
  15 H :    0.142836
  16 H :    0.150376
  17 H :    0.242675
Sum of atomic charges:   -0.0000000

LOEWDIN ATOMIC CHARGES
----------------------
   0 O :   -0.041274
   1 C :   -0.343321
   2 C :   -0.350189
   3 O :   -0.017023
   4 C :   -0.236819
   5 C :   -0.178400
   6 C :   -0.434151
   7 O :    0.121430
   8 N :    0.110567
   9 H :    0.179016
  10 H :    0.113967
  11 H :    0.130324
  12 H :    0.152971
  13 H :    0.179165
  14 H :    0.147963
  15 H :    0.143334
  16 H :    0.150589
  17 H :    0.171851

  Mayer bond orders larger than 0.1
B(  0-O ,  1-C ) :   0.9553 B(  0-O ,  9-H ) :   0.8230 B(  1-C ,  2-C ) :   0.9463
B(  1-C , 10-H ) :   0.9113 B(  1-C , 11-H ) :   0.9234 B(  2-C ,  3-O ) :   0.8699
B(  2-C ,  4-C ) :   0.9050 B(  2-C , 12-H ) :   0.9188 B(  3-O , 13-H ) :   0.8197
B(  4-C ,  5-C ) :   0.9120 B(  4-C ,  8-N ) :   0.8866 B(  4-C , 14-H ) :   0.9232
B(  5-C ,  6-C ) :   0.9013 B(  5-C , 15-H ) :   0.9089 B(  5-C , 16-H ) :   0.8887
B(  6-C ,  7-O ) :   2.0457 B(  6-C ,  8-N ) :   1.0714 B(  8-N , 17-H ) :   0.8591

MP2 TOTAL ENERGY:     -475.495269861 Eh
FINAL SINGLE POINT ENERGY      -475.495269860624

DIPOLE MOMENT
-------------
                                X             Y             Z
Electronic contribution:     -1.85002      -3.02363      -3.22018
Nuclear contribution   :      2.38524       2.85965       3.84340
                        -----------------------------------------
Total Dipole Moment    :      0.53521      -0.16398       0.62322
                        -----------------------------------------
Magnitude (a.u.)       :      0.83770
Magnitude (Debye)      :      2.12927

                             ****ORCA TERMINATED NORMALLY****
TOTAL RUN TIME: 0 days 0 hours 14 minutes 48 seconds 125 msec
