                         Program Version 3.0.3 - RELEASE   -
|  1> ! RI-MP2 RIJK def2-TZVP def2-TZVP/C def2-TZVP/JK TIGHTSCF
|  2> % maxcore 2000
|  3> % mp2 density relaxed end
|  4> *xyz 0 1
|  5>  C       -0.0643339972     1.6037831363    -0.1553631476
|  6>  C        1.5226005409     1.6996248721    -0.0277731697
|  7>  C        2.2911605868     1.7368424857     1.3648077395
|  8>  C        1.5579960231     0.3976147861     1.6588900862
|  9>  C        1.1202720317    -1.0218673003     2.1371926681
| 10>  C       -0.2330659016    -0.3673673251     1.6043667139
| 11>  O        0.2599832872     0.8596944864     2.1673311917
| 12>  C       -0.0597662733     0.0255392901     0.0805319428
| 13>  C        1.4531035936     0.1742744988     0.1054983126
| 14>  H       -0.6890343735     2.2147572895     0.4941679267
| 15>  H       -0.3149738459     1.8013353273    -1.2018642666
| 16>  H        2.0073441470     2.2227737157    -0.8527961350
| 17>  H        3.3620102987     1.6442054585     1.1617458810
| 18>  H        2.1140390350     2.5282599772     2.0967768270
| 19>  H        1.5592457956    -1.8904147381     1.6380335512
| 20>  H        1.0527425637    -1.1586861052     3.2166881972
| 21>  H       -1.2059123820    -0.6874604313     1.9831955995
| 22>  H       -0.5766812486    -0.5867027776    -0.6577981501
| 23>  H        2.1798983789    -0.5314079360    -0.2964149684
| 24> *
| 25>
| 26>                          ****END OF INPUT****

CARTESIAN COORDINATES (ANGSTROEM)
---------------------------------
  C     -0.064334    1.603783   -0.155363
  C      1.522601    1.699625   -0.027773
  C      2.291161    1.736842    1.364808
  C      1.557996    0.397615    1.658890
  C      1.120272   -1.021867    2.137193
  C     -0.233066   -0.367367    1.604367
  O      0.259983    0.859694    2.167331
  C     -0.059766    0.025539    0.080532
  C      1.453104    0.174274    0.105498
  H     -0.689034    2.214757    0.494168
  H     -0.314974    1.801335   -1.201864
  H      2.007344    2.222774   -0.852796
  H      3.362010    1.644205    1.161746
  H      2.114039    2.528260    2.096777
  H      1.559246   -1.890415    1.638034
  H      1.052743   -1.158686    3.216688
  H     -1.205912   -0.687460    1.983196
  H     -0.576681   -0.586703   -0.657798
  H      2.179898   -0.531408   -0.296415

 Total Charge           Charge          ....    0
 Multiplicity           Mult            ....    1
 Number of Electrons    NEL             ....   66
 Basis Dimension        Dim             ....  339

ORBITAL ENERGIES
----------------

  NO   OCC          E(Eh)            E(eV)
   0   2.0000     -20.537996      -558.8673
   1   2.0000     -11.290252      -307.2234
   2   2.0000     -11.287311      -307.1434
   3   2.0000     -11.243002      -305.9376
   4   2.0000     -11.237818      -305.7966
   5   2.0000     -11.229717      -305.5761
   6   2.0000     -11.228531      -305.5439
   7   2.0000     -11.226107      -305.4779
   8   2.0000     -11.217344      -305.2395
   9   2.0000      -1.396779       -38.0083
  10   2.0000      -1.152912       -31.3723
  11   2.0000      -1.028137       -27.9770
  12   2.0000      -1.005291       -27.3554
  13   2.0000      -0.887147       -24.1405
  14   2.0000      -0.866963       -23.5913
  15   2.0000      -0.828070       -22.5329
  16   2.0000      -0.743992       -20.2451
  17   2.0000      -0.711012       -19.3476
  18   2.0000      -0.676751       -18.4153
  19   2.0000      -0.657692       -17.8967
  20   2.0000      -0.638669       -17.3791
  21   2.0000      -0.604418       -16.4471
  22   2.0000      -0.565734       -15.3944
  23   2.0000      -0.533513       -14.5176
  24   2.0000      -0.521963       -14.2033
  25   2.0000      -0.517515       -14.0823
  26   2.0000      -0.487993       -13.2790
  27   2.0000      -0.452364       -12.3094
  28   2.0000      -0.441798       -12.0219
  29   2.0000      -0.435335       -11.8461
  30   2.0000      -0.423402       -11.5214
  31   2.0000      -0.408655       -11.1201
  32   2.0000      -0.359308        -9.7773
  33   0.0000       0.143861         3.9147
  34   0.0000       0.158160         4.3038
  35   0.0000       0.160879         4.3777
  36   0.0000       0.179047         4.8721
  37   0.0000       0.193088         5.2542

MULLIKEN ATOMIC CHARGES
-----------------------
   0 C :   -0.219188
   1 C :   -0.136706
   2 C :   -0.246032
   3 C :    0.115985
   4 C :   -0.181431
   5 C :   -0.016048
   6 O :   -0.299249
   7 C :   -0.108753
   8 C :   -0.104150
   9 H :    0.122783
  10 H :    0.114397
  11 H :    0.110630
  12 H :    0.118938
  13 H :    0.125339
  14 H :    0.113324
  15 H :    0.123573
  16 H :    0.125112
  17 H :    0.117788
  18 H :    0.123690
Sum of atomic charges:    0.0000000

LOEWDIN ATOMIC CHARGES
----------------------
   0 C :   -0.185196
   1 C :   -0.169890
   2 C :   -0.185626
   3 C :   -0.235245
   4 C :   -0.188300
   5 C :   -0.231088
   6 O :    0.210117
   7 C :   -0.180941
   8 C :   -0.154622
   9 H :    0.127173
  10 H :    0.136184
  11 H :    0.129261
  12 H :    0.140728
  13 H :    0.130682
  14 H :    0.124936
  15 H :    0.135759
  16 H :    0.125271
  17 H :    0.132312
  18 H :    0.138485

  Mayer bond orders larger than 0.1
B(  0-C ,  1-C ) :   0.9476 B(  0-C ,  7-C ) :   0.9430 B(  0-C ,  9-H ) :   0.8956
B(  0-C , 10-H ) :   0.9155 B(  1-C ,  2-C ) :   0.9261 B(  1-C ,  8-C ) :   0.9128
B(  1-C , 11-H ) :   0.9267 B(  2-C ,  3-C ) :   0.8998 B(  2-C , 12-H ) :   0.9091
B(  2-C , 13-H ) :   0.9034 B(  3-C ,  4-C ) :   0.9101 B(  3-C ,  6-O ) :   0.8777
B(  3-C ,  8-C ) :   0.8764 B(  4-C ,  5-C ) :   0.9521 B(  4-C , 14-H ) :   0.9079
B(  4-C , 15-H ) :   0.9107 B(  5-C ,  6-O ) :   0.9287 B(  5-C ,  7-C ) :   0.8901
B(  5-C , 16-H ) :   0.9045 B(  7-C ,  8-C ) :   0.9406 B(  7-C , 17-H ) :   0.9140
B(  8-C , 18-H ) :   0.9024

MP2 TOTAL ENERGY:     -385.099949351 Eh
FINAL SINGLE POINT ENERGY      -385.099949351368

DIPOLE MOMENT
-------------
                                X             Y             Z
Electronic contribution:     -0.63898      -0.24705       1.98389
Nuclear contribution   :      0.84028      -0.18775      -2.36247
                        -----------------------------------------
Total Dipole Moment    :      0.20131      -0.43479      -0.37858
                        -----------------------------------------
Magnitude (a.u.)       :      0.61065
Magnitude (Debye)      :      1.55215

                             ****ORCA TERMINATED NORMALLY****
TOTAL RUN TIME: 0 days 0 hours 21 minutes 34 seconds 204 msec
