                         Program Version 3.0.3 - RELEASE   -
|  1> ! RI-MP2 RIJK def2-TZVP def2-TZVP/C def2-TZVP/JK TIGHTSCF
|  2> % maxcore 2000
|  3> % mp2 density relaxed end
|  4> *xyz 0 1
|  5>  C       -0.5985244248     0.8125693082     0.1017951582
|  6>  O        0.0212280431    -0.4514780720    -0.0782880884
|  7>  C        0.8824319824    -0.5151559583    -1.2064368669
|  8>  C        1.6886101886    -1.8189684589    -1.1895223924
|  9>  N        1.0464888891    -2.8073074845    -2.0992566147
| 10>  C       -0.3602038681    -3.0168530011    -1.7988788602
| 11>  C        0.0389573932    -2.0745152619    -2.8982352314
| 12>  C        0.0500285996    -0.6321754227    -2.5142988990
| 13>  O       -0.4622337171     0.2852558276    -3.1072287469
| 14>  H        0.1553023998     1.6030096401     0.2338071523
| 15>  H       -1.2399832655     1.0823035786    -0.7449260855
| 16>  H       -1.2024127736     0.7383572217     1.0088431203
| 17>  H        1.5205053553     0.3779563265    -1.2497644039
| 18>  H        2.6976736372    -1.6400169419    -1.5720870169
| 19>  H        1.7651471486    -2.2297907145    -0.1801194808
| 20>  H       -0.7542091414    -3.9862855108    -2.0895893533
| 21>  H       -0.7715692798    -2.5930335106    -0.8874618668
| 22>  H       -0.1026292167    -2.3417530457    -3.9393196337
| 23> *
| 24>
| 25>                          ****END OF INPUT****

CARTESIAN COORDINATES (ANGSTROEM)
---------------------------------
  C     -0.598524    0.812569    0.101795
  O      0.021228   -0.451478   -0.078288
  C      0.882432   -0.515156   -1.206437
  C      1.688610   -1.818968   -1.189522
  N      1.046489   -2.807307   -2.099257
  C     -0.360204   -3.016853   -1.798879
  C      0.038957   -2.074515   -2.898235
  C      0.050029   -0.632175   -2.514299
  O     -0.462234    0.285256   -3.107229
  H      0.155302    1.603010    0.233807
  H     -1.239983    1.082304   -0.744926
  H     -1.202413    0.738357    1.008843
  H      1.520505    0.377956   -1.249764
  H      2.697674   -1.640017   -1.572087
  H      1.765147   -2.229791   -0.180119
  H     -0.754209   -3.986286   -2.089589
  H     -0.771569   -2.593034   -0.887462
  H     -0.102629   -2.341753   -3.939320

 Total Charge           Charge          ....    0
 Multiplicity           Mult            ....    1
 Number of Electrons    NEL             ....   68
 Basis Dimension        Dim             ....  333

ORBITAL ENERGIES
----------------

  NO   OCC          E(Eh)            E(eV)
   0   2.0000     -20.576191      -559.9066
   1   2.0000     -20.559790      -559.4603
   2   2.0000     -15.582702      -424.0269
   3   2.0000     -11.339456      -308.5623
   4   2.0000     -11.301957      -307.5419
   5   2.0000     -11.277374      -306.8729
   6   2.0000     -11.274307      -306.7895
   7   2.0000     -11.273589      -306.7700
   8   2.0000     -11.268603      -306.6343
   9   2.0000      -1.408858       -38.3370
  10   2.0000      -1.385823       -37.7102
  11   2.0000      -1.301072       -35.4040
  12   2.0000      -1.055145       -28.7119
  13   2.0000      -0.981859       -26.7177
  14   2.0000      -0.930636       -25.3239
  15   2.0000      -0.870344       -23.6833
  16   2.0000      -0.821150       -22.3446
  17   2.0000      -0.774081       -21.0638
  18   2.0000      -0.703161       -19.1340
  19   2.0000      -0.677551       -18.4371
  20   2.0000      -0.664273       -18.0758
  21   2.0000      -0.648777       -17.6541
  22   2.0000      -0.629436       -17.1278
  23   2.0000      -0.590909       -16.0795
  24   2.0000      -0.587889       -15.9973
  25   2.0000      -0.582963       -15.8632
  26   2.0000      -0.550384       -14.9767
  27   2.0000      -0.535908       -14.5828
  28   2.0000      -0.505025       -13.7424
  29   2.0000      -0.497780       -13.5453
  30   2.0000      -0.470538       -12.8040
  31   2.0000      -0.459735       -12.5100
  32   2.0000      -0.401685       -10.9304
  33   2.0000      -0.387637       -10.5481
  34   0.0000       0.115452         3.1416
  35   0.0000       0.147541         4.0148
  36   0.0000       0.162866         4.4318
  37   0.0000       0.174017         4.7352
  38   0.0000       0.177196         4.8217

MULLIKEN ATOMIC CHARGES
-----------------------
   0 C :   -0.231662
   1 O :   -0.317758
   2 C :    0.136400
   3 C :   -0.153474
   4 N :   -0.209848
   5 C :   -0.194016
   6 C :   -0.056020
   7 C :    0.082014
   8 O :   -0.270616
   9 H :    0.115244
  10 H :    0.143203
  11 H :    0.140452
  12 H :    0.102351
  13 H :    0.136273
  14 H :    0.133297
  15 H :    0.138501
  16 H :    0.158449
  17 H :    0.147210
Sum of atomic charges:    0.0000000

LOEWDIN ATOMIC CHARGES
----------------------
   0 C :   -0.343892
   1 O :    0.150490
   2 C :   -0.289720
   3 C :   -0.238452
   4 N :    0.116850
   5 C :   -0.225063
   6 C :   -0.208098
   7 C :   -0.293599
   8 O :    0.159908
   9 H :    0.105353
  10 H :    0.109642
  11 H :    0.114041
  12 H :    0.143970
  13 H :    0.140404
  14 H :    0.141079
  15 H :    0.131964
  16 H :    0.135598
  17 H :    0.149525

  Mayer bond orders larger than 0.1
B(  0-C ,  1-O ) :   0.8895 B(  0-C ,  9-H ) :   0.9370 B(  0-C , 10-H ) :   0.9299
B(  0-C , 11-H ) :   0.9362 B(  1-O ,  2-C ) :   0.9207 B(  2-C ,  3-C ) :   0.9051
B(  2-C ,  6-C ) :  -0.1026 B(  2-C ,  7-C ) :   0.8284 B(  2-C , 12-H ) :   0.9094
B(  3-C ,  4-N ) :   0.9187 B(  3-C , 13-H ) :   0.9261 B(  3-C , 14-H ) :   0.9346
B(  4-N ,  5-C ) :   0.8972 B(  4-N ,  6-C ) :   0.8980 B(  5-C ,  6-C ) :   0.8881
B(  5-C , 15-H ) :   0.9234 B(  5-C , 16-H ) :   0.9020 B(  6-C ,  7-C ) :   0.9795
B(  6-C , 17-H ) :   0.9085 B(  7-C ,  8-O ) :   1.9824

MP2 TOTAL ENERGY:     -438.340267247 Eh
FINAL SINGLE POINT ENERGY      -438.340267246527

DIPOLE MOMENT
-------------
                                X             Y             Z
Electronic contribution:      0.17646      -0.79423      -4.14599
Nuclear contribution   :     -0.06944       0.75549       4.70955
                        -----------------------------------------
Total Dipole Moment    :      0.10702      -0.03874       0.56356
                        -----------------------------------------
Magnitude (a.u.)       :      0.57494
Magnitude (Debye)      :      1.46137

                             ****ORCA TERMINATED NORMALLY****
TOTAL RUN TIME: 0 days 0 hours 30 minutes 48 seconds 627 msec
