                         Program Version 3.0.3 - RELEASE   -
|  1> ! RI-MP2 RIJK def2-TZVP def2-TZVP/C def2-TZVP/JK TIGHTSCF
|  2> % maxcore 2000
|  3> % mp2 density relaxed end
|  4> *xyz 0 1
|  5>  C       -0.0771282025     1.6124383455     0.0312051979
|  6>  C        0.0150420627     0.0959120435     0.0590696932
|  7>  C       -1.2525772979    -0.5885969735    -0.4408442953
|  8>  O       -1.5393860023    -0.3240206051    -1.8073029075
|  9>  C        1.2640800454    -0.6759299199    -0.2662471180
| 10>  C        2.5278242747     0.0359657381     0.2279223454
| 11>  C        1.9655073409    -0.0670904242     1.6903833790
| 12>  O        1.7918197429     1.1024176789     2.4662312613
| 13>  C        0.6817684853    -0.6940671201     1.1628326411
| 14>  H        0.7704320829     2.0924001097     0.5172226346
| 15>  H       -0.1371373272     1.9804000651    -1.0006543137
| 16>  H       -0.9772864129     1.9454728105     0.5623628800
| 17>  H       -1.1439693262    -1.6759573861    -0.3700120028
| 18>  H       -2.1008307782    -0.3006941282     0.2010466550
| 19>  H       -1.7738589386     0.6055022970    -1.8849107643
| 20>  H        1.2531566839    -1.4732143574    -0.9995363298
| 21>  H        3.4426598504    -0.5449136760     0.0899042754
| 22>  H        2.6918193794     1.0478862203    -0.1533154378
| 23>  H        2.5381977778    -0.8166126857     2.2531032115
| 24>  H        2.6560948179     1.3796750965     2.7869928026
| 25>  H        0.1499477313    -1.4890048189     1.6747836622
| 26> *
| 27>
| 28>                          ****END OF INPUT****

CARTESIAN COORDINATES (ANGSTROEM)
---------------------------------
  C     -0.077128    1.612438    0.031205
  C      0.015042    0.095912    0.059070
  C     -1.252577   -0.588597   -0.440844
  O     -1.539386   -0.324021   -1.807303
  C      1.264080   -0.675930   -0.266247
  C      2.527824    0.035966    0.227922
  C      1.965507   -0.067090    1.690383
  O      1.791820    1.102418    2.466231
  C      0.681768   -0.694067    1.162833
  H      0.770432    2.092400    0.517223
  H     -0.137137    1.980400   -1.000654
  H     -0.977286    1.945473    0.562363
  H     -1.143969   -1.675957   -0.370012
  H     -2.100831   -0.300694    0.201047
  H     -1.773859    0.605502   -1.884911
  H      1.253157   -1.473214   -0.999536
  H      3.442660   -0.544914    0.089904
  H      2.691819    1.047886   -0.153315
  H      2.538198   -0.816613    2.253103
  H      2.656095    1.379675    2.786993
  H      0.149948   -1.489005    1.674784

 Total Charge           Charge          ....    0
 Multiplicity           Mult            ....    1
 Number of Electrons    NEL             ....   70
 Basis Dimension        Dim             ....  351

ORBITAL ENERGIES
----------------

  NO   OCC          E(Eh)            E(eV)
   0   2.0000     -20.557209      -559.3901
   1   2.0000     -20.550993      -559.2209
   2   2.0000     -11.286805      -307.1296
   3   2.0000     -11.272910      -306.7515
   4   2.0000     -11.238485      -305.8147
   5   2.0000     -11.232139      -305.6420
   6   2.0000     -11.229273      -305.5640
   7   2.0000     -11.226047      -305.4763
   8   2.0000     -11.210900      -305.0641
   9   2.0000      -1.364462       -37.1289
  10   2.0000      -1.355381       -36.8818
  11   2.0000      -1.189825       -32.3768
  12   2.0000      -1.026117       -27.9221
  13   2.0000      -0.943537       -25.6749
  14   2.0000      -0.901152       -24.5216
  15   2.0000      -0.890811       -24.2402
  16   2.0000      -0.743268       -20.2253
  17   2.0000      -0.739415       -20.1205
  18   2.0000      -0.711100       -19.3500
  19   2.0000      -0.683749       -18.6058
  20   2.0000      -0.670438       -18.2435
  21   2.0000      -0.625387       -17.0177
  22   2.0000      -0.591260       -16.0890
  23   2.0000      -0.587308       -15.9815
  24   2.0000      -0.573101       -15.5949
  25   2.0000      -0.559179       -15.2160
  26   2.0000      -0.545957       -14.8563
  27   2.0000      -0.535400       -14.5690
  28   2.0000      -0.506918       -13.7939
  29   2.0000      -0.483617       -13.1599
  30   2.0000      -0.471341       -12.8258
  31   2.0000      -0.438439       -11.9305
  32   2.0000      -0.425586       -11.5808
  33   2.0000      -0.395164       -10.7529
  34   2.0000      -0.377953       -10.2846
  35   0.0000       0.130355         3.5471
  36   0.0000       0.143042         3.8924
  37   0.0000       0.160292         4.3618
  38   0.0000       0.168169         4.5761
  39   0.0000       0.181636         4.9426

MULLIKEN ATOMIC CHARGES
-----------------------
   0 C :   -0.423820
   1 C :    0.092090
   2 C :   -0.077647
   3 O :   -0.468060
   4 C :   -0.141828
   5 C :   -0.243839
   6 C :    0.026716
   7 O :   -0.461015
   8 C :   -0.176702
   9 H :    0.155492
  10 H :    0.121267
  11 H :    0.130040
  12 H :    0.113016
  13 H :    0.119177
  14 H :    0.315745
  15 H :    0.140178
  16 H :    0.122758
  17 H :    0.117891
  18 H :    0.092912
  19 H :    0.314681
  20 H :    0.130948
Sum of atomic charges:    0.0000000

LOEWDIN ATOMIC CHARGES
----------------------
   0 C :   -0.270332
   1 C :   -0.248490
   2 C :   -0.297397
   3 O :   -0.043641
   4 C :   -0.140701
   5 C :   -0.204417
   6 C :   -0.307912
   7 O :   -0.021114
   8 C :   -0.131675
   9 H :    0.131846
  10 H :    0.121746
  11 H :    0.129777
  12 H :    0.136468
  13 H :    0.122450
  14 H :    0.171639
  15 H :    0.140847
  16 H :    0.132574
  17 H :    0.130119
  18 H :    0.135245
  19 H :    0.174372
  20 H :    0.138597

  Mayer bond orders larger than 0.1
B(  0-C ,  1-C ) :   0.8923 B(  0-C ,  9-H ) :   0.9273 B(  0-C , 10-H ) :   0.9371
B(  0-C , 11-H ) :   0.9345 B(  1-C ,  2-C ) :   0.9030 B(  1-C ,  4-C ) :   0.8578
B(  1-C ,  8-C ) :   0.8478 B(  2-C ,  3-O ) :   0.9537 B(  2-C , 12-H ) :   0.9159
B(  2-C , 13-H ) :   0.9534 B(  3-O , 14-H ) :   0.8490 B(  4-C ,  5-C ) :   0.9411
B(  4-C ,  8-C ) :   0.7852 B(  4-C , 15-H ) :   0.9254 B(  5-C ,  6-C ) :   0.9511
B(  5-C , 16-H ) :   0.9223 B(  5-C , 17-H ) :   0.9141 B(  6-C ,  7-O ) :   1.0854
B(  6-C ,  8-C ) :   0.8885 B(  6-C , 18-H ) :   0.9403 B(  7-O , 19-H ) :   0.8448
B(  8-C , 20-H ) :   0.9250

MP2 TOTAL ENERGY:     -423.490072456 Eh
FINAL SINGLE POINT ENERGY      -423.490072455678

DIPOLE MOMENT
-------------
                                X             Y             Z
Electronic contribution:      0.14843      -1.35814       0.80222
Nuclear contribution   :      0.48691       1.54904      -0.40214
                        -----------------------------------------
Total Dipole Moment    :      0.63534       0.19091       0.40008
                        -----------------------------------------
Magnitude (a.u.)       :      0.77470
Magnitude (Debye)      :      1.96914

                             ****ORCA TERMINATED NORMALLY****
TOTAL RUN TIME: 0 days 0 hours 18 minutes 21 seconds 60 msec
