                         Program Version 3.0.3 - RELEASE   -
|  1> ! RI-MP2 RIJK def2-TZVP def2-TZVP/C def2-TZVP/JK TIGHTSCF
|  2> % maxcore 2000
|  3> % mp2 density relaxed end
|  4> *xyz 0 1
|  5>  O        0.1606245086     1.3098052933     0.3065147266
|  6>  C        0.0344629804     0.0110305967    -0.2223305537
|  7>  C       -1.3929450609    -0.5039495569    -0.1156540282
|  8>  C       -1.6545379880    -1.9139798430     0.2478143472
|  9>  O       -1.7687171361    -0.8881639729     1.2257237647
| 10>  C       -2.3966061413     0.2333793074    -0.8397220730
| 11>  C       -3.2142176060     0.8579229865    -1.4728235840
| 12>  C       -4.1469000780     1.5575101098    -2.1825298528
| 13>  N       -4.9418392049     2.1493089872    -2.7886011820
| 14>  H       -0.0888220081     1.2704812122     1.2370408429
| 15>  H        0.3337171205     0.0696640580    -1.2733068983
| 16>  H        0.6909802674    -0.7114149600     0.2845705645
| 17>  H       -2.5895322591    -2.3754188742    -0.0618841080
| 18>  H       -0.8068752845    -2.5877847542     0.3638205143
| 19> *
| 20>
| 21>                          ****END OF INPUT****

CARTESIAN COORDINATES (ANGSTROEM)
---------------------------------
  O      0.160625    1.309805    0.306515
  C      0.034463    0.011031   -0.222331
  C     -1.392945   -0.503950   -0.115654
  C     -1.654538   -1.913980    0.247814
  O     -1.768717   -0.888164    1.225724
  C     -2.396606    0.233379   -0.839722
  C     -3.214218    0.857923   -1.472824
  C     -4.146900    1.557510   -2.182530
  N     -4.941839    2.149309   -2.788601
  H     -0.088822    1.270481    1.237041
  H      0.333717    0.069664   -1.273307
  H      0.690980   -0.711415    0.284571
  H     -2.589532   -2.375419   -0.061884
  H     -0.806875   -2.587785    0.363821

 Total Charge           Charge          ....    0
 Multiplicity           Mult            ....    1
 Number of Electrons    NEL             ....   64
 Basis Dimension        Dim             ....  309

ORBITAL ENERGIES
----------------

  NO   OCC          E(Eh)            E(eV)
   0   2.0000     -20.614341      -560.9447
   1   2.0000     -20.582560      -560.0799
   2   2.0000     -15.600764      -424.5184
   3   2.0000     -11.351675      -308.8948
   4   2.0000     -11.329389      -308.2884
   5   2.0000     -11.315989      -307.9237
   6   2.0000     -11.306717      -307.6714
   7   2.0000     -11.301047      -307.5171
   8   2.0000     -11.291142      -307.2476
   9   2.0000      -1.459340       -39.7106
  10   2.0000      -1.389439       -37.8086
  11   2.0000      -1.239952       -33.7408
  12   2.0000      -1.110873       -30.2284
  13   2.0000      -1.034121       -28.1399
  14   2.0000      -0.945559       -25.7300
  15   2.0000      -0.925963       -25.1967
  16   2.0000      -0.856971       -23.3194
  17   2.0000      -0.769764       -20.9463
  18   2.0000      -0.716011       -19.4837
  19   2.0000      -0.688149       -18.7255
  20   2.0000      -0.648525       -17.6472
  21   2.0000      -0.625094       -17.0097
  22   2.0000      -0.599655       -16.3175
  23   2.0000      -0.584228       -15.8977
  24   2.0000      -0.554558       -15.0903
  25   2.0000      -0.543327       -14.7847
  26   2.0000      -0.532530       -14.4909
  27   2.0000      -0.510576       -13.8935
  28   2.0000      -0.498098       -13.5539
  29   2.0000      -0.477769       -13.0008
  30   2.0000      -0.416558       -11.3351
  31   2.0000      -0.403889       -10.9904
  32   0.0000       0.078701         2.1415
  33   0.0000       0.087912         2.3922
  34   0.0000       0.131761         3.5854
  35   0.0000       0.144422         3.9299
  36   0.0000       0.152742         4.1563

MULLIKEN ATOMIC CHARGES
-----------------------
   0 O :   -0.458028
   1 C :   -0.007112
   2 C :   -0.145064
   3 C :   -0.042371
   4 O :   -0.307978
   5 C :    0.001856
   6 C :    0.367438
   7 C :   -0.217770
   8 N :   -0.035962
   9 H :    0.330384
  10 H :    0.129184
  11 H :    0.115561
  12 H :    0.140351
  13 H :    0.129513
Sum of atomic charges:   -0.0000000

LOEWDIN ATOMIC CHARGES
----------------------
   0 O :   -0.020083
   1 C :   -0.296133
   2 C :   -0.322287
   3 C :   -0.214575
   4 O :    0.182746
   5 C :    0.049741
   6 C :   -0.031054
   7 C :   -0.170656
   8 N :    0.106380
   9 H :    0.184300
  10 H :    0.142551
  11 H :    0.130800
  12 H :    0.131250
  13 H :    0.127020

  Mayer bond orders larger than 0.1
B(  0-O ,  1-C ) :   0.9367 B(  0-O ,  2-C ) :   0.1145 B(  0-O ,  9-H ) :   0.8347
B(  1-C ,  2-C ) :   0.9689 B(  1-C , 10-H ) :   0.9275 B(  1-C , 11-H ) :   0.9027
B(  2-C ,  3-C ) :   0.9823 B(  2-C ,  4-O ) :   0.8679 B(  2-C ,  5-C ) :   1.1365
B(  2-C ,  6-C ) :  -0.2379 B(  3-C ,  4-O ) :   0.9012 B(  3-C , 12-H ) :   0.9116
B(  3-C , 13-H ) :   0.9028 B(  5-C ,  6-C ) :   2.5313 B(  5-C ,  8-N ) :   0.1100
B(  6-C ,  7-C ) :   0.9685 B(  7-C ,  8-N ) :   2.7501

MP2 TOTAL ENERGY:     -435.907120305 Eh
FINAL SINGLE POINT ENERGY      -435.907120304576

DIPOLE MOMENT
-------------
                                X             Y             Z
Electronic contribution:     -6.10554       3.81525      -2.57815
Nuclear contribution   :      7.26895      -5.40689       3.17476
                        -----------------------------------------
Total Dipole Moment    :      1.16341      -1.59164       0.59661
                        -----------------------------------------
Magnitude (a.u.)       :      2.05980
Magnitude (Debye)      :      5.23560

                             ****ORCA TERMINATED NORMALLY****
TOTAL RUN TIME: 0 days 0 hours 12 minutes 30 seconds 273 msec
