                         Program Version 3.0.3 - RELEASE   -
|  1> ! RI-MP2 RIJK def2-TZVP def2-TZVP/C def2-TZVP/JK TIGHTSCF
|  2> % maxcore 2000
|  3> % mp2 density relaxed end
|  4> *xyz 0 1
|  5>  C        0.2613673508     1.5290967185    -0.3622066657
|  6>  C        0.0119423873     0.0703214964    -0.0408506688
|  7>  C       -1.1824538988    -0.5288199579    -0.7580051981
|  8>  N        1.2241983397    -0.7634933491     0.0978313434
|  9>  C        0.3745678030    -0.5215561583     1.2790190272
| 10>  C        1.0103603536     0.2471549682     2.4279635822
| 11>  O        0.0344244007     0.7138060229     3.3185272458
| 12>  C        1.9980633096    -0.6508545715     3.1483093703
| 13>  O        1.9025444274    -0.8737565138     4.3323158058
| 14>  H        1.1871169620     1.8921158433     0.0872755593
| 15>  H        0.3485996118     1.6649705678    -1.4459068789
| 16>  H       -0.5668222166     2.1522386738    -0.0087297735
| 17>  H       -1.0405884425    -0.4907160798    -1.8444010572
| 18>  H       -1.3405766405    -1.5735755885    -0.4710923785
| 19>  H       -2.0977487459     0.0253529115    -0.5242070082
| 20>  H        1.0638283507    -1.6986797473    -0.2682050274
| 21>  H       -0.2634078530    -1.3331258529     1.6276030605
| 22>  H        1.6020670142     1.0786595843     2.0106535462
| 23>  H        0.2864905455     0.3580449255     4.1861698398
| 24>  H        2.8010868710    -1.0893532030     2.5261207859
| 25> *
| 26>
| 27>                          ****END OF INPUT****

CARTESIAN COORDINATES (ANGSTROEM)
---------------------------------
  C      0.261367    1.529097   -0.362207
  C      0.011942    0.070321   -0.040851
  C     -1.182454   -0.528820   -0.758005
  N      1.224198   -0.763493    0.097831
  C      0.374568   -0.521556    1.279019
  C      1.010360    0.247155    2.427964
  O      0.034424    0.713806    3.318527
  C      1.998063   -0.650855    3.148309
  O      1.902544   -0.873757    4.332316
  H      1.187117    1.892116    0.087276
  H      0.348600    1.664971   -1.445907
  H     -0.566822    2.152239   -0.008730
  H     -1.040588   -0.490716   -1.844401
  H     -1.340577   -1.573576   -0.471092
  H     -2.097749    0.025353   -0.524207
  H      1.063828   -1.698680   -0.268205
  H     -0.263408   -1.333126    1.627603
  H      1.602067    1.078660    2.010654
  H      0.286491    0.358045    4.186170
  H      2.801087   -1.089353    2.526121

 Total Charge           Charge          ....    0
 Multiplicity           Mult            ....    1
 Number of Electrons    NEL             ....   70
 Basis Dimension        Dim             ....  345

ORBITAL ENERGIES
----------------

  NO   OCC          E(Eh)            E(eV)
   0   2.0000     -20.574878      -559.8709
   1   2.0000     -20.560611      -559.4827
   2   2.0000     -15.567548      -423.6145
   3   2.0000     -11.342654      -308.6493
   4   2.0000     -11.299678      -307.4799
   5   2.0000     -11.279577      -306.9329
   6   2.0000     -11.271698      -306.7185
   7   2.0000     -11.232870      -305.6619
   8   2.0000     -11.223936      -305.4188
   9   2.0000      -1.421025       -38.6681
  10   2.0000      -1.366895       -37.1951
  11   2.0000      -1.277641       -34.7664
  12   2.0000      -1.031809       -28.0769
  13   2.0000      -1.014080       -27.5945
  14   2.0000      -0.952493       -25.9187
  15   2.0000      -0.879101       -23.9215
  16   2.0000      -0.798185       -21.7197
  17   2.0000      -0.771018       -20.9805
  18   2.0000      -0.728968       -19.8362
  19   2.0000      -0.700055       -19.0495
  20   2.0000      -0.665227       -18.1017
  21   2.0000      -0.651702       -17.7337
  22   2.0000      -0.615933       -16.7604
  23   2.0000      -0.596158       -16.2223
  24   2.0000      -0.580672       -15.8009
  25   2.0000      -0.558974       -15.2105
  26   2.0000      -0.550546       -14.9811
  27   2.0000      -0.544495       -14.8165
  28   2.0000      -0.535602       -14.5745
  29   2.0000      -0.514507       -14.0004
  30   2.0000      -0.478727       -13.0268
  31   2.0000      -0.467839       -12.7306
  32   2.0000      -0.451604       -12.2888
  33   2.0000      -0.442089       -12.0299
  34   2.0000      -0.390846       -10.6354
  35   0.0000       0.115398         3.1401
  36   0.0000       0.131864         3.5882
  37   0.0000       0.156473         4.2579
  38   0.0000       0.168171         4.5762
  39   0.0000       0.171284         4.6609

MULLIKEN ATOMIC CHARGES
-----------------------
   0 C :   -0.389678
   1 C :    0.149694
   2 C :   -0.386303
   3 N :   -0.413596
   4 C :   -0.071076
   5 C :    0.080306
   6 O :   -0.478878
   7 C :    0.103745
   8 O :   -0.299655
   9 H :    0.132280
  10 H :    0.132138
  11 H :    0.138553
  12 H :    0.138788
  13 H :    0.124749
  14 H :    0.140439
  15 H :    0.220996
  16 H :    0.125015
  17 H :    0.101398
  18 H :    0.333265
  19 H :    0.117819
Sum of atomic charges:    0.0000000

LOEWDIN ATOMIC CHARGES
----------------------
   0 C :   -0.262843
   1 C :   -0.328016
   2 C :   -0.271245
   3 N :    0.024159
   4 C :   -0.224973
   5 C :   -0.353647
   6 O :    0.000895
   7 C :   -0.262594
   8 O :    0.123240
   9 H :    0.127445
  10 H :    0.130197
  11 H :    0.132310
  12 H :    0.128573
  13 H :    0.126422
  14 H :    0.133627
  15 H :    0.166822
  16 H :    0.145439
  17 H :    0.155937
  18 H :    0.182880
  19 H :    0.125373

  Mayer bond orders larger than 0.1
B(  0-C ,  1-C ) :   0.9036 B(  0-C ,  9-H ) :   0.9387 B(  0-C , 10-H ) :   0.9303
B(  0-C , 11-H ) :   0.9368 B(  1-C ,  2-C ) :   0.9260 B(  1-C ,  3-N ) :   0.8917
B(  1-C ,  4-C ) :   0.8919 B(  2-C , 12-H ) :   0.9386 B(  2-C , 13-H ) :   0.9254
B(  2-C , 14-H ) :   0.9275 B(  3-N ,  4-C ) :   0.9040 B(  3-N , 15-H ) :   0.8675
B(  4-C ,  5-C ) :   0.8281 B(  4-C , 16-H ) :   0.9045 B(  5-C ,  6-O ) :   1.1086
B(  5-C ,  7-C ) :   0.8902 B(  5-C , 17-H ) :   0.9427 B(  6-O , 18-H ) :   0.8033
B(  7-C ,  8-O ) :   1.9044 B(  7-C , 19-H ) :   0.9275

MP2 TOTAL ENERGY:     -439.556405223 Eh
FINAL SINGLE POINT ENERGY      -439.556405222892

DIPOLE MOMENT
-------------
                                X             Y             Z
Electronic contribution:      4.30076      -2.08213       9.32795
Nuclear contribution   :     -4.50846       1.76133     -10.25582
                        -----------------------------------------
Total Dipole Moment    :     -0.20770      -0.32080      -0.92787
                        -----------------------------------------
Magnitude (a.u.)       :      1.00349
Magnitude (Debye)      :      2.55067

                             ****ORCA TERMINATED NORMALLY****
TOTAL RUN TIME: 0 days 0 hours 19 minutes 52 seconds 304 msec
