                         Program Version 3.0.3 - RELEASE   -
|  1> ! RI-MP2 RIJK def2-TZVP def2-TZVP/C def2-TZVP/JK TIGHTSCF
|  2> % maxcore 2000
|  3> % mp2 density relaxed end
|  4> *xyz 0 1
|  5>  C        0.3242022485     1.5307322993     0.4616117012
|  6>  C       -0.0510185993     0.0900390316     0.0533840981
|  7>  C        0.2755329546    -0.8806625370     1.2055991086
|  8>  C       -1.5291334078    -0.0095788952    -0.3804742854
|  9>  N       -2.4820539000     0.3948061486     0.6433558833
| 10>  C       -3.1559114109    -0.4957112756     1.4207140840
| 11>  O       -2.9827891895    -1.6960185447     1.4185705083
| 12>  C        0.8331362872    -0.2795331548    -1.1304613935
| 13>  O        0.4464060054    -0.5311901805    -2.2424960611
| 14>  H        1.3898370158     1.6093118440     0.7006371821
| 15>  H        0.1043361749     2.2467509164    -0.3377889965
| 16>  H       -0.2361436430     1.8254810827     1.3540357257
| 17>  H       -0.2670237069    -0.5924378659     2.1095255578
| 18>  H       -0.0141753711    -1.9052292032     0.9589712086
| 19>  H        1.3462693265    -0.8638655150     1.4366550761
| 20>  H       -1.6862771915     0.6030442199    -1.2724262470
| 21>  H       -1.7616009743    -1.0423270921    -0.6471988692
| 22>  H       -2.7481509391     1.3640481550     0.7057987500
| 23>  H       -3.8955228511     0.0077430115     2.0750855290
| 24>  H        1.9220772715    -0.2937123848    -0.8859049802
| 25> *
| 26>
| 27>                          ****END OF INPUT****

CARTESIAN COORDINATES (ANGSTROEM)
---------------------------------
  C      0.324202    1.530732    0.461612
  C     -0.051019    0.090039    0.053384
  C      0.275533   -0.880663    1.205599
  C     -1.529133   -0.009579   -0.380474
  N     -2.482054    0.394806    0.643356
  C     -3.155911   -0.495711    1.420714
  O     -2.982789   -1.696019    1.418571
  C      0.833136   -0.279533   -1.130461
  O      0.446406   -0.531190   -2.242496
  H      1.389837    1.609312    0.700637
  H      0.104336    2.246751   -0.337789
  H     -0.236144    1.825481    1.354036
  H     -0.267024   -0.592438    2.109526
  H     -0.014175   -1.905229    0.958971
  H      1.346269   -0.863866    1.436655
  H     -1.686277    0.603044   -1.272426
  H     -1.761601   -1.042327   -0.647199
  H     -2.748151    1.364048    0.705799
  H     -3.895523    0.007743    2.075086
  H      1.922077   -0.293712   -0.885905

 Total Charge           Charge          ....    0
 Multiplicity           Mult            ....    1
 Number of Electrons    NEL             ....   70
 Basis Dimension        Dim             ....  345

ORBITAL ENERGIES
----------------

  NO   OCC          E(Eh)            E(eV)
   0   2.0000     -20.562189      -559.5256
   1   2.0000     -20.527013      -558.5684
   2   2.0000     -15.595558      -424.3767
   3   2.0000     -11.353593      -308.9470
   4   2.0000     -11.334266      -308.4210
   5   2.0000     -11.270458      -306.6847
   6   2.0000     -11.259582      -306.3888
   7   2.0000     -11.240727      -305.8757
   8   2.0000     -11.228574      -305.5450
   9   2.0000      -1.402306       -38.1587
  10   2.0000      -1.387844       -37.7652
  11   2.0000      -1.243177       -33.8286
  12   2.0000      -1.112924       -30.2842
  13   2.0000      -0.962649       -26.1950
  14   2.0000      -0.952389       -25.9158
  15   2.0000      -0.881669       -23.9914
  16   2.0000      -0.817538       -22.2463
  17   2.0000      -0.765442       -20.8287
  18   2.0000      -0.732433       -19.9305
  19   2.0000      -0.679744       -18.4968
  20   2.0000      -0.666195       -18.1281
  21   2.0000      -0.639974       -17.4146
  22   2.0000      -0.617491       -16.8028
  23   2.0000      -0.610576       -16.6146
  24   2.0000      -0.591964       -16.1082
  25   2.0000      -0.571411       -15.5489
  26   2.0000      -0.562280       -15.3004
  27   2.0000      -0.544332       -14.8120
  28   2.0000      -0.534001       -14.5309
  29   2.0000      -0.525287       -14.2938
  30   2.0000      -0.499689       -13.5972
  31   2.0000      -0.481918       -13.1137
  32   2.0000      -0.437492       -11.9048
  33   2.0000      -0.423592       -11.5265
  34   2.0000      -0.394915       -10.7462
  35   0.0000       0.113896         3.0993
  36   0.0000       0.129848         3.5333
  37   0.0000       0.144415         3.9297
  38   0.0000       0.162046         4.4095
  39   0.0000       0.174455         4.7472

MULLIKEN ATOMIC CHARGES
-----------------------
   0 C :   -0.466239
   1 C :    0.159805
   2 C :   -0.422961
   3 C :   -0.174514
   4 N :   -0.337854
   5 C :    0.190198
   6 O :   -0.363962
   7 C :    0.066911
   8 O :   -0.260104
   9 H :    0.144025
  10 H :    0.144925
  11 H :    0.137890
  12 H :    0.145033
  13 H :    0.158845
  14 H :    0.134547
  15 H :    0.161526
  16 H :    0.166938
  17 H :    0.245741
  18 H :    0.084319
  19 H :    0.084930
Sum of atomic charges:    0.0000000

LOEWDIN ATOMIC CHARGES
----------------------
   0 C :   -0.267691
   1 C :   -0.333630
   2 C :   -0.258732
   3 C :   -0.230653
   4 N :    0.089445
   5 C :   -0.442640
   6 O :    0.059097
   7 C :   -0.253479
   8 O :    0.143483
   9 H :    0.130865
  10 H :    0.128811
  11 H :    0.127536
  12 H :    0.133383
  13 H :    0.135690
  14 H :    0.127104
  15 H :    0.143867
  16 H :    0.154921
  17 H :    0.183847
  18 H :    0.110103
  19 H :    0.118674

  Mayer bond orders larger than 0.1
B(  0-C ,  1-C ) :   0.8729 B(  0-C ,  9-H ) :   0.9286 B(  0-C , 10-H ) :   0.9336
B(  0-C , 11-H ) :   0.9315 B(  1-C ,  2-C ) :   0.9308 B(  1-C ,  3-C ) :   0.8841
B(  1-C ,  7-C ) :   0.8396 B(  2-C , 12-H ) :   0.9258 B(  2-C , 13-H ) :   0.9261
B(  2-C , 14-H ) :   0.9244 B(  3-C ,  4-N ) :   0.8256 B(  3-C , 15-H ) :   0.9329
B(  3-C , 16-H ) :   0.9235 B(  4-N ,  5-C ) :   1.1637 B(  4-N , 17-H ) :   0.8726
B(  5-C ,  6-O ) :   1.8787 B(  5-C , 18-H ) :   0.9315 B(  7-C ,  8-O ) :   1.9980
B(  7-C , 19-H ) :   0.9497

MP2 TOTAL ENERGY:     -439.605630063 Eh
FINAL SINGLE POINT ENERGY      -439.605630063161

DIPOLE MOMENT
-------------
                                X             Y             Z
Electronic contribution:     -3.87806      -3.36537      -3.48313
Nuclear contribution   :      4.15785       4.96251       4.06915
                        -----------------------------------------
Total Dipole Moment    :      0.27979       1.59713       0.58603
                        -----------------------------------------
Magnitude (a.u.)       :      1.72411
Magnitude (Debye)      :      4.38233

                             ****ORCA TERMINATED NORMALLY****
TOTAL RUN TIME: 0 days 0 hours 20 minutes 3 seconds 833 msec
