                         Program Version 3.0.3 - RELEASE   -
|  1> ! RI-MP2 RIJK def2-TZVP def2-TZVP/C def2-TZVP/JK TIGHTSCF
|  2> % maxcore 2000
|  3> % mp2 density relaxed end
|  4> *xyz 0 1
|  5>  C        0.5867280363     1.4244273128     0.1152681896
|  6>  C       -0.1369494017     0.0935324276    -0.0431283323
|  7>  O       -1.5222223132     0.2727228235    -0.2486139826
|  8>  C        0.5692328539    -0.9044969862    -1.0209893047
|  9>  C        1.1632145343    -1.6466381818     0.2061193539
| 10>  O        2.4934089690    -1.2014435758     0.4047460843
| 11>  C        0.1141083088    -0.9196057523     1.1049667836
| 12>  C        1.1049000424    -3.1131421565     0.1983770620
| 13>  N        1.0627697136    -4.2683712587     0.2181580630
| 14>  H        1.6488366098     1.2679601055     0.3169912007
| 15>  H        0.5032703924     2.0188203608    -0.8036238548
| 16>  H        0.1470742207     1.9974178343     0.9378371108
| 17>  H       -1.6455455783     0.9742479325    -0.8972432398
| 18>  H       -0.1680980595    -1.5129130920    -1.5461153791
| 19>  H        1.3172137003    -0.5203457627    -1.7172443784
| 20>  H        2.7961580715    -1.5227320030     1.2623220984
| 21>  H        0.4910107518    -0.5366061405     2.0563975880
| 22>  H       -0.7748583121    -1.5301153075     1.2725836375
| 23> *
| 24>
| 25>                          ****END OF INPUT****

CARTESIAN COORDINATES (ANGSTROEM)
---------------------------------
  C      0.586728    1.424427    0.115268
  C     -0.136949    0.093532   -0.043128
  O     -1.522222    0.272723   -0.248614
  C      0.569233   -0.904497   -1.020989
  C      1.163215   -1.646638    0.206119
  O      2.493409   -1.201444    0.404746
  C      0.114108   -0.919606    1.104967
  C      1.104900   -3.113142    0.198377
  N      1.062770   -4.268371    0.218158
  H      1.648837    1.267960    0.316991
  H      0.503270    2.018820   -0.803624
  H      0.147074    1.997418    0.937837
  H     -1.645546    0.974248   -0.897243
  H     -0.168098   -1.512913   -1.546115
  H      1.317214   -0.520346   -1.717244
  H      2.796158   -1.522732    1.262322
  H      0.491011   -0.536606    2.056398
  H     -0.774858   -1.530115    1.272584

 Total Charge           Charge          ....    0
 Multiplicity           Mult            ....    1
 Number of Electrons    NEL             ....   68
 Basis Dimension        Dim             ....  333

ORBITAL ENERGIES
----------------

  NO   OCC          E(Eh)            E(eV)
   0   2.0000     -20.593287      -560.3718
   1   2.0000     -20.571664      -559.7834
   2   2.0000     -15.577309      -423.8801
   3   2.0000     -11.344565      -308.7013
   4   2.0000     -11.309113      -307.7366
   5   2.0000     -11.274286      -306.7889
   6   2.0000     -11.249897      -306.1253
   7   2.0000     -11.247451      -306.0587
   8   2.0000     -11.232349      -305.6478
   9   2.0000      -1.405591       -38.2481
  10   2.0000      -1.382466       -37.6188
  11   2.0000      -1.222219       -33.2583
  12   2.0000      -1.146639       -31.2016
  13   2.0000      -1.005521       -27.3616
  14   2.0000      -0.942038       -25.6342
  15   2.0000      -0.911000       -24.7896
  16   2.0000      -0.786512       -21.4021
  17   2.0000      -0.764559       -20.8047
  18   2.0000      -0.705025       -19.1847
  19   2.0000      -0.676337       -18.4041
  20   2.0000      -0.637980       -17.3603
  21   2.0000      -0.626825       -17.0568
  22   2.0000      -0.610068       -16.6008
  23   2.0000      -0.586157       -15.9502
  24   2.0000      -0.580147       -15.7866
  25   2.0000      -0.561654       -15.2834
  26   2.0000      -0.546458       -14.8699
  27   2.0000      -0.531401       -14.4601
  28   2.0000      -0.519610       -14.1393
  29   2.0000      -0.496773       -13.5179
  30   2.0000      -0.476763       -12.9734
  31   2.0000      -0.459150       -12.4941
  32   2.0000      -0.442268       -12.0347
  33   2.0000      -0.434986       -11.8366
  34   0.0000       0.114698         3.1211
  35   0.0000       0.126469         3.4414
  36   0.0000       0.158628         4.3165
  37   0.0000       0.164777         4.4838
  38   0.0000       0.171545         4.6680

MULLIKEN ATOMIC CHARGES
-----------------------
   0 C :   -0.487800
   1 C :    0.245834
   2 O :   -0.447653
   3 C :   -0.237092
   4 C :    0.339876
   5 O :   -0.456205
   6 C :   -0.271223
   7 C :   -0.265816
   8 N :   -0.047633
   9 H :    0.158887
  10 H :    0.126054
  11 H :    0.144045
  12 H :    0.316769
  13 H :    0.142884
  14 H :    0.134167
  15 H :    0.329652
  16 H :    0.131435
  17 H :    0.143819
Sum of atomic charges:   -0.0000000

LOEWDIN ATOMIC CHARGES
----------------------
   0 C :   -0.280829
   1 C :   -0.382858
   2 O :    0.011908
   3 C :   -0.141955
   4 C :   -0.351106
   5 O :    0.035814
   6 C :   -0.143127
   7 C :   -0.156283
   8 N :    0.070557
   9 H :    0.135556
  10 H :    0.125149
  11 H :    0.129541
  12 H :    0.178353
  13 H :    0.151278
  14 H :    0.140734
  15 H :    0.186068
  16 H :    0.136139
  17 H :    0.155061

  Mayer bond orders larger than 0.1
B(  0-C ,  1-C ) :   0.9203 B(  0-C ,  9-H ) :   0.9248 B(  0-C , 10-H ) :   0.9245
B(  0-C , 11-H ) :   0.9416 B(  1-C ,  2-O ) :   1.0972 B(  1-C ,  3-C ) :   0.8958
B(  1-C ,  6-C ) :   0.8530 B(  2-O , 12-H ) :   0.8388 B(  3-C ,  4-C ) :   0.8908
B(  3-C , 13-H ) :   0.9112 B(  3-C , 14-H ) :   0.9096 B(  4-C ,  5-O ) :   0.9229
B(  4-C ,  6-C ) :   0.8967 B(  4-C ,  7-C ) :   0.9152 B(  5-O , 15-H ) :   0.8329
B(  6-C , 16-H ) :   0.9205 B(  6-C , 17-H ) :   0.8904 B(  7-C ,  8-N ) :   2.8732

MP2 TOTAL ENERGY:     -438.375234136 Eh
FINAL SINGLE POINT ENERGY      -438.375234136122

DIPOLE MOMENT
-------------
                                X             Y             Z
Electronic contribution:      1.06094      -7.93056       0.15213
Nuclear contribution   :     -0.97470       9.55192      -0.04778
                        -----------------------------------------
Total Dipole Moment    :      0.08624       1.62136       0.10436
                        -----------------------------------------
Magnitude (a.u.)       :      1.62701
Magnitude (Debye)      :      4.13552

                             ****ORCA TERMINATED NORMALLY****
TOTAL RUN TIME: 0 days 0 hours 18 minutes 54 seconds 111 msec
