                         Program Version 3.0.3 - RELEASE   -
|  1> ! RI-MP2 RIJK def2-TZVP def2-TZVP/C def2-TZVP/JK TIGHTSCF
|  2> % maxcore 2000
|  3> % mp2 density relaxed end
|  4> *xyz 0 1
|  5>  C       -0.3414576562     1.7693374671     0.5405392633
|  6>  C       -0.0414221526     0.2771358375     0.3636472290
|  7>  C       -1.2048824921    -0.5368404259    -0.2163944752
|  8>  C       -1.6359172563    -0.0752703215    -1.6360875226
|  9>  C       -2.3545276718    -1.2259990940    -2.3546709421
| 10>  C       -1.3883894240    -2.3922181765    -2.6346939277
| 11>  C       -1.7944977099    -2.7856484844    -1.2022386786
| 12>  C       -0.9215372640    -2.0630495036    -0.1677114533
| 13>  O       -3.0459868842    -2.0503641917    -1.3669245547
| 14>  H        0.5071851135     2.2904185472     0.9945559249
| 15>  H       -0.5534174692     2.2571138324    -0.4162470146
| 16>  H       -1.2110974251     1.9222578627     1.1896273590
| 17>  H        0.8402566457     0.1528265507    -0.2808474675
| 18>  H        0.2345367241    -0.1508087314     1.3366837790
| 19>  H       -2.0788053007    -0.3768530880     0.4243719132
| 20>  H       -2.2936381178     0.7959072512    -1.5541975440
| 21>  H       -0.7711485186     0.2377820340    -2.2365446805
| 22>  H       -3.0262349912    -0.8926841226    -3.1501211605
| 23>  H       -1.7793553900    -3.0847807342    -3.3820886566
| 24>  H       -0.3387086740    -2.1638065755    -2.8352151369
| 25>  H       -1.9673425777    -3.8399589832    -0.9707248818
| 26>  H        0.1348715934    -2.2807869274    -0.3735116089
| 27>  H       -1.1268404814    -2.4336138727     0.8425843371
| 28> *
| 29>
| 30>                          ****END OF INPUT****

CARTESIAN COORDINATES (ANGSTROEM)
---------------------------------
  C     -0.341458    1.769337    0.540539
  C     -0.041422    0.277136    0.363647
  C     -1.204882   -0.536840   -0.216394
  C     -1.635917   -0.075270   -1.636088
  C     -2.354528   -1.225999   -2.354671
  C     -1.388389   -2.392218   -2.634694
  C     -1.794498   -2.785648   -1.202239
  C     -0.921537   -2.063050   -0.167711
  O     -3.045987   -2.050364   -1.366925
  H      0.507185    2.290419    0.994556
  H     -0.553417    2.257114   -0.416247
  H     -1.211097    1.922258    1.189627
  H      0.840257    0.152827   -0.280847
  H      0.234537   -0.150809    1.336684
  H     -2.078805   -0.376853    0.424372
  H     -2.293638    0.795907   -1.554198
  H     -0.771149    0.237782   -2.236545
  H     -3.026235   -0.892684   -3.150121
  H     -1.779355   -3.084781   -3.382089
  H     -0.338709   -2.163807   -2.835215
  H     -1.967343   -3.839959   -0.970725
  H      0.134872   -2.280787   -0.373512
  H     -1.126840   -2.433614    0.842584

 Total Charge           Charge          ....    0
 Multiplicity           Mult            ....    1
 Number of Electrons    NEL             ....   70
 Basis Dimension        Dim             ....  363

ORBITAL ENERGIES
----------------

  NO   OCC          E(Eh)            E(eV)
   0   2.0000     -20.537786      -558.8616
   1   2.0000     -11.278761      -306.9107
   2   2.0000     -11.278609      -306.9066
   3   2.0000     -11.224111      -305.4236
   4   2.0000     -11.222052      -305.3676
   5   2.0000     -11.218791      -305.2788
   6   2.0000     -11.218735      -305.2773
   7   2.0000     -11.218657      -305.2752
   8   2.0000     -11.211944      -305.0925
   9   2.0000      -1.372224       -37.3401
  10   2.0000      -1.096317       -29.8323
  11   2.0000      -1.025660       -27.9096
  12   2.0000      -1.001777       -27.2597
  13   2.0000      -0.974464       -26.5165
  14   2.0000      -0.864945       -23.5363
  15   2.0000      -0.830172       -22.5901
  16   2.0000      -0.781161       -21.2565
  17   2.0000      -0.719104       -19.5678
  18   2.0000      -0.697304       -18.9746
  19   2.0000      -0.643000       -17.4969
  20   2.0000      -0.614963       -16.7340
  21   2.0000      -0.606657       -16.5080
  22   2.0000      -0.590238       -16.0612
  23   2.0000      -0.577319       -15.7097
  24   2.0000      -0.539852       -14.6901
  25   2.0000      -0.534539       -14.5455
  26   2.0000      -0.531750       -14.4697
  27   2.0000      -0.512301       -13.9404
  28   2.0000      -0.493143       -13.4191
  29   2.0000      -0.474256       -12.9052
  30   2.0000      -0.467619       -12.7246
  31   2.0000      -0.461311       -12.5529
  32   2.0000      -0.441879       -12.0241
  33   2.0000      -0.421739       -11.4761
  34   2.0000      -0.393351       -10.7036
  35   0.0000       0.132276         3.5994
  36   0.0000       0.153907         4.1880
  37   0.0000       0.160377         4.3641
  38   0.0000       0.163982         4.4622
  39   0.0000       0.180870         4.9217

MULLIKEN ATOMIC CHARGES
-----------------------
   0 C :   -0.401934
   1 C :   -0.211946
   2 C :   -0.052928
   3 C :   -0.324396
   4 C :    0.153084
   5 C :   -0.308043
   6 C :    0.129800
   7 C :   -0.269203
   8 O :   -0.349037
   9 H :    0.134982
  10 H :    0.130147
  11 H :    0.125533
  12 H :    0.103052
  13 H :    0.113942
  14 H :    0.092344
  15 H :    0.126480
  16 H :    0.109505
  17 H :    0.116006
  18 H :    0.122831
  19 H :    0.114609
  20 H :    0.116133
  21 H :    0.109377
  22 H :    0.119661
Sum of atomic charges:    0.0000000

LOEWDIN ATOMIC CHARGES
----------------------
   0 C :   -0.318315
   1 C :   -0.278434
   2 C :   -0.242724
   3 C :   -0.222301
   4 C :   -0.267376
   5 C :   -0.208973
   6 C :   -0.267867
   7 C :   -0.221372
   8 O :    0.146714
   9 H :    0.120721
  10 H :    0.120105
  11 H :    0.121767
  12 H :    0.134570
  13 H :    0.138396
  14 H :    0.158262
  15 H :    0.139424
  16 H :    0.141624
  17 H :    0.130751
  18 H :    0.136181
  19 H :    0.127454
  20 H :    0.130664
  21 H :    0.141436
  22 H :    0.139294

  Mayer bond orders larger than 0.1
B(  0-C ,  1-C ) :   0.9201 B(  0-C ,  9-H ) :   0.9418 B(  0-C , 10-H ) :   0.9397
B(  0-C , 11-H ) :   0.9384 B(  1-C ,  2-C ) :   0.8984 B(  1-C , 12-H ) :   0.9269
B(  1-C , 13-H ) :   0.9371 B(  2-C ,  3-C ) :   0.9427 B(  2-C ,  7-C ) :   0.9516
B(  2-C , 14-H ) :   0.9237 B(  3-C ,  4-C ) :   0.9256 B(  3-C , 15-H ) :   0.9198
B(  3-C , 16-H ) :   0.9136 B(  4-C ,  5-C ) :   0.9351 B(  4-C ,  8-O ) :   0.9261
B(  4-C , 17-H ) :   0.9234 B(  5-C ,  6-C ) :   0.9344 B(  5-C , 18-H ) :   0.9205
B(  5-C , 19-H ) :   0.9255 B(  6-C ,  7-C ) :   0.9309 B(  6-C ,  8-O ) :   0.9288
B(  6-C , 20-H ) :   0.9229 B(  7-C , 21-H ) :   0.9179 B(  7-C , 22-H ) :   0.9154

MP2 TOTAL ENERGY:     -387.615791953 Eh
FINAL SINGLE POINT ENERGY      -387.615791953208

DIPOLE MOMENT
-------------
                                X             Y             Z
Electronic contribution:     -5.31176      -5.79544      -2.91015
Nuclear contribution   :      5.96132       5.88434       2.72933
                        -----------------------------------------
Total Dipole Moment    :      0.64956       0.08890      -0.18082
                        -----------------------------------------
Magnitude (a.u.)       :      0.68009
Magnitude (Debye)      :      1.72866

                             ****ORCA TERMINATED NORMALLY****
TOTAL RUN TIME: 0 days 0 hours 33 minutes 56 seconds 145 msec
