                         Program Version 3.0.3 - RELEASE   -
|  1> ! RI-MP2 RIJK def2-TZVP def2-TZVP/C def2-TZVP/JK TIGHTSCF
|  2> % maxcore 2000
|  3> % mp2 density relaxed end
|  4> *xyz 0 1
|  5>  C        0.1424065851     1.5457074936     0.1551766434
|  6>  C        0.0821445540     0.0199280371     0.0536625179
|  7>  C        0.6040163456    -0.5011376565    -1.2965986890
|  8>  O        1.9141632882    -0.0236043633    -1.5545467554
|  9>  C        0.5814358210    -2.0334484691    -1.3895095357
| 10>  C       -0.6978652640    -2.7471955481    -1.0168224834
| 11>  C        1.5372417682    -2.6888009168    -2.2925714713
| 12>  O        1.7888527953    -2.6321467164    -0.8758367188
| 13>  H        1.1624255870     1.9013890654    -0.0066871699
| 14>  H       -0.4976958022     2.0163174627    -0.5998749833
| 15>  H       -0.1945703356     1.8879389116     1.1381896170
| 16>  H        0.6782697877    -0.4355951885     0.8560207825
| 17>  H       -0.9498367015    -0.3190201491     0.2000488476
| 18>  H       -0.0272918069    -0.0986390018    -2.1009832014
| 19>  H        2.4990862493    -0.5964032681    -1.0376621310
| 20>  H       -1.5373127920    -2.3673296327    -1.6095864662
| 21>  H       -0.6036963613    -3.8200311140    -1.2005469514
| 22>  H       -0.9391995359    -2.6046724632     0.0400344583
| 23>  H        1.3112338324    -3.6824397844    -2.6758716416
| 24>  H        2.2037343356    -2.0830091884    -2.9000148084
| 25> *
| 26>
| 27>                          ****END OF INPUT****

CARTESIAN COORDINATES (ANGSTROEM)
---------------------------------
  C      0.142407    1.545707    0.155177
  C      0.082145    0.019928    0.053663
  C      0.604016   -0.501138   -1.296599
  O      1.914163   -0.023604   -1.554547
  C      0.581436   -2.033448   -1.389510
  C     -0.697865   -2.747196   -1.016822
  C      1.537242   -2.688801   -2.292571
  O      1.788853   -2.632147   -0.875837
  H      1.162426    1.901389   -0.006687
  H     -0.497696    2.016317   -0.599875
  H     -0.194570    1.887939    1.138190
  H      0.678270   -0.435595    0.856021
  H     -0.949837   -0.319020    0.200049
  H     -0.027292   -0.098639   -2.100983
  H      2.499086   -0.596403   -1.037662
  H     -1.537313   -2.367330   -1.609586
  H     -0.603696   -3.820031   -1.200547
  H     -0.939200   -2.604672    0.040034
  H      1.311234   -3.682440   -2.675872
  H      2.203734   -2.083009   -2.900015

 Total Charge           Charge          ....    0
 Multiplicity           Mult            ....    1
 Number of Electrons    NEL             ....   64
 Basis Dimension        Dim             ....  320

ORBITAL ENERGIES
----------------

  NO   OCC          E(Eh)            E(eV)
   0   2.0000     -20.571243      -559.7720
   1   2.0000     -20.550092      -559.1964
   2   2.0000     -11.296008      -307.3800
   3   2.0000     -11.284961      -307.0794
   4   2.0000     -11.281291      -306.9795
   5   2.0000     -11.231284      -305.6188
   6   2.0000     -11.222939      -305.3917
   7   2.0000     -11.209661      -305.0304
   8   2.0000      -1.416778       -38.5525
   9   2.0000      -1.355727       -36.8912
  10   2.0000      -1.063893       -28.9500
  11   2.0000      -1.014349       -27.6019
  12   2.0000      -0.928495       -25.2656
  13   2.0000      -0.911937       -24.8151
  14   2.0000      -0.825171       -22.4540
  15   2.0000      -0.779210       -21.2034
  16   2.0000      -0.714188       -19.4340
  17   2.0000      -0.660206       -17.9651
  18   2.0000      -0.646879       -17.6025
  19   2.0000      -0.619185       -16.8489
  20   2.0000      -0.594040       -16.1647
  21   2.0000      -0.585472       -15.9315
  22   2.0000      -0.570226       -15.5166
  23   2.0000      -0.558373       -15.1941
  24   2.0000      -0.525092       -14.2885
  25   2.0000      -0.518858       -14.1188
  26   2.0000      -0.515929       -14.0391
  27   2.0000      -0.483447       -13.1553
  28   2.0000      -0.478200       -13.0125
  29   2.0000      -0.465720       -12.6729
  30   2.0000      -0.443128       -12.0581
  31   2.0000      -0.415269       -11.3000
  32   0.0000       0.134999         3.6735
  33   0.0000       0.157334         4.2813
  34   0.0000       0.164832         4.4853
  35   0.0000       0.178448         4.8558
  36   0.0000       0.187146         5.0925

MULLIKEN ATOMIC CHARGES
-----------------------
   0 C :   -0.382799
   1 C :   -0.226735
   2 C :    0.093310
   3 O :   -0.481880
   4 C :    0.156550
   5 C :   -0.434218
   6 C :   -0.091284
   7 O :   -0.366181
   8 H :    0.144279
   9 H :    0.115133
  10 H :    0.131687
  11 H :    0.118023
  12 H :    0.109877
  13 H :    0.097573
  14 H :    0.328825
  15 H :    0.137489
  16 H :    0.142957
  17 H :    0.150353
  18 H :    0.117379
  19 H :    0.139662
Sum of atomic charges:    0.0000000

LOEWDIN ATOMIC CHARGES
----------------------
   0 C :   -0.318069
   1 C :   -0.277819
   2 C :   -0.316062
   3 O :   -0.006626
   4 C :   -0.335415
   5 C :   -0.265982
   6 C :   -0.242470
   7 O :    0.141609
   8 H :    0.125565
   9 H :    0.120573
  10 H :    0.119950
  11 H :    0.140255
  12 H :    0.138303
  13 H :    0.150341
  14 H :    0.181439
  15 H :    0.133595
  16 H :    0.132839
  17 H :    0.131273
  18 H :    0.120900
  19 H :    0.125803

  Mayer bond orders larger than 0.1
B(  0-C ,  1-C ) :   0.9269 B(  0-C ,  8-H ) :   0.9378 B(  0-C ,  9-H ) :   0.9359
B(  0-C , 10-H ) :   0.9420 B(  1-C ,  2-C ) :   0.9287 B(  1-C , 11-H ) :   0.9212
B(  1-C , 12-H ) :   0.9255 B(  2-C ,  3-O ) :   0.9180 B(  2-C ,  4-C ) :   0.9245
B(  2-C , 13-H ) :   0.9245 B(  3-O , 14-H ) :   0.8167 B(  4-C ,  5-C ) :   0.8841
B(  4-C ,  6-C ) :   0.9862 B(  4-C ,  7-O ) :   0.8591 B(  5-C , 15-H ) :   0.9336
B(  5-C , 16-H ) :   0.9323 B(  5-C , 17-H ) :   0.9394 B(  6-C ,  7-O ) :   0.8638
B(  6-C , 18-H ) :   0.9171 B(  6-C , 19-H ) :   0.9024

MP2 TOTAL ENERGY:     -385.497697397 Eh
FINAL SINGLE POINT ENERGY      -385.497697396648

DIPOLE MOMENT
-------------
                                X             Y             Z
Electronic contribution:      5.06245      -3.33536      -2.33614
Nuclear contribution   :     -5.71859       2.99357       2.18080
                        -----------------------------------------
Total Dipole Moment    :     -0.65614      -0.34179      -0.15535
                        -----------------------------------------
Magnitude (a.u.)       :      0.75596
Magnitude (Debye)      :      1.92149

                             ****ORCA TERMINATED NORMALLY****
TOTAL RUN TIME: 0 days 0 hours 12 minutes 36 seconds 262 msec
