                         Program Version 3.0.3 - RELEASE   -
|  1> ! RI-MP2 RIJK def2-TZVP def2-TZVP/C def2-TZVP/JK TIGHTSCF
|  2> % maxcore 2000
|  3> % mp2 density relaxed end
|  4> *xyz 0 1
|  5>  N       -0.2329435938     1.4187427343     0.1583504432
|  6>  C       -0.0519949537     0.1748562571     0.0000663182
|  7>  N        1.1951770568    -0.4448192455    -0.1695371531
|  8>  C        1.4227843396    -1.3606430469    -1.0233746910
|  9>  N        0.5673405215    -1.9106450487    -1.9657021466
| 10>  C       -0.8061586370    -1.7577872883    -2.0546035492
| 11>  N       -1.6148130596    -1.3042019769    -1.1858813088
| 12>  C       -1.2267286339    -0.7962440729     0.0622728740
| 13>  O       -1.7824120578    -1.0918007509     1.0865679074
| 14>  H        0.6646603506     1.9085318696     0.1051605349
| 15>  H        2.4268326513    -1.7798506324    -1.0840453162
| 16>  H        0.9987507557    -2.4841446384    -2.6764656844
| 17>  H       -1.2002888997    -2.1179478102    -3.0053239483
| 18> *
| 19>
| 20>                          ****END OF INPUT****

CARTESIAN COORDINATES (ANGSTROEM)
---------------------------------
  N     -0.232944    1.418743    0.158350
  C     -0.051995    0.174856    0.000066
  N      1.195177   -0.444819   -0.169537
  C      1.422784   -1.360643   -1.023375
  N      0.567341   -1.910645   -1.965702
  C     -0.806159   -1.757787   -2.054604
  N     -1.614813   -1.304202   -1.185881
  C     -1.226729   -0.796244    0.062273
  O     -1.782412   -1.091801    1.086568
  H      0.664660    1.908532    0.105161
  H      2.426833   -1.779851   -1.084045
  H      0.998751   -2.484145   -2.676466
  H     -1.200289   -2.117948   -3.005324

 Total Charge           Charge          ....    0
 Multiplicity           Mult            ....    1
 Number of Electrons    NEL             ....   64
 Basis Dimension        Dim             ....  303

ORBITAL ENERGIES
----------------

  NO   OCC          E(Eh)            E(eV)
   0   2.0000     -20.551577      -559.2368
   1   2.0000     -15.660221      -426.1363
   2   2.0000     -15.594502      -424.3480
   3   2.0000     -15.588794      -424.1927
   4   2.0000     -15.555725      -423.2928
   5   2.0000     -11.377908      -309.6086
   6   2.0000     -11.377488      -309.5972
   7   2.0000     -11.369376      -309.3765
   8   2.0000     -11.331287      -308.3400
   9   2.0000      -1.411861       -38.4187
  10   2.0000      -1.360831       -37.0301
  11   2.0000      -1.281666       -34.8759
  12   2.0000      -1.243609       -33.8403
  13   2.0000      -1.184782       -32.2396
  14   2.0000      -0.976926       -26.5835
  15   2.0000      -0.949575       -25.8393
  16   2.0000      -0.820312       -22.3218
  17   2.0000      -0.811532       -22.0829
  18   2.0000      -0.798969       -21.7411
  19   2.0000      -0.692994       -18.8573
  20   2.0000      -0.680049       -18.5051
  21   2.0000      -0.679617       -18.4933
  22   2.0000      -0.650250       -17.6942
  23   2.0000      -0.624205       -16.9855
  24   2.0000      -0.566758       -15.4223
  25   2.0000      -0.529310       -14.4033
  26   2.0000      -0.496421       -13.5083
  27   2.0000      -0.471402       -12.8275
  28   2.0000      -0.467036       -12.7087
  29   2.0000      -0.443236       -12.0611
  30   2.0000      -0.410202       -11.1622
  31   2.0000      -0.384489       -10.4625
  32   0.0000       0.073529         2.0008
  33   0.0000       0.090440         2.4610
  34   0.0000       0.110757         3.0139
  35   0.0000       0.153934         4.1888
  36   0.0000       0.167659         4.5622

MULLIKEN ATOMIC CHARGES
-----------------------
   0 N :   -0.332560
   1 C :    0.094362
   2 N :   -0.246273
   3 C :    0.076122
   4 N :   -0.280455
   5 C :    0.080494
   6 N :   -0.209993
   7 C :    0.280183
   8 O :   -0.251489
   9 H :    0.219689
  10 H :    0.156341
  11 H :    0.256874
  12 H :    0.156705
Sum of atomic charges:    0.0000000

LOEWDIN ATOMIC CHARGES
----------------------
   0 N :   -0.006124
   1 C :   -0.339614
   2 N :    0.145443
   3 C :   -0.278693
   4 N :    0.127949
   5 C :   -0.275949
   6 N :    0.162101
   7 C :   -0.378035
   8 O :    0.178888
   9 H :    0.169517
  10 H :    0.144383
  11 H :    0.205176
  12 H :    0.144957

  Mayer bond orders larger than 0.1
B(  0-N ,  1-C ) :   2.0058 B(  0-N ,  9-H ) :   0.8510 B(  1-C ,  2-N ) :   0.9886
B(  1-C ,  7-C ) :   0.8483 B(  2-N ,  3-C ) :   1.7742 B(  3-C ,  4-N ) :   1.0470
B(  3-C , 10-H ) :   0.9140 B(  4-N ,  5-C ) :   1.0480 B(  4-N , 11-H ) :   0.8588
B(  5-C ,  6-N ) :   1.7702 B(  5-C , 12-H ) :   0.9151 B(  6-N ,  7-C ) :   1.0164
B(  7-C ,  8-O ) :   2.0385

MP2 TOTAL ENERGY:     -448.205775814 Eh
FINAL SINGLE POINT ENERGY      -448.205775813701

DIPOLE MOMENT
-------------
                                X             Y             Z
Electronic contribution:     -1.92425      -0.02849       1.92411
Nuclear contribution   :      3.74556      -1.22419      -4.11729
                        -----------------------------------------
Total Dipole Moment    :      1.82132      -1.25268      -2.19318
                        -----------------------------------------
Magnitude (a.u.)       :      3.11391
Magnitude (Debye)      :      7.91493

                             ****ORCA TERMINATED NORMALLY****
TOTAL RUN TIME: 0 days 0 hours 13 minutes 11 seconds 146 msec
