                         Program Version 3.0.3 - RELEASE   -
|  1> ! RI-MP2 RIJK def2-TZVP def2-TZVP/C def2-TZVP/JK TIGHTSCF
|  2> % maxcore 2000
|  3> % mp2 density relaxed end
|  4> *xyz 0 1
|  5>  C       -0.3675284959    -1.1075468277    -0.7159668404
|  6>  C       -0.1867177049     0.0165251905    -0.3288728185
|  7>  C        0.0429459420     1.3688283287     0.1641270795
|  8>  C       -0.4923730063     1.5067109513     1.6231723699
|  9>  O        0.1318124045     2.5556592622     2.3485822296
| 10>  C        1.5082375830     2.7326626706     2.0304680194
| 11>  C        1.6405247375     3.2610467917     0.5787356826
| 12>  C        1.5436227880     1.7684409107     0.1554182080
| 13>  C        2.1791368700     1.4207361192     1.5337898958
| 14>  H       -0.5331798879    -2.0956547758    -1.0677162902
| 15>  H       -0.4922096307     2.0724827648    -0.4868954099
| 16>  H       -1.5652260400     1.7147597035     1.6262129157
| 17>  H       -0.3400308991     0.5489632481     2.1373660445
| 18>  H        1.9477731362     3.2932581193     2.8572786889
| 19>  H        0.8647299824     3.9508240518     0.2357753885
| 20>  H        2.6306277973     3.6787701606     0.3784022591
| 21>  H        2.0377808301     1.4390834460    -0.7595763100
| 22>  H        3.2655242813     1.5317135538     1.5102972902
| 23>  H        1.9251453028     0.4760908905     2.0189273073
| 24> *
| 25>
| 26>                          ****END OF INPUT****

CARTESIAN COORDINATES (ANGSTROEM)
---------------------------------
  C     -0.367528   -1.107547   -0.715967
  C     -0.186718    0.016525   -0.328873
  C      0.042946    1.368828    0.164127
  C     -0.492373    1.506711    1.623172
  O      0.131812    2.555659    2.348582
  C      1.508238    2.732663    2.030468
  C      1.640525    3.261047    0.578736
  C      1.543623    1.768441    0.155418
  C      2.179137    1.420736    1.533790
  H     -0.533180   -2.095655   -1.067716
  H     -0.492210    2.072483   -0.486895
  H     -1.565226    1.714760    1.626213
  H     -0.340031    0.548963    2.137366
  H      1.947773    3.293258    2.857279
  H      0.864730    3.950824    0.235775
  H      2.630628    3.678770    0.378402
  H      2.037781    1.439083   -0.759576
  H      3.265524    1.531714    1.510297
  H      1.925145    0.476091    2.018927

 Total Charge           Charge          ....    0
 Multiplicity           Mult            ....    1
 Number of Electrons    NEL             ....   66
 Basis Dimension        Dim             ....  339

ORBITAL ENERGIES
----------------

  NO   OCC          E(Eh)            E(eV)
   0   2.0000     -20.554356      -559.3125
   1   2.0000     -11.284281      -307.0609
   2   2.0000     -11.280773      -306.9654
   3   2.0000     -11.260371      -306.4103
   4   2.0000     -11.244421      -305.9762
   5   2.0000     -11.235349      -305.7294
   6   2.0000     -11.228270      -305.5367
   7   2.0000     -11.224428      -305.4322
   8   2.0000     -11.224216      -305.4264
   9   2.0000      -1.378514       -37.5113
  10   2.0000      -1.144006       -31.1300
  11   2.0000      -1.077816       -29.3289
  12   2.0000      -0.997707       -27.1490
  13   2.0000      -0.912330       -24.8258
  14   2.0000      -0.879596       -23.9350
  15   2.0000      -0.858030       -23.3482
  16   2.0000      -0.742682       -20.2094
  17   2.0000      -0.714811       -19.4510
  18   2.0000      -0.700167       -19.0525
  19   2.0000      -0.671667       -18.2770
  20   2.0000      -0.642355       -17.4794
  21   2.0000      -0.614770       -16.7287
  22   2.0000      -0.585332       -15.9277
  23   2.0000      -0.570927       -15.5357
  24   2.0000      -0.550702       -14.9854
  25   2.0000      -0.538985       -14.6665
  26   2.0000      -0.497556       -13.5392
  27   2.0000      -0.475713       -12.9448
  28   2.0000      -0.462277       -12.5792
  29   2.0000      -0.431433       -11.7399
  30   2.0000      -0.403142       -10.9700
  31   2.0000      -0.385494       -10.4898
  32   2.0000      -0.383745       -10.4422
  33   0.0000       0.136485         3.7139
  34   0.0000       0.154336         4.1997
  35   0.0000       0.159311         4.3351
  36   0.0000       0.168019         4.5720
  37   0.0000       0.174665         4.7529

MULLIKEN ATOMIC CHARGES
-----------------------
   0 C :   -0.143870
   1 C :   -0.052152
   2 C :   -0.246292
   3 C :   -0.061518
   4 O :   -0.320563
   5 C :    0.124446
   6 C :   -0.278008
   7 C :    0.019210
   8 C :   -0.321863
   9 H :    0.190827
  10 H :    0.117721
  11 H :    0.129408
  12 H :    0.109937
  13 H :    0.116337
  14 H :    0.114020
  15 H :    0.120008
  16 H :    0.123955
  17 H :    0.126658
  18 H :    0.131738
Sum of atomic charges:    0.0000000

LOEWDIN ATOMIC CHARGES
----------------------
   0 C :   -0.097502
   1 C :   -0.087757
   2 C :   -0.218537
   3 C :   -0.267611
   4 O :    0.171865
   5 C :   -0.280664
   6 C :   -0.203199
   7 C :   -0.186904
   8 C :   -0.200981
   9 H :    0.127006
  10 H :    0.170461
  11 H :    0.132478
  12 H :    0.128170
  13 H :    0.129461
  14 H :    0.128940
  15 H :    0.138531
  16 H :    0.141573
  17 H :    0.142656
  18 H :    0.132014

  Mayer bond orders larger than 0.1
B(  0-C ,  1-C ) :   2.5871 B(  0-C ,  9-H ) :   0.8919 B(  1-C ,  2-C ) :   1.1601
B(  2-C ,  3-C ) :   0.9292 B(  2-C ,  7-C ) :   0.8596 B(  2-C , 10-H ) :   0.9062
B(  3-C ,  4-O ) :   0.9522 B(  3-C , 11-H ) :   0.9163 B(  3-C , 12-H ) :   0.9329
B(  4-O ,  5-C ) :   0.9119 B(  5-C ,  6-C ) :   0.9030 B(  5-C ,  8-C ) :   0.9052
B(  5-C , 13-H ) :   0.9338 B(  6-C ,  7-C ) :   0.9121 B(  6-C , 14-H ) :   0.9143
B(  6-C , 15-H ) :   0.9179 B(  7-C ,  8-C ) :   0.9153 B(  7-C , 16-H ) :   0.9330
B(  8-C , 17-H ) :   0.9196 B(  8-C , 18-H ) :   0.9171

MP2 TOTAL ENERGY:     -385.158890881 Eh
FINAL SINGLE POINT ENERGY      -385.158890880792

DIPOLE MOMENT
-------------
                                X             Y             Z
Electronic contribution:     -2.42465      -1.16517      -0.05907
Nuclear contribution   :      2.80232       1.05638      -0.23978
                        -----------------------------------------
Total Dipole Moment    :      0.37767      -0.10878      -0.29885
                        -----------------------------------------
Magnitude (a.u.)       :      0.49374
Magnitude (Debye)      :      1.25499

                             ****ORCA TERMINATED NORMALLY****
TOTAL RUN TIME: 0 days 0 hours 19 minutes 38 seconds 360 msec
