                         Program Version 3.0.3 - RELEASE   -
|  1> ! RI-MP2 RIJK def2-TZVP def2-TZVP/C def2-TZVP/JK TIGHTSCF
|  2> % maxcore 2000
|  3> % mp2 density relaxed end
|  4> *xyz 0 1
|  5>  C       -0.0184390823     1.5695658074     0.0337894445
|  6>  C        0.0142670175     0.0424297055     0.0047358191
|  7>  O        0.7582980574    -0.4674259612     1.1457184973
|  8>  C        2.0699323301    -0.6489543861     0.9458460515
|  9>  O        2.6811970883    -0.4324212480    -0.0631900269
| 10>  C        2.6901871740    -1.1648342094     2.1684285594
| 11>  N        3.2323911958    -1.5667474999     3.1051526600
| 12>  C       -1.3247215656    -0.5478887097     0.0917344145
| 13>  N       -2.3930673568    -0.9836888083     0.1236629669
| 14>  H        0.9974042139     1.9551946754    -0.0734510266
| 15>  H       -0.6243117997     1.9391523563    -0.7971545113
| 16>  H       -0.4503841955     1.9243833683     0.9717258100
| 17>  H        0.5056512930    -0.3117526903    -0.9056594983
| 18> *
| 19>
| 20>                          ****END OF INPUT****

CARTESIAN COORDINATES (ANGSTROEM)
---------------------------------
  C     -0.018439    1.569566    0.033789
  C      0.014267    0.042430    0.004736
  O      0.758298   -0.467426    1.145718
  C      2.069932   -0.648954    0.945846
  O      2.681197   -0.432421   -0.063190
  C      2.690187   -1.164834    2.168429
  N      3.232391   -1.566747    3.105153
  C     -1.324722   -0.547889    0.091734
  N     -2.393067   -0.983689    0.123663
  H      0.997404    1.955195   -0.073451
  H     -0.624312    1.939152   -0.797155
  H     -0.450384    1.924383    0.971726
  H      0.505651   -0.311753   -0.905659

 Total Charge           Charge          ....    0
 Multiplicity           Mult            ....    1
 Number of Electrons    NEL             ....   64
 Basis Dimension        Dim             ....  303

ORBITAL ENERGIES
----------------

  NO   OCC          E(Eh)            E(eV)
   0   2.0000     -20.674849      -562.5912
   1   2.0000     -20.619094      -561.0741
   2   2.0000     -15.632115      -425.3715
   3   2.0000     -15.604541      -424.6211
   4   2.0000     -11.474489      -312.2367
   5   2.0000     -11.385869      -309.8253
   6   2.0000     -11.320577      -308.0486
   7   2.0000     -11.301292      -307.5238
   8   2.0000     -11.274661      -306.7991
   9   2.0000      -1.535996       -41.7966
  10   2.0000      -1.438543       -39.1447
  11   2.0000      -1.266798       -34.4713
  12   2.0000      -1.249544       -34.0018
  13   2.0000      -1.123169       -30.5630
  14   2.0000      -0.993729       -27.0407
  15   2.0000      -0.928439       -25.2641
  16   2.0000      -0.827824       -22.5262
  17   2.0000      -0.768871       -20.9220
  18   2.0000      -0.734486       -19.9864
  19   2.0000      -0.720346       -19.6016
  20   2.0000      -0.642888       -17.4939
  21   2.0000      -0.630134       -17.1468
  22   2.0000      -0.613048       -16.6819
  23   2.0000      -0.599492       -16.3130
  24   2.0000      -0.587705       -15.9923
  25   2.0000      -0.570442       -15.5225
  26   2.0000      -0.547398       -14.8955
  27   2.0000      -0.535645       -14.5756
  28   2.0000      -0.514152       -13.9908
  29   2.0000      -0.512413       -13.9435
  30   2.0000      -0.497788       -13.5455
  31   2.0000      -0.487163       -13.2564
  32   0.0000       0.053983         1.4689
  33   0.0000       0.111825         3.0429
  34   0.0000       0.128189         3.4882
  35   0.0000       0.144520         3.9326
  36   0.0000       0.151674         4.1272

MULLIKEN ATOMIC CHARGES
-----------------------
   0 C :   -0.401079
   1 C :    0.136502
   2 O :   -0.207689
   3 C :    0.439508
   4 O :   -0.270437
   5 C :   -0.140118
   6 N :   -0.030207
   7 C :   -0.137849
   8 N :   -0.039886
   9 H :    0.166998
  10 H :    0.159368
  11 H :    0.159100
  12 H :    0.165789
Sum of atomic charges:    0.0000000

LOEWDIN ATOMIC CHARGES
----------------------
   0 C :   -0.258595
   1 C :   -0.279754
   2 O :    0.310651
   3 C :   -0.479850
   4 O :    0.183570
   5 C :   -0.120097
   6 N :    0.118314
   7 C :   -0.158805
   8 N :    0.093894
   9 H :    0.136889
  10 H :    0.142236
  11 H :    0.138287
  12 H :    0.173260

  Mayer bond orders larger than 0.1
B(  0-C ,  1-C ) :   0.9276 B(  0-C ,  9-H ) :   0.9273 B(  0-C , 10-H ) :   0.9232
B(  0-C , 11-H ) :   0.9217 B(  1-C ,  2-O ) :   0.8125 B(  1-C ,  7-C ) :   0.9068
B(  1-C , 12-H ) :   0.9222 B(  2-O ,  3-C ) :   1.1462 B(  3-C ,  4-O ) :   1.9152
B(  3-C ,  5-C ) :   0.9044 B(  5-C ,  6-N ) :   2.7833 B(  7-C ,  8-N ) :   2.8311

MP2 TOTAL ENERGY:     -452.041691063 Eh
FINAL SINGLE POINT ENERGY      -452.041691062657

DIPOLE MOMENT
-------------
                                X             Y             Z
Electronic contribution:      2.89115      -5.61818       2.99416
Nuclear contribution   :     -2.85695       6.77675      -3.79922
                        -----------------------------------------
Total Dipole Moment    :      0.03420       1.15856      -0.80506
                        -----------------------------------------
Magnitude (a.u.)       :      1.41123
Magnitude (Debye)      :      3.58705

                             ****ORCA TERMINATED NORMALLY****
TOTAL RUN TIME: 0 days 0 hours 12 minutes 58 seconds 84 msec
