                         Program Version 3.0.3 - RELEASE   -
|  1> ! RI-MP2 RIJK def2-TZVP def2-TZVP/C def2-TZVP/JK TIGHTSCF
|  2> % maxcore 2000
|  3> % mp2 density relaxed end
|  4> *xyz 0 1
|  5>  O        0.0146694934     0.0579728591     0.1179707681
|  6>  C        0.0318822875     1.2491167474     0.0345700088
|  7>  N       -1.0055825622     2.2123672840     0.0489377053
|  8>  C       -0.0553466338     3.3180773862    -0.0434683392
|  9>  C        0.9591783382     3.2978529441     1.0770352437
| 10>  C        0.6411715262     2.8606267269     2.4058582644
| 11>  C        0.3597054277     2.5035725681     3.5189606253
| 12>  C        1.0913660548     2.3353227119    -0.1269363991
| 13>  H       -1.7480564591     2.1853540053     0.7395994957
| 14>  H       -0.2601312905     4.1840389282    -0.6587948916
| 15>  H        1.6859584047     4.1066496860     1.0231024752
| 16>  H        0.1225522035     2.1785386758     4.5018739450
| 17>  H        1.9719563195     2.3306868769    -0.7529348716
| 18> *
| 19>
| 20>                          ****END OF INPUT****

CARTESIAN COORDINATES (ANGSTROEM)
---------------------------------
  O      0.014669    0.057973    0.117971
  C      0.031882    1.249117    0.034570
  N     -1.005583    2.212367    0.048938
  C     -0.055347    3.318077   -0.043468
  C      0.959178    3.297853    1.077035
  C      0.641172    2.860627    2.405858
  C      0.359705    2.503573    3.518961
  C      1.091366    2.335323   -0.126936
  H     -1.748056    2.185354    0.739599
  H     -0.260131    4.184039   -0.658795
  H      1.685958    4.106650    1.023102
  H      0.122552    2.178539    4.501874
  H      1.971956    2.330687   -0.752935

 Total Charge           Charge          ....    0
 Multiplicity           Mult            ....    1
 Number of Electrons    NEL             ....   56
 Basis Dimension        Dim             ....  278

ORBITAL ENERGIES
----------------

  NO   OCC          E(Eh)            E(eV)
   0   2.0000     -20.545575      -559.0735
   1   2.0000     -15.589671      -424.2165
   2   2.0000     -11.366812      -309.3067
   3   2.0000     -11.305214      -307.6305
   4   2.0000     -11.295516      -307.3666
   5   2.0000     -11.274045      -306.7824
   6   2.0000     -11.249570      -306.1164
   7   2.0000     -11.239319      -305.8374
   8   2.0000      -1.406504       -38.2729
   9   2.0000      -1.302512       -35.4431
  10   2.0000      -1.123421       -30.5698
  11   2.0000      -1.039150       -28.2767
  12   2.0000      -0.924621       -25.1602
  13   2.0000      -0.872304       -23.7366
  14   2.0000      -0.779829       -21.2202
  15   2.0000      -0.734540       -19.9878
  16   2.0000      -0.714108       -19.4319
  17   2.0000      -0.692305       -18.8386
  18   2.0000      -0.676617       -18.4117
  19   2.0000      -0.614357       -16.7175
  20   2.0000      -0.581935       -15.8353
  21   2.0000      -0.558751       -15.2044
  22   2.0000      -0.529554       -14.4099
  23   2.0000      -0.464805       -12.6480
  24   2.0000      -0.446321       -12.1450
  25   2.0000      -0.417219       -11.3531
  26   2.0000      -0.400583       -10.9004
  27   2.0000      -0.377027       -10.2594
  28   0.0000       0.127537         3.4705
  29   0.0000       0.140719         3.8292
  30   0.0000       0.150961         4.1079
  31   0.0000       0.161626         4.3981
  32   0.0000       0.165647         4.5075

MULLIKEN ATOMIC CHARGES
-----------------------
   0 O :   -0.272838
   1 C :    0.228411
   2 N :   -0.319678
   3 C :    0.029243
   4 C :   -0.295653
   5 C :    0.016343
   6 C :   -0.128177
   7 C :   -0.158859
   8 H :    0.241763
   9 H :    0.153516
  10 H :    0.145803
  11 H :    0.196757
  12 H :    0.163370
Sum of atomic charges:    0.0000000

LOEWDIN ATOMIC CHARGES
----------------------
   0 O :    0.147771
   1 C :   -0.394485
   2 N :    0.114269
   3 C :   -0.186310
   4 C :   -0.167094
   5 C :   -0.094362
   6 C :   -0.079119
   7 C :   -0.108096
   8 H :    0.176757
   9 H :    0.140551
  10 H :    0.174205
  11 H :    0.129727
  12 H :    0.146187

  Mayer bond orders larger than 0.1
B(  0-O ,  1-C ) :   2.0323 B(  1-C ,  2-N ) :   1.1003 B(  1-C ,  7-C ) :   0.8948
B(  2-N ,  3-C ) :   0.9836 B(  2-N ,  8-H ) :   0.8549 B(  3-C ,  4-C ) :   0.8584
B(  3-C ,  7-C ) :   0.8492 B(  3-C ,  9-H ) :   0.9218 B(  4-C ,  5-C ) :   1.1487
B(  4-C ,  6-C ) :  -0.1093 B(  4-C ,  7-C ) :   0.8390 B(  4-C , 10-H ) :   0.9191
B(  5-C ,  6-C ) :   2.5745 B(  6-C , 11-H ) :   0.8992 B(  7-C , 12-H ) :   0.9080

MP2 TOTAL ENERGY:     -360.783483632 Eh
FINAL SINGLE POINT ENERGY      -360.783483632192

DIPOLE MOMENT
-------------
                                X             Y             Z
Electronic contribution:     -0.48341      -2.39564      -0.43376
Nuclear contribution   :      0.58838       3.78113       0.59929
                        -----------------------------------------
Total Dipole Moment    :      0.10497       1.38548       0.16553
                        -----------------------------------------
Magnitude (a.u.)       :      1.39928
Magnitude (Debye)      :      3.55668

                             ****ORCA TERMINATED NORMALLY****
TOTAL RUN TIME: 0 days 0 hours 11 minutes 11 seconds 292 msec
