                         Program Version 3.0.3 - RELEASE   -
|  1> ! RI-MP2 RIJK def2-TZVP def2-TZVP/C def2-TZVP/JK TIGHTSCF
|  2> % maxcore 2000
|  3> % mp2 density relaxed end
|  4> *xyz 0 1
|  5>  O       -0.1520064031     1.4757400613     0.4018566284
|  6>  C       -0.0126827941     0.0817820002     0.1837711099
|  7>  C        0.6761971091    -0.6526405621     1.4142307883
|  8>  C       -0.6085551561    -0.8966075106     2.1581737471
|  9>  C       -1.2162971375     0.0834211616     2.8458249878
| 10>  C       -2.6128387342     0.3471653256     2.3167161999
| 11>  C       -2.6073392183    -0.4882730108     1.0355138383
| 12>  C       -1.4005724470    -0.5800784802     0.0471922762
| 13>  C       -1.5690467918    -1.5511650217     1.1824277165
| 14>  H        0.7280330427     1.8667108787     0.4073316424
| 15>  H        0.5611485323    -0.1000964624    -0.7379958074
| 16>  H        1.1918551967    -1.5581591537     1.0761389544
| 17>  H        1.3900212386     0.0000986908     1.9240382808
| 18>  H       -0.6873243417     0.8198781748     3.4414170507
| 19>  H       -3.4400618079     0.0399299671     2.9735557791
| 20>  H       -2.7305953264     1.4224040693     2.1374906766
| 21>  H       -3.5601873247    -0.7144701782     0.5640957920
| 22>  H       -1.7048531589    -0.8460640148    -0.9605905059
| 23>  H       -1.7012746077    -2.6233916249     1.0908142350
| 24> *
| 25>
| 26>                          ****END OF INPUT****

CARTESIAN COORDINATES (ANGSTROEM)
---------------------------------
  O     -0.152006    1.475740    0.401857
  C     -0.012683    0.081782    0.183771
  C      0.676197   -0.652641    1.414231
  C     -0.608555   -0.896608    2.158174
  C     -1.216297    0.083421    2.845825
  C     -2.612839    0.347165    2.316716
  C     -2.607339   -0.488273    1.035514
  C     -1.400572   -0.580078    0.047192
  C     -1.569047   -1.551165    1.182428
  H      0.728033    1.866711    0.407332
  H      0.561149   -0.100096   -0.737996
  H      1.191855   -1.558159    1.076139
  H      1.390021    0.000099    1.924038
  H     -0.687324    0.819878    3.441417
  H     -3.440062    0.039930    2.973556
  H     -2.730595    1.422404    2.137491
  H     -3.560187   -0.714470    0.564096
  H     -1.704853   -0.846064   -0.960591
  H     -1.701275   -2.623392    1.090814

 Total Charge           Charge          ....    0
 Multiplicity           Mult            ....    1
 Number of Electrons    NEL             ....   66
 Basis Dimension        Dim             ....  339

ORBITAL ENERGIES
----------------

  NO   OCC          E(Eh)            E(eV)
   0   2.0000     -20.554648      -559.3204
   1   2.0000     -11.288762      -307.1828
   2   2.0000     -11.234878      -305.7166
   3   2.0000     -11.232305      -305.6466
   4   2.0000     -11.230125      -305.5872
   5   2.0000     -11.224060      -305.4222
   6   2.0000     -11.222111      -305.3692
   7   2.0000     -11.220489      -305.3250
   8   2.0000     -11.219902      -305.3091
   9   2.0000      -1.361936       -37.0602
  10   2.0000      -1.198349       -32.6087
  11   2.0000      -1.036475       -28.2039
  12   2.0000      -1.029674       -28.0189
  13   2.0000      -0.922959       -25.1150
  14   2.0000      -0.867428       -23.6039
  15   2.0000      -0.784814       -21.3559
  16   2.0000      -0.750227       -20.4147
  17   2.0000      -0.720022       -19.5928
  18   2.0000      -0.684908       -18.6373
  19   2.0000      -0.669387       -18.2149
  20   2.0000      -0.628057       -17.0903
  21   2.0000      -0.606504       -16.5038
  22   2.0000      -0.573437       -15.6040
  23   2.0000      -0.565116       -15.3776
  24   2.0000      -0.540695       -14.7131
  25   2.0000      -0.517440       -14.0803
  26   2.0000      -0.491462       -13.3734
  27   2.0000      -0.478947       -13.0328
  28   2.0000      -0.474499       -12.9118
  29   2.0000      -0.429181       -11.6786
  30   2.0000      -0.402341       -10.9483
  31   2.0000      -0.397111       -10.8059
  32   2.0000      -0.320684        -8.7263
  33   0.0000       0.132411         3.6031
  34   0.0000       0.134690         3.6651
  35   0.0000       0.158181         4.3043
  36   0.0000       0.167025         4.5450
  37   0.0000       0.176610         4.8058

MULLIKEN ATOMIC CHARGES
-----------------------
   0 O :   -0.450572
   1 C :    0.075074
   2 C :   -0.306251
   3 C :    0.134640
   4 C :   -0.226072
   5 C :   -0.120332
   6 C :   -0.190209
   7 C :   -0.134354
   8 C :   -0.138166
   9 H :    0.310492
  10 H :    0.092639
  11 H :    0.113134
  12 H :    0.119563
  13 H :    0.113555
  14 H :    0.116330
  15 H :    0.116679
  16 H :    0.115735
  17 H :    0.123263
  18 H :    0.134853
Sum of atomic charges:   -0.0000000

LOEWDIN ATOMIC CHARGES
----------------------
   0 O :   -0.006896
   1 C :   -0.299805
   2 C :   -0.199206
   3 C :   -0.149146
   4 C :   -0.107194
   5 C :   -0.221368
   6 C :   -0.152478
   7 C :   -0.144564
   8 C :   -0.145955
   9 H :    0.172151
  10 H :    0.131821
  11 H :    0.136187
  12 H :    0.134865
  13 H :    0.136332
  14 H :    0.139893
  15 H :    0.146430
  16 H :    0.144909
  17 H :    0.145075
  18 H :    0.138948

  Mayer bond orders larger than 0.1
B(  0-O ,  1-C ) :   1.0426 B(  0-O ,  3-C ) :  -0.1311 B(  0-O ,  9-H ) :   0.8441
B(  1-C ,  2-C ) :   0.9150 B(  1-C ,  7-C ) :   0.9094 B(  1-C , 10-H ) :   0.9263
B(  2-C ,  3-C ) :   0.9311 B(  2-C , 11-H ) :   0.9139 B(  2-C , 12-H ) :   0.9280
B(  3-C ,  4-C ) :   1.7409 B(  3-C ,  8-C ) :   0.9023 B(  4-C ,  5-C ) :   0.9605
B(  4-C , 13-H ) :   0.9175 B(  5-C ,  6-C ) :   0.9726 B(  5-C , 14-H ) :   0.8993
B(  5-C , 15-H ) :   0.9043 B(  6-C ,  7-C ) :   0.8660 B(  6-C ,  8-C ) :   0.8967
B(  6-C , 16-H ) :   0.9283 B(  7-C ,  8-C ) :   0.8662 B(  7-C , 17-H ) :   0.9241
B(  8-C , 18-H ) :   0.9083

MP2 TOTAL ENERGY:     -385.176482880 Eh
FINAL SINGLE POINT ENERGY      -385.176482880216

DIPOLE MOMENT
-------------
                                X             Y             Z
Electronic contribution:      0.20774      -0.15185       0.26835
Nuclear contribution   :      0.25749       0.12651      -0.56488
                        -----------------------------------------
Total Dipole Moment    :      0.46524      -0.02534      -0.29654
                        -----------------------------------------
Magnitude (a.u.)       :      0.55229
Magnitude (Debye)      :      1.40380

                             ****ORCA TERMINATED NORMALLY****
TOTAL RUN TIME: 0 days 0 hours 20 minutes 34 seconds 836 msec
