                         Program Version 3.0.3 - RELEASE   -
|  1> ! RI-MP2 RIJK def2-TZVP def2-TZVP/C def2-TZVP/JK TIGHTSCF
|  2> % maxcore 2000
|  3> % mp2 density relaxed end
|  4> *xyz 0 1
|  5>  C        1.0317490829     1.5662454110     0.2867891952
|  6>  C        0.1777124469     0.3443304478    -0.0782359811
|  7>  C        0.6484177039    -0.3861493976    -1.3340256679
|  8>  C        1.9287772344    -1.1882316160    -1.2526591122
|  9>  C        0.6088747752    -1.9081547795    -1.3863155511
| 10>  C        0.0630447264    -2.7886622868    -0.2810113671
| 11>  C        0.2721669859     0.3639229311    -2.6173058204
| 12>  C        0.9824055977    -0.0640960870    -3.9038080543
| 13>  O       -1.1482182197     0.3324593582    -2.7934191482
| 14>  H        2.0737808417     1.2813415615     0.4674320866
| 15>  H        1.0285156400     2.3226749227    -0.5044581865
| 16>  H        0.6528569692     2.0451357190     1.1952483186
| 17>  H        0.1722955061    -0.3400378718     0.7750980210
| 18>  H       -0.8620673978     0.6532619408    -0.2346236973
| 19>  H        2.6166448320    -1.1962684274    -2.0902115079
| 20>  H        2.4189193023    -1.2294251870    -0.2837874432
| 21>  H        0.4224701236    -2.3203683029    -2.3762853269
| 22>  H        0.3611619621    -2.4420239280     0.7117469714
| 23>  H       -1.0319107849    -2.8356468253    -0.3013108208
| 24>  H        0.4394539073    -3.8118627962    -0.3909718686
| 25>  H        0.4898725991     1.4275625133    -2.4649787573
| 26>  H        0.5669640729     0.5077683864    -4.7374874124
| 27>  H        2.0574178012     0.1324680227    -3.8561446928
| 28>  H        0.8383640475    -1.1271081587    -4.1271442388
| 29>  H       -1.4092054659    -0.5954456499    -2.7957285377
| 30> *
| 31>
| 32>                          ****END OF INPUT****

CARTESIAN COORDINATES (ANGSTROEM)
---------------------------------
  C      1.031749    1.566245    0.286789
  C      0.177712    0.344330   -0.078236
  C      0.648418   -0.386149   -1.334026
  C      1.928777   -1.188232   -1.252659
  C      0.608875   -1.908155   -1.386316
  C      0.063045   -2.788662   -0.281011
  C      0.272167    0.363923   -2.617306
  C      0.982406   -0.064096   -3.903808
  O     -1.148218    0.332459   -2.793419
  H      2.073781    1.281342    0.467432
  H      1.028516    2.322675   -0.504458
  H      0.652857    2.045136    1.195248
  H      0.172296   -0.340038    0.775098
  H     -0.862067    0.653262   -0.234624
  H      2.616645   -1.196268   -2.090212
  H      2.418919   -1.229425   -0.283787
  H      0.422470   -2.320368   -2.376285
  H      0.361162   -2.442024    0.711747
  H     -1.031911   -2.835647   -0.301311
  H      0.439454   -3.811863   -0.390972
  H      0.489873    1.427563   -2.464979
  H      0.566964    0.507768   -4.737487
  H      2.057418    0.132468   -3.856145
  H      0.838364   -1.127108   -4.127144
  H     -1.409205   -0.595446   -2.795729

 Total Charge           Charge          ....    0
 Multiplicity           Mult            ....    1
 Number of Electrons    NEL             ....   72
 Basis Dimension        Dim             ....  375

ORBITAL ENERGIES
----------------

  NO   OCC          E(Eh)            E(eV)
   0   2.0000     -20.545983      -559.0846
   1   2.0000     -11.277123      -306.8661
   2   2.0000     -11.233976      -305.6920
   3   2.0000     -11.232257      -305.6453
   4   2.0000     -11.222270      -305.3735
   5   2.0000     -11.219732      -305.3044
   6   2.0000     -11.216436      -305.2147
   7   2.0000     -11.214398      -305.1593
   8   2.0000     -11.209820      -305.0347
   9   2.0000      -1.352400       -36.8007
  10   2.0000      -1.157620       -31.5004
  11   2.0000      -1.025752       -27.9121
  12   2.0000      -1.007369       -27.4119
  13   2.0000      -0.958688       -26.0872
  14   2.0000      -0.886521       -24.1235
  15   2.0000      -0.835346       -22.7309
  16   2.0000      -0.797574       -21.7031
  17   2.0000      -0.731791       -19.9130
  18   2.0000      -0.686086       -18.6693
  19   2.0000      -0.637697       -17.3526
  20   2.0000      -0.617894       -16.8137
  21   2.0000      -0.612364       -16.6633
  22   2.0000      -0.594915       -16.1885
  23   2.0000      -0.579217       -15.7613
  24   2.0000      -0.569885       -15.5073
  25   2.0000      -0.547132       -14.8882
  26   2.0000      -0.538238       -14.6462
  27   2.0000      -0.523747       -14.2519
  28   2.0000      -0.513961       -13.9856
  29   2.0000      -0.506663       -13.7870
  30   2.0000      -0.490745       -13.3539
  31   2.0000      -0.489292       -13.3143
  32   2.0000      -0.464785       -12.6475
  33   2.0000      -0.428163       -11.6509
  34   2.0000      -0.401738       -10.9319
  35   2.0000      -0.388319       -10.5667
  36   0.0000       0.133125         3.6225
  37   0.0000       0.146290         3.9808
  38   0.0000       0.154539         4.2052
  39   0.0000       0.172080         4.6825
  40   0.0000       0.192876         5.2484

MULLIKEN ATOMIC CHARGES
-----------------------
   0 C :   -0.408839
   1 C :   -0.218740
   2 C :    0.095095
   3 C :   -0.322123
   4 C :   -0.137034
   5 C :   -0.395585
   6 C :    0.075547
   7 C :   -0.398229
   8 O :   -0.463046
   9 H :    0.123474
  10 H :    0.123302
  11 H :    0.133959
  12 H :    0.102141
  13 H :    0.131894
  14 H :    0.134655
  15 H :    0.125491
  16 H :    0.116327
  17 H :    0.123682
  18 H :    0.131224
  19 H :    0.137184
  20 H :    0.081700
  21 H :    0.148223
  22 H :    0.129692
  23 H :    0.118585
  24 H :    0.311421
Sum of atomic charges:    0.0000000

LOEWDIN ATOMIC CHARGES
----------------------
   0 C :   -0.312752
   1 C :   -0.245602
   2 C :   -0.221733
   3 C :   -0.186372
   4 C :   -0.222982
   5 C :   -0.296354
   6 C :   -0.323257
   7 C :   -0.299268
   8 O :   -0.022780
   9 H :    0.119984
  10 H :    0.118358
  11 H :    0.120996
  12 H :    0.138745
  13 H :    0.146860
  14 H :    0.132218
  15 H :    0.137648
  16 H :    0.146315
  17 H :    0.123008
  18 H :    0.124672
  19 H :    0.126702
  20 H :    0.148927
  21 H :    0.128973
  22 H :    0.124913
  23 H :    0.119880
  24 H :    0.172901

  Mayer bond orders larger than 0.1
B(  0-C ,  1-C ) :   0.9176 B(  0-C ,  9-H ) :   0.9398 B(  0-C , 10-H ) :   0.9378
B(  0-C , 11-H ) :   0.9419 B(  1-C ,  2-C ) :   0.8912 B(  1-C , 12-H ) :   0.9318
B(  1-C , 13-H ) :   0.9305 B(  2-C ,  3-C ) :   0.8586 B(  2-C ,  4-C ) :   0.8074
B(  2-C ,  6-C ) :   0.9437 B(  3-C ,  4-C ) :   0.9043 B(  3-C , 14-H ) :   0.9189
B(  3-C , 15-H ) :   0.9226 B(  4-C ,  5-C ) :   0.8996 B(  4-C , 16-H ) :   0.9368
B(  5-C , 17-H ) :   0.9370 B(  5-C , 18-H ) :   0.9403 B(  5-C , 19-H ) :   0.9385
B(  6-C ,  7-C ) :   0.9109 B(  6-C ,  8-O ) :   0.9110 B(  6-C , 20-H ) :   0.9122
B(  7-C , 21-H ) :   0.9406 B(  7-C , 22-H ) :   0.9329 B(  7-C , 23-H ) :   0.9257
B(  8-O , 24-H ) :   0.8415

MP2 TOTAL ENERGY:     -388.813016546 Eh
FINAL SINGLE POINT ENERGY      -388.813016545693

DIPOLE MOMENT
-------------
                                X             Y             Z
Electronic contribution:     -2.61962       0.55591      -2.71458
Nuclear contribution   :      2.97981      -1.07584       2.83727
                        -----------------------------------------
Total Dipole Moment    :      0.36019      -0.51993       0.12270
                        -----------------------------------------
Magnitude (a.u.)       :      0.64430
Magnitude (Debye)      :      1.63767

                             ****ORCA TERMINATED NORMALLY****
TOTAL RUN TIME: 0 days 0 hours 22 minutes 22 seconds 290 msec
