                         Program Version 3.0.3 - RELEASE   -
|  1> ! RI-MP2 RIJK def2-TZVP def2-TZVP/C def2-TZVP/JK TIGHTSCF
|  2> % maxcore 2000
|  3> % mp2 density relaxed end
|  4> *xyz 0 1
|  5>  C       -0.1124220381     1.6660047093    -0.2361472628
|  6>  C       -0.1158625772     0.1438409854    -0.0753146789
|  7>  C        0.6560852701    -0.5718793659    -1.1901663400
|  8>  C        0.6616564297    -2.0920697787    -1.0419026677
|  9>  C        1.0969802904    -2.8295798371    -2.3143676845
| 10>  O        1.3465306330    -2.2867913423    -3.3562439106
| 11>  C        1.5422980172    -2.6019000631     0.0957788495
| 12>  O        1.5046701824    -3.7285102907     0.5166663317
| 13>  H        0.9079011837     2.0641689653    -0.2151221877
| 14>  H       -0.5624382885     1.9618782184    -1.1899640003
| 15>  H       -0.6767448430     2.1519598139     0.5653088159
| 16>  H        0.3077546044    -0.1215938537     0.9028434504
| 17>  H       -1.1507969410    -0.2232143258    -0.0629521956
| 18>  H        0.2342743535    -0.3165724451    -2.1672239598
| 19>  H        1.6938209135    -0.2127155319    -1.2161375988
| 20>  H       -0.3453488670    -2.4833955597    -0.8297645756
| 21>  H        1.1590764659    -3.9308571182    -2.1897855421
| 22>  H        2.2702609210    -1.8572044601     0.4895419170
| 23> *
| 24>
| 25>                          ****END OF INPUT****

CARTESIAN COORDINATES (ANGSTROEM)
---------------------------------
  C     -0.112422    1.666005   -0.236147
  C     -0.115863    0.143841   -0.075315
  C      0.656085   -0.571879   -1.190166
  C      0.661656   -2.092070   -1.041903
  C      1.096980   -2.829580   -2.314368
  O      1.346531   -2.286791   -3.356244
  C      1.542298   -2.601900    0.095779
  O      1.504670   -3.728510    0.516666
  H      0.907901    2.064169   -0.215122
  H     -0.562438    1.961878   -1.189964
  H     -0.676745    2.151960    0.565309
  H      0.307755   -0.121594    0.902843
  H     -1.150797   -0.223214   -0.062952
  H      0.234274   -0.316572   -2.167224
  H      1.693821   -0.212716   -1.216138
  H     -0.345349   -2.483396   -0.829765
  H      1.159076   -3.930857   -2.189786
  H      2.270261   -1.857204    0.489542

 Total Charge           Charge          ....    0
 Multiplicity           Mult            ....    1
 Number of Electrons    NEL             ....   62
 Basis Dimension        Dim             ....  308

ORBITAL ENERGIES
----------------

  NO   OCC          E(Eh)            E(eV)
   0   2.0000     -20.577314      -559.9372
   1   2.0000     -20.572540      -559.8073
   2   2.0000     -11.352832      -308.9263
   3   2.0000     -11.347970      -308.7940
   4   2.0000     -11.267305      -306.5989
   5   2.0000     -11.242108      -305.9133
   6   2.0000     -11.239523      -305.8430
   7   2.0000     -11.225845      -305.4708
   8   2.0000      -1.418515       -38.5998
   9   2.0000      -1.411887       -38.4194
  10   2.0000      -1.116061       -30.3696
  11   2.0000      -1.040405       -28.3108
  12   2.0000      -0.927842       -25.2479
  13   2.0000      -0.857570       -23.3357
  14   2.0000      -0.827102       -22.5066
  15   2.0000      -0.776513       -21.1300
  16   2.0000      -0.698232       -18.9999
  17   2.0000      -0.677439       -18.4340
  18   2.0000      -0.665328       -18.1045
  19   2.0000      -0.651133       -17.7182
  20   2.0000      -0.626528       -17.0487
  21   2.0000      -0.598719       -16.2920
  22   2.0000      -0.562960       -15.3189
  23   2.0000      -0.545562       -14.8455
  24   2.0000      -0.537256       -14.6195
  25   2.0000      -0.527755       -14.3609
  26   2.0000      -0.504933       -13.7399
  27   2.0000      -0.492316       -13.3966
  28   2.0000      -0.488482       -13.2923
  29   2.0000      -0.444129       -12.0854
  30   2.0000      -0.421992       -11.4830
  31   0.0000       0.092900         2.5279
  32   0.0000       0.124678         3.3927
  33   0.0000       0.137774         3.7490
  34   0.0000       0.144588         3.9344
  35   0.0000       0.166456         4.5295

MULLIKEN ATOMIC CHARGES
-----------------------
   0 C :   -0.386645
   1 C :   -0.192688
   2 C :   -0.311994
   3 C :    0.040530
   4 C :    0.074420
   5 O :   -0.254323
   6 C :    0.050639
   7 O :   -0.253074
   8 H :    0.125464
   9 H :    0.127974
  10 H :    0.138171
  11 H :    0.111471
  12 H :    0.113434
  13 H :    0.145214
  14 H :    0.124328
  15 H :    0.126309
  16 H :    0.117700
  17 H :    0.103070
Sum of atomic charges:   -0.0000000

LOEWDIN ATOMIC CHARGES
----------------------
   0 C :   -0.317318
   1 C :   -0.294140
   2 C :   -0.245243
   3 C :   -0.261360
   4 C :   -0.262266
   5 O :    0.149074
   6 C :   -0.269301
   7 O :    0.144795
   8 H :    0.121793
   9 H :    0.122748
  10 H :    0.122268
  11 H :    0.135059
  12 H :    0.136842
  13 H :    0.149687
  14 H :    0.145075
  15 H :    0.181346
  16 H :    0.122988
  17 H :    0.117954

  Mayer bond orders larger than 0.1
B(  0-C ,  1-C ) :   0.9296 B(  0-C ,  8-H ) :   0.9388 B(  0-C ,  9-H ) :   0.9384
B(  0-C , 10-H ) :   0.9424 B(  1-C ,  2-C ) :   0.9216 B(  1-C , 11-H ) :   0.9306
B(  1-C , 12-H ) :   0.9293 B(  2-C ,  3-C ) :   0.8873 B(  2-C , 13-H ) :   0.9208
B(  2-C , 14-H ) :   0.9246 B(  3-C ,  4-C ) :   0.8353 B(  3-C ,  6-C ) :   0.8253
B(  3-C , 15-H ) :   0.8817 B(  4-C ,  5-O ) :   1.9963 B(  4-C , 16-H ) :   0.9445
B(  6-C ,  7-O ) :   1.9817 B(  6-C , 17-H ) :   0.9372

MP2 TOTAL ENERGY:     -384.318951607 Eh
FINAL SINGLE POINT ENERGY      -384.318951607226

DIPOLE MOMENT
-------------
                                X             Y             Z
Electronic contribution:      3.76660     -10.86354      -2.94726
Nuclear contribution   :     -4.13009      11.53339       3.36363
                        -----------------------------------------
Total Dipole Moment    :     -0.36349       0.66985       0.41637
                        -----------------------------------------
Magnitude (a.u.)       :      0.86844
Magnitude (Debye)      :      2.20741

                             ****ORCA TERMINATED NORMALLY****
TOTAL RUN TIME: 0 days 0 hours 12 minutes 5 seconds 811 msec
