                         Program Version 3.0.3 - RELEASE   -
|  1> ! RI-MP2 RIJK def2-TZVP def2-TZVP/C def2-TZVP/JK TIGHTSCF
|  2> % maxcore 2000
|  3> % mp2 density relaxed end
|  4> *xyz 0 1
|  5>  C        0.4756239666     0.4490925704     0.7686407838
|  6>  N       -0.4277923927     0.5113323300    -0.3708198769
|  7>  C       -1.5443861034    -0.3148993262    -0.3981450539
|  8>  C       -2.7705048820    -0.1382566260    -1.0224876089
|  9>  C       -3.5236520933    -1.3175473767    -0.8101256216
| 10>  C       -2.7600759431    -2.1929886017    -0.0595480953
| 11>  N       -1.5442182749    -1.5487950004     0.1843400157
| 12>  C       -3.0223063494    -3.4794360625     0.4358997604
| 13>  C       -3.2274159120    -4.5879761816     0.8684237037
| 14>  H        1.2189356441     1.2430820049     0.6710721323
| 15>  H       -0.0286188551     0.5563574495     1.7417117274
| 16>  H        1.0245241409    -0.4998417494     0.7697482955
| 17>  H       -0.6652787725     1.4557783102    -0.6355828230
| 18>  H       -3.0764980533     0.7423193497    -1.5658092014
| 19>  H       -4.5255881841    -1.5159313514    -1.1569642280
| 20>  H       -0.7807979745    -1.9669601990     0.6855174758
| 21>  H       -3.4221028013    -5.5608939997     1.2445957246
| 22> *
| 23>
| 24>                          ****END OF INPUT****

CARTESIAN COORDINATES (ANGSTROEM)
---------------------------------
  C      0.475624    0.449093    0.768641
  N     -0.427792    0.511332   -0.370820
  C     -1.544386   -0.314899   -0.398145
  C     -2.770505   -0.138257   -1.022488
  C     -3.523652   -1.317547   -0.810126
  C     -2.760076   -2.192989   -0.059548
  N     -1.544218   -1.548795    0.184340
  C     -3.022306   -3.479436    0.435900
  C     -3.227416   -4.587976    0.868424
  H      1.218936    1.243082    0.671072
  H     -0.028619    0.556357    1.741712
  H      1.024524   -0.499842    0.769748
  H     -0.665279    1.455778   -0.635583
  H     -3.076498    0.742319   -1.565809
  H     -4.525588   -1.515931   -1.156964
  H     -0.780798   -1.966960    0.685517
  H     -3.422103   -5.560894    1.244596

 Total Charge           Charge          ....    0
 Multiplicity           Mult            ....    1
 Number of Electrons    NEL             ....   64
 Basis Dimension        Dim             ....  327

ORBITAL ENERGIES
----------------

  NO   OCC          E(Eh)            E(eV)
   0   2.0000     -15.604950      -424.6323
   1   2.0000     -15.579374      -423.9363
   2   2.0000     -11.306266      -307.6591
   3   2.0000     -11.271985      -306.7263
   4   2.0000     -11.260346      -306.4096
   5   2.0000     -11.233105      -305.6683
   6   2.0000     -11.223465      -305.4060
   7   2.0000     -11.218679      -305.2758
   8   2.0000     -11.202018      -304.8224
   9   2.0000      -1.313235       -35.7349
  10   2.0000      -1.222765       -33.2731
  11   2.0000      -1.053432       -28.6653
  12   2.0000      -1.043311       -28.3899
  13   2.0000      -0.976811       -26.5804
  14   2.0000      -0.920569       -25.0500
  15   2.0000      -0.804414       -21.8892
  16   2.0000      -0.794477       -21.6188
  17   2.0000      -0.771082       -20.9822
  18   2.0000      -0.698511       -19.0074
  19   2.0000      -0.656173       -17.8554
  20   2.0000      -0.641062       -17.4442
  21   2.0000      -0.628503       -17.1024
  22   2.0000      -0.596271       -16.2254
  23   2.0000      -0.575309       -15.6550
  24   2.0000      -0.558976       -15.2105
  25   2.0000      -0.553894       -15.0722
  26   2.0000      -0.540248       -14.7009
  27   2.0000      -0.457132       -12.4392
  28   2.0000      -0.403818       -10.9885
  29   2.0000      -0.391267       -10.6469
  30   2.0000      -0.355486        -9.6733
  31   2.0000      -0.257565        -7.0087
  32   0.0000       0.122753         3.3403
  33   0.0000       0.134819         3.6686
  34   0.0000       0.144732         3.9383
  35   0.0000       0.166873         4.5408
  36   0.0000       0.175488         4.7753

MULLIKEN ATOMIC CHARGES
-----------------------
   0 C :   -0.307569
   1 N :   -0.326252
   2 C :    0.229178
   3 C :   -0.257368
   4 C :   -0.224292
   5 C :   -0.018518
   6 N :   -0.321709
   7 C :    0.052758
   8 C :   -0.158692
   9 H :    0.145480
  10 H :    0.137135
  11 H :    0.127150
  12 H :    0.232264
  13 H :    0.126999
  14 H :    0.130867
  15 H :    0.244053
  16 H :    0.188516
Sum of atomic charges:    0.0000000

LOEWDIN ATOMIC CHARGES
----------------------
   0 C :   -0.335171
   1 N :    0.030222
   2 C :   -0.299774
   3 C :   -0.187858
   4 C :   -0.150095
   5 C :   -0.225969
   6 N :    0.227804
   7 C :   -0.095420
   8 C :   -0.096289
   9 H :    0.121652
  10 H :    0.107722
  11 H :    0.113380
  12 H :    0.187378
  13 H :    0.138091
  14 H :    0.143557
  15 H :    0.195109
  16 H :    0.125662

  Mayer bond orders larger than 0.1
B(  0-C ,  1-N ) :   0.9139 B(  0-C ,  9-H ) :   0.9371 B(  0-C , 10-H ) :   0.9270
B(  0-C , 11-H ) :   0.9340 B(  1-N ,  2-C ) :   1.0959 B(  1-N , 12-H ) :   0.8757
B(  2-C ,  3-C ) :   1.4052 B(  2-C ,  6-N ) :   1.1456 B(  3-C ,  4-C ) :   1.2927
B(  3-C , 13-H ) :   0.9291 B(  4-C ,  5-C ) :   1.4271 B(  4-C , 14-H ) :   0.9421
B(  5-C ,  6-N ) :   1.0914 B(  5-C ,  7-C ) :   1.1675 B(  5-C ,  8-C ) :  -0.1302
B(  6-N , 15-H ) :   0.8697 B(  7-C ,  8-C ) :   2.5877 B(  8-C , 16-H ) :   0.8831

MP2 TOTAL ENERGY:     -380.176138008 Eh
FINAL SINGLE POINT ENERGY      -380.176138007758

DIPOLE MOMENT
-------------
                                X             Y             Z
Electronic contribution:     -4.13861      -4.09929      -1.36810
Nuclear contribution   :      5.04416       4.75211       1.86089
                        -----------------------------------------
Total Dipole Moment    :      0.90555       0.65283       0.49279
                        -----------------------------------------
Magnitude (a.u.)       :      1.22026
Magnitude (Debye)      :      3.10166

                             ****ORCA TERMINATED NORMALLY****
TOTAL RUN TIME: 0 days 0 hours 15 minutes 43 seconds 232 msec
