                         Program Version 3.0.3 - RELEASE   -
|  1> ! RI-MP2 RIJK def2-TZVP def2-TZVP/C def2-TZVP/JK TIGHTSCF
|  2> % maxcore 2000
|  3> % mp2 density relaxed end
|  4> *xyz 0 1
|  5>  O       -0.4966874438     0.3841527791     0.4756248088
|  6>  C       -0.0138206949     1.2495956116    -0.2180164267
|  7>  C        1.2590294725     1.9736942799     0.0111975538
|  8>  C        1.4942416480     2.8592531714     1.2328331690
|  9>  C        0.6554504434     2.6407563641     2.4382925435
| 10>  C        0.8841002645     1.4211933620     2.9259497709
| 11>  C        1.9170344165     0.7016008571     2.0942877390
| 12>  N        2.2903508385     1.6505929036     1.0108413953
| 13>  H       -0.5237899334     1.5797528931    -1.1522086145
| 14>  H        1.6891393003     2.3473804643    -0.9173156034
| 15>  H        1.9645470480     3.8231215687     1.0525021811
| 16>  H       -0.0310552708     3.3804651421     2.8285838513
| 17>  H        0.3929799830     0.9695492276     3.7790726722
| 18>  H        2.8249954211     0.4744820516     2.6675270518
| 19>  H        1.5364582770    -0.2358936964     1.6819018979
| 20> *
| 21>
| 22>                          ****END OF INPUT****

CARTESIAN COORDINATES (ANGSTROEM)
---------------------------------
  O     -0.496687    0.384153    0.475625
  C     -0.013821    1.249596   -0.218016
  C      1.259029    1.973694    0.011198
  C      1.494242    2.859253    1.232833
  C      0.655450    2.640756    2.438293
  C      0.884100    1.421193    2.925950
  C      1.917034    0.701601    2.094288
  N      2.290351    1.650593    1.010841
  H     -0.523790    1.579753   -1.152209
  H      1.689139    2.347380   -0.917316
  H      1.964547    3.823122    1.052502
  H     -0.031055    3.380465    2.828584
  H      0.392980    0.969549    3.779073
  H      2.824995    0.474482    2.667527
  H      1.536458   -0.235894    1.681902

 Total Charge           Charge          ....    0
 Multiplicity           Mult            ....    1
 Number of Electrons    NEL             ....   58
 Basis Dimension        Dim             ....  290

ORBITAL ENERGIES
----------------

  NO   OCC          E(Eh)            E(eV)
   0   2.0000     -20.556999      -559.3844
   1   2.0000     -15.576278      -423.8521
   2   2.0000     -11.336809      -308.4902
   3   2.0000     -11.283576      -307.0417
   4   2.0000     -11.276646      -306.8531
   5   2.0000     -11.258239      -306.3523
   6   2.0000     -11.238606      -305.8180
   7   2.0000     -11.233451      -305.6777
   8   2.0000      -1.396134       -37.9907
   9   2.0000      -1.297937       -35.3187
  10   2.0000      -1.074511       -29.2389
  11   2.0000      -1.003527       -27.3074
  12   2.0000      -0.942376       -25.6434
  13   2.0000      -0.813922       -22.1479
  14   2.0000      -0.789679       -21.4883
  15   2.0000      -0.744130       -20.2488
  16   2.0000      -0.714227       -19.4351
  17   2.0000      -0.666732       -18.1427
  18   2.0000      -0.634594       -17.2682
  19   2.0000      -0.619804       -16.8657
  20   2.0000      -0.589443       -16.0396
  21   2.0000      -0.553205       -15.0535
  22   2.0000      -0.541682       -14.7399
  23   2.0000      -0.521346       -14.1866
  24   2.0000      -0.492834       -13.4107
  25   2.0000      -0.479357       -13.0440
  26   2.0000      -0.428705       -11.6656
  27   2.0000      -0.398307       -10.8385
  28   2.0000      -0.341369        -9.2891
  29   0.0000       0.113896         3.0993
  30   0.0000       0.139338         3.7916
  31   0.0000       0.158027         4.3001
  32   0.0000       0.167808         4.5663
  33   0.0000       0.181156         4.9295

MULLIKEN ATOMIC CHARGES
-----------------------
   0 O :   -0.284938
   1 C :    0.123018
   2 C :   -0.080829
   3 C :    0.014429
   4 C :   -0.204630
   5 C :   -0.168685
   6 C :   -0.078105
   7 N :   -0.224125
   8 H :    0.081684
   9 H :    0.130591
  10 H :    0.140646
  11 H :    0.138708
  12 H :    0.135381
  13 H :    0.134171
  14 H :    0.142683
Sum of atomic charges:   -0.0000000

LOEWDIN ATOMIC CHARGES
----------------------
   0 O :    0.134431
   1 C :   -0.294616
   2 C :   -0.238823
   3 C :   -0.194911
   4 C :   -0.152265
   5 C :   -0.140781
   6 C :   -0.245015
   7 N :    0.151807
   8 H :    0.117930
   9 H :    0.154039
  10 H :    0.144527
  11 H :    0.142480
  12 H :    0.140906
  13 H :    0.136780
  14 H :    0.143511

  Mayer bond orders larger than 0.1
B(  0-O ,  1-C ) :   1.9303 B(  1-C ,  2-C ) :   0.9239 B(  1-C ,  8-H ) :   0.9341
B(  2-C ,  3-C ) :   0.8695 B(  2-C ,  7-N ) :   0.9209 B(  2-C ,  9-H ) :   0.9072
B(  3-C ,  4-C ) :   0.9739 B(  3-C ,  7-N ) :   0.9027 B(  3-C , 10-H ) :   0.9048
B(  4-C ,  5-C ) :   1.7761 B(  4-C , 11-H ) :   0.9205 B(  5-C ,  6-C ) :   0.9583
B(  5-C , 12-H ) :   0.9148 B(  6-C ,  7-N ) :   0.9138 B(  6-C , 13-H ) :   0.9100
B(  6-C , 14-H ) :   0.9157

MP2 TOTAL ENERGY:     -362.013166341 Eh
FINAL SINGLE POINT ENERGY      -362.013166340660

DIPOLE MOMENT
-------------
                                X             Y             Z
Electronic contribution:     -0.91186      -0.56230      -1.26768
Nuclear contribution   :      0.94588       1.20944       1.26756
                        -----------------------------------------
Total Dipole Moment    :      0.03402       0.64714      -0.00012
                        -----------------------------------------
Magnitude (a.u.)       :      0.64804
Magnitude (Debye)      :      1.64718

                             ****ORCA TERMINATED NORMALLY****
TOTAL RUN TIME: 0 days 0 hours 11 minutes 53 seconds 811 msec
