                         Program Version 3.0.3 - RELEASE   -
|  1> ! RI-MP2 RIJK def2-TZVP def2-TZVP/C def2-TZVP/JK TIGHTSCF
|  2> % maxcore 2000
|  3> % mp2 density relaxed end
|  4> *xyz 0 1
|  5>  O        0.6341689329     0.5231017939    -0.6651327497
|  6>  C       -0.1931573730     0.3918614046     0.4742350869
|  7>  C       -1.5267659881    -0.3023948609     0.1613637994
|  8>  C       -1.4124233883    -1.7846448670    -0.2178023674
|  9>  C       -2.6851577152    -2.3822421890     0.4043123312
| 10>  C       -2.8493891640    -1.5352643904     1.6678612264
| 11>  O       -2.3394314792    -0.2363851613     1.3457192603
| 12>  C       -2.2857077296     0.5040682240    -0.9006923437
| 13>  O       -2.5437301224     0.1225368502    -2.0114829700
| 14>  H        0.8687740732    -0.3579908110    -0.9739968886
| 15>  H        0.2954962235    -0.1526264994     1.2964005726
| 16>  H       -0.3918457979     1.4087403220     0.8276048405
| 17>  H       -1.3706232422    -1.9141528404    -1.3003371798
| 18>  H       -0.5159447334    -2.2253165575     0.2337220406
| 19>  H       -3.5340296235    -2.2342187199    -0.2698872897
| 20>  H       -2.6022219682    -3.4500837931     0.6185469723
| 21>  H       -3.8894527825    -1.4257659629     1.9899096383
| 22>  H       -2.2738240524    -1.9546403777     2.5058762552
| 23>  H       -2.6226759797     1.4958638158    -0.5259746349
| 24> *
| 25>
| 26>                          ****END OF INPUT****

CARTESIAN COORDINATES (ANGSTROEM)
---------------------------------
  O      0.634169    0.523102   -0.665133
  C     -0.193157    0.391861    0.474235
  C     -1.526766   -0.302395    0.161364
  C     -1.412423   -1.784645   -0.217802
  C     -2.685158   -2.382242    0.404312
  C     -2.849389   -1.535264    1.667861
  O     -2.339431   -0.236385    1.345719
  C     -2.285708    0.504068   -0.900692
  O     -2.543730    0.122537   -2.011483
  H      0.868774   -0.357991   -0.973997
  H      0.295496   -0.152626    1.296401
  H     -0.391846    1.408740    0.827605
  H     -1.370623   -1.914153   -1.300337
  H     -0.515945   -2.225317    0.233722
  H     -3.534030   -2.234219   -0.269887
  H     -2.602222   -3.450084    0.618547
  H     -3.889453   -1.425766    1.989910
  H     -2.273824   -1.954640    2.505876
  H     -2.622676    1.495864   -0.525975

 Total Charge           Charge          ....    0
 Multiplicity           Mult            ....    1
 Number of Electrons    NEL             ....   70
 Basis Dimension        Dim             ....  339

ORBITAL ENERGIES
----------------

  NO   OCC          E(Eh)            E(eV)
   0   2.0000     -20.571419      -559.7768
   1   2.0000     -20.570967      -559.7645
   2   2.0000     -20.561794      -559.5149
   3   2.0000     -11.330779      -308.3262
   4   2.0000     -11.302630      -307.5602
   5   2.0000     -11.290864      -307.2400
   6   2.0000     -11.287057      -307.1364
   7   2.0000     -11.240730      -305.8758
   8   2.0000     -11.238933      -305.8269
   9   2.0000      -1.407755       -38.3070
  10   2.0000      -1.388956       -37.7954
  11   2.0000      -1.374803       -37.4103
  12   2.0000      -1.079390       -29.3717
  13   2.0000      -1.051190       -28.6043
  14   2.0000      -0.925079       -25.1727
  15   2.0000      -0.880168       -23.9506
  16   2.0000      -0.829805       -22.5801
  17   2.0000      -0.763701       -20.7814
  18   2.0000      -0.724251       -19.7079
  19   2.0000      -0.694759       -18.9054
  20   2.0000      -0.679220       -18.4825
  21   2.0000      -0.656636       -17.8680
  22   2.0000      -0.636511       -17.3203
  23   2.0000      -0.609992       -16.5987
  24   2.0000      -0.608827       -16.5670
  25   2.0000      -0.588039       -16.0014
  26   2.0000      -0.552055       -15.0222
  27   2.0000      -0.527908       -14.3651
  28   2.0000      -0.518898       -14.1199
  29   2.0000      -0.511734       -13.9250
  30   2.0000      -0.493762       -13.4359
  31   2.0000      -0.485483       -13.2107
  32   2.0000      -0.467276       -12.7152
  33   2.0000      -0.454873       -12.3777
  34   2.0000      -0.400896       -10.9089
  35   0.0000       0.121359         3.3024
  36   0.0000       0.132243         3.5985
  37   0.0000       0.149379         4.0648
  38   0.0000       0.164277         4.4702
  39   0.0000       0.173965         4.7338

MULLIKEN ATOMIC CHARGES
-----------------------
   0 O :   -0.464145
   1 C :   -0.047714
   2 C :    0.228170
   3 C :   -0.303970
   4 C :   -0.261897
   5 C :   -0.039176
   6 O :   -0.332137
   7 C :    0.061813
   8 O :   -0.261894
   9 H :    0.321510
  10 H :    0.116094
  11 H :    0.125653
  12 H :    0.160849
  13 H :    0.123420
  14 H :    0.134275
  15 H :    0.132775
  16 H :    0.119653
  17 H :    0.095841
  18 H :    0.090881
Sum of atomic charges:    0.0000000

LOEWDIN ATOMIC CHARGES
----------------------
   0 O :   -0.028521
   1 C :   -0.308910
   2 C :   -0.358935
   3 C :   -0.223822
   4 C :   -0.255509
   5 C :   -0.293339
   6 O :    0.190957
   7 C :   -0.246792
   8 O :    0.145249
   9 H :    0.176916
  10 H :    0.124362
  11 H :    0.137546
  12 H :    0.149516
  13 H :    0.140980
  14 H :    0.143822
  15 H :    0.138519
  16 H :    0.126594
  17 H :    0.121140
  18 H :    0.120225

  Mayer bond orders larger than 0.1
B(  0-O ,  1-C ) :   0.9169 B(  0-O ,  9-H ) :   0.8442 B(  1-C ,  2-C ) :   0.8998
B(  1-C , 10-H ) :   0.9254 B(  1-C , 11-H ) :   0.9251 B(  2-C ,  3-C ) :   0.8797
B(  2-C ,  6-O ) :   0.8757 B(  2-C ,  7-C ) :   0.8361 B(  3-C ,  4-C ) :   0.9312
B(  3-C , 12-H ) :   0.9047 B(  3-C , 13-H ) :   0.9325 B(  4-C ,  5-C ) :   0.9570
B(  4-C , 14-H ) :   0.9259 B(  4-C , 15-H ) :   0.9257 B(  5-C ,  6-O ) :   0.9270
B(  5-C , 16-H ) :   0.9257 B(  5-C , 17-H ) :   0.9280 B(  7-C ,  8-O ) :   1.9888
B(  7-C , 18-H ) :   0.9394

MP2 TOTAL ENERGY:     -459.440230063 Eh
FINAL SINGLE POINT ENERGY      -459.440230062861

DIPOLE MOMENT
-------------
                                X             Y             Z
Electronic contribution:     -0.38042       4.34507      -3.15788
Nuclear contribution   :      0.51489      -5.37660       3.94832
                        -----------------------------------------
Total Dipole Moment    :      0.13446      -1.03153       0.79043
                        -----------------------------------------
Magnitude (a.u.)       :      1.30649
Magnitude (Debye)      :      3.32084

                             ****ORCA TERMINATED NORMALLY****
TOTAL RUN TIME: 0 days 0 hours 19 minutes 38 seconds 430 msec
