                         Program Version 3.0.3 - RELEASE   -
|  1> ! RI-MP2 RIJK def2-TZVP def2-TZVP/C def2-TZVP/JK TIGHTSCF
|  2> % maxcore 2000
|  3> % mp2 density relaxed end
|  4> *xyz 0 1
|  5>  C       -0.0722282962     1.5234384757     0.0571472926
|  6>  C       -0.0214492542     0.0309253439    -0.0123809986
|  7>  C        0.0278873380    -0.7499866110    -1.0986003845
|  8>  C        0.0586891693    -2.2325883761    -0.7750519774
|  9>  C        1.2571779323    -2.9878972457    -1.3793570847
| 10>  O        1.2727264191    -2.9487446736    -2.7982110608
| 11>  C        0.0755081888    -2.2315744868     0.7538849940
| 12>  O        1.2312246298    -1.6099981658     1.3286908737
| 13>  C        0.0127905108    -0.8357955920     1.2120404652
| 14>  H        0.8054723360     1.9257834912     0.5781822762
| 15>  H       -0.1125387910     1.9704742630    -0.9396444174
| 16>  H       -0.9519694379     1.8654764518     0.6168308871
| 17>  H        0.0657119140    -0.3808648144    -2.1186904430
| 18>  H       -0.8567193897    -2.7210627343    -1.1367747952
| 19>  H        2.1841401990    -2.5885434797    -0.9485289005
| 20>  H        1.1926963307    -4.0475134510    -1.1096798218
| 21>  H        1.5737406229    -2.0750440150    -3.0645344323
| 22>  H       -0.3289830922    -3.0679826315     1.3178881576
| 23>  H       -0.4208697896    -0.5220748687     2.1577379198
| 24> *
| 25>
| 26>                          ****END OF INPUT****

CARTESIAN COORDINATES (ANGSTROEM)
---------------------------------
  C     -0.072228    1.523438    0.057147
  C     -0.021449    0.030925   -0.012381
  C      0.027887   -0.749987   -1.098600
  C      0.058689   -2.232588   -0.775052
  C      1.257178   -2.987897   -1.379357
  O      1.272726   -2.948745   -2.798211
  C      0.075508   -2.231574    0.753885
  O      1.231225   -1.609998    1.328691
  C      0.012791   -0.835796    1.212040
  H      0.805472    1.925783    0.578182
  H     -0.112539    1.970474   -0.939644
  H     -0.951969    1.865476    0.616831
  H      0.065712   -0.380865   -2.118690
  H     -0.856719   -2.721063   -1.136775
  H      2.184140   -2.588543   -0.948529
  H      1.192696   -4.047513   -1.109680
  H      1.573741   -2.075044   -3.064534
  H     -0.328983   -3.067983    1.317888
  H     -0.420870   -0.522075    2.157738

 Total Charge           Charge          ....    0
 Multiplicity           Mult            ....    1
 Number of Electrons    NEL             ....   68
 Basis Dimension        Dim             ....  339

ORBITAL ENERGIES
----------------

  NO   OCC          E(Eh)            E(eV)
   0   2.0000     -20.567866      -559.6801
   1   2.0000     -20.556259      -559.3642
   2   2.0000     -11.288966      -307.1884
   3   2.0000     -11.287061      -307.1365
   4   2.0000     -11.275365      -306.8183
   5   2.0000     -11.243799      -305.9593
   6   2.0000     -11.240226      -305.8621
   7   2.0000     -11.232957      -305.6643
   8   2.0000     -11.231997      -305.6382
   9   2.0000      -1.410836       -38.3908
  10   2.0000      -1.360308       -37.0159
  11   2.0000      -1.124341       -30.5949
  12   2.0000      -1.036695       -28.2099
  13   2.0000      -0.948981       -25.8231
  14   2.0000      -0.914957       -24.8972
  15   2.0000      -0.876683       -23.8557
  16   2.0000      -0.786918       -21.4131
  17   2.0000      -0.746631       -20.3169
  18   2.0000      -0.705530       -19.1985
  19   2.0000      -0.694122       -18.8880
  20   2.0000      -0.621520       -16.9124
  21   2.0000      -0.612934       -16.6788
  22   2.0000      -0.596432       -16.2298
  23   2.0000      -0.582093       -15.8396
  24   2.0000      -0.575944       -15.6722
  25   2.0000      -0.561958       -15.2917
  26   2.0000      -0.550806       -14.9882
  27   2.0000      -0.526840       -14.3360
  28   2.0000      -0.509384       -13.8610
  29   2.0000      -0.478984       -13.0338
  30   2.0000      -0.471251       -12.8234
  31   2.0000      -0.443113       -12.0577
  32   2.0000      -0.414520       -11.2797
  33   2.0000      -0.347989        -9.4693
  34   0.0000       0.124858         3.3976
  35   0.0000       0.138634         3.7724
  36   0.0000       0.152819         4.1584
  37   0.0000       0.161783         4.4023
  38   0.0000       0.181090         4.9277

MULLIKEN ATOMIC CHARGES
-----------------------
   0 C :   -0.436359
   1 C :    0.047652
   2 C :   -0.310454
   3 C :    0.107825
   4 C :   -0.090694
   5 O :   -0.478434
   6 C :   -0.015053
   7 O :   -0.330271
   8 C :    0.017735
   9 H :    0.149131
  10 H :    0.140732
  11 H :    0.141427
  12 H :    0.125043
  13 H :    0.097718
  14 H :    0.135325
  15 H :    0.115155
  16 H :    0.318904
  17 H :    0.137498
  18 H :    0.127119
Sum of atomic charges:   -0.0000000

LOEWDIN ATOMIC CHARGES
----------------------
   0 C :   -0.271055
   1 C :   -0.170856
   2 C :   -0.108328
   3 C :   -0.224563
   4 C :   -0.315649
   5 O :   -0.045837
   6 C :   -0.221634
   7 O :    0.163434
   8 C :   -0.205794
   9 H :    0.134994
  10 H :    0.131645
  11 H :    0.132711
  12 H :    0.137532
  13 H :    0.162009
  14 H :    0.124967
  15 H :    0.130833
  16 H :    0.171573
  17 H :    0.136048
  18 H :    0.137971

  Mayer bond orders larger than 0.1
B(  0-C ,  1-C ) :   0.8808 B(  0-C ,  9-H ) :   0.9285 B(  0-C , 10-H ) :   0.9553
B(  0-C , 11-H ) :   0.9306 B(  1-C ,  2-C ) :   1.7216 B(  1-C ,  8-C ) :   0.9041
B(  2-C ,  3-C ) :   0.8846 B(  2-C , 12-H ) :   0.9271 B(  3-C ,  4-C ) :   0.8556
B(  3-C ,  6-C ) :   0.9059 B(  3-C , 13-H ) :   0.9014 B(  4-C ,  5-O ) :   0.9413
B(  4-C , 14-H ) :   0.9353 B(  4-C , 15-H ) :   0.9322 B(  5-O , 16-H ) :   0.8475
B(  6-C ,  7-O ) :   0.9098 B(  6-C ,  8-C ) :   0.9709 B(  6-C , 17-H ) :   0.9204
B(  7-O ,  8-C ) :   0.8989 B(  8-C , 18-H ) :   0.9278

MP2 TOTAL ENERGY:     -422.303947092 Eh
FINAL SINGLE POINT ENERGY      -422.303947092446

DIPOLE MOMENT
-------------
                                X             Y             Z
Electronic contribution:      0.90680      -3.10092       1.32508
Nuclear contribution   :     -1.43182       3.75886      -1.16507
                        -----------------------------------------
Total Dipole Moment    :     -0.52502       0.65794       0.16001
                        -----------------------------------------
Magnitude (a.u.)       :      0.85682
Magnitude (Debye)      :      2.17785

                             ****ORCA TERMINATED NORMALLY****
TOTAL RUN TIME: 0 days 0 hours 28 minutes 15 seconds 123 msec
