                         Program Version 3.0.3 - RELEASE   -
|  1> ! RI-MP2 RIJK def2-TZVP def2-TZVP/C def2-TZVP/JK TIGHTSCF
|  2> % maxcore 2000
|  3> % mp2 density relaxed end
|  4> *xyz 0 1
|  5>  C        0.4265063768     1.3943985389    -0.2751583456
|  6>  C       -0.3041569077     0.1392319549     0.2359102201
|  7>  C        0.3124729270    -0.4387628427     1.4261060383
|  8>  C        0.8347088830    -0.8892301675     2.4142656512
|  9>  C        1.4725295087    -1.4728388659     3.5894067678
| 10>  C        2.2107289859    -2.7956214890     3.2877641367
| 11>  C        2.8682763178    -3.3841405242     4.5164873006
| 12>  C        2.0730108642    -4.2407118202     5.4719407792
| 13>  C        3.1415964462    -4.8630748930     4.6061272659
| 14>  H        1.4633890002     1.1618136599    -0.5329323099
| 15>  H       -0.0700337893     1.7910704889    -1.1660090334
| 16>  H        0.4376640719     2.1753935550     0.4900640824
| 17>  H       -1.3513159712     0.3893287755     0.4510151513
| 18>  H       -0.3353292452    -0.6141967314    -0.5620541573
| 19>  H        2.1845466307    -0.7541387411     4.0177386496
| 20>  H        0.7228857721    -1.6524491883     4.3711255419
| 21>  H        1.4958444664    -3.5146194148     2.8702001275
| 22>  H        2.9588349624    -2.6147720898     2.5065722792
| 23>  H        3.6148925350    -2.7393337959     4.9753424960
| 24>  H        2.2602409973    -4.1470692407     6.5359286378
| 25>  H        1.0373740670    -4.4485279331     5.2214691052
| 26>  H        2.8214206379    -5.4870015767     3.7778747719
| 27>  H        4.0609835128    -5.1919429689     5.0778899937
| 28> *
| 29>
| 30>                          ****END OF INPUT****

CARTESIAN COORDINATES (ANGSTROEM)
---------------------------------
  C      0.426506    1.394399   -0.275158
  C     -0.304157    0.139232    0.235910
  C      0.312473   -0.438763    1.426106
  C      0.834709   -0.889230    2.414266
  C      1.472530   -1.472839    3.589407
  C      2.210729   -2.795621    3.287764
  C      2.868276   -3.384141    4.516487
  C      2.073011   -4.240712    5.471941
  C      3.141596   -4.863075    4.606127
  H      1.463389    1.161814   -0.532932
  H     -0.070034    1.791070   -1.166009
  H      0.437664    2.175394    0.490064
  H     -1.351316    0.389329    0.451015
  H     -0.335329   -0.614197   -0.562054
  H      2.184547   -0.754139    4.017739
  H      0.722886   -1.652449    4.371126
  H      1.495844   -3.514619    2.870200
  H      2.958835   -2.614772    2.506572
  H      3.614893   -2.739334    4.975342
  H      2.260241   -4.147069    6.535929
  H      1.037374   -4.448528    5.221469
  H      2.821421   -5.487002    3.777875
  H      4.060984   -5.191943    5.077890

 Total Charge           Charge          ....    0
 Multiplicity           Mult            ....    1
 Number of Electrons    NEL             ....   68
 Basis Dimension        Dim             ....  363

ORBITAL ENERGIES
----------------

  NO   OCC          E(Eh)            E(eV)
   0   2.0000     -11.244596      -305.9810
   1   2.0000     -11.241421      -305.8946
   2   2.0000     -11.229709      -305.5759
   3   2.0000     -11.226125      -305.4784
   4   2.0000     -11.222955      -305.3921
   5   2.0000     -11.222326      -305.3750
   6   2.0000     -11.219447      -305.2967
   7   2.0000     -11.212687      -305.1127
   8   2.0000     -11.208920      -305.0102
   9   2.0000      -1.145075       -31.1591
  10   2.0000      -1.078214       -29.3397
  11   2.0000      -1.047548       -28.5052
  12   2.0000      -0.972782       -26.4707
  13   2.0000      -0.892195       -24.2779
  14   2.0000      -0.852687       -23.2028
  15   2.0000      -0.820322       -22.3221
  16   2.0000      -0.774348       -21.0711
  17   2.0000      -0.667821       -18.1723
  18   2.0000      -0.663518       -18.0552
  19   2.0000      -0.631450       -17.1826
  20   2.0000      -0.618033       -16.8175
  21   2.0000      -0.614634       -16.7250
  22   2.0000      -0.591377       -16.0922
  23   2.0000      -0.543548       -14.7907
  24   2.0000      -0.539688       -14.6856
  25   2.0000      -0.516636       -14.0584
  26   2.0000      -0.512019       -13.9328
  27   2.0000      -0.509609       -13.8672
  28   2.0000      -0.504882       -13.7385
  29   2.0000      -0.486394       -13.2355
  30   2.0000      -0.417468       -11.3599
  31   2.0000      -0.407032       -11.0759
  32   2.0000      -0.358744        -9.7619
  33   2.0000      -0.356372        -9.6974
  34   0.0000       0.134158         3.6506
  35   0.0000       0.150487         4.0949
  36   0.0000       0.159677         4.3450
  37   0.0000       0.163658         4.4534
  38   0.0000       0.177683         4.8350

MULLIKEN ATOMIC CHARGES
-----------------------
   0 C :   -0.358636
   1 C :   -0.301032
   2 C :    0.072065
   3 C :    0.018629
   4 C :   -0.438237
   5 C :   -0.183104
   6 C :   -0.090014
   7 C :   -0.275957
   8 C :   -0.260797
   9 H :    0.127942
  10 H :    0.129470
  11 H :    0.128625
  12 H :    0.138345
  13 H :    0.138056
  14 H :    0.139395
  15 H :    0.147253
  16 H :    0.115834
  17 H :    0.123126
  18 H :    0.115349
  19 H :    0.128252
  20 H :    0.128244
  21 H :    0.128557
  22 H :    0.128634
Sum of atomic charges:   -0.0000000

LOEWDIN ATOMIC CHARGES
----------------------
   0 C :   -0.301351
   1 C :   -0.280494
   2 C :   -0.087577
   3 C :   -0.085268
   4 C :   -0.248276
   5 C :   -0.235207
   6 C :   -0.235660
   7 C :   -0.233362
   8 C :   -0.231063
   9 H :    0.123366
  10 H :    0.119802
  11 H :    0.123537
  12 H :    0.151696
  13 H :    0.151515
  14 H :    0.153947
  15 H :    0.155193
  16 H :    0.144900
  17 H :    0.143467
  18 H :    0.146865
  19 H :    0.129494
  20 H :    0.132215
  21 H :    0.132210
  22 H :    0.130050

  Mayer bond orders larger than 0.1
B(  0-C ,  1-C ) :   0.9398 B(  0-C ,  9-H ) :   0.9358 B(  0-C , 10-H ) :   0.9394
B(  0-C , 11-H ) :   0.9356 B(  1-C ,  2-C ) :   0.9351 B(  1-C , 12-H ) :   0.9438
B(  1-C , 13-H ) :   0.9405 B(  2-C ,  3-C ) :   2.6570 B(  2-C ,  4-C ) :  -0.1437
B(  3-C ,  4-C ) :   1.0526 B(  4-C ,  5-C ) :   0.9441 B(  4-C , 14-H ) :   0.9239
B(  4-C , 15-H ) :   0.9406 B(  5-C ,  6-C ) :   0.9151 B(  5-C , 16-H ) :   0.9263
B(  5-C , 17-H ) :   0.9298 B(  6-C ,  7-C ) :   0.8882 B(  6-C ,  8-C ) :   0.8908
B(  6-C , 18-H ) :   0.9261 B(  7-C ,  8-C ) :   0.9024 B(  7-C , 19-H ) :   0.9289
B(  7-C , 20-H ) :   0.9291 B(  8-C , 21-H ) :   0.9306 B(  8-C , 22-H ) :   0.9322

MP2 TOTAL ENERGY:     -350.461602717 Eh
FINAL SINGLE POINT ENERGY      -350.461602716512

DIPOLE MOMENT
-------------
                                X             Y             Z
Electronic contribution:     -0.79508      -0.08802       1.04071
Nuclear contribution   :      0.84950       0.08229      -1.06145
                        -----------------------------------------
Total Dipole Moment    :      0.05441      -0.00573      -0.02074
                        -----------------------------------------
Magnitude (a.u.)       :      0.05851
Magnitude (Debye)      :      0.14873

                             ****ORCA TERMINATED NORMALLY****
TOTAL RUN TIME: 0 days 0 hours 15 minutes 21 seconds 891 msec
