                         Program Version 3.0.3 - RELEASE   -
|  1> ! RI-MP2 RIJK def2-TZVP def2-TZVP/C def2-TZVP/JK TIGHTSCF
|  2> % maxcore 2000
|  3> % mp2 density relaxed end
|  4> *xyz 0 1
|  5>  C       -0.0269113327     1.5807840861     0.0261837969
|  6>  C        0.0490628736     0.0822971111    -0.0005625412
|  7>  C       -0.8350600275    -0.8268101717     0.8648075035
|  8>  O       -1.6864176619    -1.8068805219     0.3754893221
|  9>  C        0.6280924903    -0.9880581498     1.0332146493
| 10>  C        1.1872204448    -1.8162483746    -0.1161327349
| 11>  O        0.6944790939    -3.1506928447    -0.1747896681
| 12>  C        0.6184351548    -0.7488738401    -1.0974768954
| 13>  O        0.7623203241    -0.5916734858    -2.2794361717
| 14>  H        0.9394375932     2.0383754621    -0.2092702237
| 15>  H       -0.7512854069     1.9349187048    -0.7148515536
| 16>  H       -0.3476824479     1.9447237586     1.0069777760
| 17>  H       -1.3216966506    -0.2508062374     1.6500045631
| 18>  H       -1.1417422189    -2.5718525474     0.1355724971
| 19>  H        1.1563041752    -0.7873649776     1.9571461076
| 20>  H        2.2850847008    -1.8007471002    -0.1589256755
| 21>  H        0.8937812857    -3.4973989816    -1.0527891215
| 22> *
| 23>
| 24>                          ****END OF INPUT****

CARTESIAN COORDINATES (ANGSTROEM)
---------------------------------
  C     -0.026911    1.580784    0.026184
  C      0.049063    0.082297   -0.000563
  C     -0.835060   -0.826810    0.864808
  O     -1.686418   -1.806881    0.375489
  C      0.628092   -0.988058    1.033215
  C      1.187220   -1.816248   -0.116133
  O      0.694479   -3.150693   -0.174790
  C      0.618435   -0.748874   -1.097477
  O      0.762320   -0.591673   -2.279436
  H      0.939438    2.038375   -0.209270
  H     -0.751285    1.934919   -0.714852
  H     -0.347682    1.944724    1.006978
  H     -1.321697   -0.250806    1.650005
  H     -1.141742   -2.571853    0.135572
  H      1.156304   -0.787365    1.957146
  H      2.285085   -1.800747   -0.158926
  H      0.893781   -3.497399   -1.052789

 Total Charge           Charge          ....    0
 Multiplicity           Mult            ....    1
 Number of Electrons    NEL             ....   68
 Basis Dimension        Dim             ....  327

ORBITAL ENERGIES
----------------

  NO   OCC          E(Eh)            E(eV)
   0   2.0000     -20.595131      -560.4220
   1   2.0000     -20.562141      -559.5243
   2   2.0000     -20.558709      -559.4309
   3   2.0000     -11.341061      -308.6060
   4   2.0000     -11.317503      -307.9649
   5   2.0000     -11.313647      -307.8600
   6   2.0000     -11.267263      -306.5978
   7   2.0000     -11.265541      -306.5510
   8   2.0000     -11.238259      -305.8086
   9   2.0000      -1.411950       -38.4211
  10   2.0000      -1.392819       -37.9005
  11   2.0000      -1.375657       -37.4335
  12   2.0000      -1.203213       -32.7411
  13   2.0000      -1.012862       -27.5614
  14   2.0000      -0.966580       -26.3020
  15   2.0000      -0.877756       -23.8849
  16   2.0000      -0.818859       -22.2823
  17   2.0000      -0.747793       -20.3485
  18   2.0000      -0.715392       -19.4668
  19   2.0000      -0.704815       -19.1790
  20   2.0000      -0.686068       -18.6688
  21   2.0000      -0.632195       -17.2029
  22   2.0000      -0.619417       -16.8552
  23   2.0000      -0.609281       -16.5794
  24   2.0000      -0.591626       -16.0990
  25   2.0000      -0.587208       -15.9787
  26   2.0000      -0.562822       -15.3152
  27   2.0000      -0.547955       -14.9106
  28   2.0000      -0.536350       -14.5948
  29   2.0000      -0.529781       -14.4161
  30   2.0000      -0.488284       -13.2869
  31   2.0000      -0.431470       -11.7409
  32   2.0000      -0.408642       -11.1197
  33   2.0000      -0.384672       -10.4675
  34   0.0000       0.118960         3.2371
  35   0.0000       0.136692         3.7196
  36   0.0000       0.140414         3.8209
  37   0.0000       0.161647         4.3987
  38   0.0000       0.168887         4.5956

MULLIKEN ATOMIC CHARGES
-----------------------
   0 C :   -0.408535
   1 C :    0.058276
   2 C :    0.047862
   3 O :   -0.461638
   4 C :   -0.147607
   5 C :    0.090799
   6 O :   -0.498325
   7 C :    0.059802
   8 O :   -0.259132
   9 H :    0.142128
  10 H :    0.157842
  11 H :    0.135434
  12 H :    0.126371
  13 H :    0.346801
  14 H :    0.151560
  15 H :    0.118431
  16 H :    0.339931
Sum of atomic charges:   -0.0000000

LOEWDIN ATOMIC CHARGES
----------------------
   0 C :   -0.265421
   1 C :   -0.153803
   2 C :   -0.273973
   3 O :    0.010228
   4 C :   -0.110976
   5 C :   -0.270471
   6 O :   -0.022289
   7 C :   -0.286083
   8 O :    0.157071
   9 H :    0.132424
  10 H :    0.141147
  11 H :    0.132357
  12 H :    0.154032
  13 H :    0.178390
  14 H :    0.142411
  15 H :    0.147163
  16 H :    0.187793

  Mayer bond orders larger than 0.1
B(  0-C ,  1-C ) :   0.8848 B(  0-C ,  9-H ) :   0.9411 B(  0-C , 10-H ) :   0.9287
B(  0-C , 11-H ) :   0.9340 B(  1-C ,  2-C ) :   0.8009 B(  1-C ,  4-C ) :   0.7489
B(  1-C ,  5-C ) :  -0.1017 B(  1-C ,  7-C ) :   0.8684 B(  2-C ,  3-O ) :   1.0326
B(  2-C ,  4-C ) :   0.9188 B(  2-C , 12-H ) :   0.9638 B(  3-O , 13-H ) :   0.7996
B(  4-C ,  5-C ) :   0.9122 B(  4-C , 14-H ) :   0.8987 B(  5-C ,  6-O ) :   0.9229
B(  5-C ,  7-C ) :   0.8835 B(  5-C , 15-H ) :   0.9178 B(  6-O , 16-H ) :   0.8291
B(  7-C ,  8-O ) :   2.0589

MP2 TOTAL ENERGY:     -458.214815025 Eh
FINAL SINGLE POINT ENERGY      -458.214815024719

DIPOLE MOMENT
-------------
                                X             Y             Z
Electronic contribution:      0.18353      -4.25765      -2.99296
Nuclear contribution   :      0.57059       4.44453       3.72344
                        -----------------------------------------
Total Dipole Moment    :      0.75413       0.18689       0.73047
                        -----------------------------------------
Magnitude (a.u.)       :      1.06641
Magnitude (Debye)      :      2.71059

                             ****ORCA TERMINATED NORMALLY****
TOTAL RUN TIME: 0 days 0 hours 17 minutes 8 seconds 154 msec
