                         Program Version 3.0.3 - RELEASE   -
|  1> ! RI-MP2 RIJK def2-TZVP def2-TZVP/C def2-TZVP/JK TIGHTSCF
|  2> % maxcore 2000
|  3> % mp2 density relaxed end
|  4> *xyz 0 1
|  5>  C       -0.0119560683     1.6063353857    -0.2321843093
|  6>  C        1.5598405302     1.4490342905     0.0046205611
|  7>  C        1.1783487189     0.2257698074     0.9123530653
|  8>  C        1.2264169192    -1.3388179437     0.9903551421
|  9>  C       -0.3699586226    -1.2526504032     0.8674538599
| 10>  C       -1.0057781574    -1.0343916963     2.2392949856
| 11>  C       -0.5802390397     0.3331421930     2.8046884116
| 12>  C        0.8429663521     0.7175703797     2.3533027888
| 13>  C       -0.0380062498     0.0591081713     0.0425858033
| 14>  H       -0.4692456099     2.2261849177     0.5410817632
| 15>  H       -0.3443330145     1.9532651308    -1.2138340053
| 16>  H        2.0610602111     1.1639772388    -0.9245805614
| 17>  H        2.0913953763     2.2880186697     0.4642305721
| 18>  H        1.6673245481    -1.8166012242     0.1118612874
| 19>  H        1.6268487904    -1.7974570230     1.9015424034
| 20>  H       -0.8559180264    -2.0641894754     0.3192394544
| 21>  H       -2.0982809279    -1.0855670430     2.1692064133
| 22>  H       -0.6999330802    -1.8499615648     2.9069508337
| 23>  H       -1.2783605489     1.0883907023     2.4277261834
| 24>  H       -0.6659451822     0.3565554254     3.8960935236
| 25>  H        1.5895516228     0.2827322409     3.0298330584
| 26>  H        0.9645688354     1.8025461041     2.4329659885
| 27>  H        0.3214254035    -0.3511826437    -0.9111315529
| 28> *
| 29>
| 30>                          ****END OF INPUT****

CARTESIAN COORDINATES (ANGSTROEM)
---------------------------------
  C     -0.011956    1.606335   -0.232184
  C      1.559841    1.449034    0.004621
  C      1.178349    0.225770    0.912353
  C      1.226417   -1.338818    0.990355
  C     -0.369959   -1.252650    0.867454
  C     -1.005778   -1.034392    2.239295
  C     -0.580239    0.333142    2.804688
  C      0.842966    0.717570    2.353303
  C     -0.038006    0.059108    0.042586
  H     -0.469246    2.226185    0.541082
  H     -0.344333    1.953265   -1.213834
  H      2.061060    1.163977   -0.924581
  H      2.091395    2.288019    0.464231
  H      1.667325   -1.816601    0.111861
  H      1.626849   -1.797457    1.901542
  H     -0.855918   -2.064189    0.319239
  H     -2.098281   -1.085567    2.169206
  H     -0.699933   -1.849962    2.906951
  H     -1.278361    1.088391    2.427726
  H     -0.665945    0.356555    3.896094
  H      1.589552    0.282732    3.029833
  H      0.964569    1.802546    2.432966
  H      0.321425   -0.351183   -0.911132

 Total Charge           Charge          ....    0
 Multiplicity           Mult            ....    1
 Number of Electrons    NEL             ....   68
 Basis Dimension        Dim             ....  363

ORBITAL ENERGIES
----------------

  NO   OCC          E(Eh)            E(eV)
   0   2.0000     -11.237152      -305.7784
   1   2.0000     -11.230853      -305.6071
   2   2.0000     -11.228295      -305.5375
   3   2.0000     -11.224632      -305.4378
   4   2.0000     -11.219696      -305.3035
   5   2.0000     -11.214194      -305.1537
   6   2.0000     -11.213263      -305.1284
   7   2.0000     -11.212752      -305.1145
   8   2.0000     -11.212409      -305.1052
   9   2.0000      -1.181029       -32.1374
  10   2.0000      -1.060582       -28.8599
  11   2.0000      -1.010770       -27.5044
  12   2.0000      -0.959612       -26.1124
  13   2.0000      -0.869517       -23.6608
  14   2.0000      -0.830026       -22.5861
  15   2.0000      -0.815739       -22.1974
  16   2.0000      -0.776276       -21.1235
  17   2.0000      -0.698034       -18.9945
  18   2.0000      -0.649259       -17.6672
  19   2.0000      -0.614115       -16.7109
  20   2.0000      -0.606212       -16.4959
  21   2.0000      -0.592645       -16.1267
  22   2.0000      -0.568081       -15.4583
  23   2.0000      -0.539186       -14.6720
  24   2.0000      -0.533899       -14.5281
  25   2.0000      -0.506828       -13.7915
  26   2.0000      -0.490980       -13.3603
  27   2.0000      -0.483708       -13.1624
  28   2.0000      -0.474568       -12.9137
  29   2.0000      -0.458259       -12.4699
  30   2.0000      -0.419209       -11.4072
  31   2.0000      -0.415740       -11.3129
  32   2.0000      -0.409822       -11.1518
  33   2.0000      -0.342663        -9.3243
  34   0.0000       0.135637         3.6909
  35   0.0000       0.154477         4.2035
  36   0.0000       0.160263         4.3610
  37   0.0000       0.162368         4.4183
  38   0.0000       0.183526         4.9940

MULLIKEN ATOMIC CHARGES
-----------------------
   0 C :   -0.228339
   1 C :   -0.264230
   2 C :    0.189784
   3 C :   -0.313636
   4 C :    0.024704
   5 C :   -0.270932
   6 C :   -0.221275
   7 C :   -0.340235
   8 C :   -0.167552
   9 H :    0.118641
  10 H :    0.118726
  11 H :    0.115684
  12 H :    0.116291
  13 H :    0.119563
  14 H :    0.112991
  15 H :    0.109179
  16 H :    0.114817
  17 H :    0.109173
  18 H :    0.113893
  19 H :    0.121481
  20 H :    0.119805
  21 H :    0.117218
  22 H :    0.084245
Sum of atomic charges:   -0.0000000

LOEWDIN ATOMIC CHARGES
----------------------
   0 C :   -0.212962
   1 C :   -0.198651
   2 C :   -0.214977
   3 C :   -0.174473
   4 C :   -0.184360
   5 C :   -0.247834
   6 C :   -0.255054
   7 C :   -0.213391
   8 C :   -0.182912
   9 H :    0.130380
  10 H :    0.119331
  11 H :    0.132903
  12 H :    0.120049
  13 H :    0.133233
  14 H :    0.122373
  15 H :    0.134094
  16 H :    0.137395
  17 H :    0.137844
  18 H :    0.137634
  19 H :    0.132837
  20 H :    0.140041
  21 H :    0.138936
  22 H :    0.167564

  Mayer bond orders larger than 0.1
B(  0-C ,  1-C ) :   0.9402 B(  0-C ,  8-C ) :   0.8875 B(  0-C ,  9-H ) :   0.9183
B(  0-C , 10-H ) :   0.9235 B(  1-C ,  2-C ) :   0.8874 B(  1-C , 11-H ) :   0.9226
B(  1-C , 12-H ) :   0.9152 B(  2-C ,  3-C ) :   0.8818 B(  2-C ,  7-C ) :   0.8648
B(  2-C ,  8-C ) :   0.8990 B(  3-C ,  4-C ) :   0.8917 B(  3-C , 13-H ) :   0.9153
B(  3-C , 14-H ) :   0.9199 B(  4-C ,  5-C ) :   0.9039 B(  4-C ,  8-C ) :   0.8902
B(  4-C , 15-H ) :   0.9231 B(  5-C ,  6-C ) :   0.9523 B(  5-C , 16-H ) :   0.9244
B(  5-C , 17-H ) :   0.9280 B(  6-C ,  7-C ) :   0.9432 B(  6-C , 18-H ) :   0.9290
B(  6-C , 19-H ) :   0.9347 B(  7-C , 20-H ) :   0.9310 B(  7-C , 21-H ) :   0.9280
B(  8-C , 22-H ) :   0.9331

MP2 TOTAL ENERGY:     -350.435297872 Eh
FINAL SINGLE POINT ENERGY      -350.435297871720

DIPOLE MOMENT
-------------
                                X             Y             Z
Electronic contribution:      0.34682      -0.85189      -1.31833
Nuclear contribution   :     -0.37172       0.83528       1.34675
                        -----------------------------------------
Total Dipole Moment    :     -0.02490      -0.01661       0.02842
                        -----------------------------------------
Magnitude (a.u.)       :      0.04128
Magnitude (Debye)      :      0.10492

                             ****ORCA TERMINATED NORMALLY****
TOTAL RUN TIME: 0 days 0 hours 23 minutes 4 seconds 501 msec
