                         Program Version 3.0.3 - RELEASE   -
|  1> ! RI-MP2 RIJK def2-TZVP def2-TZVP/C def2-TZVP/JK TIGHTSCF
|  2> % maxcore 2000
|  3> % mp2 density relaxed end
|  4> *xyz 0 1
|  5>  O       -0.0851518408     1.3724944190    -0.2878856016
|  6>  C       -0.0013523581     0.0004573080     0.1001316557
|  7>  C       -1.4030598556    -0.5479413466     0.0437675111
|  8>  O       -2.2906017205     0.1553181676     0.8664474331
|  9>  C       -1.9346157370    -1.1262701296    -1.2464097029
| 10>  C       -1.6391737982    -2.0192599235    -0.0545603300
| 11>  H        0.6979986380     1.8281009306     0.0324210835
| 12>  H        0.6619681246    -0.5658090755    -0.5701250932
| 13>  H        0.3837815258    -0.0900255514     1.1262469692
| 14>  H       -2.1597757466     1.0859919153     0.6435230754
| 15>  H       -2.9765970170    -0.9294864664    -1.4696777509
| 16>  H       -1.2798741088    -1.1775289799    -2.1097527403
| 17>  H       -0.7841567544    -2.6857614565    -0.0995173491
| 18>  H       -2.4854907813    -2.4036984310     0.5029425799
| 19> *
| 20>
| 21>                          ****END OF INPUT****

CARTESIAN COORDINATES (ANGSTROEM)
---------------------------------
  O     -0.085152    1.372494   -0.287886
  C     -0.001352    0.000457    0.100132
  C     -1.403060   -0.547941    0.043768
  O     -2.290602    0.155318    0.866447
  C     -1.934616   -1.126270   -1.246410
  C     -1.639174   -2.019260   -0.054560
  H      0.697999    1.828101    0.032421
  H      0.661968   -0.565809   -0.570125
  H      0.383782   -0.090026    1.126247
  H     -2.159776    1.085992    0.643523
  H     -2.976597   -0.929486   -1.469678
  H     -1.279874   -1.177529   -2.109753
  H     -0.784157   -2.685761   -0.099517
  H     -2.485491   -2.403698    0.502943

 Total Charge           Charge          ....    0
 Multiplicity           Mult            ....    1
 Number of Electrons    NEL             ....   48
 Basis Dimension        Dim             ....  234

ORBITAL ENERGIES
----------------

  NO   OCC          E(Eh)            E(eV)
   0   2.0000     -20.568007      -559.6839
   1   2.0000     -20.552068      -559.2502
   2   2.0000     -11.284879      -307.0772
   3   2.0000     -11.283183      -307.0310
   4   2.0000     -11.223894      -305.4177
   5   2.0000     -11.220919      -305.3367
   6   2.0000      -1.382289       -37.6140
   7   2.0000      -1.353993       -36.8440
   8   2.0000      -1.128615       -30.7112
   9   2.0000      -0.954482       -25.9728
  10   2.0000      -0.829545       -22.5731
  11   2.0000      -0.775756       -21.1094
  12   2.0000      -0.715273       -19.4636
  13   2.0000      -0.686087       -18.6694
  14   2.0000      -0.658045       -17.9063
  15   2.0000      -0.629128       -17.1194
  16   2.0000      -0.594494       -16.1770
  17   2.0000      -0.566345       -15.4110
  18   2.0000      -0.530288       -14.4299
  19   2.0000      -0.511335       -13.9141
  20   2.0000      -0.501320       -13.6416
  21   2.0000      -0.462790       -12.5932
  22   2.0000      -0.421346       -11.4654
  23   2.0000      -0.387343       -10.5401
  24   0.0000       0.127873         3.4796
  25   0.0000       0.159186         4.3317
  26   0.0000       0.179946         4.8966
  27   0.0000       0.189676         5.1614
  28   0.0000       0.200100         5.4450

MULLIKEN ATOMIC CHARGES
-----------------------
   0 O :   -0.489061
   1 C :   -0.107802
   2 C :    0.279319
   3 O :   -0.480966
   4 C :   -0.283821
   5 C :   -0.302843
   6 H :    0.322415
   7 H :    0.095580
   8 H :    0.112772
   9 H :    0.332446
  10 H :    0.130305
  11 H :    0.124112
  12 H :    0.130699
  13 H :    0.136844
Sum of atomic charges:   -0.0000000

LOEWDIN ATOMIC CHARGES
----------------------
   0 O :   -0.055160
   1 C :   -0.310407
   2 C :   -0.387571
   3 O :    0.021831
   4 C :   -0.211328
   5 C :   -0.206616
   6 H :    0.173439
   7 H :    0.124375
   8 H :    0.123795
   9 H :    0.185508
  10 H :    0.136398
  11 H :    0.131938
  12 H :    0.132882
  13 H :    0.140915

  Mayer bond orders larger than 0.1
B(  0-O ,  1-C ) :   0.9945 B(  0-O ,  6-H ) :   0.8452 B(  1-C ,  2-C ) :   0.9387
B(  1-C ,  7-H ) :   0.9198 B(  1-C ,  8-H ) :   0.9286 B(  2-C ,  3-O ) :   0.9783
B(  2-C ,  4-C ) :   0.8672 B(  2-C ,  5-C ) :   0.8750 B(  3-O ,  9-H ) :   0.8247
B(  4-C ,  5-C ) :   0.9185 B(  4-C , 10-H ) :   0.9241 B(  4-C , 11-H ) :   0.9137
B(  5-C , 12-H ) :   0.9239 B(  5-C , 13-H ) :   0.9169

MP2 TOTAL ENERGY:     -307.060058042 Eh
FINAL SINGLE POINT ENERGY      -307.060058041639

DIPOLE MOMENT
-------------
                                X             Y             Z
Electronic contribution:     -0.67362       2.57032       1.18662
Nuclear contribution   :      1.56267      -2.48160      -1.25070
                        -----------------------------------------
Total Dipole Moment    :      0.88905       0.08873      -0.06408
                        -----------------------------------------
Magnitude (a.u.)       :      0.89577
Magnitude (Debye)      :      2.27685

                             ****ORCA TERMINATED NORMALLY****
TOTAL RUN TIME: 0 days 0 hours 4 minutes 40 seconds 965 msec
