                         Program Version 3.0.3 - RELEASE   -
|  1> ! RI-MP2 RIJK def2-TZVP def2-TZVP/C def2-TZVP/JK TIGHTSCF
|  2> % maxcore 2000
|  3> % mp2 density relaxed end
|  4> *xyz 0 1
|  5>  C       -0.0200464957     1.5036541654     0.0965364153
|  6>  C       -0.0091085187     0.0136447195    -0.0230721384
|  7>  C       -0.0245552362    -0.7724997166    -1.1278597960
|  8>  O       -0.0062999797    -2.0703330143    -0.8009411276
|  9>  N        0.0231142346    -2.1961335933     0.5897484368
| 10>  C        0.0210318552    -0.9583912146     1.0322792715
| 11>  N        0.0454765872    -0.6219555437     2.3817734245
| 12>  C        0.0733464704    -1.4684175572     3.4732167540
| 13>  O        0.0818825285    -2.6695102070     3.4402917485
| 14>  H        0.8721217160     1.8781856848     0.6132835008
| 15>  H       -0.0448338015     1.9731627076    -0.8897479561
| 16>  H       -0.8965271483     1.8621880778     0.6501503322
| 17>  H       -0.0480540415    -0.5495452102    -2.1837987225
| 18>  H        0.0419427380     0.3657618438     2.5847135399
| 19>  H        0.0877770817    -0.8771000221     4.4110337871
| 20> *
| 21>
| 22>                          ****END OF INPUT****

CARTESIAN COORDINATES (ANGSTROEM)
---------------------------------
  C     -0.020046    1.503654    0.096536
  C     -0.009109    0.013645   -0.023072
  C     -0.024555   -0.772500   -1.127860
  O     -0.006300   -2.070333   -0.800941
  N      0.023114   -2.196134    0.589748
  C      0.021032   -0.958391    1.032279
  N      0.045477   -0.621956    2.381773
  C      0.073346   -1.468418    3.473217
  O      0.081883   -2.669510    3.440292
  H      0.872122    1.878186    0.613284
  H     -0.044834    1.973163   -0.889748
  H     -0.896527    1.862188    0.650150
  H     -0.048054   -0.549545   -2.183799
  H      0.041943    0.365762    2.584714
  H      0.087777   -0.877100    4.411034

 Total Charge           Charge          ....    0
 Multiplicity           Mult            ....    1
 Number of Electrons    NEL             ....   66
 Basis Dimension        Dim             ....  315

ORBITAL ENERGIES
----------------

  NO   OCC          E(Eh)            E(eV)
   0   2.0000     -20.640030      -561.6438
   1   2.0000     -20.544058      -559.0322
   2   2.0000     -15.625535      -425.1924
   3   2.0000     -15.611138      -424.8007
   4   2.0000     -11.368812      -309.3611
   5   2.0000     -11.328475      -308.2635
   6   2.0000     -11.316611      -307.9406
   7   2.0000     -11.259154      -306.3772
   8   2.0000     -11.254357      -306.2466
   9   2.0000      -1.490979       -40.5716
  10   2.0000      -1.405105       -38.2348
  11   2.0000      -1.283208       -34.9179
  12   2.0000      -1.144959       -31.1559
  13   2.0000      -1.104203       -30.0469
  14   2.0000      -0.975990       -26.5580
  15   2.0000      -0.910221       -24.7684
  16   2.0000      -0.832105       -22.6427
  17   2.0000      -0.778019       -21.1710
  18   2.0000      -0.748041       -20.3552
  19   2.0000      -0.717882       -19.5346
  20   2.0000      -0.667907       -18.1747
  21   2.0000      -0.649563       -17.6755
  22   2.0000      -0.628991       -17.1157
  23   2.0000      -0.600511       -16.3407
  24   2.0000      -0.600003       -16.3269
  25   2.0000      -0.595587       -16.2067
  26   2.0000      -0.574784       -15.6407
  27   2.0000      -0.549024       -14.9397
  28   2.0000      -0.488112       -13.2822
  29   2.0000      -0.484831       -13.1929
  30   2.0000      -0.439384       -11.9563
  31   2.0000      -0.376431       -10.2432
  32   2.0000      -0.365538        -9.9468
  33   0.0000       0.104337         2.8392
  34   0.0000       0.114048         3.1034
  35   0.0000       0.147526         4.0144
  36   0.0000       0.158363         4.3093
  37   0.0000       0.165929         4.5152

MULLIKEN ATOMIC CHARGES
-----------------------
   0 C :   -0.448575
   1 C :   -0.091616
   2 C :   -0.005586
   3 O :   -0.099753
   4 N :   -0.106436
   5 C :    0.222115
   6 N :   -0.316874
   7 C :    0.173966
   8 O :   -0.281924
   9 H :    0.155314
  10 H :    0.153388
  11 H :    0.155328
  12 H :    0.158665
  13 H :    0.249468
  14 H :    0.082518
Sum of atomic charges:    0.0000000

LOEWDIN ATOMIC CHARGES
----------------------
   0 C :   -0.273425
   1 C :   -0.206192
   2 C :   -0.244307
   3 O :    0.278086
   4 N :    0.061039
   5 C :   -0.314052
   6 N :    0.131662
   7 C :   -0.409553
   8 O :    0.120515
   9 H :    0.133037
  10 H :    0.139135
  11 H :    0.133043
  12 H :    0.140384
  13 H :    0.199205
  14 H :    0.111424

  Mayer bond orders larger than 0.1
B(  0-C ,  1-C ) :   0.8527 B(  0-C ,  9-H ) :   0.9360 B(  0-C , 10-H ) :   0.9342
B(  0-C , 11-H ) :   0.9361 B(  1-C ,  2-C ) :   1.5547 B(  1-C ,  5-C ) :   1.1540
B(  2-C ,  3-O ) :   1.1264 B(  2-C ,  4-N ) :   0.1042 B(  2-C , 12-H ) :   0.9225
B(  3-O ,  4-N ) :   0.8481 B(  4-N ,  5-C ) :   1.5939 B(  5-C ,  6-N ) :   0.9874
B(  6-N ,  7-C ) :   1.0403 B(  6-N , 13-H ) :   0.8686 B(  7-C ,  8-O ) :   1.9792
B(  7-C , 14-H ) :   0.9293

MP2 TOTAL ENERGY:     -453.213736009 Eh
FINAL SINGLE POINT ENERGY      -453.213736008710

DIPOLE MOMENT
-------------
                                X             Y             Z
Electronic contribution:      0.07886      -7.59351       0.61449
Nuclear contribution   :     -0.10692      10.16049      -0.94758
                        -----------------------------------------
Total Dipole Moment    :     -0.02806       2.56699      -0.33308
                        -----------------------------------------
Magnitude (a.u.)       :      2.58866
Magnitude (Debye)      :      6.57985

                             ****ORCA TERMINATED NORMALLY****
TOTAL RUN TIME: 0 days 0 hours 14 minutes 31 seconds 659 msec
