                         Program Version 3.0.3 - RELEASE   -
|  1> ! RI-MP2 RIJK def2-TZVP def2-TZVP/C def2-TZVP/JK TIGHTSCF
|  2> % maxcore 2000
|  3> % mp2 density relaxed end
|  4> *xyz 0 1
|  5>  O       -0.1069544820     1.4071770437     0.0216480275
|  6>  C        0.0576739230     0.0254072391    -0.0180946498
|  7>  C        1.1559000155    -0.7116432482     0.7487630519
|  8>  N        1.1570592649    -1.7753470943    -0.3200961933
|  9>  C        0.1769265946    -2.8138889710     0.0503049738
| 10>  C       -1.1810042945    -2.1852016444    -0.2183622949
| 11>  C       -1.0577438947    -1.2835926436    -1.4100094631
| 12>  C       -1.3191122637    -0.6826089767    -0.0297213097
| 13>  C        0.4097744857    -0.8288224524    -1.2747617219
| 14>  H        0.7545809213     1.8159998993    -0.1169354378
| 15>  H        2.1140581067    -0.1756385231     0.7494066878
| 16>  H        0.9465667346    -1.0683085083     1.7629541314
| 17>  H        0.3087514655    -3.7009981270    -0.5819826913
| 18>  H        0.3399991399    -3.1186238132     1.0889132693
| 19>  H       -2.0910342671    -2.7647459761    -0.0986159574
| 20>  H       -1.6702511185    -1.3135756967    -2.3010601301
| 21>  H       -2.2215200301    -0.2337971523     0.3668254952
| 22>  H        0.9881485291    -0.4890432946    -2.1323568275
| 23> *
| 24>
| 25>                          ****END OF INPUT****

CARTESIAN COORDINATES (ANGSTROEM)
---------------------------------
  O     -0.106954    1.407177    0.021648
  C      0.057674    0.025407   -0.018095
  C      1.155900   -0.711643    0.748763
  N      1.157059   -1.775347   -0.320096
  C      0.176927   -2.813889    0.050305
  C     -1.181004   -2.185202   -0.218362
  C     -1.057744   -1.283593   -1.410009
  C     -1.319112   -0.682609   -0.029721
  C      0.409774   -0.828822   -1.274762
  H      0.754581    1.816000   -0.116935
  H      2.114058   -0.175639    0.749407
  H      0.946567   -1.068309    1.762954
  H      0.308751   -3.700998   -0.581983
  H      0.339999   -3.118624    1.088913
  H     -2.091034   -2.764746   -0.098616
  H     -1.670251   -1.313576   -2.301060
  H     -2.221520   -0.233797    0.366825
  H      0.988149   -0.489043   -2.132357

 Total Charge           Charge          ....    0
 Multiplicity           Mult            ....    1
 Number of Electrons    NEL             ....   66
 Basis Dimension        Dim             ....  333

ORBITAL ENERGIES
----------------

  NO   OCC          E(Eh)            E(eV)
   0   2.0000     -20.567267      -559.6638
   1   2.0000     -15.550156      -423.1413
   2   2.0000     -11.290455      -307.2289
   3   2.0000     -11.255381      -306.2745
   4   2.0000     -11.247966      -306.0727
   5   2.0000     -11.247728      -306.0662
   6   2.0000     -11.237643      -305.7918
   7   2.0000     -11.236670      -305.7653
   8   2.0000     -11.232609      -305.6548
   9   2.0000      -1.379680       -37.5430
  10   2.0000      -1.274820       -34.6896
  11   2.0000      -1.133629       -30.8476
  12   2.0000      -1.025811       -27.9137
  13   2.0000      -0.931662       -25.3518
  14   2.0000      -0.863452       -23.4957
  15   2.0000      -0.827905       -22.5285
  16   2.0000      -0.776545       -21.1309
  17   2.0000      -0.723991       -19.7008
  18   2.0000      -0.716431       -19.4951
  19   2.0000      -0.662244       -18.0206
  20   2.0000      -0.631063       -17.1721
  21   2.0000      -0.623329       -16.9617
  22   2.0000      -0.600897       -16.3512
  23   2.0000      -0.570423       -15.5220
  24   2.0000      -0.557992       -15.1837
  25   2.0000      -0.525931       -14.3113
  26   2.0000      -0.496978       -13.5235
  27   2.0000      -0.489203       -13.3119
  28   2.0000      -0.473562       -12.8863
  29   2.0000      -0.431735       -11.7481
  30   2.0000      -0.408531       -11.1167
  31   2.0000      -0.368297       -10.0219
  32   2.0000      -0.354784        -9.6542
  33   0.0000       0.135460         3.6860
  34   0.0000       0.151796         4.1306
  35   0.0000       0.171294         4.6611
  36   0.0000       0.177381         4.8268
  37   0.0000       0.190585         5.1861

MULLIKEN ATOMIC CHARGES
-----------------------
   0 O :   -0.438071
   1 C :    0.182677
   2 C :   -0.191901
   3 N :   -0.173393
   4 C :   -0.128489
   5 C :   -0.136822
   6 C :   -0.226921
   7 C :   -0.165671
   8 C :   -0.041077
   9 H :    0.320442
  10 H :    0.107551
  11 H :    0.114206
  12 H :    0.117643
  13 H :    0.118086
  14 H :    0.127839
  15 H :    0.142448
  16 H :    0.138201
  17 H :    0.133254
Sum of atomic charges:   -0.0000000

LOEWDIN ATOMIC CHARGES
----------------------
   0 O :    0.030028
   1 C :   -0.338247
   2 C :   -0.222291
   3 N :    0.106543
   4 C :   -0.262394
   5 C :   -0.185769
   6 C :   -0.140817
   7 C :   -0.108148
   8 C :   -0.140091
   9 H :    0.181361
  10 H :    0.126860
  11 H :    0.123902
  12 H :    0.134725
  13 H :    0.132177
  14 H :    0.151553
  15 H :    0.135457
  16 H :    0.142586
  17 H :    0.132565

  Mayer bond orders larger than 0.1
B(  0-O ,  1-C ) :   1.1177 B(  0-O ,  9-H ) :   0.8358 B(  1-C ,  2-C ) :   1.0023
B(  1-C ,  7-C ) :   0.9084 B(  1-C ,  8-C ) :   0.9143 B(  2-C ,  3-N ) :   0.9355
B(  2-C , 10-H ) :   0.8986 B(  2-C , 11-H ) :   0.9272 B(  3-N ,  4-C ) :   0.9359
B(  3-N ,  8-C ) :   0.9236 B(  4-C ,  5-C ) :   0.9471 B(  4-C , 12-H ) :   0.9238
B(  4-C , 13-H ) :   0.9361 B(  5-C ,  6-C ) :   0.8551 B(  5-C ,  7-C ) :   0.8620
B(  5-C , 14-H ) :   0.9253 B(  6-C ,  7-C ) :   0.8507 B(  6-C ,  8-C ) :   0.9096
B(  6-C , 15-H ) :   0.9110 B(  7-C , 16-H ) :   0.9184 B(  8-C , 17-H ) :   0.9044

MP2 TOTAL ENERGY:     -401.201364621 Eh
FINAL SINGLE POINT ENERGY      -401.201364620686

DIPOLE MOMENT
-------------
                                X             Y             Z
Electronic contribution:     -0.08017       2.39199      -0.95999
Nuclear contribution   :     -0.00175      -2.42725       0.96189
                        -----------------------------------------
Total Dipole Moment    :     -0.08192      -0.03525       0.00191
                        -----------------------------------------
Magnitude (a.u.)       :      0.08920
Magnitude (Debye)      :      0.22674

                             ****ORCA TERMINATED NORMALLY****
TOTAL RUN TIME: 0 days 0 hours 19 minutes 55 seconds 775 msec
