                         Program Version 3.0.3 - RELEASE   -
|  1> ! RI-MP2 RIJK def2-TZVP def2-TZVP/C def2-TZVP/JK TIGHTSCF
|  2> % maxcore 2000
|  3> % mp2 density relaxed end
|  4> *xyz 0 1
|  5>  C       -1.7739684537    -0.2793818174     0.5810117031
|  6>  C       -0.3408364710    -0.4593820360     0.0658178400
|  7>  C        0.6049573042    -0.8464375643     1.1843844768
|  8>  C        0.9092785713    -2.2886165211     1.5100593830
|  9>  C        0.3553651399    -3.3530910927     0.7181236574
| 10>  C       -0.0917840335    -4.2756817383     0.0826473889
| 11>  C       -0.6359828098    -5.3902369444    -0.6796590181
| 12>  N        1.9455898367    -1.3770736998     0.9799014792
| 13>  C        2.4564080149    -1.5848397503    -0.3686372959
| 14>  H       -1.8195355500     0.4748189441     1.3744002410
| 15>  H       -2.4434678484     0.0418624813    -0.2225064049
| 16>  H       -2.1609015209    -1.2183644270     0.9890458133
| 17>  H       -0.3321751331    -1.2172593913    -0.7216584186
| 18>  H        0.0095219279     0.4773002515    -0.3871171719
| 19>  H        0.5526198751    -0.1716148138     2.0408687062
| 20>  H        1.0700108192    -2.5507525554     2.5544856007
| 21>  H       -0.1919043227    -6.3418799355    -0.3669512713
| 22>  H       -1.7210340074    -5.4718840933    -0.5499168049
| 23>  H       -0.4397795755    -5.2707420111    -1.7509329154
| 24>  H        1.7461262417    -2.0388212413    -1.0716280493
| 25>  H        2.7813892891    -0.6200132850    -0.7705576856
| 26>  H        3.3323131062    -2.2383290187    -0.3089661836
| 27> *
| 28>
| 29>                          ****END OF INPUT****

CARTESIAN COORDINATES (ANGSTROEM)
---------------------------------
  C     -1.773968   -0.279382    0.581012
  C     -0.340836   -0.459382    0.065818
  C      0.604957   -0.846438    1.184384
  C      0.909279   -2.288617    1.510059
  C      0.355365   -3.353091    0.718124
  C     -0.091784   -4.275682    0.082647
  C     -0.635983   -5.390237   -0.679659
  N      1.945590   -1.377074    0.979901
  C      2.456408   -1.584840   -0.368637
  H     -1.819536    0.474819    1.374400
  H     -2.443468    0.041862   -0.222506
  H     -2.160902   -1.218364    0.989046
  H     -0.332175   -1.217259   -0.721658
  H      0.009522    0.477300   -0.387117
  H      0.552620   -0.171615    2.040869
  H      1.070011   -2.550753    2.554486
  H     -0.191904   -6.341880   -0.366951
  H     -1.721034   -5.471884   -0.549917
  H     -0.439780   -5.270742   -1.750933
  H      1.746126   -2.038821   -1.071628
  H      2.781389   -0.620013   -0.770558
  H      3.332313   -2.238329   -0.308966

 Total Charge           Charge          ....    0
 Multiplicity           Mult            ....    1
 Number of Electrons    NEL             ....   68
 Basis Dimension        Dim             ....  357

ORBITAL ENERGIES
----------------

  NO   OCC          E(Eh)            E(eV)
   0   2.0000     -15.557764      -423.3483
   1   2.0000     -11.271562      -306.7148
   2   2.0000     -11.259913      -306.3978
   3   2.0000     -11.248685      -306.0923
   4   2.0000     -11.239814      -305.8509
   5   2.0000     -11.226679      -305.4935
   6   2.0000     -11.224657      -305.4384
   7   2.0000     -11.219670      -305.3027
   8   2.0000     -11.215228      -305.1819
   9   2.0000      -1.271513       -34.5996
  10   2.0000      -1.060242       -28.8507
  11   2.0000      -1.044611       -28.4253
  12   2.0000      -0.994976       -27.0747
  13   2.0000      -0.959861       -26.1192
  14   2.0000      -0.879965       -23.9451
  15   2.0000      -0.845221       -22.9996
  16   2.0000      -0.770372       -20.9629
  17   2.0000      -0.682413       -18.5694
  18   2.0000      -0.666686       -18.1414
  19   2.0000      -0.628214       -17.0946
  20   2.0000      -0.605438       -16.4748
  21   2.0000      -0.601453       -16.3664
  22   2.0000      -0.587875       -15.9969
  23   2.0000      -0.586434       -15.9577
  24   2.0000      -0.561240       -15.2721
  25   2.0000      -0.552829       -15.0432
  26   2.0000      -0.519392       -14.1334
  27   2.0000      -0.514371       -13.9967
  28   2.0000      -0.491789       -13.3823
  29   2.0000      -0.462732       -12.5916
  30   2.0000      -0.453056       -12.3283
  31   2.0000      -0.395694       -10.7674
  32   2.0000      -0.370112       -10.0713
  33   2.0000      -0.335986        -9.1426
  34   0.0000       0.128174         3.4878
  35   0.0000       0.149361         4.0643
  36   0.0000       0.161265         4.3882
  37   0.0000       0.169123         4.6021
  38   0.0000       0.178382         4.8540

MULLIKEN ATOMIC CHARGES
-----------------------
   0 C :   -0.408761
   1 C :   -0.180475
   2 C :   -0.009431
   3 C :   -0.248410
   4 C :   -0.016578
   5 C :    0.066697
   6 C :   -0.481120
   7 N :   -0.188651
   8 C :   -0.291851
   9 H :    0.124019
  10 H :    0.133225
  11 H :    0.139583
  12 H :    0.115637
  13 H :    0.116092
  14 H :    0.113654
  15 H :    0.131709
  16 H :    0.164464
  17 H :    0.162874
  18 H :    0.161264
  19 H :    0.120157
  20 H :    0.134838
  21 H :    0.141063
Sum of atomic charges:    0.0000000

LOEWDIN ATOMIC CHARGES
----------------------
   0 C :   -0.310333
   1 C :   -0.274322
   2 C :   -0.230803
   3 C :   -0.225728
   4 C :   -0.078274
   5 C :   -0.098382
   6 C :   -0.295407
   7 N :    0.115932
   8 C :   -0.325286
   9 H :    0.121067
  10 H :    0.121028
  11 H :    0.125220
  12 H :    0.142571
  13 H :    0.139809
  14 H :    0.144475
  15 H :    0.155886
  16 H :    0.141525
  17 H :    0.140890
  18 H :    0.141078
  19 H :    0.109558
  20 H :    0.119134
  21 H :    0.120364

  Mayer bond orders larger than 0.1
B(  0-C ,  1-C ) :   0.9153 B(  0-C ,  9-H ) :   0.9396 B(  0-C , 10-H ) :   0.9392
B(  0-C , 11-H ) :   0.9374 B(  1-C ,  2-C ) :   0.9091 B(  1-C , 12-H ) :   0.9243
B(  1-C , 13-H ) :   0.9347 B(  2-C ,  3-C ) :   0.9211 B(  2-C ,  7-N ) :   0.9068
B(  2-C , 14-H ) :   0.9237 B(  3-C ,  4-C ) :   1.0741 B(  3-C ,  5-C ) :  -0.1167
B(  3-C ,  7-N ) :   0.9345 B(  3-C , 15-H ) :   0.9255 B(  4-C ,  5-C ) :   2.6389
B(  5-C ,  6-C ) :   0.8488 B(  6-C , 16-H ) :   0.9498 B(  6-C , 17-H ) :   0.9480
B(  6-C , 18-H ) :   0.9452 B(  7-N ,  8-C ) :   0.8900 B(  8-C , 19-H ) :   0.9274
B(  8-C , 20-H ) :   0.9368 B(  8-C , 21-H ) :   0.9373

MP2 TOTAL ENERGY:     -366.487006255 Eh
FINAL SINGLE POINT ENERGY      -366.487006254876

DIPOLE MOMENT
-------------
                                X             Y             Z
Electronic contribution:      3.65631      -2.18188       3.85435
Nuclear contribution   :     -4.13179       1.96453      -4.35642
                        -----------------------------------------
Total Dipole Moment    :     -0.47548      -0.21735      -0.50207
                        -----------------------------------------
Magnitude (a.u.)       :      0.72484
Magnitude (Debye)      :      1.84240

                             ****ORCA TERMINATED NORMALLY****
TOTAL RUN TIME: 0 days 0 hours 20 minutes 17 seconds 280 msec
