                         Program Version 3.0.3 - RELEASE   -
|  1> ! RI-MP2 RIJK def2-TZVP def2-TZVP/C def2-TZVP/JK TIGHTSCF
|  2> % maxcore 2000
|  3> % mp2 density relaxed end
|  4> *xyz 0 1
|  5>  C       -0.2116991948     1.2923512454    -0.1279000305
|  6>  N        0.1617538386    -0.1100911636    -0.0084700896
|  7>  C        1.5905900235    -0.4299450612    -0.0806586715
|  8>  C        0.8425502290    -0.5295213010     1.1938989789
|  9>  C        1.0678897555     0.2173720816     2.5125114513
| 10>  O        0.7415091540    -0.9795041162     3.2572142923
| 11>  C        0.4606413217    -1.7067586108     2.0552285064
| 12>  C       -0.6986315536    -2.6337942051     1.9173861297
| 13>  C        0.7307288759    -3.1646372237     1.9066431607
| 14>  H        0.5250996843     1.9859575018     0.3102882969
| 15>  H       -0.3259623142     1.5422517265    -1.1869513521
| 16>  H       -1.1741824592     1.4558135105     0.3669106782
| 17>  H        1.8513909928    -1.3201567237    -0.6477246763
| 18>  H        2.2969486892     0.3954496463    -0.1769704634
| 19>  H        2.0899646442     0.5570193930     2.7144709266
| 20>  H        0.3639400817     1.0329638789     2.7205913588
| 21>  H       -1.2920171929    -2.8208800570     2.8057864034
| 22>  H       -1.2518275457    -2.6049059898     0.9846168267
| 23>  H        1.1505591556    -3.5233705286     0.9720832572
| 24>  H        1.0719887442    -3.6922390231     2.7909846364
| 25> *
| 26>
| 27>                          ****END OF INPUT****

CARTESIAN COORDINATES (ANGSTROEM)
---------------------------------
  C     -0.211699    1.292351   -0.127900
  N      0.161754   -0.110091   -0.008470
  C      1.590590   -0.429945   -0.080659
  C      0.842550   -0.529521    1.193899
  C      1.067890    0.217372    2.512511
  O      0.741509   -0.979504    3.257214
  C      0.460641   -1.706759    2.055229
  C     -0.698632   -2.633794    1.917386
  C      0.730729   -3.164637    1.906643
  H      0.525100    1.985958    0.310288
  H     -0.325962    1.542252   -1.186951
  H     -1.174182    1.455814    0.366911
  H      1.851391   -1.320157   -0.647725
  H      2.296949    0.395450   -0.176970
  H      2.089965    0.557019    2.714471
  H      0.363940    1.032964    2.720591
  H     -1.292017   -2.820880    2.805786
  H     -1.251828   -2.604906    0.984617
  H      1.150559   -3.523371    0.972083
  H      1.071989   -3.692239    2.790985

 Total Charge           Charge          ....    0
 Multiplicity           Mult            ....    1
 Number of Electrons    NEL             ....   68
 Basis Dimension        Dim             ....  345

ORBITAL ENERGIES
----------------

  NO   OCC          E(Eh)            E(eV)
   0   2.0000     -20.552952      -559.2743
   1   2.0000     -15.566603      -423.5888
   2   2.0000     -11.285548      -307.0954
   3   2.0000     -11.284890      -307.0775
   4   2.0000     -11.272099      -306.7294
   5   2.0000     -11.259987      -306.3998
   6   2.0000     -11.254216      -306.2428
   7   2.0000     -11.223987      -305.4202
   8   2.0000     -11.220908      -305.3364
   9   2.0000      -1.387419       -37.7536
  10   2.0000      -1.280322       -34.8393
  11   2.0000      -1.127250       -30.6740
  12   2.0000      -1.007596       -27.4181
  13   2.0000      -0.946310       -25.7504
  14   2.0000      -0.866530       -23.5795
  15   2.0000      -0.838349       -22.8126
  16   2.0000      -0.823364       -22.4049
  17   2.0000      -0.709651       -19.3106
  18   2.0000      -0.689700       -18.7677
  19   2.0000      -0.679888       -18.5007
  20   2.0000      -0.651696       -17.7335
  21   2.0000      -0.634824       -17.2744
  22   2.0000      -0.605232       -16.4692
  23   2.0000      -0.581744       -15.8300
  24   2.0000      -0.564329       -15.3562
  25   2.0000      -0.528182       -14.3726
  26   2.0000      -0.522545       -14.2192
  27   2.0000      -0.516074       -14.0431
  28   2.0000      -0.501900       -13.6574
  29   2.0000      -0.472644       -12.8613
  30   2.0000      -0.441955       -12.0262
  31   2.0000      -0.419604       -11.4180
  32   2.0000      -0.388685       -10.5767
  33   2.0000      -0.360004        -9.7962
  34   0.0000       0.137693         3.7468
  35   0.0000       0.158784         4.3207
  36   0.0000       0.170741         4.6461
  37   0.0000       0.174968         4.7611
  38   0.0000       0.183781         5.0009

MULLIKEN ATOMIC CHARGES
-----------------------
   0 C :   -0.314964
   1 N :   -0.226562
   2 C :   -0.183452
   3 C :    0.024028
   4 C :   -0.002155
   5 O :   -0.312902
   6 C :    0.213025
   7 C :   -0.282125
   8 C :   -0.303149
   9 H :    0.110988
  10 H :    0.144546
  11 H :    0.145577
  12 H :    0.125455
  13 H :    0.118123
  14 H :    0.106628
  15 H :    0.104404
  16 H :    0.133331
  17 H :    0.137145
  18 H :    0.127256
  19 H :    0.134802
Sum of atomic charges:    0.0000000

LOEWDIN ATOMIC CHARGES
----------------------
   0 C :   -0.325380
   1 N :    0.114687
   2 C :   -0.217250
   3 C :   -0.244908
   4 C :   -0.219848
   5 O :    0.171471
   6 C :   -0.273197
   7 C :   -0.199434
   8 C :   -0.202706
   9 H :    0.106929
  10 H :    0.120183
  11 H :    0.120384
  12 H :    0.127610
  13 H :    0.126190
  14 H :    0.121882
  15 H :    0.122677
  16 H :    0.138689
  17 H :    0.138239
  18 H :    0.133968
  19 H :    0.139813

  Mayer bond orders larger than 0.1
B(  0-C ,  1-N ) :   0.8695 B(  0-C ,  9-H ) :   0.9253 B(  0-C , 10-H ) :   0.9370
B(  0-C , 11-H ) :   0.9384 B(  1-N ,  2-C ) :   0.9540 B(  1-N ,  3-C ) :   0.8071
B(  2-C ,  3-C ) :   0.8734 B(  2-C , 12-H ) :   0.9093 B(  2-C , 13-H ) :   0.9222
B(  3-C ,  4-C ) :   0.9584 B(  3-C ,  6-C ) :   0.9571 B(  4-C ,  5-O ) :   0.9489
B(  4-C , 14-H ) :   0.9113 B(  4-C , 15-H ) :   0.9085 B(  5-O ,  6-C ) :   0.9871
B(  6-C ,  7-C ) :   0.8390 B(  6-C ,  8-C ) :   0.8615 B(  7-C ,  8-C ) :   0.9297
B(  7-C , 16-H ) :   0.9185 B(  7-C , 17-H ) :   0.9094 B(  8-C , 18-H ) :   0.9174
B(  8-C , 19-H ) :   0.9157

MP2 TOTAL ENERGY:     -402.373902728 Eh
FINAL SINGLE POINT ENERGY      -402.373902728078

DIPOLE MOMENT
-------------
                                X             Y             Z
Electronic contribution:      0.65718      -1.80634       3.07618
Nuclear contribution   :     -0.37191       2.33007      -3.58796
                        -----------------------------------------
Total Dipole Moment    :      0.28527       0.52373      -0.51178
                        -----------------------------------------
Magnitude (a.u.)       :      0.78587
Magnitude (Debye)      :      1.99752

                             ****ORCA TERMINATED NORMALLY****
TOTAL RUN TIME: 0 days 0 hours 17 minutes 28 seconds 153 msec
