                         Program Version 3.0.3 - RELEASE   -
|  1> ! RI-MP2 RIJK def2-TZVP def2-TZVP/C def2-TZVP/JK TIGHTSCF
|  2> % maxcore 2000
|  3> % mp2 density relaxed end
|  4> *xyz 0 1
|  5>  O        0.0125825269     0.1246197527     0.6247232400
|  6>  C       -0.0316200022     1.2309828023     0.1572606841
|  7>  C       -1.3374431082     1.9594366933    -0.2027874651
|  8>  N       -1.1448715697     3.3046546387    -0.7588846557
|  9>  C       -0.0754856222     3.2433860588    -1.8140930695
| 10>  C        1.0106725017     3.4106255722    -0.7128794586
| 11>  C       -0.1557295857     4.0449848551     0.0979871916
| 12>  C        1.2837266842     2.0432792743    -0.1284993850
| 13>  O        2.3664965567     1.5818107643     0.1120264228
| 14>  H       -1.8891794861     1.3408075682    -0.9201599021
| 15>  H       -1.9568108679     2.0202360586     0.6996743423
| 16>  H       -0.0701126900     2.3354205066    -2.4254505414
| 17>  H       -0.1387938998     4.1165393883    -2.4694858418
| 18>  H        1.9288785658     3.9678141485    -0.9078816166
| 19>  H       -0.2395387054     5.1222730070    -0.0704517641
| 20>  H       -0.2210756483     3.8435236613     1.1719200592
| 21> *
| 22>
| 23>                          ****END OF INPUT****

CARTESIAN COORDINATES (ANGSTROEM)
---------------------------------
  O      0.012583    0.124620    0.624723
  C     -0.031620    1.230983    0.157261
  C     -1.337443    1.959437   -0.202787
  N     -1.144872    3.304655   -0.758885
  C     -0.075486    3.243386   -1.814093
  C      1.010673    3.410626   -0.712879
  C     -0.155730    4.044985    0.097987
  C      1.283727    2.043279   -0.128499
  O      2.366497    1.581811    0.112026
  H     -1.889179    1.340808   -0.920160
  H     -1.956811    2.020236    0.699674
  H     -0.070113    2.335421   -2.425451
  H     -0.138794    4.116539   -2.469486
  H      1.928879    3.967814   -0.907882
  H     -0.239539    5.122273   -0.070452
  H     -0.221076    3.843524    1.171920

 Total Charge           Charge          ....    0
 Multiplicity           Mult            ....    1
 Number of Electrons    NEL             ....   66
 Basis Dimension        Dim             ....  321

ORBITAL ENERGIES
----------------

  NO   OCC          E(Eh)            E(eV)
   0   2.0000     -20.577839      -559.9515
   1   2.0000     -20.576506      -559.9152
   2   2.0000     -15.585337      -424.0986
   3   2.0000     -11.352015      -308.9040
   4   2.0000     -11.351317      -308.8850
   5   2.0000     -11.290886      -307.2406
   6   2.0000     -11.290871      -307.2402
   7   2.0000     -11.285169      -307.0851
   8   2.0000     -11.269890      -306.6693
   9   2.0000      -1.430095       -38.9149
  10   2.0000      -1.402196       -38.1557
  11   2.0000      -1.293650       -35.2020
  12   2.0000      -1.065023       -28.9807
  13   2.0000      -1.009159       -27.4606
  14   2.0000      -0.953436       -25.9443
  15   2.0000      -0.860288       -23.4096
  16   2.0000      -0.828152       -22.5352
  17   2.0000      -0.732604       -19.9352
  18   2.0000      -0.703367       -19.1396
  19   2.0000      -0.676472       -18.4077
  20   2.0000      -0.670592       -18.2477
  21   2.0000      -0.658922       -17.9302
  22   2.0000      -0.623907       -16.9774
  23   2.0000      -0.608614       -16.5612
  24   2.0000      -0.604987       -16.4625
  25   2.0000      -0.571397       -15.5485
  26   2.0000      -0.528387       -14.3781
  27   2.0000      -0.524202       -14.2643
  28   2.0000      -0.510737       -13.8978
  29   2.0000      -0.508157       -13.8277
  30   2.0000      -0.478577       -13.0227
  31   2.0000      -0.412838       -11.2339
  32   2.0000      -0.384504       -10.4629
  33   0.0000       0.061799         1.6816
  34   0.0000       0.126497         3.4422
  35   0.0000       0.144850         3.9416
  36   0.0000       0.152433         4.1479
  37   0.0000       0.162911         4.4330

MULLIKEN ATOMIC CHARGES
-----------------------
   0 O :   -0.225883
   1 C :    0.120503
   2 C :   -0.172670
   3 N :   -0.140454
   4 C :   -0.268641
   5 C :    0.116814
   6 C :   -0.268539
   7 C :    0.034298
   8 O :   -0.220695
   9 H :    0.156129
  10 H :    0.156155
  11 H :    0.144250
  12 H :    0.142130
  13 H :    0.140201
  14 H :    0.142144
  15 H :    0.144259
Sum of atomic charges:   -0.0000000

LOEWDIN ATOMIC CHARGES
----------------------
   0 O :    0.198532
   1 C :   -0.288199
   2 C :   -0.269107
   3 N :    0.077915
   4 C :   -0.211487
   5 C :   -0.196610
   6 C :   -0.211466
   7 C :   -0.288384
   8 O :    0.198849
   9 H :    0.151761
  10 H :    0.151776
  11 H :    0.131472
  12 H :    0.138404
  13 H :    0.146646
  14 H :    0.138412
  15 H :    0.131484

  Mayer bond orders larger than 0.1
B(  0-O ,  1-C ) :   2.0001 B(  1-C ,  2-C ) :   0.8323 B(  1-C ,  5-C ) :  -0.1378
B(  1-C ,  7-C ) :   0.8980 B(  2-C ,  3-N ) :   0.9412 B(  2-C ,  9-H ) :   0.9151
B(  2-C , 10-H ) :   0.9152 B(  3-N ,  4-C ) :   0.8910 B(  3-N ,  6-C ) :   0.8911
B(  4-C ,  5-C ) :   0.8532 B(  4-C , 11-H ) :   0.9278 B(  4-C , 12-H ) :   0.9162
B(  5-C ,  6-C ) :   0.8533 B(  5-C ,  7-C ) :   0.7832 B(  5-C , 13-H ) :   0.9015
B(  6-C , 14-H ) :   0.9162 B(  6-C , 15-H ) :   0.9278 B(  7-C ,  8-O ) :   2.0181

MP2 TOTAL ENERGY:     -437.151853826 Eh
FINAL SINGLE POINT ENERGY      -437.151853825582

DIPOLE MOMENT
-------------
                                X             Y             Z
Electronic contribution:      3.31977      -4.95434       2.21654
Nuclear contribution   :     -3.86240       6.19350      -2.76045
                        -----------------------------------------
Total Dipole Moment    :     -0.54264       1.23916      -0.54391
                        -----------------------------------------
Magnitude (a.u.)       :      1.45802
Magnitude (Debye)      :      3.70598

                             ****ORCA TERMINATED NORMALLY****
TOTAL RUN TIME: 0 days 0 hours 16 minutes 26 seconds 792 msec
