                         Program Version 3.0.3 - RELEASE   -
|  1> ! RI-MP2 RIJK def2-TZVP def2-TZVP/C def2-TZVP/JK TIGHTSCF
|  2> % maxcore 2000
|  3> % mp2 density relaxed end
|  4> *xyz 0 1
|  5>  N       -0.0583426323     1.2820750559     0.0422065609
|  6>  C       -0.0236295910     0.0206708785    -0.0011269268
|  7>  O        1.1306291279    -0.7158498737    -0.0369752551
|  8>  C        0.8701853892    -2.1392203559    -0.0384176215
|  9>  C        0.1354912533    -2.5064011733     1.2568929468
| 10>  C       -1.2182531517    -1.7435453554     1.2621416808
| 11>  C       -1.2494408452    -0.8654362143    -0.0002406088
| 12>  O       -1.2195241203    -1.7077578980    -1.1597863074
| 13>  C        0.0004359828    -2.4439082623    -1.2544497625
| 14>  H        0.8900858090     1.6649630406     0.0520866309
| 15>  H        1.8465090735    -2.6202947506    -0.1167761750
| 16>  H       -0.0097981809    -3.5899698704     1.3000577114
| 17>  H        0.7589705484    -2.2253836845     2.1095972862
| 18>  H       -2.0678357706    -2.4302762801     1.2222568735
| 19>  H       -1.3298165464    -1.1238457285     2.1561524357
| 20>  H       -2.1490806804    -0.2577572734    -0.0765519301
| 21>  H        0.5252886270    -2.1552942046    -2.1742703399
| 22>  H       -0.2239403723    -3.5178688700    -1.3055396091
| 23> *
| 24>
| 25>                          ****END OF INPUT****

CARTESIAN COORDINATES (ANGSTROEM)
---------------------------------
  N     -0.058343    1.282075    0.042207
  C     -0.023630    0.020671   -0.001127
  O      1.130629   -0.715850   -0.036975
  C      0.870185   -2.139220   -0.038418
  C      0.135491   -2.506401    1.256893
  C     -1.218253   -1.743545    1.262142
  C     -1.249441   -0.865436   -0.000241
  O     -1.219524   -1.707758   -1.159786
  C      0.000436   -2.443908   -1.254450
  H      0.890086    1.664963    0.052087
  H      1.846509   -2.620295   -0.116776
  H     -0.009798   -3.589970    1.300058
  H      0.758971   -2.225384    2.109597
  H     -2.067836   -2.430276    1.222257
  H     -1.329817   -1.123846    2.156152
  H     -2.149081   -0.257757   -0.076552
  H      0.525289   -2.155294   -2.174270
  H     -0.223940   -3.517869   -1.305540

 Total Charge           Charge          ....    0
 Multiplicity           Mult            ....    1
 Number of Electrons    NEL             ....   68
 Basis Dimension        Dim             ....  333

ORBITAL ENERGIES
----------------

  NO   OCC          E(Eh)            E(eV)
   0   2.0000     -20.596193      -560.4509
   1   2.0000     -20.568931      -559.7091
   2   2.0000     -15.534335      -422.7108
   3   2.0000     -11.334158      -308.4181
   4   2.0000     -11.307083      -307.6814
   5   2.0000     -11.297738      -307.4271
   6   2.0000     -11.290281      -307.2242
   7   2.0000     -11.245020      -305.9926
   8   2.0000     -11.241678      -305.9016
   9   2.0000      -1.440450       -39.1966
  10   2.0000      -1.377664       -37.4881
  11   2.0000      -1.198719       -32.6188
  12   2.0000      -1.090489       -29.6737
  13   2.0000      -1.046613       -28.4798
  14   2.0000      -0.920149       -25.0385
  15   2.0000      -0.888878       -24.1876
  16   2.0000      -0.846006       -23.0210
  17   2.0000      -0.734168       -19.9777
  18   2.0000      -0.723200       -19.6793
  19   2.0000      -0.688911       -18.7462
  20   2.0000      -0.685278       -18.6474
  21   2.0000      -0.649470       -17.6730
  22   2.0000      -0.598345       -16.2818
  23   2.0000      -0.594808       -16.1856
  24   2.0000      -0.585365       -15.9286
  25   2.0000      -0.573606       -15.6086
  26   2.0000      -0.552380       -15.0310
  27   2.0000      -0.549139       -14.9428
  28   2.0000      -0.521075       -14.1792
  29   2.0000      -0.490193       -13.3388
  30   2.0000      -0.461680       -12.5630
  31   2.0000      -0.443605       -12.0711
  32   2.0000      -0.415979       -11.3194
  33   2.0000      -0.393321       -10.7028
  34   0.0000       0.124692         3.3930
  35   0.0000       0.155967         4.2441
  36   0.0000       0.164120         4.4659
  37   0.0000       0.175139         4.7658
  38   0.0000       0.182501         4.9661

MULLIKEN ATOMIC CHARGES
-----------------------
   0 N :   -0.358248
   1 C :    0.035941
   2 O :   -0.263438
   3 C :    0.070860
   4 C :   -0.260042
   5 C :   -0.273373
   6 C :    0.208549
   7 O :   -0.322110
   8 C :   -0.066764
   9 H :    0.219607
  10 H :    0.133674
  11 H :    0.124947
  12 H :    0.132500
  13 H :    0.129318
  14 H :    0.132257
  15 H :    0.136191
  16 H :    0.112297
  17 H :    0.107835
Sum of atomic charges:    0.0000000

LOEWDIN ATOMIC CHARGES
----------------------
   0 N :   -0.051136
   1 C :   -0.389294
   2 O :    0.253878
   3 C :   -0.292155
   4 C :   -0.231458
   5 C :   -0.223722
   6 C :   -0.273350
   7 O :    0.173399
   8 C :   -0.279084
   9 H :    0.167483
  10 H :    0.150320
  11 H :    0.143116
  12 H :    0.143562
  13 H :    0.143632
  14 H :    0.144843
  15 H :    0.158835
  16 H :    0.130260
  17 H :    0.130871

  Mayer bond orders larger than 0.1
B(  0-N ,  1-C ) :   2.0860 B(  0-N ,  9-H ) :   0.8534 B(  1-C ,  2-O ) :   1.0929
B(  1-C ,  6-C ) :   0.9178 B(  2-O ,  3-C ) :   0.8660 B(  3-C ,  4-C ) :   0.9405
B(  3-C ,  8-C ) :   0.9578 B(  3-C , 10-H ) :   0.9182 B(  4-C ,  5-C ) :   0.9803
B(  4-C , 11-H ) :   0.9185 B(  4-C , 12-H ) :   0.9203 B(  5-C ,  6-C ) :   0.9317
B(  5-C , 13-H ) :   0.9198 B(  5-C , 14-H ) :   0.9212 B(  6-C ,  7-O ) :   0.8945
B(  6-C , 15-H ) :   0.9095 B(  7-O ,  8-C ) :   0.9427 B(  8-C , 16-H ) :   0.9225
B(  8-C , 17-H ) :   0.9145

MP2 TOTAL ENERGY:     -438.390157247 Eh
FINAL SINGLE POINT ENERGY      -438.390157246755

DIPOLE MOMENT
-------------
                                X             Y             Z
Electronic contribution:      0.69263       3.78546      -2.51672
Nuclear contribution   :     -0.19524      -5.04697       2.99725
                        -----------------------------------------
Total Dipole Moment    :      0.49738      -1.26150       0.48053
                        -----------------------------------------
Magnitude (a.u.)       :      1.43864
Magnitude (Debye)      :      3.65674

                             ****ORCA TERMINATED NORMALLY****
TOTAL RUN TIME: 0 days 0 hours 18 minutes 53 seconds 774 msec
