                         Program Version 3.0.3 - RELEASE   -
|  1> ! RI-MP2 RIJK def2-TZVP def2-TZVP/C def2-TZVP/JK TIGHTSCF
|  2> % maxcore 2000
|  3> % mp2 density relaxed end
|  4> *xyz 0 1
|  5>  C       -0.1428566282     1.4168129044     0.0201350403
|  6>  C       -0.0369615976    -0.0882842669     0.0262665953
|  7>  O        0.5632764383    -0.4998356032    -1.1931338153
|  8>  C        0.9091209624    -1.8229703848    -1.2826632378
|  9>  N        1.3669726977    -2.3429193631    -2.3354938382
| 10>  C        0.7327019962    -2.6025770856    -0.0026814688
| 11>  C        1.1243692280    -1.7864599718     1.2179504113
| 12>  O        1.7070674249    -2.2019552832     2.1743342724
| 13>  O        0.7578022612    -0.4739231393     1.1447373522
| 14>  H        0.8545098346     1.8533866940    -0.0678311414
| 15>  H       -0.7537449296     1.7405383112    -0.8252371650
| 16>  H       -0.6030290213     1.7578105714     0.9497297616
| 17>  H       -1.0242970787    -0.5631838144     0.1174925933
| 18>  H        1.4048430435    -1.6549028596    -3.0900055260
| 19>  H       -0.3265797159    -2.8762148505     0.1078288627
| 20>  H        1.3112699547    -3.5226654186    -0.0370351567
| 21> *
| 22>
| 23>                          ****END OF INPUT****

CARTESIAN COORDINATES (ANGSTROEM)
---------------------------------
  C     -0.142857    1.416813    0.020135
  C     -0.036962   -0.088284    0.026267
  O      0.563276   -0.499836   -1.193134
  C      0.909121   -1.822970   -1.282663
  N      1.366973   -2.342919   -2.335494
  C      0.732702   -2.602577   -0.002681
  C      1.124369   -1.786460    1.217950
  O      1.707067   -2.201955    2.174334
  O      0.757802   -0.473923    1.144737
  H      0.854510    1.853387   -0.067831
  H     -0.753745    1.740538   -0.825237
  H     -0.603029    1.757811    0.949730
  H     -1.024297   -0.563184    0.117493
  H      1.404843   -1.654903   -3.090006
  H     -0.326580   -2.876215    0.107829
  H      1.311270   -3.522665   -0.037035

 Total Charge           Charge          ....    0
 Multiplicity           Mult            ....    1
 Number of Electrons    NEL             ....   68
 Basis Dimension        Dim             ....  321

ORBITAL ENERGIES
----------------

  NO   OCC          E(Eh)            E(eV)
   0   2.0000     -20.624462      -561.2201
   1   2.0000     -20.624108      -561.2105
   2   2.0000     -20.560414      -559.4773
   3   2.0000     -15.556102      -423.3031
   4   2.0000     -11.403116      -310.2946
   5   2.0000     -11.385705      -309.8208
   6   2.0000     -11.366806      -309.3065
   7   2.0000     -11.280830      -306.9670
   8   2.0000     -11.247711      -306.0658
   9   2.0000      -1.501942       -40.8699
  10   2.0000      -1.444609       -39.3098
  11   2.0000      -1.381895       -37.6033
  12   2.0000      -1.224549       -33.3217
  13   2.0000      -1.079487       -29.3743
  14   2.0000      -1.046689       -28.4819
  15   2.0000      -0.899768       -24.4839
  16   2.0000      -0.856400       -23.3038
  17   2.0000      -0.785950       -21.3868
  18   2.0000      -0.769328       -20.9345
  19   2.0000      -0.739350       -20.1187
  20   2.0000      -0.703828       -19.1521
  21   2.0000      -0.664580       -18.0841
  22   2.0000      -0.641267       -17.4498
  23   2.0000      -0.615860       -16.7584
  24   2.0000      -0.605876       -16.4867
  25   2.0000      -0.586802       -15.9677
  26   2.0000      -0.579747       -15.7757
  27   2.0000      -0.570215       -15.5163
  28   2.0000      -0.552769       -15.0416
  29   2.0000      -0.532272       -14.4839
  30   2.0000      -0.480731       -13.0814
  31   2.0000      -0.471862       -12.8400
  32   2.0000      -0.457753       -12.4561
  33   2.0000      -0.421694       -11.4749
  34   0.0000       0.114649         3.1197
  35   0.0000       0.134270         3.6537
  36   0.0000       0.150089         4.0841
  37   0.0000       0.164357         4.4724
  38   0.0000       0.173950         4.7334

MULLIKEN ATOMIC CHARGES
-----------------------
   0 C :   -0.360953
   1 C :    0.143032
   2 O :   -0.234300
   3 C :    0.109206
   4 N :   -0.351327
   5 C :   -0.204725
   6 C :    0.240177
   7 O :   -0.261361
   8 O :   -0.197408
   9 H :    0.147577
  10 H :    0.143995
  11 H :    0.147723
  12 H :    0.107917
  13 H :    0.227487
  14 H :    0.163003
  15 H :    0.179956
Sum of atomic charges:    0.0000000

LOEWDIN ATOMIC CHARGES
----------------------
   0 C :   -0.276201
   1 C :   -0.381126
   2 O :    0.259122
   3 C :   -0.404867
   4 N :   -0.039267
   5 C :   -0.190815
   6 C :   -0.460706
   7 O :    0.159618
   8 O :    0.275333
   9 H :    0.136664
  10 H :    0.134769
  11 H :    0.136243
  12 H :    0.135225
  13 H :    0.171903
  14 H :    0.172255
  15 H :    0.171849

  Mayer bond orders larger than 0.1
B(  0-C ,  1-C ) :   0.9428 B(  0-C ,  9-H ) :   0.9274 B(  0-C , 10-H ) :   0.9301
B(  0-C , 11-H ) :   0.9293 B(  1-C ,  2-O ) :   0.9282 B(  1-C ,  8-O ) :   0.9149
B(  1-C , 12-H ) :   0.9289 B(  2-O ,  3-C ) :   1.0530 B(  3-C ,  4-N ) :   2.0708
B(  3-C ,  5-C ) :   0.8849 B(  4-N , 13-H ) :   0.8550 B(  5-C ,  6-C ) :   0.9239
B(  5-C , 14-H ) :   0.9028 B(  5-C , 15-H ) :   0.8998 B(  6-C ,  7-O ) :   2.0559
B(  6-C ,  8-O ) :   1.0781

MP2 TOTAL ENERGY:     -474.327070349 Eh
FINAL SINGLE POINT ENERGY      -474.327070348899

DIPOLE MOMENT
-------------
                                X             Y             Z
Electronic contribution:      2.98289      -3.53558       2.02027
Nuclear contribution   :     -4.23892       4.33731      -2.55729
                        -----------------------------------------
Total Dipole Moment    :     -1.25603       0.80173      -0.53703
                        -----------------------------------------
Magnitude (a.u.)       :      1.58392
Magnitude (Debye)      :      4.02599

                             ****ORCA TERMINATED NORMALLY****
TOTAL RUN TIME: 0 days 0 hours 13 minutes 51 seconds 932 msec
