                         Program Version 3.0.3 - RELEASE   -
|  1> ! RI-MP2 RIJK def2-TZVP def2-TZVP/C def2-TZVP/JK TIGHTSCF
|  2> % maxcore 2000
|  3> % mp2 density relaxed end
|  4> *xyz 0 1
|  5>  C        0.0249217821     1.4471023064    -0.0415868725
|  6>  C       -0.0174254094    -0.0602023367    -0.0158083306
|  7>  O        0.3315903079    -0.5844480226    -1.2909064331
|  8>  C       -0.1490166743    -1.9369644229    -1.3619105365
|  9>  C       -0.8571411364    -2.1784906653    -0.0261916752
| 10>  C        0.0763906822    -2.1327246323     1.1857335697
| 11>  C        0.6455041174    -0.7532596405     1.1846903449
| 12>  N       -0.6630847339    -1.0273921008     1.8796509734
| 13>  C       -1.2890307504    -0.7848635829     0.4862112745
| 14>  H        1.0350593176     1.7969611987    -0.2759198181
| 15>  H       -0.6558802932     1.8346810066    -0.8048972913
| 16>  H       -0.2643508441     1.8512093487     0.9325288902
| 17>  H       -0.8256462765    -2.0285310263    -2.2215511101
| 18>  H        0.6926422777    -2.6251667454    -1.5119927215
| 19>  H       -1.6025338448    -2.9726036160    -0.0122412089
| 20>  H        0.5200307704    -2.9549764029     1.7348884368
| 21>  H        1.5355302133    -0.4706706836     1.7352866914
| 22>  H       -2.2935221556    -0.3786493323     0.3897502770
| 23> *
| 24>
| 25>                          ****END OF INPUT****

CARTESIAN COORDINATES (ANGSTROEM)
---------------------------------
  C      0.024922    1.447102   -0.041587
  C     -0.017425   -0.060202   -0.015808
  O      0.331590   -0.584448   -1.290906
  C     -0.149017   -1.936964   -1.361911
  C     -0.857141   -2.178491   -0.026192
  C      0.076391   -2.132725    1.185734
  C      0.645504   -0.753260    1.184690
  N     -0.663085   -1.027392    1.879651
  C     -1.289031   -0.784864    0.486211
  H      1.035059    1.796961   -0.275920
  H     -0.655880    1.834681   -0.804897
  H     -0.264351    1.851209    0.932529
  H     -0.825646   -2.028531   -2.221551
  H      0.692642   -2.625167   -1.511993
  H     -1.602534   -2.972604   -0.012241
  H      0.520031   -2.954976    1.734888
  H      1.535530   -0.470671    1.735287
  H     -2.293522   -0.378649    0.389750

 Total Charge           Charge          ....    0
 Multiplicity           Mult            ....    1
 Number of Electrons    NEL             ....   66
 Basis Dimension        Dim             ....  333

ORBITAL ENERGIES
----------------

  NO   OCC          E(Eh)            E(eV)
   0   2.0000     -20.554754      -559.3233
   1   2.0000     -15.565639      -423.5626
   2   2.0000     -11.294461      -307.3379
   3   2.0000     -11.279020      -306.9177
   4   2.0000     -11.268022      -306.6185
   5   2.0000     -11.265500      -306.5498
   6   2.0000     -11.261451      -306.4397
   7   2.0000     -11.245952      -306.0179
   8   2.0000     -11.220340      -305.3210
   9   2.0000      -1.390906       -37.8485
  10   2.0000      -1.308502       -35.6062
  11   2.0000      -1.052267       -28.6336
  12   2.0000      -1.019056       -27.7299
  13   2.0000      -0.932923       -25.3861
  14   2.0000      -0.895448       -24.3664
  15   2.0000      -0.882668       -24.0186
  16   2.0000      -0.739842       -20.1321
  17   2.0000      -0.730085       -19.8666
  18   2.0000      -0.705792       -19.2056
  19   2.0000      -0.672357       -18.2958
  20   2.0000      -0.631919       -17.1954
  21   2.0000      -0.617765       -16.8103
  22   2.0000      -0.586000       -15.9459
  23   2.0000      -0.568327       -15.4650
  24   2.0000      -0.543323       -14.7846
  25   2.0000      -0.531663       -14.4673
  26   2.0000      -0.525198       -14.2914
  27   2.0000      -0.500696       -13.6246
  28   2.0000      -0.485961       -13.2237
  29   2.0000      -0.433407       -11.7936
  30   2.0000      -0.406018       -11.0483
  31   2.0000      -0.397911       -10.8277
  32   2.0000      -0.387217       -10.5367
  33   0.0000       0.139577         3.7981
  34   0.0000       0.151323         4.1177
  35   0.0000       0.168207         4.5771
  36   0.0000       0.175485         4.7752
  37   0.0000       0.198391         5.3985

MULLIKEN ATOMIC CHARGES
-----------------------
   0 C :   -0.451229
   1 C :    0.297868
   2 O :   -0.317247
   3 C :   -0.059543
   4 C :   -0.094263
   5 C :   -0.096898
   6 C :   -0.159621
   7 N :   -0.224189
   8 C :   -0.085512
   9 H :    0.141029
  10 H :    0.137736
  11 H :    0.148632
  12 H :    0.104861
  13 H :    0.100443
  14 H :    0.135069
  15 H :    0.137680
  16 H :    0.138937
  17 H :    0.146248
Sum of atomic charges:    0.0000000

LOEWDIN ATOMIC CHARGES
----------------------
   0 C :   -0.258799
   1 C :   -0.333485
   2 O :    0.185316
   3 C :   -0.262491
   4 C :   -0.196732
   5 C :   -0.183536
   6 C :   -0.163093
   7 N :    0.135203
   8 C :   -0.128908
   9 H :    0.132716
  10 H :    0.131123
  11 H :    0.137168
  12 H :    0.122874
  13 H :    0.125560
  14 H :    0.150558
  15 H :    0.136034
  16 H :    0.136989
  17 H :    0.133500

  Mayer bond orders larger than 0.1
B(  0-C ,  1-C ) :   0.8600 B(  0-C ,  9-H ) :   0.9419 B(  0-C , 10-H ) :   0.9411
B(  0-C , 11-H ) :   0.9408 B(  1-C ,  2-O ) :   0.9965 B(  1-C ,  6-C ) :   0.8892
B(  1-C ,  8-C ) :   0.9276 B(  2-O ,  3-C ) :   0.9442 B(  3-C ,  4-C ) :   0.9753
B(  3-C , 12-H ) :   0.9239 B(  3-C , 13-H ) :   0.9088 B(  4-C ,  5-C ) :   0.8880
B(  4-C ,  8-C ) :   0.9364 B(  4-C , 14-H ) :   0.9058 B(  5-C ,  6-C ) :   0.9145
B(  5-C ,  7-N ) :   0.9033 B(  5-C , 15-H ) :   0.9187 B(  6-C ,  7-N ) :   0.8946
B(  6-C , 16-H ) :   0.9131 B(  7-N ,  8-C ) :   0.9613 B(  8-C , 17-H ) :   0.8947

MP2 TOTAL ENERGY:     -401.209181081 Eh
FINAL SINGLE POINT ENERGY      -401.209181081203

DIPOLE MOMENT
-------------
                                X             Y             Z
Electronic contribution:     -0.01715      -2.08758       1.30961
Nuclear contribution   :     -0.04753       1.73179      -1.59327
                        -----------------------------------------
Total Dipole Moment    :     -0.06468      -0.35580      -0.28366
                        -----------------------------------------
Magnitude (a.u.)       :      0.45961
Magnitude (Debye)      :      1.16823

                             ****ORCA TERMINATED NORMALLY****
TOTAL RUN TIME: 0 days 0 hours 19 minutes 27 seconds 234 msec
