                         Program Version 3.0.3 - RELEASE   -
|  1> ! RI-MP2 RIJK def2-TZVP def2-TZVP/C def2-TZVP/JK TIGHTSCF
|  2> % maxcore 2000
|  3> % mp2 density relaxed end
|  4> *xyz 0 1
|  5>  C       -0.2005690219     0.9820887249     0.9717262358
|  6>  C        0.2637743402     0.3066741702    -0.3161379620
|  7>  N        1.1097074854    -0.8434716387    -0.0047068139
|  8>  C        2.0073212761    -1.1775247381    -0.7974091659
|  9>  O        2.3735088806    -0.6359029528    -1.9976291725
| 10>  N        3.4944871903    -1.3708561506    -2.5117900722
| 11>  C        3.6808370393    -2.2676794340    -1.6141681529
| 12>  O        4.5995609947    -3.2153708113    -1.6063996486
| 13>  O        2.8576530016    -2.2524973633    -0.5593111157
| 14>  H       -0.7328673341     0.2695093431     1.6080051387
| 15>  H        0.6530224652     1.3668555629     1.5376957304
| 16>  H       -0.8696986952     1.8183926438     0.7464905515
| 17>  H       -0.6093230278    -0.0488615755    -0.8796380797
| 18>  H        0.7810048505     1.0305990077    -0.9601699414
| 19>  H        5.1273223351    -3.1295765483    -2.4127290919
| 20> *
| 21>
| 22>                          ****END OF INPUT****

CARTESIAN COORDINATES (ANGSTROEM)
---------------------------------
  C     -0.200569    0.982089    0.971726
  C      0.263774    0.306674   -0.316138
  N      1.109707   -0.843472   -0.004707
  C      2.007321   -1.177525   -0.797409
  O      2.373509   -0.635903   -1.997629
  N      3.494487   -1.370856   -2.511790
  C      3.680837   -2.267679   -1.614168
  O      4.599561   -3.215371   -1.606400
  O      2.857653   -2.252497   -0.559311
  H     -0.732867    0.269509    1.608005
  H      0.653022    1.366856    1.537696
  H     -0.869699    1.818393    0.746491
  H     -0.609323   -0.048862   -0.879638
  H      0.781005    1.030599   -0.960170
  H      5.127322   -3.129577   -2.412729

 Total Charge           Charge          ....    0
 Multiplicity           Mult            ....    1
 Number of Electrons    NEL             ....   68
 Basis Dimension        Dim             ....  315

ORBITAL ENERGIES
----------------

  NO   OCC          E(Eh)            E(eV)
   0   2.0000     -20.669119      -562.4353
   1   2.0000     -20.663078      -562.2709
   2   2.0000     -20.652530      -561.9839
   3   2.0000     -15.639409      -425.5699
   4   2.0000     -15.553619      -423.2355
   5   2.0000     -11.442807      -311.3746
   6   2.0000     -11.413698      -310.5825
   7   2.0000     -11.259535      -306.3875
   8   2.0000     -11.212125      -305.0974
   9   2.0000      -1.578278       -42.9471
  10   2.0000      -1.486424       -40.4477
  11   2.0000      -1.427538       -38.8453
  12   2.0000      -1.262349       -34.3503
  13   2.0000      -1.168582       -31.7987
  14   2.0000      -1.023226       -27.8434
  15   2.0000      -0.936074       -25.4719
  16   2.0000      -0.867690       -23.6111
  17   2.0000      -0.842176       -22.9168
  18   2.0000      -0.777001       -21.1433
  19   2.0000      -0.748814       -20.3763
  20   2.0000      -0.728426       -19.8215
  21   2.0000      -0.681592       -18.5471
  22   2.0000      -0.648273       -17.6404
  23   2.0000      -0.646878       -17.6024
  24   2.0000      -0.615838       -16.7578
  25   2.0000      -0.591398       -16.0928
  26   2.0000      -0.589861       -16.0509
  27   2.0000      -0.548161       -14.9162
  28   2.0000      -0.534256       -14.5378
  29   2.0000      -0.525140       -14.2898
  30   2.0000      -0.508596       -13.8396
  31   2.0000      -0.460847       -12.5403
  32   2.0000      -0.430144       -11.7048
  33   2.0000      -0.376266       -10.2387
  34   0.0000       0.112983         3.0744
  35   0.0000       0.145163         3.9501
  36   0.0000       0.176248         4.7959
  37   0.0000       0.179542         4.8856
  38   0.0000       0.182838         4.9753

MULLIKEN ATOMIC CHARGES
-----------------------
   0 C :   -0.346755
   1 C :   -0.101278
   2 N :   -0.248297
   3 C :    0.287878
   4 O :   -0.161786
   5 N :   -0.179964
   6 C :    0.357901
   7 O :   -0.380174
   8 O :   -0.200668
   9 H :    0.129104
  10 H :    0.121555
  11 H :    0.121095
  12 H :    0.119935
  13 H :    0.115958
  14 H :    0.365497
Sum of atomic charges:    0.0000000

LOEWDIN ATOMIC CHARGES
----------------------
   0 C :   -0.317014
   1 C :   -0.308175
   2 N :    0.100033
   3 C :   -0.463366
   4 O :    0.211021
   5 N :    0.006967
   6 C :   -0.558980
   7 O :    0.137331
   8 O :    0.343726
   9 H :    0.123676
  10 H :    0.121407
  11 H :    0.121108
  12 H :    0.133960
  13 H :    0.126634
  14 H :    0.221670

  Mayer bond orders larger than 0.1
B(  0-C ,  1-C ) :   0.9424 B(  0-C ,  9-H ) :   0.9362 B(  0-C , 10-H ) :   0.9345
B(  0-C , 11-H ) :   0.9347 B(  1-C ,  2-N ) :   0.8464 B(  1-C , 12-H ) :   0.9250
B(  1-C , 13-H ) :   0.9256 B(  2-N ,  3-C ) :   1.9479 B(  3-C ,  4-O ) :   1.0783
B(  3-C ,  8-O ) :   0.9597 B(  4-O ,  5-N ) :   0.7851 B(  5-N ,  6-C ) :   1.7070
B(  6-C ,  7-O ) :   1.1757 B(  6-C ,  8-O ) :   1.1010 B(  7-O , 14-H ) :   0.8031

MP2 TOTAL ENERGY:     -490.291815278 Eh
FINAL SINGLE POINT ENERGY      -490.291815278021

DIPOLE MOMENT
-------------
                                X             Y             Z
Electronic contribution:      9.17073      -7.95876      -5.47496
Nuclear contribution   :     -8.64813       7.81960       4.97424
                        -----------------------------------------
Total Dipole Moment    :      0.52261      -0.13916      -0.50072
                        -----------------------------------------
Magnitude (a.u.)       :      0.73702
Magnitude (Debye)      :      1.87336

                             ****ORCA TERMINATED NORMALLY****
TOTAL RUN TIME: 0 days 0 hours 14 minutes 1 seconds 64 msec
