                         Program Version 3.0.3 - RELEASE   -
|  1> ! RI-MP2 RIJK def2-TZVP def2-TZVP/C def2-TZVP/JK TIGHTSCF
|  2> % maxcore 2000
|  3> % mp2 density relaxed end
|  4> *xyz 0 1
|  5>  C        0.1246972271     1.5768604283     0.0969101955
|  6>  C        0.0800912963     0.0673388315    -0.0333780108
|  7>  C        0.7714439808    -0.6801636123    -1.1801178987
|  8>  C        1.1829100106    -1.7299109843    -0.2243341456
|  9>  C        2.2656357734    -0.8028656010    -0.7666062698
| 10>  C        2.3103026848    -0.2217526962     0.6023715922
| 11>  O        3.1045045249     0.3207934324     1.3023160271
| 12>  N        0.9498223046    -0.7474491442     0.9349136948
| 13>  H        1.1305321099     1.9767760919    -0.0574278962
| 14>  H       -0.5420234095     2.0342858385    -0.6411804977
| 15>  H       -0.2116780111     1.8794534523     1.0934145772
| 16>  H       -0.9450521475    -0.2977029339     0.0804039977
| 17>  H        0.4912071132    -0.7816002454    -2.2226368672
| 18>  H        1.1452404204    -2.8057342749    -0.1559850297
| 19>  H        3.0502442122    -1.0002134129    -1.4841543986
| 20> *
| 21>
| 22>                          ****END OF INPUT****

CARTESIAN COORDINATES (ANGSTROEM)
---------------------------------
  C      0.124697    1.576860    0.096910
  C      0.080091    0.067339   -0.033378
  C      0.771444   -0.680164   -1.180118
  C      1.182910   -1.729911   -0.224334
  C      2.265636   -0.802866   -0.766606
  C      2.310303   -0.221753    0.602372
  O      3.104505    0.320793    1.302316
  N      0.949822   -0.747449    0.934914
  H      1.130532    1.976776   -0.057428
  H     -0.542023    2.034286   -0.641180
  H     -0.211678    1.879453    1.093415
  H     -0.945052   -0.297703    0.080404
  H      0.491207   -0.781600   -2.222637
  H      1.145240   -2.805734   -0.155985
  H      3.050244   -1.000213   -1.484154

 Total Charge           Charge          ....    0
 Multiplicity           Mult            ....    1
 Number of Electrons    NEL             ....   58
 Basis Dimension        Dim             ....  290

ORBITAL ENERGIES
----------------

  NO   OCC          E(Eh)            E(eV)
   0   2.0000     -20.550251      -559.2008
   1   2.0000     -15.580996      -423.9804
   2   2.0000     -11.360968      -309.1477
   3   2.0000     -11.294754      -307.3459
   4   2.0000     -11.288865      -307.1856
   5   2.0000     -11.274494      -306.7946
   6   2.0000     -11.268368      -306.6279
   7   2.0000     -11.228186      -305.5345
   8   2.0000      -1.410233       -38.3744
   9   2.0000      -1.324220       -36.0339
  10   2.0000      -1.070862       -29.1396
  11   2.0000      -1.030812       -28.0498
  12   2.0000      -0.942166       -25.6376
  13   2.0000      -0.856101       -23.2957
  14   2.0000      -0.773341       -21.0437
  15   2.0000      -0.725484       -19.7414
  16   2.0000      -0.715044       -19.4573
  17   2.0000      -0.651409       -17.7257
  18   2.0000      -0.643702       -17.5160
  19   2.0000      -0.635472       -17.2921
  20   2.0000      -0.599445       -16.3117
  21   2.0000      -0.547821       -14.9070
  22   2.0000      -0.544239       -14.8095
  23   2.0000      -0.526355       -14.3229
  24   2.0000      -0.495080       -13.4718
  25   2.0000      -0.462464       -12.5843
  26   2.0000      -0.436266       -11.8714
  27   2.0000      -0.416625       -11.3370
  28   2.0000      -0.391613       -10.6563
  29   0.0000       0.134032         3.6472
  30   0.0000       0.153676         4.1817
  31   0.0000       0.160332         4.3629
  32   0.0000       0.162572         4.4238
  33   0.0000       0.186277         5.0689

MULLIKEN ATOMIC CHARGES
-----------------------
   0 C :   -0.412691
   1 C :    0.033881
   2 C :   -0.169418
   3 C :   -0.050001
   4 C :   -0.201510
   5 C :    0.194626
   6 O :   -0.238857
   7 N :   -0.172522
   8 H :    0.148542
   9 H :    0.133773
  10 H :    0.149705
  11 H :    0.115189
  12 H :    0.141596
  13 H :    0.171200
  14 H :    0.156486
Sum of atomic charges:    0.0000000

LOEWDIN ATOMIC CHARGES
----------------------
   0 C :   -0.287171
   1 C :   -0.243303
   2 C :   -0.142840
   3 C :   -0.139271
   4 C :   -0.124848
   5 C :   -0.372624
   6 O :    0.173346
   7 N :    0.156375
   8 H :    0.132320
   9 H :    0.130435
  10 H :    0.135748
  11 H :    0.152216
  12 H :    0.143251
  13 H :    0.139722
  14 H :    0.146644

  Mayer bond orders larger than 0.1
B(  0-C ,  1-C ) :   0.9310 B(  0-C ,  8-H ) :   0.9283 B(  0-C ,  9-H ) :   0.9285
B(  0-C , 10-H ) :   0.9295 B(  1-C ,  2-C ) :   0.9529 B(  1-C ,  7-N ) :   0.9344
B(  1-C , 11-H ) :   0.9091 B(  2-C ,  3-C ) :   0.8971 B(  2-C ,  4-C ) :   0.8070
B(  2-C , 12-H ) :   0.9134 B(  3-C ,  4-C ) :   0.8109 B(  3-C ,  7-N ) :   0.9350
B(  3-C , 13-H ) :   0.8943 B(  4-C ,  5-C ) :   0.9580 B(  4-C , 14-H ) :   0.9002
B(  5-C ,  6-O ) :   2.0685 B(  5-C ,  7-N ) :   0.8848

MP2 TOTAL ENERGY:     -361.992263463 Eh
FINAL SINGLE POINT ENERGY      -361.992263463112

DIPOLE MOMENT
-------------
                                X             Y             Z
Electronic contribution:      4.26602      -2.89170       2.44000
Nuclear contribution   :     -5.02023       2.50294      -3.90455
                        -----------------------------------------
Total Dipole Moment    :     -0.75421      -0.38875      -1.46455
                        -----------------------------------------
Magnitude (a.u.)       :      1.69259
Magnitude (Debye)      :      4.30223

                             ****ORCA TERMINATED NORMALLY****
TOTAL RUN TIME: 0 days 0 hours 12 minutes 57 seconds 885 msec
