                         Program Version 3.0.3 - RELEASE   -
|  1> ! RI-MP2 RIJK def2-TZVP def2-TZVP/C def2-TZVP/JK TIGHTSCF
|  2> % maxcore 2000
|  3> % mp2 density relaxed end
|  4> *xyz 0 1
|  5>  C       -0.0310144123     1.5669972746     0.0444215824
|  6>  C       -0.0047939139     0.0252863217     0.0260134993
|  7>  C        0.8072838017    -0.5396346586     1.2084810120
|  8>  C       -1.3632264458    -0.5180970400     0.0157192767
|  9>  C       -2.4836306531    -0.9573999898     0.0213731820
| 10>  C       -3.8460225206    -1.4917917716     0.0345481306
| 11>  N       -3.8393170240    -2.9611085577     0.0312035529
| 12>  C       -4.6090128073    -0.9136066171     1.1732814559
| 13>  N       -5.2335501358    -0.5187619434     2.0622700874
| 14>  H        0.9896804892     1.9598948520     0.0069243881
| 15>  H       -0.5857721351     1.9629051018    -0.8100479344
| 16>  H       -0.5075641504     1.9333030462     0.9586528351
| 17>  H        0.4864835971    -0.2928519660    -0.9038630909
| 18>  H        0.3582588086    -0.2427771730     2.1611176191
| 19>  H        0.8449406695    -1.6315128814     1.1752075582
| 20>  H        1.8320234842    -0.1568080798     1.1771706630
| 21>  H       -4.3628620774    -1.1709849937    -0.8804156315
| 22>  H       -3.3576367405    -3.2948941800     0.8612550701
| 23>  H       -4.7954086238    -3.3023186240     0.0857168941
| 24> *
| 25>
| 26>                          ****END OF INPUT****

CARTESIAN COORDINATES (ANGSTROEM)
---------------------------------
  C     -0.031014    1.566997    0.044422
  C     -0.004794    0.025286    0.026013
  C      0.807284   -0.539635    1.208481
  C     -1.363226   -0.518097    0.015719
  C     -2.483631   -0.957400    0.021373
  C     -3.846023   -1.491792    0.034548
  N     -3.839317   -2.961109    0.031204
  C     -4.609013   -0.913607    1.173281
  N     -5.233550   -0.518762    2.062270
  H      0.989680    1.959895    0.006924
  H     -0.585772    1.962905   -0.810048
  H     -0.507564    1.933303    0.958653
  H      0.486484   -0.292852   -0.903863
  H      0.358259   -0.242777    2.161118
  H      0.844941   -1.631513    1.175208
  H      1.832023   -0.156808    1.177171
  H     -4.362862   -1.170985   -0.880416
  H     -3.357637   -3.294894    0.861255
  H     -4.795409   -3.302319    0.085717

 Total Charge           Charge          ....    0
 Multiplicity           Mult            ....    1
 Number of Electrons    NEL             ....   66
 Basis Dimension        Dim             ....  339

ORBITAL ENERGIES
----------------

  NO   OCC          E(Eh)            E(eV)
   0   2.0000     -15.579099      -423.9288
   1   2.0000     -15.576987      -423.8714
   2   2.0000     -11.344398      -308.6968
   3   2.0000     -11.277845      -306.8858
   4   2.0000     -11.266033      -306.5643
   5   2.0000     -11.244657      -305.9827
   6   2.0000     -11.237314      -305.7829
   7   2.0000     -11.229862      -305.5801
   8   2.0000     -11.229470      -305.5694
   9   2.0000      -1.244053       -33.8524
  10   2.0000      -1.207761       -32.8649
  11   2.0000      -1.110677       -30.2231
  12   2.0000      -1.045182       -28.4408
  13   2.0000      -0.969211       -26.3736
  14   2.0000      -0.944400       -25.6984
  15   2.0000      -0.846273       -23.0283
  16   2.0000      -0.750461       -20.4211
  17   2.0000      -0.725784       -19.7496
  18   2.0000      -0.674244       -18.3471
  19   2.0000      -0.646079       -17.5807
  20   2.0000      -0.623694       -16.9716
  21   2.0000      -0.606920       -16.5151
  22   2.0000      -0.580015       -15.7830
  23   2.0000      -0.566765       -15.4225
  24   2.0000      -0.550629       -14.9834
  25   2.0000      -0.530018       -14.4225
  26   2.0000      -0.507452       -13.8085
  27   2.0000      -0.503525       -13.7016
  28   2.0000      -0.486880       -13.2487
  29   2.0000      -0.470878       -12.8132
  30   2.0000      -0.437813       -11.9135
  31   2.0000      -0.392734       -10.6868
  32   2.0000      -0.389981       -10.6119
  33   0.0000       0.110019         2.9938
  34   0.0000       0.129484         3.5234
  35   0.0000       0.148114         4.0304
  36   0.0000       0.160248         4.3606
  37   0.0000       0.170424         4.6375

MULLIKEN ATOMIC CHARGES
-----------------------
   0 C :   -0.380291
   1 C :   -0.145352
   2 C :   -0.382950
   3 C :    0.092340
   4 C :   -0.025732
   5 C :    0.013045
   6 N :   -0.501673
   7 C :   -0.172293
   8 N :   -0.067982
   9 H :    0.134158
  10 H :    0.138778
  11 H :    0.134838
  12 H :    0.118881
  13 H :    0.133717
  14 H :    0.138702
  15 H :    0.134281
  16 H :    0.155509
  17 H :    0.243623
  18 H :    0.238402
Sum of atomic charges:   -0.0000000

LOEWDIN ATOMIC CHARGES
----------------------
   0 C :   -0.273456
   1 C :   -0.290761
   2 C :   -0.274351
   3 C :   -0.027025
   4 C :   -0.045036
   5 C :   -0.310900
   6 N :   -0.115500
   7 C :   -0.165402
   8 N :    0.063173
   9 H :    0.124607
  10 H :    0.127021
  11 H :    0.128372
  12 H :    0.168458
  13 H :    0.127878
  14 H :    0.126716
  15 H :    0.124671
  16 H :    0.184883
  17 H :    0.165066
  18 H :    0.161586

  Mayer bond orders larger than 0.1
B(  0-C ,  1-C ) :   0.9381 B(  0-C ,  9-H ) :   0.9384 B(  0-C , 10-H ) :   0.9362
B(  0-C , 11-H ) :   0.9278 B(  1-C ,  2-C ) :   0.9315 B(  1-C ,  3-C ) :   1.0285
B(  1-C , 12-H ) :   0.9321 B(  2-C , 13-H ) :   0.9284 B(  2-C , 14-H ) :   0.9363
B(  2-C , 15-H ) :   0.9381 B(  3-C ,  4-C ) :   2.5616 B(  3-C ,  5-C ) :  -0.1037
B(  4-C ,  5-C ) :   1.0983 B(  5-C ,  6-N ) :   0.9815 B(  5-C ,  7-C ) :   0.9479
B(  5-C , 16-H ) :   0.8972 B(  6-N , 17-H ) :   0.8838 B(  6-N , 18-H ) :   0.8916
B(  7-C ,  8-N ) :   2.8487

MP2 TOTAL ENERGY:     -381.367498028 Eh
FINAL SINGLE POINT ENERGY      -381.367498027901

DIPOLE MOMENT
-------------
                                X             Y             Z
Electronic contribution:    -11.68423      -3.00005       0.64780
Nuclear contribution   :     12.53774       2.69409      -1.27562
                        -----------------------------------------
Total Dipole Moment    :      0.85351      -0.30596      -0.62783
                        -----------------------------------------
Magnitude (a.u.)       :      1.10284
Magnitude (Debye)      :      2.80319

                             ****ORCA TERMINATED NORMALLY****
TOTAL RUN TIME: 0 days 0 hours 17 minutes 13 seconds 823 msec
