                         Program Version 3.0.3 - RELEASE   -
|  1> ! RI-MP2 RIJK def2-TZVP def2-TZVP/C def2-TZVP/JK TIGHTSCF
|  2> % maxcore 2000
|  3> % mp2 density relaxed end
|  4> *xyz 0 1
|  5>  C        0.2588257703     1.0578284754     0.3227070015
|  6>  O       -0.4138105428     0.0318800474    -0.3821974751
|  7>  C        0.3755477098    -0.5827646063    -1.3393551532
|  8>  C        1.4455353837    -1.6319279335    -0.9830670622
|  9>  C        1.3838659404    -2.2326636916     0.3766328883
| 10>  C        0.2298932013    -2.8718667004     0.5852664576
| 11>  C       -0.6630506959    -2.8396308197    -0.6333672617
| 12>  C        0.1346509456    -2.0217469525    -1.6577683721
| 13>  O        0.1401409615    -2.4405564110    -2.9891400780
| 14>  H        1.1268384099     0.6636773729     0.8682564020
| 15>  H        0.6018520520     1.8544002250    -0.3543804702
| 16>  H       -0.4540964444     1.4795229763     1.0348787388
| 17>  H        0.6433027573     0.0481898354    -2.1902009049
| 18>  H        2.3754350770    -1.5885796211    -1.5393653483
| 19>  H        2.1848379040    -2.1266334666     1.0991964230
| 20>  H       -0.0648792058    -3.3541730080     1.5100362705
| 21>  H       -0.8535827556    -3.8429241612    -1.0356889040
| 22>  H       -1.6352941818    -2.3821110473    -0.4143091456
| 23>  H       -0.6654088066    -2.1161190131    -3.4070760364
| 24> *
| 25>
| 26>                          ****END OF INPUT****

CARTESIAN COORDINATES (ANGSTROEM)
---------------------------------
  C      0.258826    1.057828    0.322707
  O     -0.413811    0.031880   -0.382197
  C      0.375548   -0.582765   -1.339355
  C      1.445535   -1.631928   -0.983067
  C      1.383866   -2.232664    0.376633
  C      0.229893   -2.871867    0.585266
  C     -0.663051   -2.839631   -0.633367
  C      0.134651   -2.021747   -1.657768
  O      0.140141   -2.440556   -2.989140
  H      1.126838    0.663677    0.868256
  H      0.601852    1.854400   -0.354380
  H     -0.454096    1.479523    1.034879
  H      0.643303    0.048190   -2.190201
  H      2.375435   -1.588580   -1.539365
  H      2.184838   -2.126633    1.099196
  H     -0.064879   -3.354173    1.510036
  H     -0.853583   -3.842924   -1.035689
  H     -1.635294   -2.382111   -0.414309
  H     -0.665409   -2.116119   -3.407076

 Total Charge           Charge          ....    0
 Multiplicity           Mult            ....    1
 Number of Electrons    NEL             ....   68
 Basis Dimension        Dim             ....  339

ORBITAL ENERGIES
----------------

  NO   OCC          E(Eh)            E(eV)
   0   2.0000     -20.564233      -559.5812
   1   2.0000     -20.562634      -559.5377
   2   2.0000     -11.284721      -307.0729
   3   2.0000     -11.282397      -307.0096
   4   2.0000     -11.272069      -306.7286
   5   2.0000     -11.229362      -305.5665
   6   2.0000     -11.225349      -305.4573
   7   2.0000     -11.224817      -305.4428
   8   2.0000     -11.222912      -305.3910
   9   2.0000      -1.390466       -37.8365
  10   2.0000      -1.370996       -37.3067
  11   2.0000      -1.164207       -31.6797
  12   2.0000      -1.035586       -28.1797
  13   2.0000      -0.958022       -26.0691
  14   2.0000      -0.931613       -25.3505
  15   2.0000      -0.818647       -22.2765
  16   2.0000      -0.773363       -21.0443
  17   2.0000      -0.736934       -20.0530
  18   2.0000      -0.721510       -19.6333
  19   2.0000      -0.673788       -18.3347
  20   2.0000      -0.655875       -17.8473
  21   2.0000      -0.626478       -17.0473
  22   2.0000      -0.608260       -16.5516
  23   2.0000      -0.588262       -16.0074
  24   2.0000      -0.575227       -15.6527
  25   2.0000      -0.551169       -14.9981
  26   2.0000      -0.538476       -14.6527
  27   2.0000      -0.526002       -14.3132
  28   2.0000      -0.496789       -13.5183
  29   2.0000      -0.485995       -13.2246
  30   2.0000      -0.446929       -12.1616
  31   2.0000      -0.412189       -11.2162
  32   2.0000      -0.396846       -10.7987
  33   2.0000      -0.328551        -8.9403
  34   0.0000       0.134833         3.6690
  35   0.0000       0.148726         4.0471
  36   0.0000       0.159848         4.3497
  37   0.0000       0.172188         4.6855
  38   0.0000       0.182374         4.9627

MULLIKEN ATOMIC CHARGES
-----------------------
   0 C :   -0.208176
   1 O :   -0.304867
   2 C :   -0.027788
   3 C :   -0.065888
   4 C :   -0.201057
   5 C :   -0.208268
   6 C :   -0.127279
   7 C :    0.149176
   8 O :   -0.452193
   9 H :    0.117290
  10 H :    0.114475
  11 H :    0.138913
  12 H :    0.108874
  13 H :    0.138067
  14 H :    0.127645
  15 H :    0.125423
  16 H :    0.127355
  17 H :    0.122910
  18 H :    0.325389
Sum of atomic charges:    0.0000000

LOEWDIN ATOMIC CHARGES
----------------------
   0 C :   -0.341473
   1 O :    0.181369
   2 C :   -0.272757
   3 C :   -0.152089
   4 C :   -0.149774
   5 C :   -0.148571
   6 C :   -0.200315
   7 C :   -0.308606
   8 O :    0.024577
   9 H :    0.106168
  10 H :    0.103384
  11 H :    0.113416
  12 H :    0.141075
  13 H :    0.149582
  14 H :    0.138521
  15 H :    0.135461
  16 H :    0.147529
  17 H :    0.148865
  18 H :    0.183638

  Mayer bond orders larger than 0.1
B(  0-C ,  1-O ) :   0.8964 B(  0-C ,  9-H ) :   0.9340 B(  0-C , 10-H ) :   0.9368
B(  0-C , 11-H ) :   0.9400 B(  1-O ,  2-C ) :   0.9915 B(  2-C ,  3-C ) :   0.8610
B(  2-C ,  7-C ) :   0.9063 B(  2-C , 12-H ) :   0.9362 B(  3-C ,  4-C ) :   0.9408
B(  3-C ,  7-C ) :   0.8475 B(  3-C , 13-H ) :   0.9018 B(  4-C ,  5-C ) :   1.7868
B(  4-C , 14-H ) :   0.9282 B(  5-C ,  6-C ) :   0.9445 B(  5-C , 15-H ) :   0.9241
B(  6-C ,  7-C ) :   0.9569 B(  6-C , 16-H ) :   0.9055 B(  6-C , 17-H ) :   0.8859
B(  7-C ,  8-O ) :   1.0330 B(  8-O , 18-H ) :   0.8388

MP2 TOTAL ENERGY:     -422.292665339 Eh
FINAL SINGLE POINT ENERGY      -422.292665339200

DIPOLE MOMENT
-------------
                                X             Y             Z
Electronic contribution:     -0.41394      -2.49274      -2.97605
Nuclear contribution   :      0.29884       2.99814       3.13503
                        -----------------------------------------
Total Dipole Moment    :     -0.11510       0.50540       0.15898
                        -----------------------------------------
Magnitude (a.u.)       :      0.54217
Magnitude (Debye)      :      1.37809

                             ****ORCA TERMINATED NORMALLY****
TOTAL RUN TIME: 0 days 0 hours 19 minutes 51 seconds 628 msec
