                         Program Version 3.0.3 - RELEASE   -
|  1> ! RI-MP2 RIJK def2-TZVP def2-TZVP/C def2-TZVP/JK TIGHTSCF
|  2> % maxcore 2000
|  3> % mp2 density relaxed end
|  4> *xyz 0 1
|  5>  C        0.0026906563     1.4788975316    -0.0259820806
|  6>  C        0.2198346026    -0.0226787185     0.0328784543
|  7>  O        0.4348191418    -0.4938277738    -1.2940954547
|  8>  C        0.6309796132    -1.8702481482    -1.3721389936
|  9>  C        0.8468313097    -2.4007852008    -2.7844370590
| 10>  O        2.0768134486    -1.8459264584    -3.2732067601
| 11>  C        2.1486988612    -2.9986439020    -2.4235571212
| 12>  C        2.0784303050    -2.4316466510    -0.9949811170
| 13>  O        3.0428056406    -1.4779813060    -0.6619148192
| 14>  H        0.8813279436     1.9774190726    -0.4449644299
| 15>  H       -0.8597005519     1.7194563402    -0.6541952728
| 16>  H       -0.1752479587     1.8763920410     0.9776732668
| 17>  H        1.0864906832    -0.2688828278     0.6603057652
| 18>  H       -0.6618665137    -0.5253355610     0.4643233897
| 19>  H       -0.1565218805    -2.4302226804    -0.8439119427
| 20>  H        0.1161954195    -2.7039515557    -3.5245990186
| 21>  H        2.6500404432    -3.8765349746    -2.8137620612
| 22>  H        2.0590740420    -3.1855668353    -0.2054347196
| 23>  H        3.0361398845    -0.8410249222    -1.3892571460
| 24> *
| 25>
| 26>                          ****END OF INPUT****

CARTESIAN COORDINATES (ANGSTROEM)
---------------------------------
  C      0.002691    1.478898   -0.025982
  C      0.219835   -0.022679    0.032878
  O      0.434819   -0.493828   -1.294095
  C      0.630980   -1.870248   -1.372139
  C      0.846831   -2.400785   -2.784437
  O      2.076813   -1.845926   -3.273207
  C      2.148699   -2.998644   -2.423557
  C      2.078430   -2.431647   -0.994981
  O      3.042806   -1.477981   -0.661915
  H      0.881328    1.977419   -0.444964
  H     -0.859701    1.719456   -0.654195
  H     -0.175248    1.876392    0.977673
  H      1.086491   -0.268883    0.660306
  H     -0.661867   -0.525336    0.464323
  H     -0.156522   -2.430223   -0.843912
  H      0.116195   -2.703952   -3.524599
  H      2.650040   -3.876535   -2.813762
  H      2.059074   -3.185567   -0.205435
  H      3.036140   -0.841025   -1.389257

 Total Charge           Charge          ....    0
 Multiplicity           Mult            ....    1
 Number of Electrons    NEL             ....   70
 Basis Dimension        Dim             ....  339

ORBITAL ENERGIES
----------------

  NO   OCC          E(Eh)            E(eV)
   0   2.0000     -20.580711      -560.0296
   1   2.0000     -20.561901      -559.5178
   2   2.0000     -20.558493      -559.4250
   3   2.0000     -11.295683      -307.3712
   4   2.0000     -11.295057      -307.3541
   5   2.0000     -11.294652      -307.3431
   6   2.0000     -11.293546      -307.3130
   7   2.0000     -11.276356      -306.8452
   8   2.0000     -11.215510      -305.1895
   9   2.0000      -1.437120       -39.1060
  10   2.0000      -1.383991       -37.6603
  11   2.0000      -1.363292       -37.0971
  12   2.0000      -1.077673       -29.3250
  13   2.0000      -1.013165       -27.5696
  14   2.0000      -0.910048       -24.7637
  15   2.0000      -0.865823       -23.5602
  16   2.0000      -0.836324       -22.7575
  17   2.0000      -0.784072       -21.3357
  18   2.0000      -0.750716       -20.4280
  19   2.0000      -0.682906       -18.5828
  20   2.0000      -0.666773       -18.1438
  21   2.0000      -0.661036       -17.9877
  22   2.0000      -0.619160       -16.8482
  23   2.0000      -0.613671       -16.6988
  24   2.0000      -0.587713       -15.9925
  25   2.0000      -0.560007       -15.2386
  26   2.0000      -0.545216       -14.8361
  27   2.0000      -0.533886       -14.5278
  28   2.0000      -0.517744       -14.0885
  29   2.0000      -0.502039       -13.6612
  30   2.0000      -0.491524       -13.3750
  31   2.0000      -0.466018       -12.6810
  32   2.0000      -0.459335       -12.4991
  33   2.0000      -0.421924       -11.4811
  34   2.0000      -0.394925       -10.7465
  35   0.0000       0.142245         3.8707
  36   0.0000       0.150141         4.0856
  37   0.0000       0.170076         4.6280
  38   0.0000       0.172288         4.6882
  39   0.0000       0.182563         4.9678

MULLIKEN ATOMIC CHARGES
-----------------------
   0 C :   -0.359150
   1 C :   -0.064725
   2 O :   -0.289788
   3 C :    0.029304
   4 C :    0.001717
   5 O :   -0.329282
   6 C :   -0.014451
   7 C :    0.074527
   8 O :   -0.466156
   9 H :    0.130727
  10 H :    0.128389
  11 H :    0.123389
  12 H :    0.123952
  13 H :    0.088635
  14 H :    0.082484
  15 H :    0.145114
  16 H :    0.141252
  17 H :    0.114649
  18 H :    0.339413
Sum of atomic charges:    0.0000000

LOEWDIN ATOMIC CHARGES
----------------------
   0 C :   -0.315901
   1 C :   -0.340596
   2 O :    0.187887
   3 C :   -0.296419
   4 C :   -0.220513
   5 O :    0.174945
   6 C :   -0.228397
   7 C :   -0.303972
   8 O :    0.002055
   9 H :    0.124695
  10 H :    0.123824
  11 H :    0.125111
  12 H :    0.123823
  13 H :    0.115769
  14 H :    0.137170
  15 H :    0.132719
  16 H :    0.130664
  17 H :    0.139613
  18 H :    0.187525

  Mayer bond orders larger than 0.1
B(  0-C ,  1-C ) :   0.9573 B(  0-C ,  9-H ) :   0.9367 B(  0-C , 10-H ) :   0.9352
B(  0-C , 11-H ) :   0.9327 B(  1-C ,  2-O ) :   0.8867 B(  1-C , 12-H ) :   0.9223
B(  1-C , 13-H ) :   0.9181 B(  2-O ,  3-C ) :   1.0312 B(  3-C ,  4-C ) :   0.8890
B(  3-C ,  7-C ) :   0.9466 B(  3-C , 14-H ) :   0.9104 B(  4-C ,  5-O ) :   0.9180
B(  4-C ,  6-C ) :   0.8618 B(  4-C , 15-H ) :   0.9293 B(  5-O ,  6-C ) :   0.8794
B(  6-C ,  7-C ) :   0.9100 B(  6-C , 16-H ) :   0.9277 B(  7-C ,  8-O ) :   0.9738
B(  7-C , 17-H ) :   0.9282 B(  8-O , 18-H ) :   0.8167

MP2 TOTAL ENERGY:     -459.375072531 Eh
FINAL SINGLE POINT ENERGY      -459.375072531412

DIPOLE MOMENT
-------------
                                X             Y             Z
Electronic contribution:      3.93252      -5.00840      -5.52996
Nuclear contribution   :     -4.61034       4.39551       5.84051
                        -----------------------------------------
Total Dipole Moment    :     -0.67782      -0.61289       0.31055
                        -----------------------------------------
Magnitude (a.u.)       :      0.96515
Magnitude (Debye)      :      2.45322

                             ****ORCA TERMINATED NORMALLY****
TOTAL RUN TIME: 0 days 0 hours 16 minutes 49 seconds 540 msec
