                         Program Version 3.0.3 - RELEASE   -
|  1> ! RI-MP2 RIJK def2-TZVP def2-TZVP/C def2-TZVP/JK TIGHTSCF
|  2> % maxcore 2000
|  3> % mp2 density relaxed end
|  4> *xyz 0 1
|  5>  O       -0.0319013933     1.3071308676     0.0981059877
|  6>  C        0.0499270259    -0.0645102085    -0.0062015165
|  7>  C        0.8139373402    -0.9667305883    -0.9605597510
|  8>  N       -0.0889675518    -2.0905263134    -0.4579000776
|  9>  C       -1.0794321125    -1.0287504960     0.0364730805
| 10>  C       -0.2070841477    -0.9211744421     1.2922731269
| 11>  O       -0.4371902215    -0.3186198678     2.4932427821
| 12>  C        0.3757188372    -2.2329938442     0.9590457613
| 13>  N        0.9500882126    -3.1680423109     1.5644399850
| 14>  H        0.8487857954     1.6513230117     0.2933763482
| 15>  H        0.6099280886    -0.7610314519    -2.0150863920
| 16>  H        1.8822909392    -1.1480694341    -0.8003014453
| 17>  H       -2.1443829751    -1.0225095215    -0.1400733002
| 18>  H       -0.3692325157     0.6369902119     2.3583341706
| 19>  H        1.1435887787    -3.9393317826     0.9214737502
| 20> *
| 21>
| 22>                          ****END OF INPUT****

CARTESIAN COORDINATES (ANGSTROEM)
---------------------------------
  O     -0.031901    1.307131    0.098106
  C      0.049927   -0.064510   -0.006202
  C      0.813937   -0.966731   -0.960560
  N     -0.088968   -2.090526   -0.457900
  C     -1.079432   -1.028750    0.036473
  C     -0.207084   -0.921174    1.292273
  O     -0.437190   -0.318620    2.493243
  C      0.375719   -2.232994    0.959046
  N      0.950088   -3.168042    1.564440
  H      0.848786    1.651323    0.293376
  H      0.609928   -0.761031   -2.015086
  H      1.882291   -1.148069   -0.800301
  H     -2.144383   -1.022510   -0.140073
  H     -0.369233    0.636990    2.358334
  H      1.143589   -3.939332    0.921474

 Total Charge           Charge          ....    0
 Multiplicity           Mult            ....    1
 Number of Electrons    NEL             ....   66
 Basis Dimension        Dim             ....  315

ORBITAL ENERGIES
----------------

  NO   OCC          E(Eh)            E(eV)
   0   2.0000     -20.613179      -560.9131
   1   2.0000     -20.590896      -560.3068
   2   2.0000     -15.592104      -424.2827
   3   2.0000     -15.545075      -423.0030
   4   2.0000     -11.329688      -308.2965
   5   2.0000     -11.321288      -308.0679
   6   2.0000     -11.319123      -308.0090
   7   2.0000     -11.288068      -307.1639
   8   2.0000     -11.286083      -307.1099
   9   2.0000      -1.434329       -39.0301
  10   2.0000      -1.401270       -38.1305
  11   2.0000      -1.333146       -36.2767
  12   2.0000      -1.201364       -32.6908
  13   2.0000      -1.041209       -28.3327
  14   2.0000      -0.985406       -26.8143
  15   2.0000      -0.894504       -24.3407
  16   2.0000      -0.803683       -21.8693
  17   2.0000      -0.766611       -20.8605
  18   2.0000      -0.743579       -20.2338
  19   2.0000      -0.710845       -19.3431
  20   2.0000      -0.675743       -18.3879
  21   2.0000      -0.669623       -18.2214
  22   2.0000      -0.627211       -17.0673
  23   2.0000      -0.619264       -16.8510
  24   2.0000      -0.590358       -16.0645
  25   2.0000      -0.560938       -15.2639
  26   2.0000      -0.544162       -14.8074
  27   2.0000      -0.531375       -14.4595
  28   2.0000      -0.458006       -12.4630
  29   2.0000      -0.452312       -12.3080
  30   2.0000      -0.430304       -11.7092
  31   2.0000      -0.409873       -11.1532
  32   2.0000      -0.363359        -9.8875
  33   0.0000       0.105972         2.8837
  34   0.0000       0.154850         4.2137
  35   0.0000       0.158673         4.3177
  36   0.0000       0.168822         4.5939
  37   0.0000       0.180674         4.9164

MULLIKEN ATOMIC CHARGES
-----------------------
   0 O :   -0.462669
   1 C :    0.065773
   2 C :   -0.098431
   3 N :   -0.188135
   4 C :   -0.100696
   5 C :    0.171938
   6 O :   -0.434575
   7 C :    0.039067
   8 N :   -0.330421
   9 H :    0.341968
  10 H :    0.131293
  11 H :    0.125517
  12 H :    0.180113
  13 H :    0.327659
  14 H :    0.231598
Sum of atomic charges:   -0.0000000

LOEWDIN ATOMIC CHARGES
----------------------
   0 O :    0.042593
   1 C :   -0.326220
   2 C :   -0.195638
   3 N :    0.154713
   4 C :   -0.108893
   5 C :   -0.274364
   6 O :    0.065446
   7 C :   -0.299760
   8 N :   -0.022527
   9 H :    0.193722
  10 H :    0.136381
  11 H :    0.127810
  12 H :    0.141037
  13 H :    0.190193
  14 H :    0.175505

  Mayer bond orders larger than 0.1
B(  0-O ,  1-C ) :   1.0275 B(  0-O ,  9-H ) :   0.8242 B(  1-C ,  2-C ) :   0.9555
B(  1-C ,  4-C ) :   0.8902 B(  1-C ,  5-C ) :   0.7841 B(  2-C ,  3-N ) :   0.9053
B(  2-C , 10-H ) :   0.9056 B(  2-C , 11-H ) :   0.9162 B(  3-N ,  4-C ) :   0.9303
B(  3-N ,  7-C ) :   0.9082 B(  4-C ,  5-C ) :   0.8178 B(  4-C , 12-H ) :   0.8724
B(  5-C ,  6-O ) :   1.0887 B(  5-C ,  7-C ) :   0.9528 B(  6-O , 13-H ) :   0.8175
B(  7-C ,  8-N ) :   2.0844 B(  8-N , 14-H ) :   0.8450

MP2 TOTAL ENERGY:     -453.121809800 Eh
FINAL SINGLE POINT ENERGY      -453.121809799694

DIPOLE MOMENT
-------------
                                X             Y             Z
Electronic contribution:     -1.14624      -0.12682       1.78723
Nuclear contribution   :      1.57810       1.30983      -2.67799
                        -----------------------------------------
Total Dipole Moment    :      0.43187       1.18301      -0.89075
                        -----------------------------------------
Magnitude (a.u.)       :      1.54255
Magnitude (Debye)      :      3.92085

                             ****ORCA TERMINATED NORMALLY****
TOTAL RUN TIME: 0 days 0 hours 15 minutes 27 seconds 180 msec
