                         Program Version 3.0.3 - RELEASE   -
|  1> ! RI-MP2 RIJK def2-TZVP def2-TZVP/C def2-TZVP/JK TIGHTSCF
|  2> % maxcore 2000
|  3> % mp2 density relaxed end
|  4> *xyz 0 1
|  5>  C        0.0873740673     1.5910318279    -0.0639534355
|  6>  C        0.0543179663     0.0613960255    -0.0071209888
|  7>  O        0.7580423492    -0.4417799927     1.1196094845
|  8>  C       -1.3624177543    -0.5145082669     0.0570827723
|  9>  C       -1.4753875981    -2.0647218188     0.1683950879
| 10>  C       -2.1972981384    -1.7999539248     1.5055280781
| 11>  O       -2.7141842598    -2.4582493525     2.3710437565
| 12>  N       -2.0557917406    -0.4429898762     1.3513114906
| 13>  C       -2.4594603139     0.6369840868     2.2131602695
| 14>  H        1.1194991884     1.9488931549    -0.1510257715
| 15>  H       -0.4637659654     1.9627280205    -0.9340542474
| 16>  H       -0.3465796305     2.0306582545     0.8378817188
| 17>  H        0.4971430428    -0.3271834429    -0.9408726490
| 18>  H        1.6692680026    -0.1383374566     1.0663232345
| 19>  H       -1.9521881295    -0.0859121666    -0.7642357849
| 20>  H       -2.0847729752    -2.5539824764    -0.5932502566
| 21>  H       -0.5194942989    -2.5771156482     0.2808157412
| 22>  H       -3.0963566982     0.2092365408     2.9918732538
| 23>  H       -1.6014174666     1.1219405395     2.6932614991
| 24>  H       -3.0323017973     1.3936718521     1.6639303169
| 25> *
| 26>
| 27>                          ****END OF INPUT****

CARTESIAN COORDINATES (ANGSTROEM)
---------------------------------
  C      0.087374    1.591032   -0.063953
  C      0.054318    0.061396   -0.007121
  O      0.758042   -0.441780    1.119609
  C     -1.362418   -0.514508    0.057083
  C     -1.475388   -2.064722    0.168395
  C     -2.197298   -1.799954    1.505528
  O     -2.714184   -2.458249    2.371044
  N     -2.055792   -0.442990    1.351311
  C     -2.459460    0.636984    2.213160
  H      1.119499    1.948893   -0.151026
  H     -0.463766    1.962728   -0.934054
  H     -0.346580    2.030658    0.837882
  H      0.497143   -0.327183   -0.940873
  H      1.669268   -0.138337    1.066323
  H     -1.952188   -0.085912   -0.764236
  H     -2.084773   -2.553982   -0.593250
  H     -0.519494   -2.577116    0.280816
  H     -3.096357    0.209237    2.991873
  H     -1.601417    1.121941    2.693261
  H     -3.032302    1.393672    1.663930

 Total Charge           Charge          ....    0
 Multiplicity           Mult            ....    1
 Number of Electrons    NEL             ....   70
 Basis Dimension        Dim             ....  345

ORBITAL ENERGIES
----------------

  NO   OCC          E(Eh)            E(eV)
   0   2.0000     -20.568054      -559.6852
   1   2.0000     -20.511087      -558.1350
   2   2.0000     -15.576038      -423.8455
   3   2.0000     -11.336519      -308.4824
   4   2.0000     -11.297594      -307.4232
   5   2.0000     -11.281016      -306.9720
   6   2.0000     -11.258997      -306.3729
   7   2.0000     -11.237849      -305.7974
   8   2.0000     -11.234171      -305.6973
   9   2.0000      -1.380407       -37.5628
  10   2.0000      -1.372083       -37.3363
  11   2.0000      -1.267861       -34.5003
  12   2.0000      -1.062731       -28.9184
  13   2.0000      -1.030561       -28.0430
  14   2.0000      -0.922702       -25.1080
  15   2.0000      -0.902303       -24.5529
  16   2.0000      -0.814399       -22.1609
  17   2.0000      -0.727719       -19.8023
  18   2.0000      -0.710218       -19.3260
  19   2.0000      -0.667784       -18.1713
  20   2.0000      -0.657540       -17.8926
  21   2.0000      -0.650143       -17.6913
  22   2.0000      -0.623987       -16.9795
  23   2.0000      -0.595829       -16.2133
  24   2.0000      -0.583962       -15.8904
  25   2.0000      -0.567415       -15.4402
  26   2.0000      -0.556714       -15.1490
  27   2.0000      -0.536876       -14.6091
  28   2.0000      -0.531106       -14.4521
  29   2.0000      -0.510342       -13.8871
  30   2.0000      -0.505444       -13.7538
  31   2.0000      -0.484224       -13.1764
  32   2.0000      -0.453399       -12.3376
  33   2.0000      -0.404618       -11.0102
  34   2.0000      -0.369614       -10.0577
  35   0.0000       0.114685         3.1207
  36   0.0000       0.148833         4.0500
  37   0.0000       0.155768         4.2387
  38   0.0000       0.166115         4.5202
  39   0.0000       0.181368         4.9353

MULLIKEN ATOMIC CHARGES
-----------------------
   0 C :   -0.424783
   1 C :    0.038592
   2 O :   -0.468200
   3 C :    0.037580
   4 C :   -0.218763
   5 C :    0.173520
   6 O :   -0.338062
   7 N :   -0.092557
   8 C :   -0.352874
   9 H :    0.130730
  10 H :    0.131048
  11 H :    0.144258
  12 H :    0.091484
  13 H :    0.312891
  14 H :    0.113248
  15 H :    0.129601
  16 H :    0.136011
  17 H :    0.174074
  18 H :    0.144144
  19 H :    0.138057
Sum of atomic charges:    0.0000000

LOEWDIN ATOMIC CHARGES
----------------------
   0 C :   -0.302073
   1 C :   -0.365581
   2 O :   -0.008302
   3 C :   -0.212184
   4 C :   -0.176458
   5 C :   -0.424660
   6 O :    0.090260
   7 N :    0.209120
   8 C :   -0.302210
   9 H :    0.122288
  10 H :    0.128007
  11 H :    0.125342
  12 H :    0.140580
  13 H :    0.176165
  14 H :    0.144575
  15 H :    0.137162
  16 H :    0.146311
  17 H :    0.136633
  18 H :    0.117063
  19 H :    0.117964

  Mayer bond orders larger than 0.1
B(  0-C ,  1-C ) :   0.9228 B(  0-C ,  9-H ) :   0.9360 B(  0-C , 10-H ) :   0.9306
B(  0-C , 11-H ) :   0.9351 B(  1-C ,  2-O ) :   0.9682 B(  1-C ,  3-C ) :   0.8745
B(  1-C , 12-H ) :   0.9264 B(  2-O , 13-H ) :   0.8454 B(  3-C ,  4-C ) :   0.9179
B(  3-C ,  7-N ) :   0.9263 B(  3-C , 14-H ) :   0.9127 B(  4-C ,  5-C ) :   0.9198
B(  4-C , 15-H ) :   0.9122 B(  4-C , 16-H ) :   0.8923 B(  5-C ,  6-O ) :   2.0012
B(  5-C ,  7-N ) :   1.1316 B(  7-N ,  8-C ) :   0.8694 B(  8-C , 17-H ) :   0.9231
B(  8-C , 18-H ) :   0.9295 B(  8-C , 19-H ) :   0.9307

MP2 TOTAL ENERGY:     -439.588446782 Eh
FINAL SINGLE POINT ENERGY      -439.588446781849

DIPOLE MOMENT
-------------
                                X             Y             Z
Electronic contribution:     -2.51387      -7.23171       3.12565
Nuclear contribution   :      3.44640       8.74319      -4.39211
                        -----------------------------------------
Total Dipole Moment    :      0.93253       1.51148      -1.26645
                        -----------------------------------------
Magnitude (a.u.)       :      2.18131
Magnitude (Debye)      :      5.54445

                             ****ORCA TERMINATED NORMALLY****
TOTAL RUN TIME: 0 days 0 hours 21 minutes 34 seconds 883 msec
