                         Program Version 3.0.3 - RELEASE   -
|  1> ! RI-MP2 RIJK def2-TZVP def2-TZVP/C def2-TZVP/JK TIGHTSCF
|  2> % maxcore 2000
|  3> % mp2 density relaxed end
|  4> *xyz 0 1
|  5>  C       -0.0265077932     1.5106703296     0.0184995493
|  6>  C       -0.0058112347     0.0135553314    -0.0092820031
|  7>  C       -0.0436872607    -0.7092514301    -1.1481631060
|  8>  O       -0.0275712290    -2.0526700362    -1.2317040283
|  9>  N        0.0325930430    -2.8260827252    -0.0836281263
| 10>  C        0.0708981279    -2.1927790202     1.0354990538
| 11>  C        0.0582175254    -0.7295862030     1.2404970913
| 12>  O        0.0983771021    -0.2315380357     2.3555337563
| 13>  H        0.8669939236     1.8941813056     0.5216335027
| 14>  H       -0.0760252986     1.9343998984    -0.9876320131
| 15>  H       -0.8842672751     1.8685282768     0.5970673247
| 16>  H       -0.0923419376    -0.2791311903    -2.1436331617
| 17>  H        0.1177776369    -2.8312159210     1.9140293502
| 18> *
| 19>
| 20>                          ****END OF INPUT****

CARTESIAN COORDINATES (ANGSTROEM)
---------------------------------
  C     -0.026508    1.510670    0.018500
  C     -0.005811    0.013555   -0.009282
  C     -0.043687   -0.709251   -1.148163
  O     -0.027571   -2.052670   -1.231704
  N      0.032593   -2.826083   -0.083628
  C      0.070898   -2.192779    1.035499
  C      0.058218   -0.729586    1.240497
  O      0.098377   -0.231538    2.355534
  H      0.866994    1.894181    0.521634
  H     -0.076025    1.934400   -0.987632
  H     -0.884267    1.868528    0.597067
  H     -0.092342   -0.279131   -2.143633
  H      0.117778   -2.831216    1.914029

 Total Charge           Charge          ....    0
 Multiplicity           Mult            ....    1
 Number of Electrons    NEL             ....   58
 Basis Dimension        Dim             ....  278

ORBITAL ENERGIES
----------------

  NO   OCC          E(Eh)            E(eV)
   0   2.0000     -20.668811      -562.4269
   1   2.0000     -20.553231      -559.2819
   2   2.0000     -15.678250      -426.6269
   3   2.0000     -11.351426      -308.8880
   4   2.0000     -11.345299      -308.7213
   5   2.0000     -11.307364      -307.6890
   6   2.0000     -11.264072      -306.5110
   7   2.0000     -11.242471      -305.9232
   8   2.0000      -1.509888       -41.0861
   9   2.0000      -1.394189       -37.9378
  10   2.0000      -1.216242       -33.0956
  11   2.0000      -1.127190       -30.6724
  12   2.0000      -0.988539       -26.8995
  13   2.0000      -0.907517       -24.6948
  14   2.0000      -0.889891       -24.2152
  15   2.0000      -0.764132       -20.7931
  16   2.0000      -0.730265       -19.8715
  17   2.0000      -0.688244       -18.7281
  18   2.0000      -0.681457       -18.5434
  19   2.0000      -0.638997       -17.3880
  20   2.0000      -0.594404       -16.1746
  21   2.0000      -0.590272       -16.0621
  22   2.0000      -0.579269       -15.7627
  23   2.0000      -0.550602       -14.9826
  24   2.0000      -0.548649       -14.9295
  25   2.0000      -0.521356       -14.1868
  26   2.0000      -0.455402       -12.3921
  27   2.0000      -0.431173       -11.7328
  28   2.0000      -0.371148       -10.0994
  29   0.0000       0.064022         1.7421
  30   0.0000       0.111361         3.0303
  31   0.0000       0.137345         3.7374
  32   0.0000       0.161461         4.3936
  33   0.0000       0.171025         4.6538

MULLIKEN ATOMIC CHARGES
-----------------------
   0 C :   -0.379582
   1 C :   -0.062118
   2 C :    0.044041
   3 O :   -0.109084
   4 N :   -0.057791
   5 C :   -0.096334
   6 C :    0.220210
   7 O :   -0.326676
   8 H :    0.156017
   9 H :    0.134806
  10 H :    0.156038
  11 H :    0.155776
  12 H :    0.164697
Sum of atomic charges:    0.0000000

LOEWDIN ATOMIC CHARGES
----------------------
   0 C :   -0.252496
   1 C :   -0.177221
   2 C :   -0.201256
   3 O :    0.253413
   4 N :    0.068409
   5 C :   -0.189529
   6 C :   -0.347997
   7 O :    0.124207
   8 H :    0.141671
   9 H :    0.130833
  10 H :    0.141676
  11 H :    0.149917
  12 H :    0.158373

  Mayer bond orders larger than 0.1
B(  0-C ,  1-C ) :   0.9062 B(  0-C ,  8-H ) :   0.9211 B(  0-C ,  9-H ) :   0.9428
B(  0-C , 10-H ) :   0.9211 B(  1-C ,  2-C ) :   1.5372 B(  1-C ,  6-C ) :   1.0282
B(  2-C ,  3-O ) :   1.0995 B(  2-C , 11-H ) :   0.9274 B(  3-O ,  4-N ) :   0.8408
B(  4-N ,  5-C ) :   1.6927 B(  5-C ,  6-C ) :   1.0224 B(  5-C , 12-H ) :   0.9042
B(  6-C ,  7-O ) :   1.9133

MP2 TOTAL ENERGY:     -397.928289550 Eh
FINAL SINGLE POINT ENERGY      -397.928289549590

DIPOLE MOMENT
-------------
                                X             Y             Z
Electronic contribution:      0.10879      -6.04649       0.48202
Nuclear contribution   :     -0.15427       6.58171      -1.36801
                        -----------------------------------------
Total Dipole Moment    :     -0.04549       0.53522      -0.88599
                        -----------------------------------------
Magnitude (a.u.)       :      1.03610
Magnitude (Debye)      :      2.63357

                             ****ORCA TERMINATED NORMALLY****
TOTAL RUN TIME: 0 days 0 hours 13 minutes 32 seconds 56 msec
