                         Program Version 3.0.3 - RELEASE   -
|  1> ! RI-MP2 RIJK def2-TZVP def2-TZVP/C def2-TZVP/JK TIGHTSCF
|  2> % maxcore 2000
|  3> % mp2 density relaxed end
|  4> *xyz 0 1
|  5>  O       -0.3222261190     1.4952935798    -0.0449120701
|  6>  C       -0.0566337895     0.1351147997     0.0509679310
|  7>  C       -1.0860907230    -0.9223023162    -0.0248587842
|  8>  C       -0.8493492073    -1.7412138910    -1.3240294204
|  9>  C        0.3514154853    -1.0152010284    -2.0534356970
| 10>  C        1.0189766808    -0.5526924604    -0.7829299075
| 11>  C        1.7968516536    -1.3290734065    -0.0144065901
| 12>  C        1.2254667662    -1.4571835367     1.3894417463
| 13>  C       -0.1280975783    -0.7646211947     1.2369259115
| 14>  H        0.4303335102     1.9704651706     0.3251908292
| 15>  H       -2.1142225781    -0.6925702772     0.2386570023
| 16>  H       -0.5773164101    -2.7836154931    -1.1290236400
| 17>  H       -1.7614323353    -1.7438534177    -1.9309718305
| 18>  H        0.9509645701    -1.6954474327    -2.6620702999
| 19>  H       -0.0166512331    -0.1982214816    -2.6814479956
| 20>  H        2.5053498951    -2.0546848136    -0.4032296087
| 21>  H        1.1486361488    -2.5248199280     1.6364973551
| 22>  H        1.8137224927    -0.9986372298     2.1979564058
| 23>  H       -0.6684133991    -0.4521551725     2.1261716325
| 24> *
| 25>
| 26>                          ****END OF INPUT****

CARTESIAN COORDINATES (ANGSTROEM)
---------------------------------
  O     -0.322226    1.495294   -0.044912
  C     -0.056634    0.135115    0.050968
  C     -1.086091   -0.922302   -0.024859
  C     -0.849349   -1.741214   -1.324029
  C      0.351415   -1.015201   -2.053436
  C      1.018977   -0.552692   -0.782930
  C      1.796852   -1.329073   -0.014407
  C      1.225467   -1.457184    1.389442
  C     -0.128098   -0.764621    1.236926
  H      0.430334    1.970465    0.325191
  H     -2.114223   -0.692570    0.238657
  H     -0.577316   -2.783615   -1.129024
  H     -1.761432   -1.743853   -1.930972
  H      0.950965   -1.695447   -2.662070
  H     -0.016651   -0.198221   -2.681448
  H      2.505350   -2.054685   -0.403230
  H      1.148636   -2.524820    1.636497
  H      1.813722   -0.998637    2.197956
  H     -0.668413   -0.452155    2.126172

 Total Charge           Charge          ....    0
 Multiplicity           Mult            ....    1
 Number of Electrons    NEL             ....   66
 Basis Dimension        Dim             ....  339

ORBITAL ENERGIES
----------------

  NO   OCC          E(Eh)            E(eV)
   0   2.0000     -20.563174      -559.5524
   1   2.0000     -11.273920      -306.7790
   2   2.0000     -11.235647      -305.7375
   3   2.0000     -11.234131      -305.6963
   4   2.0000     -11.232370      -305.6483
   5   2.0000     -11.232150      -305.6423
   6   2.0000     -11.231019      -305.6116
   7   2.0000     -11.229109      -305.5596
   8   2.0000     -11.227057      -305.5038
   9   2.0000      -1.372475       -37.3469
  10   2.0000      -1.196176       -32.5496
  11   2.0000      -1.044634       -28.4259
  12   2.0000      -1.037765       -28.2390
  13   2.0000      -0.931754       -25.3543
  14   2.0000      -0.866078       -23.5672
  15   2.0000      -0.788284       -21.4503
  16   2.0000      -0.768500       -20.9120
  17   2.0000      -0.732025       -19.9194
  18   2.0000      -0.676739       -18.4150
  19   2.0000      -0.643388       -17.5075
  20   2.0000      -0.622971       -16.9519
  21   2.0000      -0.607790       -16.5388
  22   2.0000      -0.584511       -15.9054
  23   2.0000      -0.554287       -15.0829
  24   2.0000      -0.549927       -14.9643
  25   2.0000      -0.520082       -14.1522
  26   2.0000      -0.514755       -14.0072
  27   2.0000      -0.495928       -13.4949
  28   2.0000      -0.470390       -12.8000
  29   2.0000      -0.449921       -12.2430
  30   2.0000      -0.393817       -10.7163
  31   2.0000      -0.383875       -10.4458
  32   2.0000      -0.331993        -9.0340
  33   0.0000       0.120970         3.2918
  34   0.0000       0.137473         3.7408
  35   0.0000       0.156958         4.2710
  36   0.0000       0.167749         4.5647
  37   0.0000       0.176955         4.8152

MULLIKEN ATOMIC CHARGES
-----------------------
   0 O :   -0.454237
   1 C :    0.194244
   2 C :   -0.156214
   3 C :   -0.210993
   4 C :   -0.245294
   5 C :    0.032268
   6 C :   -0.215341
   7 C :   -0.148667
   8 C :   -0.216136
   9 H :    0.324755
  10 H :    0.126139
  11 H :    0.113385
  12 H :    0.121821
  13 H :    0.124526
  14 H :    0.122415
  15 H :    0.123902
  16 H :    0.118181
  17 H :    0.122073
  18 H :    0.123173
Sum of atomic charges:    0.0000000

LOEWDIN ATOMIC CHARGES
----------------------
   0 O :    0.029008
   1 C :   -0.320056
   2 C :   -0.137774
   3 C :   -0.209434
   4 C :   -0.202410
   5 C :   -0.126777
   6 C :   -0.112268
   7 C :   -0.225905
   8 C :   -0.143789
   9 H :    0.184489
  10 H :    0.150043
  11 H :    0.134694
  12 H :    0.135132
  13 H :    0.135624
  14 H :    0.140446
  15 H :    0.136621
  16 H :    0.144648
  17 H :    0.141175
  18 H :    0.146534

  Mayer bond orders larger than 0.1
B(  0-O ,  1-C ) :   1.0160 B(  0-O ,  9-H ) :   0.8367 B(  1-C ,  2-C ) :   0.8915
B(  1-C ,  5-C ) :   0.9118 B(  1-C ,  8-C ) :   0.8824 B(  2-C ,  3-C ) :   0.9136
B(  2-C ,  8-C ) :   0.8707 B(  2-C , 10-H ) :   0.9097 B(  3-C ,  4-C ) :   0.9434
B(  3-C , 11-H ) :   0.9206 B(  3-C , 12-H ) :   0.9188 B(  4-C ,  5-C ) :   0.9170
B(  4-C , 13-H ) :   0.9291 B(  4-C , 14-H ) :   0.9179 B(  5-C ,  6-C ) :   1.7173
B(  6-C ,  7-C ) :   0.9556 B(  6-C , 15-H ) :   0.9254 B(  7-C ,  8-C ) :   0.9268
B(  7-C , 16-H ) :   0.9014 B(  7-C , 17-H ) :   0.9008 B(  8-C , 18-H ) :   0.9278

MP2 TOTAL ENERGY:     -385.175095231 Eh
FINAL SINGLE POINT ENERGY      -385.175095231384

DIPOLE MOMENT
-------------
                                X             Y             Z
Electronic contribution:      0.51903       3.99415       0.73640
Nuclear contribution   :     -0.23515      -4.36969      -0.50325
                        -----------------------------------------
Total Dipole Moment    :      0.28388      -0.37555       0.23316
                        -----------------------------------------
Magnitude (a.u.)       :      0.52534
Magnitude (Debye)      :      1.33531

                             ****ORCA TERMINATED NORMALLY****
TOTAL RUN TIME: 0 days 0 hours 20 minutes 9 seconds 284 msec
