                         Program Version 3.0.3 - RELEASE   -
|  1> ! RI-MP2 RIJK def2-TZVP def2-TZVP/C def2-TZVP/JK TIGHTSCF
|  2> % maxcore 2000
|  3> % mp2 density relaxed end
|  4> *xyz 0 1
|  5>  C        0.0747354756     1.4830889886     0.0087417085
|  6>  C       -0.0251371302    -0.0443281640     0.0016598744
|  7>  C       -1.4675186035    -0.5294960574     0.0133308930
|  8>  O       -1.4719308015    -1.9462194070     0.0058306373
|  9>  C       -2.7620282325    -2.4996774055     0.0157219805
| 10>  C       -2.5900399551    -4.0240175899     0.0056397367
| 11>  C       -3.8709853827    -4.7228768096     0.0147474373
| 12>  N       -4.8941750115    -5.2594496303     0.0220879815
| 13>  H        1.1192038110     1.8067687402     0.0001867616
| 14>  H       -0.4152675623     1.9199581712    -0.8683027515
| 15>  H       -0.3978892630     1.9106215416     0.8998128391
| 16>  H        0.4729758188    -0.4545444216    -0.8841763045
| 17>  H        0.4903250576    -0.4638271134     0.8731057518
| 18>  H       -1.9938963445    -0.1540334380     0.9074294698
| 19>  H       -2.0114195604    -0.1446015609    -0.8661504897
| 20>  H       -3.3248127415    -2.1895262248     0.9106492450
| 21>  H       -3.3426279768    -2.1797835112    -0.8642730799
| 22>  H       -2.0214311422    -4.3181481755    -0.8826524773
| 23>  H       -2.0036296752    -4.3278106424     0.8789848165
| 24> *
| 25>
| 26>                          ****END OF INPUT****

CARTESIAN COORDINATES (ANGSTROEM)
---------------------------------
  C      0.074735    1.483089    0.008742
  C     -0.025137   -0.044328    0.001660
  C     -1.467519   -0.529496    0.013331
  O     -1.471931   -1.946219    0.005831
  C     -2.762028   -2.499677    0.015722
  C     -2.590040   -4.024018    0.005640
  C     -3.870985   -4.722877    0.014747
  N     -4.894175   -5.259450    0.022088
  H      1.119204    1.806769    0.000187
  H     -0.415268    1.919958   -0.868303
  H     -0.397889    1.910622    0.899813
  H      0.472976   -0.454544   -0.884176
  H      0.490325   -0.463827    0.873106
  H     -1.993896   -0.154033    0.907429
  H     -2.011420   -0.144602   -0.866150
  H     -3.324813   -2.189526    0.910649
  H     -3.342628   -2.179784   -0.864273
  H     -2.021431   -4.318148   -0.882652
  H     -2.003630   -4.327811    0.878985

 Total Charge           Charge          ....    0
 Multiplicity           Mult            ....    1
 Number of Electrons    NEL             ....   62
 Basis Dimension        Dim             ....  314

ORBITAL ENERGIES
----------------

  NO   OCC          E(Eh)            E(eV)
   0   2.0000     -20.574270      -559.8543
   1   2.0000     -15.570495      -423.6947
   2   2.0000     -11.305381      -307.6351
   3   2.0000     -11.287104      -307.1377
   4   2.0000     -11.282328      -307.0078
   5   2.0000     -11.274869      -306.8048
   6   2.0000     -11.230267      -305.5911
   7   2.0000     -11.225264      -305.4550
   8   2.0000      -1.398384       -38.0520
   9   2.0000      -1.220290       -33.2058
  10   2.0000      -1.089356       -29.6429
  11   2.0000      -1.051579       -28.6149
  12   2.0000      -0.939398       -25.5623
  13   2.0000      -0.875663       -23.8280
  14   2.0000      -0.821201       -22.3460
  15   2.0000      -0.717221       -19.5166
  16   2.0000      -0.705353       -19.1936
  17   2.0000      -0.651875       -17.7384
  18   2.0000      -0.649834       -17.6829
  19   2.0000      -0.633025       -17.2255
  20   2.0000      -0.596580       -16.2338
  21   2.0000      -0.576371       -15.6838
  22   2.0000      -0.555720       -15.1219
  23   2.0000      -0.543721       -14.7954
  24   2.0000      -0.519814       -14.1449
  25   2.0000      -0.515170       -14.0185
  26   2.0000      -0.489106       -13.3092
  27   2.0000      -0.482859       -13.1392
  28   2.0000      -0.459066       -12.4918
  29   2.0000      -0.457212       -12.4414
  30   2.0000      -0.442049       -12.0288
  31   0.0000       0.121986         3.3194
  32   0.0000       0.134930         3.6716
  33   0.0000       0.154749         4.2109
  34   0.0000       0.170961         4.6521
  35   0.0000       0.174686         4.7534

MULLIKEN ATOMIC CHARGES
-----------------------
   0 C :   -0.408561
   1 C :   -0.164810
   2 C :   -0.070901
   3 O :   -0.285317
   4 C :   -0.074067
   5 C :   -0.080429
   6 C :   -0.204570
   7 N :   -0.065165
   8 H :    0.140694
   9 H :    0.125583
  10 H :    0.125582
  11 H :    0.113993
  12 H :    0.113994
  13 H :    0.095133
  14 H :    0.095135
  15 H :    0.111757
  16 H :    0.111752
  17 H :    0.160097
  18 H :    0.160101
Sum of atomic charges:   -0.0000000

LOEWDIN ATOMIC CHARGES
----------------------
   0 C :   -0.317954
   1 C :   -0.294257
   2 C :   -0.324018
   3 O :    0.162377
   4 C :   -0.315891
   5 C :   -0.241792
   6 C :   -0.193767
   7 N :    0.057602
   8 H :    0.123975
   9 H :    0.121421
  10 H :    0.121422
  11 H :    0.138062
  12 H :    0.138061
  13 H :    0.120204
  14 H :    0.120204
  15 H :    0.125840
  16 H :    0.125840
  17 H :    0.166335
  18 H :    0.166336

  Mayer bond orders larger than 0.1
B(  0-C ,  1-C ) :   0.9160 B(  0-C ,  8-H ) :   0.9393 B(  0-C ,  9-H ) :   0.9365
B(  0-C , 10-H ) :   0.9365 B(  1-C ,  2-C ) :   0.9535 B(  1-C , 11-H ) :   0.9299
B(  1-C , 12-H ) :   0.9299 B(  2-C ,  3-O ) :   0.9192 B(  2-C , 13-H ) :   0.9240
B(  2-C , 14-H ) :   0.9240 B(  3-O ,  4-C ) :   0.9586 B(  4-C ,  5-C ) :   0.9267
B(  4-C , 15-H ) :   0.9231 B(  4-C , 16-H ) :   0.9231 B(  5-C ,  6-C ) :   0.9047
B(  5-C , 17-H ) :   0.9070 B(  5-C , 18-H ) :   0.9070 B(  6-C ,  7-N ) :   2.8620

MP2 TOTAL ENERGY:     -364.452534135 Eh
FINAL SINGLE POINT ENERGY      -364.452534135023

DIPOLE MOMENT
-------------
                                X             Y             Z
Electronic contribution:     -7.60731     -12.41602       0.00926
Nuclear contribution   :      8.68470      13.59281      -0.01375
                        -----------------------------------------
Total Dipole Moment    :      1.07739       1.17678      -0.00449
                        -----------------------------------------
Magnitude (a.u.)       :      1.59550
Magnitude (Debye)      :      4.05543

                             ****ORCA TERMINATED NORMALLY****
TOTAL RUN TIME: 0 days 0 hours 11 minutes 2 seconds 60 msec
