                         Program Version 3.0.3 - RELEASE   -
|  1> ! RI-MP2 RIJK def2-TZVP def2-TZVP/C def2-TZVP/JK TIGHTSCF
|  2> % maxcore 2000
|  3> % mp2 density relaxed end
|  4> *xyz 0 1
|  5>  C        1.1902537079    -0.9248975854    -0.4103849595
|  6>  C       -0.0112980003    -0.2396138251    -0.9634814016
|  7>  N        0.5347937412     0.1427295951     0.3385179960
|  8>  C       -0.1764058311    -0.2200308337     1.5420687973
|  9>  C       -1.3698263680     0.6963868392     1.9901724079
| 10>  C       -2.2044825440    -0.5750040173     2.1779251121
| 11>  O       -2.3114873253    -1.2008380709     0.8964946699
| 12>  C       -1.1271118288    -1.4440700462     1.6703272762
| 13>  H        1.0596529899    -1.9496762524    -0.0662183057
| 14>  H        2.1835666437    -0.6968911049    -0.7871318218
| 15>  H        0.1059191713     0.5080139823    -1.7433868307
| 16>  H       -0.9434742277    -0.7926881901    -0.9880504135
| 17>  H        0.5597688230    -0.2782273373     2.3520496509
| 18>  H       -1.1614872824     1.2522372617     2.9062156069
| 19>  H       -1.7553675000     1.3725604099     1.2245754209
| 20>  H       -2.9856760860    -0.7872765726     2.8978356149
| 21>  H       -0.8953732034    -2.4789992925     1.8972587297
| 22> *
| 23>
| 24>                          ****END OF INPUT****

CARTESIAN COORDINATES (ANGSTROEM)
---------------------------------
  C      1.190254   -0.924898   -0.410385
  C     -0.011298   -0.239614   -0.963481
  N      0.534794    0.142730    0.338518
  C     -0.176406   -0.220031    1.542069
  C     -1.369826    0.696387    1.990172
  C     -2.204483   -0.575004    2.177925
  O     -2.311487   -1.200838    0.896495
  C     -1.127112   -1.444070    1.670327
  H      1.059653   -1.949676   -0.066218
  H      2.183567   -0.696891   -0.787132
  H      0.105919    0.508014   -1.743387
  H     -0.943474   -0.792688   -0.988050
  H      0.559769   -0.278227    2.352050
  H     -1.161487    1.252237    2.906216
  H     -1.755367    1.372560    1.224575
  H     -2.985676   -0.787277    2.897836
  H     -0.895373   -2.478999    1.897259

 Total Charge           Charge          ....    0
 Multiplicity           Mult            ....    1
 Number of Electrons    NEL             ....   60
 Basis Dimension        Dim             ....  302

ORBITAL ENERGIES
----------------

  NO   OCC          E(Eh)            E(eV)
   0   2.0000     -20.570809      -559.7602
   1   2.0000     -15.556969      -423.3267
   2   2.0000     -11.289748      -307.2096
   3   2.0000     -11.286257      -307.1147
   4   2.0000     -11.270906      -306.6969
   5   2.0000     -11.251765      -306.1761
   6   2.0000     -11.246194      -306.0245
   7   2.0000     -11.232042      -305.6394
   8   2.0000      -1.421110       -38.6704
   9   2.0000      -1.269644       -34.5488
  10   2.0000      -1.086385       -29.5620
  11   2.0000      -0.944880       -25.7115
  12   2.0000      -0.895118       -24.3574
  13   2.0000      -0.840041       -22.8587
  14   2.0000      -0.830200       -22.5909
  15   2.0000      -0.747447       -20.3391
  16   2.0000      -0.720597       -19.6085
  17   2.0000      -0.681036       -18.5319
  18   2.0000      -0.648549       -17.6479
  19   2.0000      -0.613979       -16.7072
  20   2.0000      -0.578807       -15.7501
  21   2.0000      -0.554235       -15.0815
  22   2.0000      -0.530752       -14.4425
  23   2.0000      -0.520658       -14.1678
  24   2.0000      -0.497331       -13.5331
  25   2.0000      -0.471340       -12.8258
  26   2.0000      -0.465770       -12.6743
  27   2.0000      -0.431323       -11.7369
  28   2.0000      -0.407444       -11.0871
  29   2.0000      -0.364910        -9.9297
  30   0.0000       0.148759         4.0479
  31   0.0000       0.156951         4.2709
  32   0.0000       0.174328         4.7437
  33   0.0000       0.175352         4.7716
  34   0.0000       0.192651         5.2423

MULLIKEN ATOMIC CHARGES
-----------------------
   0 C :   -0.179985
   1 C :   -0.189289
   2 N :   -0.234636
   3 C :    0.014148
   4 C :   -0.180002
   5 C :   -0.061539
   6 O :   -0.328055
   7 C :   -0.006536
   8 H :    0.120242
   9 H :    0.128694
  10 H :    0.125901
  11 H :    0.155384
  12 H :    0.108603
  13 H :    0.125407
  14 H :    0.121261
  15 H :    0.136721
  16 H :    0.143682
Sum of atomic charges:   -0.0000000

LOEWDIN ATOMIC CHARGES
----------------------
   0 C :   -0.265213
   1 C :   -0.258503
   2 N :    0.108847
   3 C :   -0.260065
   4 C :   -0.192849
   5 C :   -0.246887
   6 O :    0.167896
   7 C :   -0.238363
   8 H :    0.122406
   9 H :    0.123001
  10 H :    0.123315
  11 H :    0.129565
  12 H :    0.154216
  13 H :    0.135684
  14 H :    0.138876
  15 H :    0.129922
  16 H :    0.128152

  Mayer bond orders larger than 0.1
B(  0-C ,  1-C ) :   0.9366 B(  0-C ,  2-N ) :   0.8842 B(  0-C ,  8-H ) :   0.9243
B(  0-C ,  9-H ) :   0.9253 B(  1-C ,  2-N ) :   0.8719 B(  1-C , 10-H ) :   0.9297
B(  1-C , 11-H ) :   0.9179 B(  2-N ,  3-C ) :   0.9528 B(  3-C ,  4-C ) :   0.9665
B(  3-C ,  7-C ) :   0.8628 B(  3-C , 12-H ) :   0.9228 B(  4-C ,  5-C ) :   0.9339
B(  4-C , 13-H ) :   0.9173 B(  4-C , 14-H ) :   0.9015 B(  5-C ,  6-O ) :   0.9389
B(  5-C ,  7-C ) :   0.8892 B(  5-C , 15-H ) :   0.9316 B(  6-O ,  7-C ) :   0.8562
B(  7-C , 16-H ) :   0.9204

MP2 TOTAL ENERGY:     -363.156063823 Eh
FINAL SINGLE POINT ENERGY      -363.156063823086

DIPOLE MOMENT
-------------
                                X             Y             Z
Electronic contribution:     -2.15952      -0.71105       0.83822
Nuclear contribution   :      2.29643       0.45279      -0.30529
                        -----------------------------------------
Total Dipole Moment    :      0.13690      -0.25826       0.53293
                        -----------------------------------------
Magnitude (a.u.)       :      0.60783
Magnitude (Debye)      :      1.54497

                             ****ORCA TERMINATED NORMALLY****
TOTAL RUN TIME: 0 days 0 hours 12 minutes 26 seconds 566 msec
