                         Program Version 3.0.3 - RELEASE   -
|  1> ! RI-MP2 RIJK def2-TZVP def2-TZVP/C def2-TZVP/JK TIGHTSCF
|  2> % maxcore 2000
|  3> % mp2 density relaxed end
|  4> *xyz 0 1
|  5>  C       -0.0486604790     1.5087704637     0.2051050479
|  6>  C        0.0129549936    -0.0065644875    -0.0372375647
|  7>  C       -1.3929454085    -0.6197238400     0.0059812729
|  8>  C        0.7120017277    -0.3674696936    -1.3699526498
|  9>  O        0.0249922830     0.1945952265    -2.4911535196
| 10>  C        2.1885825537    -0.0330421296    -1.3923225613
| 11>  C        3.2000113940    -1.0354288822    -0.8921381134
| 12>  C        3.0951657756    -0.7386932227    -2.3666468289
| 13>  H        0.9446191891     1.9677561316     0.2373636685
| 14>  H       -0.6310151743     2.0052971501    -0.5791520242
| 15>  H       -0.5387007351     1.7262477441     1.1590918332
| 16>  H        0.6161495763    -0.4580915076     0.7624153279
| 17>  H       -1.9948111241    -0.2478044557    -0.8286687401
| 18>  H       -1.3527306161    -1.7116543909    -0.0721863150
| 19>  H       -1.9064474908    -0.3692894053     0.9398849311
| 20>  H        0.6137972936    -1.4523439627    -1.5107682454
| 21>  H        0.2929720171     1.1156964662    -2.5687885667
| 22>  H        2.4220329303     1.0113517490    -1.1964818727
| 23>  H        4.0638457866    -0.6688051078    -0.3488740455
| 24>  H        2.8309194625    -1.9933221500    -0.5397661741
| 25>  H        2.6480323127    -1.4908206754    -3.0079012628
| 26>  H        3.8913814020    -0.1714407701    -2.8357908973
| 27> *
| 28>
| 29>                          ****END OF INPUT****

CARTESIAN COORDINATES (ANGSTROEM)
---------------------------------
  C     -0.048660    1.508770    0.205105
  C      0.012955   -0.006564   -0.037238
  C     -1.392945   -0.619724    0.005981
  C      0.712002   -0.367470   -1.369953
  O      0.024992    0.194595   -2.491154
  C      2.188583   -0.033042   -1.392323
  C      3.200011   -1.035429   -0.892138
  C      3.095166   -0.738693   -2.366647
  H      0.944619    1.967756    0.237364
  H     -0.631015    2.005297   -0.579152
  H     -0.538701    1.726248    1.159092
  H      0.616150   -0.458092    0.762415
  H     -1.994811   -0.247804   -0.828669
  H     -1.352731   -1.711654   -0.072186
  H     -1.906447   -0.369289    0.939885
  H      0.613797   -1.452344   -1.510768
  H      0.292972    1.115696   -2.568789
  H      2.422033    1.011352   -1.196482
  H      4.063846   -0.668805   -0.348874
  H      2.830919   -1.993322   -0.539766
  H      2.648032   -1.490821   -3.007901
  H      3.891381   -0.171441   -2.835791

 Total Charge           Charge          ....    0
 Multiplicity           Mult            ....    1
 Number of Electrons    NEL             ....   64
 Basis Dimension        Dim             ....  332

ORBITAL ENERGIES
----------------

  NO   OCC          E(Eh)            E(eV)
   0   2.0000     -20.547392      -559.1230
   1   2.0000     -11.275808      -306.8303
   2   2.0000     -11.230395      -305.5946
   3   2.0000     -11.228484      -305.5426
   4   2.0000     -11.224989      -305.4475
   5   2.0000     -11.224648      -305.4382
   6   2.0000     -11.213955      -305.1472
   7   2.0000     -11.205313      -304.9121
   8   2.0000      -1.353652       -36.8347
   9   2.0000      -1.144759       -31.1505
  10   2.0000      -1.069467       -29.1017
  11   2.0000      -0.932959       -25.3871
  12   2.0000      -0.926608       -25.2143
  13   2.0000      -0.825109       -22.4524
  14   2.0000      -0.804490       -21.8913
  15   2.0000      -0.768959       -20.9244
  16   2.0000      -0.682093       -18.5607
  17   2.0000      -0.662006       -18.0141
  18   2.0000      -0.634647       -17.2696
  19   2.0000      -0.614150       -16.7119
  20   2.0000      -0.581963       -15.8360
  21   2.0000      -0.571103       -15.5405
  22   2.0000      -0.545101       -14.8330
  23   2.0000      -0.529449       -14.4070
  24   2.0000      -0.523481       -14.2446
  25   2.0000      -0.513094       -13.9620
  26   2.0000      -0.496548       -13.5117
  27   2.0000      -0.469457       -12.7746
  28   2.0000      -0.452752       -12.3200
  29   2.0000      -0.444218       -12.0878
  30   2.0000      -0.416459       -11.3324
  31   2.0000      -0.404818       -11.0157
  32   0.0000       0.135346         3.6830
  33   0.0000       0.144852         3.9416
  34   0.0000       0.162046         4.4095
  35   0.0000       0.168137         4.5752
  36   0.0000       0.188686         5.1344

MULLIKEN ATOMIC CHARGES
-----------------------
   0 C :   -0.483638
   1 C :    0.026266
   2 C :   -0.404636
   3 C :    0.074774
   4 O :   -0.474576
   5 C :   -0.140541
   6 C :   -0.277148
   7 C :   -0.243070
   8 H :    0.133665
   9 H :    0.127738
  10 H :    0.136654
  11 H :    0.087539
  12 H :    0.142654
  13 H :    0.122686
  14 H :    0.127343
  15 H :    0.087702
  16 H :    0.312903
  17 H :    0.121273
  18 H :    0.128727
  19 H :    0.129904
  20 H :    0.134842
  21 H :    0.128938
Sum of atomic charges:    0.0000000

LOEWDIN ATOMIC CHARGES
----------------------
   0 C :   -0.301675
   1 C :   -0.290154
   2 C :   -0.295483
   3 C :   -0.312172
   4 O :   -0.016104
   5 C :   -0.226123
   6 C :   -0.226753
   7 C :   -0.225110
   8 H :    0.119664
   9 H :    0.121967
  10 H :    0.125689
  11 H :    0.154440
  12 H :    0.128087
  13 H :    0.121457
  14 H :    0.120922
  15 H :    0.152125
  16 H :    0.172193
  17 H :    0.146101
  18 H :    0.130580
  19 H :    0.133099
  20 H :    0.136626
  21 H :    0.130623

  Mayer bond orders larger than 0.1
B(  0-C ,  1-C ) :   0.8748 B(  0-C ,  8-H ) :   0.9392 B(  0-C ,  9-H ) :   0.9402
B(  0-C , 10-H ) :   0.9373 B(  1-C ,  2-C ) :   0.9077 B(  1-C ,  3-C ) :   0.8903
B(  1-C , 11-H ) :   0.9232 B(  2-C , 12-H ) :   0.9325 B(  2-C , 13-H ) :   0.9383
B(  2-C , 14-H ) :   0.9414 B(  3-C ,  4-O ) :   0.9378 B(  3-C ,  5-C ) :   0.9521
B(  3-C , 15-H ) :   0.9208 B(  4-O , 16-H ) :   0.8457 B(  5-C ,  6-C ) :   0.8949
B(  5-C ,  7-C ) :   0.8761 B(  5-C , 17-H ) :   0.9093 B(  6-C ,  7-C ) :   0.9098
B(  6-C , 18-H ) :   0.9254 B(  6-C , 19-H ) :   0.9296 B(  7-C , 20-H ) :   0.9298
B(  7-C , 21-H ) :   0.9318

MP2 TOTAL ENERGY:     -349.593439468 Eh
FINAL SINGLE POINT ENERGY      -349.593439467750

DIPOLE MOMENT
-------------
                                X             Y             Z
Electronic contribution:      1.45464      -0.53220      -3.71303
Nuclear contribution   :     -1.00549       0.82549       4.09883
                        -----------------------------------------
Total Dipole Moment    :      0.44915       0.29329       0.38580
                        -----------------------------------------
Magnitude (a.u.)       :      0.66076
Magnitude (Debye)      :      1.67951

                             ****ORCA TERMINATED NORMALLY****
TOTAL RUN TIME: 0 days 0 hours 14 minutes 8 seconds 599 msec
