                         Program Version 3.0.3 - RELEASE   -
|  1> ! RI-MP2 RIJK def2-TZVP def2-TZVP/C def2-TZVP/JK TIGHTSCF
|  2> % maxcore 2000
|  3> % mp2 density relaxed end
|  4> *xyz 0 1
|  5>  C        0.0019209323     1.4333787852     0.0593296709
|  6>  C        1.4814556232     1.9250079590    -0.0991595460
|  7>  C        2.2322591148     0.6269759897     0.0255841151
|  8>  C        1.3320057278    -0.4041549590    -0.0748006212
|  9>  N        0.0050184142    -0.0262994179    -0.2798434786
| 10>  N        2.0155825501    -1.5633870366    -0.0539986040
| 11>  N        3.3641154699    -1.3410494170     0.0748455632
| 12>  C        3.4845642548    -0.0127520437     0.1055475968
| 13>  H       -0.3256144822     1.5795723498     1.0968258830
| 14>  H       -0.6917346383     1.9664161567    -0.5953219963
| 15>  H        1.6298200376     2.3942104645    -1.0801833313
| 16>  H        1.7240213852     2.6786361863     0.6561820518
| 17>  H       -0.6872784060    -0.5529168956     0.2391714153
| 18>  H        1.6820940337    -2.5100803859    -0.0948422830
| 19>  H        4.4717970429     0.4171567946     0.1973765142
| 20> *
| 21>
| 22>                          ****END OF INPUT****

CARTESIAN COORDINATES (ANGSTROEM)
---------------------------------
  C      0.001921    1.433379    0.059330
  C      1.481456    1.925008   -0.099160
  C      2.232259    0.626976    0.025584
  C      1.332006   -0.404155   -0.074801
  N      0.005018   -0.026299   -0.279843
  N      2.015583   -1.563387   -0.053999
  N      3.364115   -1.341049    0.074846
  C      3.484564   -0.012752    0.105548
  H     -0.325614    1.579572    1.096826
  H     -0.691735    1.966416   -0.595322
  H      1.629820    2.394210   -1.080183
  H      1.724021    2.678636    0.656182
  H     -0.687278   -0.552917    0.239171
  H      1.682094   -2.510080   -0.094842
  H      4.471797    0.417157    0.197377

 Total Charge           Charge          ....    0
 Multiplicity           Mult            ....    1
 Number of Electrons    NEL             ....   58
 Basis Dimension        Dim             ....  290

ORBITAL ENERGIES
----------------

  NO   OCC          E(Eh)            E(eV)
   0   2.0000     -15.624217      -425.1566
   1   2.0000     -15.580586      -423.9693
   2   2.0000     -15.567870      -423.6233
   3   2.0000     -11.295965      -307.3788
   4   2.0000     -11.271929      -306.7248
   5   2.0000     -11.249796      -306.1225
   6   2.0000     -11.240197      -305.8613
   7   2.0000     -11.200313      -304.7760
   8   2.0000      -1.359247       -36.9870
   9   2.0000      -1.246957       -33.9314
  10   2.0000      -1.092179       -29.7197
  11   2.0000      -1.041996       -28.3542
  12   2.0000      -0.991305       -26.9748
  13   2.0000      -0.844459       -22.9789
  14   2.0000      -0.815365       -22.1872
  15   2.0000      -0.769161       -20.9299
  16   2.0000      -0.745072       -20.2744
  17   2.0000      -0.664081       -18.0706
  18   2.0000      -0.604914       -16.4606
  19   2.0000      -0.598570       -16.2879
  20   2.0000      -0.589684       -16.0461
  21   2.0000      -0.571786       -15.5591
  22   2.0000      -0.538483       -14.6529
  23   2.0000      -0.520396       -14.1607
  24   2.0000      -0.514372       -13.9968
  25   2.0000      -0.450549       -12.2601
  26   2.0000      -0.439286       -11.9536
  27   2.0000      -0.358596        -9.7579
  28   2.0000      -0.295299        -8.0355
  29   0.0000       0.124198         3.3796
  30   0.0000       0.145524         3.9599
  31   0.0000       0.157549         4.2871
  32   0.0000       0.171819         4.6754
  33   0.0000       0.187793         5.1101

MULLIKEN ATOMIC CHARGES
-----------------------
   0 C :   -0.124430
   1 C :   -0.193704
   2 C :   -0.045487
   3 C :    0.119039
   4 N :   -0.326498
   5 N :   -0.156315
   6 N :   -0.208707
   7 C :   -0.156076
   8 H :    0.113452
   9 H :    0.127571
  10 H :    0.118643
  11 H :    0.129956
  12 H :    0.226312
  13 H :    0.250905
  14 H :    0.125339
Sum of atomic charges:   -0.0000000

LOEWDIN ATOMIC CHARGES
----------------------
   0 C :   -0.233365
   1 C :   -0.212034
   2 C :   -0.189102
   3 C :   -0.308231
   4 N :    0.042597
   5 N :    0.137194
   6 N :    0.008715
   7 C :   -0.264693
   8 H :    0.123886
   9 H :    0.125375
  10 H :    0.139978
  11 H :    0.138582
  12 H :    0.173830
  13 H :    0.184682
  14 H :    0.132584

  Mayer bond orders larger than 0.1
B(  0-C ,  1-C ) :   0.9718 B(  0-C ,  4-N ) :   0.9018 B(  0-C ,  8-H ) :   0.9330
B(  0-C ,  9-H ) :   0.9318 B(  1-C ,  2-C ) :   0.9217 B(  1-C , 10-H ) :   0.9008
B(  1-C , 11-H ) :   0.9335 B(  2-C ,  3-C ) :   1.3398 B(  2-C ,  7-C ) :   1.2802
B(  3-C ,  4-N ) :   1.0872 B(  3-C ,  5-N ) :   1.2210 B(  3-C ,  6-N ) :   0.1092
B(  4-N , 12-H ) :   0.8717 B(  5-N ,  6-N ) :   1.0104 B(  5-N , 13-H ) :   0.8707
B(  6-N ,  7-C ) :   1.5634 B(  7-C , 14-H ) :   0.9473

MP2 TOTAL ENERGY:     -358.230021182 Eh
FINAL SINGLE POINT ENERGY      -358.230021181582

DIPOLE MOMENT
-------------
                                X             Y             Z
Electronic contribution:      2.60228      -4.83992      -0.27928
Nuclear contribution   :     -3.85683       5.11517       0.57327
                        -----------------------------------------
Total Dipole Moment    :     -1.25455       0.27525       0.29399
                        -----------------------------------------
Magnitude (a.u.)       :      1.31761
Magnitude (Debye)      :      3.34910

                             ****ORCA TERMINATED NORMALLY****
TOTAL RUN TIME: 0 days 0 hours 12 minutes 44 seconds 29 msec
