                         Program Version 3.0.3 - RELEASE   -
|  1> ! RI-MP2 RIJK def2-TZVP def2-TZVP/C def2-TZVP/JK TIGHTSCF
|  2> % maxcore 2000
|  3> % mp2 density relaxed end
|  4> *xyz 0 1
|  5>  C       -0.0512498125    -1.2015812381    -0.0976837439
|  6>  C       -0.0129554733    -0.0008492182    -0.0341285739
|  7>  C        0.0446444572     1.4498300911     0.0468055746
|  8>  C       -0.4522057651     2.0517496031     1.4202312508
|  9>  C        0.8183708756     2.8218758745     1.8237297359
| 10>  C        1.2259436666     3.5023331754     0.4845443464
| 11>  C        1.4865342959     2.0324856589     0.0501841874
| 12>  C        1.9395793610     1.7863497241     1.5165204387
| 13>  H       -0.0898095119    -2.2607468076    -0.1590703938
| 14>  H       -0.5278282715     1.8721387664    -0.7866230813
| 15>  H       -1.3197902992     2.7037833197     1.2872586319
| 16>  H       -0.7168846426     1.2680596300     2.1334783702
| 17>  H        0.7837708832     3.3733012869     2.7636934382
| 18>  H        0.4682925964     4.0775569821    -0.0575331185
| 19>  H        2.1488835961     4.0804142755     0.5679521485
| 20>  H        2.1108534285     1.7752817809    -0.8050044116
| 21>  H        2.9393022217     2.1799665737     1.7128362336
| 22>  H        1.8414881441     0.7757470716     1.9214300067
| 23> *
| 24>
| 25>                          ****END OF INPUT****

CARTESIAN COORDINATES (ANGSTROEM)
---------------------------------
  C     -0.051250   -1.201581   -0.097684
  C     -0.012955   -0.000849   -0.034129
  C      0.044644    1.449830    0.046806
  C     -0.452206    2.051750    1.420231
  C      0.818371    2.821876    1.823730
  C      1.225944    3.502333    0.484544
  C      1.486534    2.032486    0.050184
  C      1.939579    1.786350    1.516520
  H     -0.089810   -2.260747   -0.159070
  H     -0.527828    1.872139   -0.786623
  H     -1.319790    2.703783    1.287259
  H     -0.716885    1.268060    2.133478
  H      0.783771    3.373301    2.763693
  H      0.468293    4.077557   -0.057533
  H      2.148884    4.080414    0.567952
  H      2.110853    1.775282   -0.805004
  H      2.939302    2.179967    1.712836
  H      1.841488    0.775747    1.921430

 Total Charge           Charge          ....    0
 Multiplicity           Mult            ....    1
 Number of Electrons    NEL             ....   58
 Basis Dimension        Dim             ....  308

ORBITAL ENERGIES
----------------

  NO   OCC          E(Eh)            E(eV)
   0   2.0000     -11.252092      -306.1850
   1   2.0000     -11.237851      -305.7975
   2   2.0000     -11.233850      -305.6886
   3   2.0000     -11.227505      -305.5159
   4   2.0000     -11.227472      -305.5151
   5   2.0000     -11.225238      -305.4542
   6   2.0000     -11.221788      -305.3604
   7   2.0000     -11.214632      -305.1656
   8   2.0000      -1.191193       -32.4140
   9   2.0000      -1.047059       -28.4919
  10   2.0000      -0.973891       -26.5009
  11   2.0000      -0.942393       -25.6438
  12   2.0000      -0.899898       -24.4875
  13   2.0000      -0.791326       -21.5331
  14   2.0000      -0.746680       -20.3182
  15   2.0000      -0.708377       -19.2759
  16   2.0000      -0.684712       -18.6320
  17   2.0000      -0.647391       -17.6164
  18   2.0000      -0.636103       -17.3092
  19   2.0000      -0.560743       -15.2586
  20   2.0000      -0.525246       -14.2927
  21   2.0000      -0.518262       -14.1026
  22   2.0000      -0.495470       -13.4824
  23   2.0000      -0.478176       -13.0118
  24   2.0000      -0.450803       -12.2670
  25   2.0000      -0.443068       -12.0565
  26   2.0000      -0.440306       -11.9813
  27   2.0000      -0.378691       -10.3047
  28   2.0000      -0.372259       -10.1297
  29   0.0000       0.138342         3.7645
  30   0.0000       0.160292         4.3618
  31   0.0000       0.163125         4.4389
  32   0.0000       0.169558         4.6139
  33   0.0000       0.181593         4.9414

MULLIKEN ATOMIC CHARGES
-----------------------
   0 C :   -0.155272
   1 C :   -0.049054
   2 C :   -0.209665
   3 C :   -0.252087
   4 C :   -0.047740
   5 C :   -0.256318
   6 C :   -0.032726
   7 C :   -0.286448
   8 H :    0.186675
   9 H :    0.121003
  10 H :    0.121855
  11 H :    0.130732
  12 H :    0.121670
  13 H :    0.110000
  14 H :    0.121890
  15 H :    0.127499
  16 H :    0.120810
  17 H :    0.127175
Sum of atomic charges:    0.0000000

LOEWDIN ATOMIC CHARGES
----------------------
   0 C :   -0.107247
   1 C :   -0.090622
   2 C :   -0.202737
   3 C :   -0.186254
   4 C :   -0.211164
   5 C :   -0.198186
   6 C :   -0.177509
   7 C :   -0.193626
   8 H :    0.125389
   9 H :    0.166128
  10 H :    0.134224
  11 H :    0.140408
  12 H :    0.131878
  13 H :    0.126584
  14 H :    0.137602
  15 H :    0.136100
  16 H :    0.137228
  17 H :    0.131805

  Mayer bond orders larger than 0.1
B(  0-C ,  1-C ) :   2.5751 B(  0-C ,  2-C ) :  -0.1078 B(  0-C ,  8-H ) :   0.8931
B(  1-C ,  2-C ) :   1.1986 B(  2-C ,  3-C ) :   0.9116 B(  2-C ,  6-C ) :   0.8638
B(  2-C ,  9-H ) :   0.9197 B(  3-C ,  4-C ) :   0.9171 B(  3-C , 10-H ) :   0.9270
B(  3-C , 11-H ) :   0.9287 B(  4-C ,  5-C ) :   0.9197 B(  4-C ,  7-C ) :   0.9166
B(  4-C , 12-H ) :   0.9181 B(  5-C ,  6-C ) :   0.9071 B(  5-C , 13-H ) :   0.9193
B(  5-C , 14-H ) :   0.9259 B(  6-C ,  7-C ) :   0.9158 B(  6-C , 15-H ) :   0.9201
B(  7-C , 16-H ) :   0.9266 B(  7-C , 17-H ) :   0.9192

MP2 TOTAL ENERGY:     -310.049283695 Eh
FINAL SINGLE POINT ENERGY      -310.049283695068

DIPOLE MOMENT
-------------
                                X             Y             Z
Electronic contribution:     -1.09658      -3.34910      -1.65874
Nuclear contribution   :      1.18021       3.64499       1.75396
                        -----------------------------------------
Total Dipole Moment    :      0.08363       0.29590       0.09522
                        -----------------------------------------
Magnitude (a.u.)       :      0.32189
Magnitude (Debye)      :      0.81819

                             ****ORCA TERMINATED NORMALLY****
TOTAL RUN TIME: 0 days 0 hours 15 minutes 1 seconds 149 msec
