                         Program Version 3.0.3 - RELEASE   -
|  1> ! RI-MP2 RIJK def2-TZVP def2-TZVP/C def2-TZVP/JK TIGHTSCF
|  2> % maxcore 2000
|  3> % mp2 density relaxed end
|  4> *xyz 0 1
|  5>  O        0.0456137052    -0.0060901698     0.0242722903
|  6>  C        0.0431025008     1.1898218549    -0.0141976167
|  7>  O       -1.1310815988     1.9236695041    -0.0452724482
|  8>  C       -0.8054228917     3.3053273735    -0.1758491192
|  9>  C       -1.2452275376     4.3069790393     0.8691423689
| 10>  C       -0.2343475263     5.1322018412     1.1622199870
| 11>  C        1.0703178261     4.7545261268     0.4594022505
| 12>  C        0.6918418558     3.3830320384    -0.0178973669
| 13>  C        1.1826927312     2.1480066588     0.0377058681
| 14>  H       -1.1575370719     3.6197247274    -1.1707041830
| 15>  H       -2.2643970738     4.3921377900     1.2241082808
| 16>  H       -0.3046957751     6.0025677803     1.8047103850
| 17>  H        1.2937718410     5.4507018526    -0.3616042202
| 18>  H        1.9403529237     4.7535064110     1.1230328099
| 19>  H        2.1922242714     1.8142267017     0.2279916437
| 20> *
| 21>
| 22>                          ****END OF INPUT****

CARTESIAN COORDINATES (ANGSTROEM)
---------------------------------
  O      0.045614   -0.006090    0.024272
  C      0.043103    1.189822   -0.014198
  O     -1.131082    1.923670   -0.045272
  C     -0.805423    3.305327   -0.175849
  C     -1.245228    4.306979    0.869142
  C     -0.234348    5.132202    1.162220
  C      1.070318    4.754526    0.459402
  C      0.691842    3.383032   -0.017897
  C      1.182693    2.148007    0.037706
  H     -1.157537    3.619725   -1.170704
  H     -2.264397    4.392138    1.224108
  H     -0.304696    6.002568    1.804710
  H      1.293772    5.450702   -0.361604
  H      1.940353    4.753506    1.123033
  H      2.192224    1.814227    0.227992

 Total Charge           Charge          ....    0
 Multiplicity           Mult            ....    1
 Number of Electrons    NEL             ....   64
 Basis Dimension        Dim             ....  315

ORBITAL ENERGIES
----------------

  NO   OCC          E(Eh)            E(eV)
   0   2.0000     -20.598323      -560.5089
   1   2.0000     -20.536596      -558.8292
   2   2.0000     -11.378151      -309.6152
   3   2.0000     -11.314553      -307.8847
   4   2.0000     -11.282534      -307.0134
   5   2.0000     -11.272036      -306.7277
   6   2.0000     -11.265493      -306.5497
   7   2.0000     -11.257766      -306.3394
   8   2.0000     -11.253964      -306.2359
   9   2.0000      -1.453236       -39.5446
  10   2.0000      -1.365386       -37.1540
  11   2.0000      -1.179632       -32.0994
  12   2.0000      -1.078093       -29.3364
  13   2.0000      -0.992186       -26.9988
  14   2.0000      -0.947165       -25.7737
  15   2.0000      -0.798782       -21.7360
  16   2.0000      -0.782817       -21.3015
  17   2.0000      -0.775622       -21.1058
  18   2.0000      -0.701079       -19.0773
  19   2.0000      -0.698414       -19.0048
  20   2.0000      -0.645211       -17.5571
  21   2.0000      -0.635819       -17.3015
  22   2.0000      -0.616079       -16.7644
  23   2.0000      -0.587999       -16.0003
  24   2.0000      -0.570824       -15.5329
  25   2.0000      -0.566857       -15.4250
  26   2.0000      -0.535093       -14.5606
  27   2.0000      -0.504757       -13.7351
  28   2.0000      -0.460989       -12.5441
  29   2.0000      -0.446233       -12.1426
  30   2.0000      -0.391987       -10.6665
  31   2.0000      -0.386341       -10.5129
  32   0.0000       0.092893         2.5277
  33   0.0000       0.123328         3.3559
  34   0.0000       0.128057         3.4846
  35   0.0000       0.162241         4.4148
  36   0.0000       0.168492         4.5849

MULLIKEN ATOMIC CHARGES
-----------------------
   0 O :   -0.285274
   1 C :    0.301510
   2 O :   -0.247250
   3 C :    0.186635
   4 C :   -0.208521
   5 C :   -0.152619
   6 C :   -0.144804
   7 C :   -0.050035
   8 C :   -0.252524
   9 H :    0.119588
  10 H :    0.150564
  11 H :    0.142943
  12 H :    0.141339
  13 H :    0.141241
  14 H :    0.157208
Sum of atomic charges:    0.0000000

LOEWDIN ATOMIC CHARGES
----------------------
   0 O :    0.142533
   1 C :   -0.438336
   2 O :    0.264029
   3 C :   -0.229733
   4 C :   -0.121601
   5 C :   -0.125487
   6 C :   -0.191043
   7 C :   -0.106384
   8 C :   -0.093887
   9 H :    0.159401
  10 H :    0.144198
  11 H :    0.140190
  12 H :    0.154858
  13 H :    0.149605
  14 H :    0.151655

  Mayer bond orders larger than 0.1
B(  0-O ,  1-C ) :   2.0121 B(  1-C ,  2-O ) :   1.0679 B(  1-C ,  8-C ) :   0.9860
B(  2-O ,  3-C ) :   0.9007 B(  3-C ,  4-C ) :   0.9143 B(  3-C ,  7-C ) :   0.9555
B(  3-C ,  9-H ) :   0.9006 B(  4-C ,  5-C ) :   1.7443 B(  4-C , 10-H ) :   0.9233
B(  5-C ,  6-C ) :   0.9380 B(  5-C , 11-H ) :   0.9196 B(  6-C ,  7-C ) :   0.9459
B(  6-C , 12-H ) :   0.8917 B(  6-C , 13-H ) :   0.9168 B(  7-C ,  8-C ) :   1.6797
B(  8-C , 14-H ) :   0.9207

MP2 TOTAL ENERGY:     -419.954709928 Eh
FINAL SINGLE POINT ENERGY      -419.954709927885

DIPOLE MOMENT
-------------
                                X             Y             Z
Electronic contribution:     -1.36567      -6.27752      -1.14732
Nuclear contribution   :      1.91266       8.33509       1.26229
                        -----------------------------------------
Total Dipole Moment    :      0.54699       2.05757       0.11498
                        -----------------------------------------
Magnitude (a.u.)       :      2.13214
Magnitude (Debye)      :      5.41946

                             ****ORCA TERMINATED NORMALLY****
TOTAL RUN TIME: 0 days 0 hours 15 minutes 59 seconds 118 msec
