                         Program Version 3.0.3 - RELEASE   -
|  1> ! RI-MP2 RIJK def2-TZVP def2-TZVP/C def2-TZVP/JK TIGHTSCF
|  2> % maxcore 2000
|  3> % mp2 density relaxed end
|  4> *xyz 0 1
|  5>  O       -0.1125088654    -0.0124218047    -0.0276862558
|  6>  C       -0.0989189657     1.1871069059     0.0011068882
|  7>  C       -1.2987067305     2.1593409404     0.0801247167
|  8>  C       -0.8109733147     3.3763304158     0.9727960243
|  9>  C        0.2354849216     3.4903308110    -0.1602692706
| 10>  C        1.4920735741     4.2171963258    -0.6809571735
| 11>  C        2.0381056464     2.7954970153    -1.0866261860
| 12>  C        1.0572712519     2.2023971928    -0.0216761437
| 13>  C       -0.8972867227     3.0530615372    -1.1327696027
| 14>  H       -2.2845952693     1.7123404297     0.1910832609
| 15>  H       -1.5736104005     4.1598807328     1.0003019064
| 16>  H       -0.4430869767     3.1662977998     1.9808725680
| 17>  H        1.3542109325     4.9597371454    -1.4708887181
| 18>  H        2.0951353779     4.6547655619     0.1201107407
| 19>  H        1.7799038600     2.5293794074    -2.1130491913
| 20>  H        3.1005532634     2.6055297055    -0.9282883613
| 21>  H        1.5731916087     2.1509868709     0.9456620033
| 22>  H       -0.6381252346     2.5593446736    -2.0736580714
| 23>  H       -1.6169816864     3.8553732136    -1.3142215341
| 24> *
| 25>
| 26>                          ****END OF INPUT****

CARTESIAN COORDINATES (ANGSTROEM)
---------------------------------
  O     -0.112509   -0.012422   -0.027686
  C     -0.098919    1.187107    0.001107
  C     -1.298707    2.159341    0.080125
  C     -0.810973    3.376330    0.972796
  C      0.235485    3.490331   -0.160269
  C      1.492074    4.217196   -0.680957
  C      2.038106    2.795497   -1.086626
  C      1.057271    2.202397   -0.021676
  C     -0.897287    3.053062   -1.132770
  H     -2.284595    1.712340    0.191083
  H     -1.573610    4.159881    1.000302
  H     -0.443087    3.166298    1.980873
  H      1.354211    4.959737   -1.470889
  H      2.095135    4.654766    0.120111
  H      1.779904    2.529379   -2.113049
  H      3.100553    2.605530   -0.928288
  H      1.573192    2.150987    0.945662
  H     -0.638125    2.559345   -2.073658
  H     -1.616982    3.855373   -1.314222

 Total Charge           Charge          ....    0
 Multiplicity           Mult            ....    1
 Number of Electrons    NEL             ....   66
 Basis Dimension        Dim             ....  339

ORBITAL ENERGIES
----------------

  NO   OCC          E(Eh)            E(eV)
   0   2.0000     -20.543021      -559.0040
   1   2.0000     -11.329072      -308.2797
   2   2.0000     -11.250874      -306.1518
   3   2.0000     -11.249604      -306.1173
   4   2.0000     -11.247302      -306.0547
   5   2.0000     -11.244388      -305.9754
   6   2.0000     -11.241280      -305.8908
   7   2.0000     -11.240375      -305.8661
   8   2.0000     -11.235882      -305.7439
   9   2.0000      -1.386975       -37.7415
  10   2.0000      -1.215486       -33.0751
  11   2.0000      -1.086901       -29.5761
  12   2.0000      -0.953948       -25.9583
  13   2.0000      -0.919409       -25.0184
  14   2.0000      -0.881291       -23.9812
  15   2.0000      -0.852960       -23.2102
  16   2.0000      -0.741919       -20.1887
  17   2.0000      -0.724065       -19.7028
  18   2.0000      -0.678557       -18.4645
  19   2.0000      -0.655369       -17.8335
  20   2.0000      -0.640184       -17.4203
  21   2.0000      -0.598646       -16.2900
  22   2.0000      -0.568813       -15.4782
  23   2.0000      -0.558545       -15.1988
  24   2.0000      -0.548069       -14.9137
  25   2.0000      -0.529069       -14.3967
  26   2.0000      -0.521161       -14.1815
  27   2.0000      -0.489770       -13.3273
  28   2.0000      -0.465554       -12.6684
  29   2.0000      -0.455608       -12.3977
  30   2.0000      -0.442746       -12.0477
  31   2.0000      -0.425037       -11.5659
  32   2.0000      -0.373987       -10.1767
  33   0.0000       0.128916         3.5080
  34   0.0000       0.145284         3.9534
  35   0.0000       0.154970         4.2170
  36   0.0000       0.159556         4.3417
  37   0.0000       0.169747         4.6190

MULLIKEN ATOMIC CHARGES
-----------------------
   0 O :   -0.251991
   1 C :    0.078960
   2 C :   -0.011593
   3 C :   -0.235488
   4 C :    0.036371
   5 C :   -0.210094
   6 C :   -0.233176
   7 C :   -0.134242
   8 C :   -0.291983
   9 H :    0.137438
  10 H :    0.121168
  11 H :    0.122771
  12 H :    0.122734
  13 H :    0.122004
  14 H :    0.128469
  15 H :    0.129448
  16 H :    0.113067
  17 H :    0.126621
  18 H :    0.129516
Sum of atomic charges:    0.0000000

LOEWDIN ATOMIC CHARGES
----------------------
   0 O :    0.156816
   1 C :   -0.280508
   2 C :   -0.156461
   3 C :   -0.168212
   4 C :   -0.214240
   5 C :   -0.198520
   6 C :   -0.199788
   7 C :   -0.150653
   8 C :   -0.164064
   9 H :    0.137958
  10 H :    0.137521
  11 H :    0.129969
  12 H :    0.127118
  13 H :    0.138839
  14 H :    0.135410
  15 H :    0.126616
  16 H :    0.165162
  17 H :    0.134389
  18 H :    0.142649

  Mayer bond orders larger than 0.1
B(  0-O ,  1-C ) :   2.0664 B(  1-C ,  2-C ) :   0.8346 B(  1-C ,  7-C ) :   0.8984
B(  2-C ,  3-C ) :   0.9026 B(  2-C ,  7-C ) :  -0.1297 B(  2-C ,  8-C ) :   0.8848
B(  2-C ,  9-H ) :   0.9095 B(  3-C ,  4-C ) :   0.8781 B(  3-C , 10-H ) :   0.9085
B(  3-C , 11-H ) :   0.9165 B(  4-C ,  5-C ) :   0.8753 B(  4-C ,  7-C ) :   0.8358
B(  4-C ,  8-C ) :   0.9245 B(  5-C ,  6-C ) :   0.9469 B(  5-C , 12-H ) :   0.9250
B(  5-C , 13-H ) :   0.9198 B(  6-C ,  7-C ) :   0.8948 B(  6-C , 14-H ) :   0.9232
B(  6-C , 15-H ) :   0.9272 B(  7-C , 16-H ) :   0.9056 B(  8-C , 17-H ) :   0.9105
B(  8-C , 18-H ) :   0.9175

MP2 TOTAL ENERGY:     -385.184678268 Eh
FINAL SINGLE POINT ENERGY      -385.184678268405

DIPOLE MOMENT
-------------
                                X             Y             Z
Electronic contribution:     -1.36885      -5.84777       1.21367
Nuclear contribution   :      1.43075       7.09116      -1.24430
                        -----------------------------------------
Total Dipole Moment    :      0.06190       1.24339      -0.03064
                        -----------------------------------------
Magnitude (a.u.)       :      1.24531
Magnitude (Debye)      :      3.16533

                             ****ORCA TERMINATED NORMALLY****
TOTAL RUN TIME: 0 days 0 hours 20 minutes 17 seconds 200 msec
