                         Program Version 3.0.3 - RELEASE   -
|  1> ! RI-MP2 RIJK def2-TZVP def2-TZVP/C def2-TZVP/JK TIGHTSCF
|  2> % maxcore 2000
|  3> % mp2 density relaxed end
|  4> *xyz 0 1
|  5>  C        0.0738318365     1.5751331011     0.1552169769
|  6>  O        1.4961367641     1.5206536236    -0.0814476796
|  7>  C        1.3795255589     0.1656480778    -0.5708704249
|  8>  C        2.4643879112    -0.7832222429    -0.0940829141
|  9>  O        2.3096941439    -1.2074881103     1.2450361997
| 10>  C        1.0306799961    -1.7738022317     1.4699567220
| 11>  C       -0.0500936010    -0.6940620477     1.4068900479
| 12>  C       -0.0377509720     0.0395055938     0.0516158388
| 13>  H       -0.1676045612     2.0314158954     1.1218001455
| 14>  H       -0.4490976055     2.1197412777    -0.6439282418
| 15>  H        1.3611162867     0.1605322099    -1.6720696416
| 16>  H        2.4766830706    -1.6588552941    -0.7677413442
| 17>  H        3.4381985122    -0.2875872295    -0.1604797591
| 18>  H        0.8319878303    -2.5736032378     0.7346049334
| 19>  H        1.0654436812    -2.2329383862     2.4620596013
| 20>  H       -1.0357370655    -1.1304722573     1.6016202404
| 21>  H        0.1540660435     0.0168670884     2.2147431737
| 22>  H       -0.8085703998    -0.3444047703    -0.6198160143
| 23> *
| 24>
| 25>                          ****END OF INPUT****

CARTESIAN COORDINATES (ANGSTROEM)
---------------------------------
  C      0.073832    1.575133    0.155217
  O      1.496137    1.520654   -0.081448
  C      1.379526    0.165648   -0.570870
  C      2.464388   -0.783222   -0.094083
  O      2.309694   -1.207488    1.245036
  C      1.030680   -1.773802    1.469957
  C     -0.050094   -0.694062    1.406890
  C     -0.037751    0.039506    0.051616
  H     -0.167605    2.031416    1.121800
  H     -0.449098    2.119741   -0.643928
  H      1.361116    0.160532   -1.672070
  H      2.476683   -1.658855   -0.767741
  H      3.438199   -0.287587   -0.160480
  H      0.831988   -2.573603    0.734605
  H      1.065444   -2.232938    2.462060
  H     -1.035737   -1.130472    1.601620
  H      0.154066    0.016867    2.214743
  H     -0.808570   -0.344405   -0.619816

 Total Charge           Charge          ....    0
 Multiplicity           Mult            ....    1
 Number of Electrons    NEL             ....   62
 Basis Dimension        Dim             ....  308

ORBITAL ENERGIES
----------------

  NO   OCC          E(Eh)            E(eV)
   0   2.0000     -20.553495      -559.2890
   1   2.0000     -20.547164      -559.1168
   2   2.0000     -11.283201      -307.0315
   3   2.0000     -11.278526      -306.9043
   4   2.0000     -11.276096      -306.8382
   5   2.0000     -11.274380      -306.7915
   6   2.0000     -11.239378      -305.8390
   7   2.0000     -11.228080      -305.5316
   8   2.0000      -1.387567       -37.7576
   9   2.0000      -1.368535       -37.2397
  10   2.0000      -1.068729       -29.0816
  11   2.0000      -1.017814       -27.6961
  12   2.0000      -0.954280       -25.9673
  13   2.0000      -0.866742       -23.5852
  14   2.0000      -0.838976       -22.8297
  15   2.0000      -0.735687       -20.0191
  16   2.0000      -0.700030       -19.0488
  17   2.0000      -0.669065       -18.2062
  18   2.0000      -0.656386       -17.8612
  19   2.0000      -0.640111       -17.4183
  20   2.0000      -0.613956       -16.7066
  21   2.0000      -0.591641       -16.0994
  22   2.0000      -0.554890       -15.0993
  23   2.0000      -0.550917       -14.9912
  24   2.0000      -0.517332       -14.0773
  25   2.0000      -0.509613       -13.8673
  26   2.0000      -0.479091       -13.0367
  27   2.0000      -0.465338       -12.6625
  28   2.0000      -0.447004       -12.1636
  29   2.0000      -0.420459       -11.4413
  30   2.0000      -0.398087       -10.8325
  31   0.0000       0.135830         3.6961
  32   0.0000       0.158115         4.3025
  33   0.0000       0.163146         4.4394
  34   0.0000       0.176705         4.8084
  35   0.0000       0.192866         5.2482

MULLIKEN ATOMIC CHARGES
-----------------------
   0 C :   -0.047375
   1 O :   -0.329739
   2 C :    0.036622
   3 C :   -0.063964
   4 O :   -0.308773
   5 C :   -0.068559
   6 C :   -0.245846
   7 C :   -0.047565
   8 H :    0.105971
   9 H :    0.091861
  10 H :    0.079583
  11 H :    0.097824
  12 H :    0.130829
  13 H :    0.093051
  14 H :    0.130390
  15 H :    0.117105
  16 H :    0.108131
  17 H :    0.120454
Sum of atomic charges:   -0.0000000

LOEWDIN ATOMIC CHARGES
----------------------
   0 C :   -0.256369
   1 O :    0.136273
   2 C :   -0.272913
   3 C :   -0.307382
   4 O :    0.158793
   5 C :   -0.316539
   6 C :   -0.249006
   7 C :   -0.208659
   8 H :    0.117908
   9 H :    0.117077
  10 H :    0.138375
  11 H :    0.125200
  12 H :    0.140538
  13 H :    0.119819
  14 H :    0.130260
  15 H :    0.139264
  16 H :    0.145820
  17 H :    0.141542

  Mayer bond orders larger than 0.1
B(  0-C ,  1-O ) :   0.9407 B(  0-C ,  7-C ) :   0.9689 B(  0-C ,  8-H ) :   0.9083
B(  0-C ,  9-H ) :   0.9207 B(  1-O ,  2-C ) :   0.9473 B(  2-C ,  3-C ) :   0.9207
B(  2-C ,  7-C ) :   0.9405 B(  2-C , 10-H ) :   0.9124 B(  3-C ,  4-O ) :   0.9480
B(  3-C , 11-H ) :   0.9377 B(  3-C , 12-H ) :   0.9180 B(  4-O ,  5-C ) :   0.9170
B(  5-C ,  6-C ) :   0.9401 B(  5-C , 13-H ) :   0.9350 B(  5-C , 14-H ) :   0.9284
B(  6-C ,  7-C ) :   0.9056 B(  6-C , 15-H ) :   0.9246 B(  6-C , 16-H ) :   0.9111
B(  7-C , 17-H ) :   0.9222

MP2 TOTAL ENERGY:     -384.287875030 Eh
FINAL SINGLE POINT ENERGY      -384.287875029820

DIPOLE MOMENT
-------------
                                X             Y             Z
Electronic contribution:      2.97081       1.78936      -0.09646
Nuclear contribution   :     -3.90640      -2.28607      -0.26125
                        -----------------------------------------
Total Dipole Moment    :     -0.93559      -0.49671      -0.35770
                        -----------------------------------------
Magnitude (a.u.)       :      1.11803
Magnitude (Debye)      :      2.84182

                             ****ORCA TERMINATED NORMALLY****
TOTAL RUN TIME: 0 days 0 hours 12 minutes 45 seconds 828 msec
