                         Program Version 3.0.3 - RELEASE   -
|  1> ! RI-MP2 RIJK def2-TZVP def2-TZVP/C def2-TZVP/JK TIGHTSCF
|  2> % maxcore 2000
|  3> % mp2 density relaxed end
|  4> *xyz 0 1
|  5>  C       -0.1099882744     1.5807309863     0.1230206259
|  6>  C       -0.0514972425     0.0510496203    -0.0073019557
|  7>  C       -1.5028108700    -0.4160530162    -0.1882205378
|  8>  C        1.0908926765    -0.5875434150    -0.8859661316
|  9>  C        2.1205070609    -0.1328036195     0.1971503759
| 10>  C        0.9246878957    -0.7318379684     0.9782689529
| 11>  O        0.8653282438    -0.8089525509     2.3568162056
| 12>  C        1.0252830342    -1.9064867634    -0.0355213541
| 13>  O       -0.0252339573    -2.8409745955    -0.0894306621
| 14>  H        0.8483543820     2.0782145673     0.2680394131
| 15>  H       -0.5721434136     2.0139334824    -0.7713022206
| 16>  H       -0.7461821456     1.8503075755     0.9735701535
| 17>  H       -1.9553114602     0.1110779203    -1.0367820561
| 18>  H       -1.6044970985    -1.4839345630    -0.3499350236
| 19>  H       -2.0914276509    -0.1425721745     0.6966278190
| 20>  H        1.2133292098    -0.5082122210    -1.9649121065
| 21>  H        3.0529062504    -0.7001704203     0.2464651256
| 22>  H        2.3123393971     0.9300819314     0.2948131390
| 23>  H        0.1193687911    -1.3733715054     2.5895483536
| 24>  H        1.9847863726    -2.4375262814     0.0067952704
| 25>  H        0.1879751888    -3.4889342989    -0.7674870761
| 26> *
| 27>
| 28>                          ****END OF INPUT****

CARTESIAN COORDINATES (ANGSTROEM)
---------------------------------
  C     -0.109988    1.580731    0.123021
  C     -0.051497    0.051050   -0.007302
  C     -1.502811   -0.416053   -0.188221
  C      1.090893   -0.587543   -0.885966
  C      2.120507   -0.132804    0.197150
  C      0.924688   -0.731838    0.978269
  O      0.865328   -0.808953    2.356816
  C      1.025283   -1.906487   -0.035521
  O     -0.025234   -2.840975   -0.089431
  H      0.848354    2.078215    0.268039
  H     -0.572143    2.013933   -0.771302
  H     -0.746182    1.850308    0.973570
  H     -1.955311    0.111078   -1.036782
  H     -1.604497   -1.483935   -0.349935
  H     -2.091428   -0.142572    0.696628
  H      1.213329   -0.508212   -1.964912
  H      3.052906   -0.700170    0.246465
  H      2.312339    0.930082    0.294813
  H      0.119369   -1.373372    2.589548
  H      1.984786   -2.437526    0.006795
  H      0.187975   -3.488934   -0.767487

 Total Charge           Charge          ....    0
 Multiplicity           Mult            ....    1
 Number of Electrons    NEL             ....   70
 Basis Dimension        Dim             ....  351

ORBITAL ENERGIES
----------------

  NO   OCC          E(Eh)            E(eV)
   0   2.0000     -20.564480      -559.5880
   1   2.0000     -20.562744      -559.5407
   2   2.0000     -11.295202      -307.3581
   3   2.0000     -11.287734      -307.1549
   4   2.0000     -11.243199      -305.9430
   5   2.0000     -11.242123      -305.9137
   6   2.0000     -11.226352      -305.4846
   7   2.0000     -11.206901      -304.9553
   8   2.0000     -11.198827      -304.7356
   9   2.0000      -1.382522       -37.6203
  10   2.0000      -1.367052       -37.1994
  11   2.0000      -1.198122       -32.6026
  12   2.0000      -1.024508       -27.8783
  13   2.0000      -0.929217       -25.2853
  14   2.0000      -0.879834       -23.9415
  15   2.0000      -0.849184       -23.1075
  16   2.0000      -0.835461       -22.7340
  17   2.0000      -0.729746       -19.8574
  18   2.0000      -0.706932       -19.2366
  19   2.0000      -0.688129       -18.7249
  20   2.0000      -0.629572       -17.1315
  21   2.0000      -0.618386       -16.8271
  22   2.0000      -0.604817       -16.4579
  23   2.0000      -0.589028       -16.0283
  24   2.0000      -0.563358       -15.3298
  25   2.0000      -0.542468       -14.7613
  26   2.0000      -0.522171       -14.2090
  27   2.0000      -0.519868       -14.1463
  28   2.0000      -0.504749       -13.7349
  29   2.0000      -0.501493       -13.6463
  30   2.0000      -0.470637       -12.8067
  31   2.0000      -0.441290       -12.0081
  32   2.0000      -0.425145       -11.5688
  33   2.0000      -0.408332       -11.1113
  34   2.0000      -0.392019       -10.6674
  35   0.0000       0.131696         3.5836
  36   0.0000       0.145443         3.9577
  37   0.0000       0.162074         4.4103
  38   0.0000       0.168106         4.5744
  39   0.0000       0.187745         5.1088

MULLIKEN ATOMIC CHARGES
-----------------------
   0 C :   -0.411791
   1 C :    0.080514
   2 C :   -0.450660
   3 C :   -0.114140
   4 C :   -0.258398
   5 C :    0.171123
   6 O :   -0.466600
   7 C :   -0.002241
   8 O :   -0.479865
   9 H :    0.118191
  10 H :    0.131088
  11 H :    0.133189
  12 H :    0.123891
  13 H :    0.165556
  14 H :    0.122321
  15 H :    0.149273
  16 H :    0.113702
  17 H :    0.122983
  18 H :    0.331794
  19 H :    0.093311
  20 H :    0.326758
Sum of atomic charges:   -0.0000000

LOEWDIN ATOMIC CHARGES
----------------------
   0 C :   -0.272990
   1 C :   -0.219034
   2 C :   -0.281776
   3 C :   -0.135279
   4 C :   -0.170332
   5 C :   -0.297740
   6 O :    0.027369
   7 C :   -0.278623
   8 O :   -0.014212
   9 H :    0.119645
  10 H :    0.126658
  11 H :    0.129816
  12 H :    0.125703
  13 H :    0.126453
  14 H :    0.125315
  15 H :    0.127669
  16 H :    0.130833
  17 H :    0.129223
  18 H :    0.189695
  19 H :    0.132938
  20 H :    0.178666

  Mayer bond orders larger than 0.1
B(  0-C ,  1-C ) :   0.9132 B(  0-C ,  9-H ) :   0.9282 B(  0-C , 10-H ) :   0.9403
B(  0-C , 11-H ) :   0.9365 B(  1-C ,  2-C ) :   0.8887 B(  1-C ,  3-C ) :   0.8516
B(  1-C ,  5-C ) :   0.8362 B(  2-C , 12-H ) :   0.9398 B(  2-C , 13-H ) :   0.9238
B(  2-C , 14-H ) :   0.9385 B(  3-C ,  4-C ) :   0.8944 B(  3-C ,  7-C ) :   0.8726
B(  3-C ,  8-O ) :  -0.1030 B(  3-C , 15-H ) :   0.8746 B(  4-C ,  5-C ) :   0.9015
B(  4-C , 16-H ) :   0.9280 B(  4-C , 17-H ) :   0.9260 B(  5-C ,  6-O ) :   0.9556
B(  5-C ,  7-C ) :   0.9018 B(  6-O , 18-H ) :   0.8327 B(  7-C ,  8-O ) :   1.0735
B(  7-C , 19-H ) :   0.9763 B(  8-O , 20-H ) :   0.8394

MP2 TOTAL ENERGY:     -423.476847539 Eh
FINAL SINGLE POINT ENERGY      -423.476847539402

DIPOLE MOMENT
-------------
                                X             Y             Z
Electronic contribution:      2.55904      -5.08338       2.52276
Nuclear contribution   :     -2.53496       4.67893      -3.19559
                        -----------------------------------------
Total Dipole Moment    :      0.02408      -0.40445      -0.67283
                        -----------------------------------------
Magnitude (a.u.)       :      0.78541
Magnitude (Debye)      :      1.99635

                             ****ORCA TERMINATED NORMALLY****
TOTAL RUN TIME: 0 days 0 hours 19 minutes 49 seconds 487 msec
