                         Program Version 3.0.3 - RELEASE   -
|  1> ! RI-MP2 RIJK def2-TZVP def2-TZVP/C def2-TZVP/JK TIGHTSCF
|  2> % maxcore 2000
|  3> % mp2 density relaxed end
|  4> *xyz 0 1
|  5>  C        0.1383058510     1.4976423122    -0.2027214842
|  6>  C        0.1075179128     0.0103824108     0.0452093204
|  7>  O        1.3610803671    -0.6778516121     0.1298980009
|  8>  C        0.5225344429    -0.6571464314     1.2911921926
|  9>  C        1.0449258427     0.0619521095     2.5184867754
| 10>  N        1.9534047589    -0.7567611483     3.3000828873
| 11>  C        3.2620976448    -1.0695203961     2.7440061280
| 12>  C        1.6194946957    -1.1924746356     4.5494178976
| 13>  O        2.3176214746    -1.8678808079     5.2750007362
| 14>  H        0.9052004522     1.9987488338     0.3905010277
| 15>  H        0.3485664423     1.6945109467    -1.2589340693
| 16>  H       -0.8344053093     1.9430892868     0.0321191428
| 17>  H       -0.6341440244    -0.5235187299    -0.5528316204
| 18>  H        0.0657058266    -1.6227501952     1.5199596551
| 19>  H        1.5489761611     0.9890405769     2.2231619170
| 20>  H        0.1971299476     0.3322316519     3.1590070704
| 21>  H        3.8244991001    -0.1486474123     2.5473190169
| 22>  H        3.7954175765    -1.6729412043     3.4782390274
| 23>  H        3.1687036979    -1.6198705591     1.8037402501
| 24>  H        0.6056494291    -0.8512801965     4.8410117178
| 25> *
| 26>
| 27>                          ****END OF INPUT****

CARTESIAN COORDINATES (ANGSTROEM)
---------------------------------
  C      0.138306    1.497642   -0.202721
  C      0.107518    0.010382    0.045209
  O      1.361080   -0.677852    0.129898
  C      0.522534   -0.657146    1.291192
  C      1.044926    0.061952    2.518487
  N      1.953405   -0.756761    3.300083
  C      3.262098   -1.069520    2.744006
  C      1.619495   -1.192475    4.549418
  O      2.317621   -1.867881    5.275001
  H      0.905200    1.998749    0.390501
  H      0.348566    1.694511   -1.258934
  H     -0.834405    1.943089    0.032119
  H     -0.634144   -0.523519   -0.552832
  H      0.065706   -1.622750    1.519960
  H      1.548976    0.989041    2.223162
  H      0.197130    0.332232    3.159007
  H      3.824499   -0.148647    2.547319
  H      3.795418   -1.672941    3.478239
  H      3.168704   -1.619871    1.803740
  H      0.605649   -0.851280    4.841012

 Total Charge           Charge          ....    0
 Multiplicity           Mult            ....    1
 Number of Electrons    NEL             ....   70
 Basis Dimension        Dim             ....  345

ORBITAL ENERGIES
----------------

  NO   OCC          E(Eh)            E(eV)
   0   2.0000     -20.577172      -559.9333
   1   2.0000     -20.519473      -558.3633
   2   2.0000     -15.592732      -424.2998
   3   2.0000     -11.346171      -308.7450
   4   2.0000     -11.302329      -307.5520
   5   2.0000     -11.299382      -307.4718
   6   2.0000     -11.287749      -307.1553
   7   2.0000     -11.252876      -306.2063
   8   2.0000     -11.239390      -305.8393
   9   2.0000      -1.422712       -38.7140
  10   2.0000      -1.381502       -37.5926
  11   2.0000      -1.255487       -34.1635
  12   2.0000      -1.031464       -28.0676
  13   2.0000      -1.014620       -27.6092
  14   2.0000      -0.958872       -26.0922
  15   2.0000      -0.887635       -24.1538
  16   2.0000      -0.809809       -22.0360
  17   2.0000      -0.778966       -21.1967
  18   2.0000      -0.726854       -19.7787
  19   2.0000      -0.697358       -18.9761
  20   2.0000      -0.664203       -18.0739
  21   2.0000      -0.651697       -17.7336
  22   2.0000      -0.610567       -16.6144
  23   2.0000      -0.602862       -16.4047
  24   2.0000      -0.584727       -15.9112
  25   2.0000      -0.581208       -15.8155
  26   2.0000      -0.569706       -15.5025
  27   2.0000      -0.541300       -14.7295
  28   2.0000      -0.538739       -14.6598
  29   2.0000      -0.523532       -14.2460
  30   2.0000      -0.514999       -14.0138
  31   2.0000      -0.464876       -12.6499
  32   2.0000      -0.443131       -12.0582
  33   2.0000      -0.427878       -11.6432
  34   2.0000      -0.376834       -10.2542
  35   0.0000       0.129988         3.5371
  36   0.0000       0.145172         3.9503
  37   0.0000       0.153698         4.1823
  38   0.0000       0.164340         4.4719
  39   0.0000       0.172593         4.6965

MULLIKEN ATOMIC CHARGES
-----------------------
   0 C :   -0.381457
   1 C :    0.035833
   2 O :   -0.340571
   3 C :    0.053784
   4 C :   -0.225975
   5 N :   -0.070500
   6 C :   -0.329111
   7 C :    0.141426
   8 O :   -0.362062
   9 H :    0.128790
  10 H :    0.146104
  11 H :    0.133714
  12 H :    0.114884
  13 H :    0.132899
  14 H :    0.148122
  15 H :    0.137869
  16 H :    0.130015
  17 H :    0.178290
  18 H :    0.157514
  19 H :    0.070433
Sum of atomic charges:    0.0000000

LOEWDIN ATOMIC CHARGES
----------------------
   0 C :   -0.293781
   1 C :   -0.289218
   2 O :    0.157470
   3 C :   -0.272304
   4 C :   -0.250610
   5 N :    0.149259
   6 C :   -0.280407
   7 C :   -0.424676
   8 O :    0.055588
   9 H :    0.125644
  10 H :    0.132444
  11 H :    0.131977
  12 H :    0.139178
  13 H :    0.141724
  14 H :    0.141031
  15 H :    0.147956
  16 H :    0.119066
  17 H :    0.134408
  18 H :    0.123785
  19 H :    0.111465

  Mayer bond orders larger than 0.1
B(  0-C ,  1-C ) :   0.8885 B(  0-C ,  9-H ) :   0.9437 B(  0-C , 10-H ) :   0.9328
B(  0-C , 11-H ) :   0.9243 B(  1-C ,  2-O ) :   0.9079 B(  1-C ,  3-C ) :   0.9478
B(  1-C , 12-H ) :   0.9182 B(  2-O ,  3-C ) :   0.8585 B(  3-C ,  4-C ) :   0.8761
B(  3-C , 13-H ) :   0.9074 B(  4-C ,  5-N ) :   0.9266 B(  4-C , 14-H ) :   0.9518
B(  4-C , 15-H ) :   0.9228 B(  5-N ,  6-C ) :   0.8625 B(  5-N ,  7-C ) :   1.1394
B(  6-C , 16-H ) :   0.9318 B(  6-C , 17-H ) :   0.9167 B(  6-C , 18-H ) :   0.9281
B(  7-C ,  8-O ) :   1.8997 B(  7-C , 19-H ) :   0.9275

MP2 TOTAL ENERGY:     -439.563350222 Eh
FINAL SINGLE POINT ENERGY      -439.563350221692

DIPOLE MOMENT
-------------
                                X             Y             Z
Electronic contribution:      1.14350      -4.70155       4.42694
Nuclear contribution   :     -2.15569       5.81720      -5.49102
                        -----------------------------------------
Total Dipole Moment    :     -1.01219       1.11565      -1.06408
                        -----------------------------------------
Magnitude (a.u.)       :      1.84431
Magnitude (Debye)      :      4.68786

                             ****ORCA TERMINATED NORMALLY****
TOTAL RUN TIME: 0 days 0 hours 19 minutes 42 seconds 306 msec
