                         Program Version 3.0.3 - RELEASE   -
|  1> ! RI-MP2 RIJK def2-TZVP def2-TZVP/C def2-TZVP/JK TIGHTSCF
|  2> % maxcore 2000
|  3> % mp2 density relaxed end
|  4> *xyz 0 1
|  5>  O       -0.2227535006     1.3722745303     0.1768091765
|  6>  C       -0.0526820574     0.0318761558     0.0189688645
|  7>  C       -1.0286510148    -1.0946835723    -0.0443602761
|  8>  C       -0.3713434653    -1.6963890982    -1.2879177610
|  9>  C        0.8876212007    -0.8732218705    -0.8909406217
| 10>  C        1.3368483905    -1.5174390116     0.4512096404
| 11>  O        2.3810722498    -1.9407680191     0.8590022981
| 12>  C        0.0460203648    -1.0899638418     1.0885622333
| 13>  O       -0.2818362697    -0.9505905285     2.4105113921
| 14>  H        0.4225526365     1.7029004778     0.8132110240
| 15>  H       -2.0689576208    -1.0876120313     0.2589570712
| 16>  H       -0.2494309123    -2.7847362353    -1.3280105981
| 17>  H       -0.8350502450    -1.3366096341    -2.2100215737
| 18>  H        1.6280459153    -0.5361205422    -1.6102738066
| 19>  H       -0.7472778616    -1.7400044090     2.7084099071
| 20> *
| 21>
| 22>                          ****END OF INPUT****

CARTESIAN COORDINATES (ANGSTROEM)
---------------------------------
  O     -0.222754    1.372275    0.176809
  C     -0.052682    0.031876    0.018969
  C     -1.028651   -1.094684   -0.044360
  C     -0.371343   -1.696389   -1.287918
  C      0.887621   -0.873222   -0.890941
  C      1.336848   -1.517439    0.451210
  O      2.381072   -1.940768    0.859002
  C      0.046020   -1.089964    1.088562
  O     -0.281836   -0.950591    2.410511
  H      0.422553    1.702900    0.813211
  H     -2.068958   -1.087612    0.258957
  H     -0.249431   -2.784736   -1.328011
  H     -0.835050   -1.336610   -2.210022
  H      1.628046   -0.536121   -1.610274
  H     -0.747278   -1.740004    2.708410

 Total Charge           Charge          ....    0
 Multiplicity           Mult            ....    1
 Number of Electrons    NEL             ....   66
 Basis Dimension        Dim             ....  315

ORBITAL ENERGIES
----------------

  NO   OCC          E(Eh)            E(eV)
   0   2.0000     -20.598407      -560.5112
   1   2.0000     -20.594921      -560.4163
   2   2.0000     -20.548581      -559.1553
   3   2.0000     -11.338666      -308.5408
   4   2.0000     -11.323159      -308.1188
   5   2.0000     -11.311608      -307.8045
   6   2.0000     -11.266061      -306.5651
   7   2.0000     -11.261250      -306.4342
   8   2.0000     -11.254723      -306.2566
   9   2.0000      -1.420959       -38.6663
  10   2.0000      -1.402083       -38.1526
  11   2.0000      -1.389582       -37.8124
  12   2.0000      -1.241815       -33.7915
  13   2.0000      -0.990177       -26.9441
  14   2.0000      -0.963052       -26.2060
  15   2.0000      -0.865876       -23.5617
  16   2.0000      -0.791434       -21.5360
  17   2.0000      -0.758412       -20.6374
  18   2.0000      -0.732631       -19.9359
  19   2.0000      -0.675411       -18.3789
  20   2.0000      -0.671440       -18.2708
  21   2.0000      -0.654747       -17.8166
  22   2.0000      -0.639802       -17.4099
  23   2.0000      -0.614299       -16.7159
  24   2.0000      -0.589503       -16.0412
  25   2.0000      -0.572504       -15.5786
  26   2.0000      -0.546531       -14.8719
  27   2.0000      -0.530519       -14.4362
  28   2.0000      -0.509282       -13.8583
  29   2.0000      -0.479906       -13.0589
  30   2.0000      -0.418073       -11.3764
  31   2.0000      -0.391552       -10.6547
  32   2.0000      -0.380271       -10.3477
  33   0.0000       0.119466         3.2508
  34   0.0000       0.132753         3.6124
  35   0.0000       0.144364         3.9283
  36   0.0000       0.171907         4.6778
  37   0.0000       0.176704         4.8084

MULLIKEN ATOMIC CHARGES
-----------------------
   0 O :   -0.434691
   1 C :    0.092247
   2 C :   -0.194333
   3 C :   -0.204964
   4 C :   -0.030159
   5 C :    0.097055
   6 O :   -0.265027
   7 C :    0.141040
   8 O :   -0.448437
   9 H :    0.346369
  10 H :    0.152609
  11 H :    0.124627
  12 H :    0.127361
  13 H :    0.153580
  14 H :    0.342720
Sum of atomic charges:    0.0000000

LOEWDIN ATOMIC CHARGES
----------------------
   0 O :    0.063989
   1 C :   -0.247457
   2 C :   -0.129056
   3 C :   -0.186198
   4 C :   -0.111161
   5 C :   -0.286592
   6 O :    0.153808
   7 C :   -0.270047
   8 O :    0.056393
   9 H :    0.200666
  10 H :    0.146657
  11 H :    0.131149
  12 H :    0.141295
  13 H :    0.141151
  14 H :    0.195403

  Mayer bond orders larger than 0.1
B(  0-O ,  1-C ) :   1.0453 B(  0-O ,  9-H ) :   0.8226 B(  1-C ,  2-C ) :   0.8808
B(  1-C ,  4-C ) :   0.8437 B(  1-C ,  7-C ) :   0.8060 B(  2-C ,  3-C ) :   0.9171
B(  2-C ,  7-C ) :   0.7793 B(  2-C , 10-H ) :   0.9106 B(  3-C ,  4-C ) :   0.8916
B(  3-C , 11-H ) :   0.9281 B(  3-C , 12-H ) :   0.9023 B(  4-C ,  5-C ) :   0.8216
B(  4-C ,  7-C ) :  -0.1395 B(  4-C , 13-H ) :   0.8957 B(  5-C ,  6-O ) :   2.0327
B(  5-C ,  7-C ) :   0.9133 B(  7-C ,  8-O ) :   1.0349 B(  8-O , 14-H ) :   0.8297

MP2 TOTAL ENERGY:     -456.976198543 Eh
FINAL SINGLE POINT ENERGY      -456.976198543281

DIPOLE MOMENT
-------------
                                X             Y             Z
Electronic contribution:      2.48449       0.66361       3.03594
Nuclear contribution   :     -3.41660      -0.71994      -3.29164
                        -----------------------------------------
Total Dipole Moment    :     -0.93210      -0.05633      -0.25570
                        -----------------------------------------
Magnitude (a.u.)       :      0.96818
Magnitude (Debye)      :      2.46092

                             ****ORCA TERMINATED NORMALLY****
TOTAL RUN TIME: 0 days 0 hours 15 minutes 5 seconds 557 msec
