                         Program Version 3.0.3 - RELEASE   -
|  1> ! RI-MP2 RIJK def2-TZVP def2-TZVP/C def2-TZVP/JK TIGHTSCF
|  2> % maxcore 2000
|  3> % mp2 density relaxed end
|  4> *xyz 0 1
|  5>  C       -0.0583325517     1.6197077972     0.1925067917
|  6>  C        1.4655035958     1.4324896037     0.0000294521
|  7>  C        1.8017935808     0.5743335748     1.2636817608
|  8>  C        0.5956559938    -0.4585826006     1.2679711071
|  9>  C       -0.0347642032     0.0678775161    -0.0042188071
| 10>  O       -1.0806583876    -0.5167441784    -0.7715090044
| 11>  C       -0.7227029845    -0.1338511321    -2.0437221441
| 12>  N        0.4214387174     0.3815562753    -2.2675634540
| 13>  C        1.1386962734     0.2735299634    -0.9824627808
| 14>  H       -0.4119955420     2.0063040905     1.1513870808
| 15>  H       -0.5397231419     2.1391291317    -0.6347658578
| 16>  H        2.1409207208     2.2560010785    -0.2276909737
| 17>  H        2.7663533140     0.0666040620     1.1768425661
| 18>  H        1.8211926037     1.1883001858     2.1675176486
| 19>  H        0.9308972894    -1.4948256187     1.1806674235
| 20>  H       -0.0363679915    -0.3666934808     2.1545389343
| 21>  H       -1.4882109174    -0.3123753101    -2.7910483586
| 22>  H        1.9179372607    -0.4921996782    -1.0794156342
| 23> *
| 24>
| 25>                          ****END OF INPUT****

CARTESIAN COORDINATES (ANGSTROEM)
---------------------------------
  C     -0.058333    1.619708    0.192507
  C      1.465504    1.432490    0.000029
  C      1.801794    0.574334    1.263682
  C      0.595656   -0.458583    1.267971
  C     -0.034764    0.067878   -0.004219
  O     -1.080658   -0.516744   -0.771509
  C     -0.722703   -0.133851   -2.043722
  N      0.421439    0.381556   -2.267563
  C      1.138696    0.273530   -0.982463
  H     -0.411996    2.006304    1.151387
  H     -0.539723    2.139129   -0.634766
  H      2.140921    2.256001   -0.227691
  H      2.766353    0.066604    1.176843
  H      1.821193    1.188300    2.167518
  H      0.930897   -1.494826    1.180667
  H     -0.036368   -0.366693    2.154539
  H     -1.488211   -0.312375   -2.791048
  H      1.917937   -0.492200   -1.079416

 Total Charge           Charge          ....    0
 Multiplicity           Mult            ....    1
 Number of Electrons    NEL             ....   66
 Basis Dimension        Dim             ....  333

ORBITAL ENERGIES
----------------

  NO   OCC          E(Eh)            E(eV)
   0   2.0000     -20.598029      -560.5009
   1   2.0000     -15.552114      -423.1945
   2   2.0000     -11.334912      -308.4386
   3   2.0000     -11.295272      -307.3600
   4   2.0000     -11.257814      -306.3407
   5   2.0000     -11.244747      -305.9851
   6   2.0000     -11.238749      -305.8219
   7   2.0000     -11.238262      -305.8087
   8   2.0000     -11.227050      -305.5036
   9   2.0000      -1.440011       -39.1847
  10   2.0000      -1.224805       -33.3286
  11   2.0000      -1.176131       -32.0042
  12   2.0000      -0.987341       -26.8669
  13   2.0000      -0.951649       -25.8957
  14   2.0000      -0.915830       -24.9210
  15   2.0000      -0.823196       -22.4003
  16   2.0000      -0.770137       -20.9565
  17   2.0000      -0.756959       -20.5979
  18   2.0000      -0.697240       -18.9729
  19   2.0000      -0.666548       -18.1377
  20   2.0000      -0.659454       -17.9447
  21   2.0000      -0.625504       -17.0208
  22   2.0000      -0.596797       -16.2397
  23   2.0000      -0.568618       -15.4729
  24   2.0000      -0.539172       -14.6716
  25   2.0000      -0.526302       -14.3214
  26   2.0000      -0.508310       -13.8318
  27   2.0000      -0.488238       -13.2856
  28   2.0000      -0.478793       -13.0286
  29   2.0000      -0.462625       -12.5887
  30   2.0000      -0.436777       -11.8853
  31   2.0000      -0.403860       -10.9896
  32   2.0000      -0.380292       -10.3483
  33   0.0000       0.136885         3.7248
  34   0.0000       0.155255         4.2247
  35   0.0000       0.159684         4.3452
  36   0.0000       0.168653         4.5893
  37   0.0000       0.181135         4.9289

MULLIKEN ATOMIC CHARGES
-----------------------
   0 C :   -0.306903
   1 C :   -0.025882
   2 C :   -0.282857
   3 C :   -0.232072
   4 C :    0.207092
   5 O :   -0.273547
   6 C :    0.094257
   7 N :   -0.274957
   8 C :   -0.058604
   9 H :    0.120794
  10 H :    0.139486
  11 H :    0.135702
  12 H :    0.129973
  13 H :    0.128969
  14 H :    0.125760
  15 H :    0.128777
  16 H :    0.141695
  17 H :    0.102318
Sum of atomic charges:    0.0000000

LOEWDIN ATOMIC CHARGES
----------------------
   0 C :   -0.170218
   1 C :   -0.186203
   2 C :   -0.199772
   3 C :   -0.197662
   4 C :   -0.294667
   5 O :    0.248223
   6 C :   -0.314955
   7 N :    0.086241
   8 C :   -0.198167
   9 H :    0.130265
  10 H :    0.144624
  11 H :    0.134751
  12 H :    0.133837
  13 H :    0.134049
  14 H :    0.138443
  15 H :    0.135316
  16 H :    0.131841
  17 H :    0.144055

  Mayer bond orders larger than 0.1
B(  0-C ,  1-C ) :   0.9146 B(  0-C ,  4-C ) :   0.9293 B(  0-C ,  9-H ) :   0.9262
B(  0-C , 10-H ) :   0.8992 B(  1-C ,  2-C ) :   0.8806 B(  1-C ,  8-C ) :   0.8749
B(  1-C , 11-H ) :   0.9031 B(  2-C ,  3-C ) :   0.9485 B(  2-C , 12-H ) :   0.9300
B(  2-C , 13-H ) :   0.9253 B(  3-C ,  4-C ) :   0.9201 B(  3-C , 14-H ) :   0.9218
B(  3-C , 15-H ) :   0.9276 B(  4-C ,  5-O ) :   0.9126 B(  4-C ,  8-C ) :   0.8759
B(  5-O ,  6-C ) :   1.0386 B(  6-C ,  7-N ) :   1.8039 B(  6-C , 16-H ) :   0.9284
B(  7-N ,  8-C ) :   0.9406 B(  8-C , 17-H ) :   0.9345

MP2 TOTAL ENERGY:     -401.249006160 Eh
FINAL SINGLE POINT ENERGY      -401.249006159579

DIPOLE MOMENT
-------------
                                X             Y             Z
Electronic contribution:     -3.38049      -1.72836      -5.22642
Nuclear contribution   :      3.48368       1.74502       5.95190
                        -----------------------------------------
Total Dipole Moment    :      0.10319       0.01666       0.72548
                        -----------------------------------------
Magnitude (a.u.)       :      0.73297
Magnitude (Debye)      :      1.86307

                             ****ORCA TERMINATED NORMALLY****
TOTAL RUN TIME: 0 days 0 hours 19 minutes 7 seconds 433 msec
