                         Program Version 3.0.3 - RELEASE   -
|  1> ! RI-MP2 RIJK def2-TZVP def2-TZVP/C def2-TZVP/JK TIGHTSCF
|  2> % maxcore 2000
|  3> % mp2 density relaxed end
|  4> *xyz 0 1
|  5>  C       -0.6169695689     1.5404298045     0.5643107794
|  6>  C       -0.2748772607     0.0770514461     0.3494979047
|  7>  O       -1.4760883047    -0.6184717480     0.0338898148
|  8>  C       -1.3100543973    -2.0023884513    -0.2236777023
|  9>  C       -0.8903631884    -2.7519487180     0.9642064064
| 10>  C       -0.5508710883    -3.3456454126     1.9520429568
| 11>  C       -2.6389710063    -2.5878965924    -0.7716434276
| 12>  N       -3.7096968775    -1.7816770138    -0.5870128312
| 13>  O       -2.6629437987    -3.6808300143    -1.2943977062
| 14>  H        0.2873920710     2.1068981891     0.8048719083
| 15>  H       -1.0654816946     1.9706460338    -0.3357721087
| 16>  H       -1.3243691635     1.6528739929     1.3909225285
| 17>  H        0.4439169314    -0.0402379526    -0.4769306059
| 18>  H        0.1811699482    -0.3570053229     1.2495442281
| 19>  H       -0.5697220561    -2.1558690784    -1.0239044324
| 20>  H       -0.2539112208    -3.8842695888     2.8180524331
| 21>  H       -3.5784299201    -0.8530705405    -0.2236558296
| 22>  H       -4.6012004846    -2.0706443627    -0.9530576262
| 23> *
| 24>
| 25>                          ****END OF INPUT****

CARTESIAN COORDINATES (ANGSTROEM)
---------------------------------
  C     -0.616970    1.540430    0.564311
  C     -0.274877    0.077051    0.349498
  O     -1.476088   -0.618472    0.033890
  C     -1.310054   -2.002388   -0.223678
  C     -0.890363   -2.751949    0.964206
  C     -0.550871   -3.345645    1.952043
  C     -2.638971   -2.587897   -0.771643
  N     -3.709697   -1.781677   -0.587013
  O     -2.662944   -3.680830   -1.294398
  H      0.287392    2.106898    0.804872
  H     -1.065482    1.970646   -0.335772
  H     -1.324369    1.652874    1.390923
  H      0.443917   -0.040238   -0.476931
  H      0.181170   -0.357005    1.249544
  H     -0.569722   -2.155869   -1.023904
  H     -0.253911   -3.884270    2.818052
  H     -3.578430   -0.853071   -0.223656
  H     -4.601200   -2.070644   -0.953058

 Total Charge           Charge          ....    0
 Multiplicity           Mult            ....    1
 Number of Electrons    NEL             ....   68
 Basis Dimension        Dim             ....  333

ORBITAL ENERGIES
----------------

  NO   OCC          E(Eh)            E(eV)
   0   2.0000     -20.583348      -560.1014
   1   2.0000     -20.519848      -558.3735
   2   2.0000     -15.582205      -424.0134
   3   2.0000     -11.357919      -309.0647
   4   2.0000     -11.329887      -308.3019
   5   2.0000     -11.291159      -307.2480
   6   2.0000     -11.244339      -305.9740
   7   2.0000     -11.237656      -305.7922
   8   2.0000     -11.228876      -305.5533
   9   2.0000      -1.409895       -38.3652
  10   2.0000      -1.381837       -37.6017
  11   2.0000      -1.214786       -33.0560
  12   2.0000      -1.077251       -29.3135
  13   2.0000      -1.029479       -28.0135
  14   2.0000      -0.964924       -26.2569
  15   2.0000      -0.855550       -23.2807
  16   2.0000      -0.813558       -22.1380
  17   2.0000      -0.750014       -20.4089
  18   2.0000      -0.735650       -20.0181
  19   2.0000      -0.704674       -19.1752
  20   2.0000      -0.696746       -18.9594
  21   2.0000      -0.655148       -17.8275
  22   2.0000      -0.634009       -17.2522
  23   2.0000      -0.610496       -16.6124
  24   2.0000      -0.573400       -15.6030
  25   2.0000      -0.559028       -15.2119
  26   2.0000      -0.549056       -14.9406
  27   2.0000      -0.527573       -14.3560
  28   2.0000      -0.505857       -13.7651
  29   2.0000      -0.459043       -12.4912
  30   2.0000      -0.439074       -11.9478
  31   2.0000      -0.417181       -11.3521
  32   2.0000      -0.404935       -11.0188
  33   2.0000      -0.392996       -10.6940
  34   0.0000       0.126094         3.4312
  35   0.0000       0.145842         3.9686
  36   0.0000       0.149910         4.0792
  37   0.0000       0.159536         4.3412
  38   0.0000       0.164297         4.4708

MULLIKEN ATOMIC CHARGES
-----------------------
   0 C :   -0.372484
   1 C :   -0.066128
   2 O :   -0.317706
   3 C :    0.025184
   4 C :   -0.052056
   5 C :   -0.157253
   6 C :    0.279636
   7 N :   -0.469075
   8 O :   -0.345607
   9 H :    0.129934
  10 H :    0.131591
  11 H :    0.133088
  12 H :    0.098754
  13 H :    0.122637
  14 H :    0.128146
  15 H :    0.194808
  16 H :    0.279200
  17 H :    0.257331
Sum of atomic charges:    0.0000000

LOEWDIN ATOMIC CHARGES
----------------------
   0 C :   -0.316006
   1 C :   -0.334164
   2 O :    0.172377
   3 C :   -0.281867
   4 C :   -0.082855
   5 C :   -0.076236
   6 C :   -0.454648
   7 N :    0.003696
   8 O :    0.096521
   9 H :    0.127851
  10 H :    0.124065
  11 H :    0.124843
  12 H :    0.120600
  13 H :    0.126736
  14 H :    0.166607
  15 H :    0.129205
  16 H :    0.178088
  17 H :    0.175186

  Mayer bond orders larger than 0.1
B(  0-C ,  1-C ) :   0.9495 B(  0-C ,  9-H ) :   0.9315 B(  0-C , 10-H ) :   0.9356
B(  0-C , 11-H ) :   0.9356 B(  1-C ,  2-O ) :   0.9076 B(  1-C , 12-H ) :   0.9213
B(  1-C , 13-H ) :   0.9276 B(  2-O ,  3-C ) :   0.9523 B(  3-C ,  4-C ) :   1.0103
B(  3-C ,  6-C ) :   0.8746 B(  3-C , 14-H ) :   0.9680 B(  4-C ,  5-C ) :   2.6435
B(  5-C , 15-H ) :   0.8966 B(  6-C ,  7-N ) :   1.1847 B(  6-C ,  8-O ) :   1.9893
B(  7-N , 16-H ) :   0.8476 B(  7-N , 17-H ) :   0.8603

MP2 TOTAL ENERGY:     -438.346730087 Eh
FINAL SINGLE POINT ENERGY      -438.346730087469

DIPOLE MOMENT
-------------
                                X             Y             Z
Electronic contribution:     -3.54146      -8.94406      -1.89884
Nuclear contribution   :      3.70304      10.28072       2.43143
                        -----------------------------------------
Total Dipole Moment    :      0.16158       1.33665       0.53259
                        -----------------------------------------
Magnitude (a.u.)       :      1.44790
Magnitude (Debye)      :      3.68026

                             ****ORCA TERMINATED NORMALLY****
TOTAL RUN TIME: 0 days 0 hours 15 minutes 24 seconds 152 msec
