                         Program Version 3.0.3 - RELEASE   -
|  1> ! RI-MP2 RIJK def2-TZVP def2-TZVP/C def2-TZVP/JK TIGHTSCF
|  2> % maxcore 2000
|  3> % mp2 density relaxed end
|  4> *xyz 0 1
|  5>  C       -0.0375507119     1.5121655258     0.0472361962
|  6>  C       -0.0098952271    -0.0098710916     0.0057241900
|  7>  C        1.3255189115    -0.7116136845    -0.2080445571
|  8>  C        0.6819583166    -0.7481503468     1.1635784051
|  9>  O        1.2028674911     0.1038807802     2.1486533840
| 10>  C        0.1465385299    -1.9876382071     1.6611649006
| 11>  C       -0.2536226332    -3.0244887551     2.1200425600
| 12>  C       -1.1785026438    -0.6164756989    -0.5739745895
| 13>  C       -2.1663530612    -1.0829657773    -1.0762460868
| 14>  H        0.8516423689     1.9031469109     0.5420966893
| 15>  H       -0.0858182511     1.9088805018    -0.9712363122
| 16>  H       -0.9177295414     1.8641341047     0.5922139821
| 17>  H        1.3358087674    -1.6219115997    -0.7946398393
| 18>  H        2.1972808828    -0.0731153585    -0.3020137257
| 19>  H        1.9099086816    -0.3726171786     2.5984130574
| 20>  H       -0.6291106291    -3.9352783471     2.5164197078
| 21>  H       -3.0372132810    -1.5073343282    -1.5105081519
| 22> *
| 23>
| 24>                          ****END OF INPUT****

CARTESIAN COORDINATES (ANGSTROEM)
---------------------------------
  C     -0.037551    1.512166    0.047236
  C     -0.009895   -0.009871    0.005724
  C      1.325519   -0.711614   -0.208045
  C      0.681958   -0.748150    1.163578
  O      1.202867    0.103881    2.148653
  C      0.146539   -1.987638    1.661165
  C     -0.253623   -3.024489    2.120043
  C     -1.178503   -0.616476   -0.573975
  C     -2.166353   -1.082966   -1.076246
  H      0.851642    1.903147    0.542097
  H     -0.085818    1.908881   -0.971236
  H     -0.917730    1.864134    0.592214
  H      1.335809   -1.621912   -0.794640
  H      2.197281   -0.073115   -0.302014
  H      1.909909   -0.372617    2.598413
  H     -0.629111   -3.935278    2.516420
  H     -3.037213   -1.507334   -1.510508

 Total Charge           Charge          ....    0
 Multiplicity           Mult            ....    1
 Number of Electrons    NEL             ....   64
 Basis Dimension        Dim             ....  327

ORBITAL ENERGIES
----------------

  NO   OCC          E(Eh)            E(eV)
   0   2.0000     -20.579035      -559.9840
   1   2.0000     -11.326879      -308.2200
   2   2.0000     -11.276475      -306.8485
   3   2.0000     -11.246602      -306.0356
   4   2.0000     -11.239244      -305.8354
   5   2.0000     -11.232815      -305.6604
   6   2.0000     -11.231735      -305.6310
   7   2.0000     -11.224006      -305.4207
   8   2.0000     -11.221257      -305.3459
   9   2.0000      -1.392862       -37.9017
  10   2.0000      -1.173442       -31.9310
  11   2.0000      -1.042834       -28.3770
  12   2.0000      -1.019782       -27.7497
  13   2.0000      -0.971952       -26.4482
  14   2.0000      -0.869367       -23.6567
  15   2.0000      -0.839345       -22.8397
  16   2.0000      -0.772419       -21.0186
  17   2.0000      -0.710469       -19.3328
  18   2.0000      -0.702980       -19.1291
  19   2.0000      -0.677123       -18.4255
  20   2.0000      -0.636973       -17.3329
  21   2.0000      -0.601320       -16.3628
  22   2.0000      -0.581280       -15.8174
  23   2.0000      -0.553074       -15.0499
  24   2.0000      -0.544208       -14.8087
  25   2.0000      -0.532072       -14.4784
  26   2.0000      -0.477207       -12.9855
  27   2.0000      -0.453836       -12.3495
  28   2.0000      -0.407406       -11.0861
  29   2.0000      -0.391442       -10.6517
  30   2.0000      -0.372137       -10.1264
  31   2.0000      -0.356445        -9.6994
  32   0.0000       0.133892         3.6434
  33   0.0000       0.154198         4.1959
  34   0.0000       0.160831         4.3764
  35   0.0000       0.162211         4.4140
  36   0.0000       0.166418         4.5285

MULLIKEN ATOMIC CHARGES
-----------------------
   0 C :   -0.397963
   1 C :   -0.108834
   2 C :   -0.278614
   3 C :    0.103095
   4 O :   -0.455978
   5 C :   -0.062704
   6 C :   -0.137971
   7 C :    0.035975
   8 C :   -0.127437
   9 H :    0.149831
  10 H :    0.138896
  11 H :    0.141492
  12 H :    0.145836
  13 H :    0.141935
  14 H :    0.328426
  15 H :    0.193760
  16 H :    0.190255
Sum of atomic charges:    0.0000000

LOEWDIN ATOMIC CHARGES
----------------------
   0 C :   -0.240189
   1 C :   -0.210012
   2 C :   -0.132669
   3 C :   -0.307294
   4 O :    0.044273
   5 C :   -0.066442
   6 C :   -0.074607
   7 C :   -0.060727
   8 C :   -0.085458
   9 H :    0.133110
  10 H :    0.132330
  11 H :    0.134631
  12 H :    0.145946
  13 H :    0.143444
  14 H :    0.188233
  15 H :    0.128485
  16 H :    0.126946

  Mayer bond orders larger than 0.1
B(  0-C ,  1-C ) :   0.9343 B(  0-C ,  9-H ) :   0.9229 B(  0-C , 10-H ) :   0.9336
B(  0-C , 11-H ) :   0.9348 B(  1-C ,  2-C ) :   0.8430 B(  1-C ,  3-C ) :   0.8018
B(  1-C ,  7-C ) :   1.2446 B(  1-C ,  8-C ) :  -0.1548 B(  2-C ,  3-C ) :   0.8716
B(  2-C , 12-H ) :   0.9113 B(  2-C , 13-H ) :   0.9128 B(  3-C ,  4-O ) :   0.9270
B(  3-C ,  5-C ) :   1.2478 B(  3-C ,  6-C ) :  -0.1036 B(  4-O , 14-H ) :   0.8338
B(  5-C ,  6-C ) :   2.5738 B(  6-C , 15-H ) :   0.8825 B(  7-C ,  8-C ) :   2.5687
B(  8-C , 16-H ) :   0.8811

MP2 TOTAL ENERGY:     -383.913636987 Eh
FINAL SINGLE POINT ENERGY      -383.913636987234

DIPOLE MOMENT
-------------
                                X             Y             Z
Electronic contribution:     -0.90437      -3.62476       2.08511
Nuclear contribution   :      1.35665       3.30606      -2.14284
                        -----------------------------------------
Total Dipole Moment    :      0.45228      -0.31870      -0.05772
                        -----------------------------------------
Magnitude (a.u.)       :      0.55629
Magnitude (Debye)      :      1.41398

                             ****ORCA TERMINATED NORMALLY****
TOTAL RUN TIME: 0 days 0 hours 16 minutes 45 seconds 314 msec
