                         Program Version 3.0.3 - RELEASE   -
|  1> ! RI-MP2 RIJK def2-TZVP def2-TZVP/C def2-TZVP/JK TIGHTSCF
|  2> % maxcore 2000
|  3> % mp2 density relaxed end
|  4> *xyz 0 1
|  5>  C       -0.7072677347     1.1705451921    -0.0908552437
|  6>  C        0.0498797170    -0.1438270098    -0.1434574825
|  7>  C        1.3509555375    -0.2744955117    -0.9774024830
|  8>  O        2.0182668525     0.9797939360    -0.9993216582
|  9>  C        1.9080343847    -1.2372428416     0.1046270093
| 10>  C        0.8600379719    -0.6380384138     1.1166771162
| 11>  N        1.3128219687     0.4714927146     1.9477902475
| 12>  C        0.1786860926    -1.6238289716     1.9561703531
| 13>  N       -0.3499098578    -2.4315475494     2.5923540961
| 14>  H       -0.0537837769     2.0063705191     0.1614482073
| 15>  H       -1.1647454209     1.3804138467    -1.0632571215
| 16>  H       -1.5038554108     1.1223672587     0.6571289649
| 17>  H       -0.6200552267    -0.9552434619    -0.4425022860
| 18>  H        1.2432917607    -0.6763749129    -1.9918128409
| 19>  H        2.8871762389     0.8495897317    -1.3930604793
| 20>  H        1.7118721788    -2.2862361005    -0.1304378451
| 21>  H        2.9572619591    -1.1131160011     0.3852143138
| 22>  H        1.9429704783     0.1308745066     2.6685574935
| 23>  H        1.8365648271     1.1168986189     1.3627271487
| 24> *
| 25>
| 26>                          ****END OF INPUT****

CARTESIAN COORDINATES (ANGSTROEM)
---------------------------------
  C     -0.707268    1.170545   -0.090855
  C      0.049880   -0.143827   -0.143457
  C      1.350956   -0.274496   -0.977402
  O      2.018267    0.979794   -0.999322
  C      1.908034   -1.237243    0.104627
  C      0.860038   -0.638038    1.116677
  N      1.312822    0.471493    1.947790
  C      0.178686   -1.623829    1.956170
  N     -0.349910   -2.431548    2.592354
  H     -0.053784    2.006371    0.161448
  H     -1.164745    1.380414   -1.063257
  H     -1.503855    1.122367    0.657129
  H     -0.620055   -0.955243   -0.442502
  H      1.243292   -0.676375   -1.991813
  H      2.887176    0.849590   -1.393060
  H      1.711872   -2.286236   -0.130438
  H      2.957262   -1.113116    0.385214
  H      1.942970    0.130875    2.668557
  H      1.836565    1.116899    1.362727

 Total Charge           Charge          ....    0
 Multiplicity           Mult            ....    1
 Number of Electrons    NEL             ....   68
 Basis Dimension        Dim             ....  339

ORBITAL ENERGIES
----------------

  NO   OCC          E(Eh)            E(eV)
   0   2.0000     -20.581216      -560.0434
   1   2.0000     -15.566475      -423.5853
   2   2.0000     -15.560924      -423.4343
   3   2.0000     -11.313574      -307.8580
   4   2.0000     -11.303289      -307.5781
   5   2.0000     -11.266056      -306.5650
   6   2.0000     -11.253527      -306.2240
   7   2.0000     -11.250345      -306.1375
   8   2.0000     -11.219160      -305.2889
   9   2.0000      -1.388876       -37.7932
  10   2.0000      -1.238924       -33.7128
  11   2.0000      -1.200524       -32.6679
  12   2.0000      -1.113576       -30.3019
  13   2.0000      -1.002184       -27.2708
  14   2.0000      -0.930852       -25.3298
  15   2.0000      -0.875645       -23.8275
  16   2.0000      -0.791793       -21.5458
  17   2.0000      -0.748801       -20.3759
  18   2.0000      -0.692307       -18.8386
  19   2.0000      -0.651953       -17.7405
  20   2.0000      -0.646822       -17.6009
  21   2.0000      -0.625140       -17.0109
  22   2.0000      -0.596763       -16.2387
  23   2.0000      -0.583041       -15.8654
  24   2.0000      -0.568601       -15.4724
  25   2.0000      -0.551478       -15.0065
  26   2.0000      -0.544883       -14.8270
  27   2.0000      -0.522300       -14.2125
  28   2.0000      -0.501871       -13.6566
  29   2.0000      -0.479611       -13.0509
  30   2.0000      -0.458200       -12.4682
  31   2.0000      -0.452456       -12.3120
  32   2.0000      -0.434113       -11.8128
  33   2.0000      -0.399526       -10.8717
  34   0.0000       0.114389         3.1127
  35   0.0000       0.138048         3.7565
  36   0.0000       0.145604         3.9621
  37   0.0000       0.154832         4.2132
  38   0.0000       0.177583         4.8323

MULLIKEN ATOMIC CHARGES
-----------------------
   0 C :   -0.393935
   1 C :   -0.108232
   2 C :    0.022857
   3 O :   -0.472557
   4 C :   -0.280698
   5 C :    0.375620
   6 N :   -0.567739
   7 C :   -0.252434
   8 N :   -0.047551
   9 H :    0.136139
  10 H :    0.134290
  11 H :    0.146250
  12 H :    0.131270
  13 H :    0.112575
  14 H :    0.321306
  15 H :    0.136559
  16 H :    0.125411
  17 H :    0.233434
  18 H :    0.247433
Sum of atomic charges:    0.0000000

LOEWDIN ATOMIC CHARGES
----------------------
   0 C :   -0.286310
   1 C :   -0.188053
   2 C :   -0.300267
   3 O :   -0.015930
   4 C :   -0.181099
   5 C :   -0.302916
   6 N :   -0.096647
   7 C :   -0.153942
   8 N :    0.064516
   9 H :    0.128117
  10 H :    0.129087
  11 H :    0.133199
  12 H :    0.166248
  13 H :    0.124712
  14 H :    0.177821
  15 H :    0.145892
  16 H :    0.129622
  17 H :    0.162332
  18 H :    0.163617

  Mayer bond orders larger than 0.1
B(  0-C ,  1-C ) :   0.9453 B(  0-C ,  9-H ) :   0.9244 B(  0-C , 10-H ) :   0.9340
B(  0-C , 11-H ) :   0.9332 B(  1-C ,  2-C ) :   0.8920 B(  1-C ,  5-C ) :   0.8485
B(  1-C , 12-H ) :   0.9225 B(  2-C ,  3-O ) :   1.0459 B(  2-C ,  4-C ) :   0.9132
B(  2-C , 13-H ) :   0.9482 B(  3-O , 14-H ) :   0.8398 B(  4-C ,  5-C ) :   0.8898
B(  4-C , 15-H ) :   0.9050 B(  4-C , 16-H ) :   0.9231 B(  5-C ,  6-N ) :   0.8685
B(  5-C ,  7-C ) :   0.9086 B(  6-N , 17-H ) :   0.8795 B(  6-N , 18-H ) :   0.8739
B(  7-C ,  8-N ) :   2.8865

MP2 TOTAL ENERGY:     -418.506668964 Eh
FINAL SINGLE POINT ENERGY      -418.506668964336

DIPOLE MOMENT
-------------
                                X             Y             Z
Electronic contribution:      0.01478      -4.26025       3.72781
Nuclear contribution   :      1.33246       4.70199      -5.11563
                        -----------------------------------------
Total Dipole Moment    :      1.34724       0.44174      -1.38782
                        -----------------------------------------
Magnitude (a.u.)       :      1.98399
Magnitude (Debye)      :      5.04291

                             ****ORCA TERMINATED NORMALLY****
TOTAL RUN TIME: 0 days 0 hours 19 minutes 8 seconds 943 msec
