                         Program Version 3.0.3 - RELEASE   -
|  1> ! RI-MP2 RIJK def2-TZVP def2-TZVP/C def2-TZVP/JK TIGHTSCF
|  2> % maxcore 2000
|  3> % mp2 density relaxed end
|  4> *xyz 0 1
|  5>  C       -0.0310277039     1.5811997424    -0.0069915301
|  6>  C        0.0136859635     0.0525156831    -0.0690609874
|  7>  C       -1.3506225713    -0.5942220249     0.1094209347
|  8>  C       -1.3599399097    -2.1364632074     0.0507048135
|  9>  N       -2.3810562317    -2.4245640812     1.0384183387
| 10>  C       -2.5130699754    -1.3835608927     1.9360410276
| 11>  O       -3.0855018508    -1.3840119269     2.9893448088
| 12>  O       -1.8761411500    -0.2905208916     1.4172447702
| 13>  H        0.9694651592     2.0058930812    -0.1278874088
| 14>  H       -0.6668932104     1.9909316388    -0.7993084284
| 15>  H       -0.4318919758     1.9166763506     0.9529117061
| 16>  H        0.4170254994    -0.2771527264    -1.0356306851
| 17>  H        0.6849764940    -0.3392719549     0.7046856250
| 18>  H       -2.0593949324    -0.1905821511    -0.6265700923
| 19>  H       -1.6274804922    -2.5045048570    -0.9437036246
| 20>  H       -0.3782686317    -2.5514904830     0.3233500167
| 21>  H       -2.5360276808    -3.3537557191     1.3942960254
| 22> *
| 23>
| 24>                          ****END OF INPUT****

CARTESIAN COORDINATES (ANGSTROEM)
---------------------------------
  C     -0.031028    1.581200   -0.006992
  C      0.013686    0.052516   -0.069061
  C     -1.350623   -0.594222    0.109421
  C     -1.359940   -2.136463    0.050705
  N     -2.381056   -2.424564    1.038418
  C     -2.513070   -1.383561    1.936041
  O     -3.085502   -1.384012    2.989345
  O     -1.876141   -0.290521    1.417245
  H      0.969465    2.005893   -0.127887
  H     -0.666893    1.990932   -0.799308
  H     -0.431892    1.916676    0.952912
  H      0.417025   -0.277153   -1.035631
  H      0.684976   -0.339272    0.704686
  H     -2.059395   -0.190582   -0.626570
  H     -1.627480   -2.504505   -0.943704
  H     -0.378269   -2.551490    0.323350
  H     -2.536028   -3.353756    1.394296

 Total Charge           Charge          ....    0
 Multiplicity           Mult            ....    1
 Number of Electrons    NEL             ....   62
 Basis Dimension        Dim             ....  302

ORBITAL ENERGIES
----------------

  NO   OCC          E(Eh)            E(eV)
   0   2.0000     -20.598119      -560.5033
   1   2.0000     -20.523548      -558.4741
   2   2.0000     -15.593217      -424.3130
   3   2.0000     -11.397566      -310.1435
   4   2.0000     -11.309464      -307.7462
   5   2.0000     -11.288699      -307.1811
   6   2.0000     -11.242113      -305.9135
   7   2.0000     -11.223498      -305.4069
   8   2.0000      -1.465248       -39.8714
   9   2.0000      -1.362228       -37.0681
  10   2.0000      -1.241204       -33.7749
  11   2.0000      -1.086186       -29.5566
  12   2.0000      -0.994427       -27.0597
  13   2.0000      -0.891402       -24.2563
  14   2.0000      -0.839186       -22.8354
  15   2.0000      -0.821476       -22.3535
  16   2.0000      -0.727233       -19.7890
  17   2.0000      -0.696345       -18.9485
  18   2.0000      -0.658573       -17.9207
  19   2.0000      -0.627261       -17.0686
  20   2.0000      -0.614380       -16.7181
  21   2.0000      -0.602843       -16.4042
  22   2.0000      -0.596950       -16.2438
  23   2.0000      -0.571174       -15.5424
  24   2.0000      -0.558044       -15.1851
  25   2.0000      -0.516265       -14.0483
  26   2.0000      -0.500847       -13.6287
  27   2.0000      -0.493096       -13.4178
  28   2.0000      -0.453766       -12.3476
  29   2.0000      -0.450323       -12.2539
  30   2.0000      -0.413304       -11.2466
  31   0.0000       0.123492         3.3604
  32   0.0000       0.141455         3.8492
  33   0.0000       0.156115         4.2481
  34   0.0000       0.159516         4.3407
  35   0.0000       0.190325         5.1790

MULLIKEN ATOMIC CHARGES
-----------------------
   0 C :   -0.399195
   1 C :   -0.200037
   2 C :    0.067921
   3 C :   -0.123073
   4 N :   -0.351893
   5 C :    0.334237
   6 O :   -0.324047
   7 O :   -0.249126
   8 H :    0.136763
   9 H :    0.122087
  10 H :    0.155033
  11 H :    0.112358
  12 H :    0.116469
  13 H :    0.099083
  14 H :    0.130359
  15 H :    0.121912
  16 H :    0.251148
Sum of atomic charges:   -0.0000000

LOEWDIN ATOMIC CHARGES
----------------------
   0 C :   -0.312658
   1 C :   -0.276276
   2 C :   -0.277813
   3 C :   -0.255693
   4 N :    0.081555
   5 C :   -0.572851
   6 O :    0.099637
   7 O :    0.258356
   8 H :    0.122917
   9 H :    0.122186
  10 H :    0.129527
  11 H :    0.143889
  12 H :    0.142438
  13 H :    0.144914
  14 H :    0.132784
  15 H :    0.129009
  16 H :    0.188077

  Mayer bond orders larger than 0.1
B(  0-C ,  1-C ) :   0.9291 B(  0-C ,  8-H ) :   0.9392 B(  0-C ,  9-H ) :   0.9357
B(  0-C , 10-H ) :   0.9362 B(  1-C ,  2-C ) :   0.9359 B(  1-C , 11-H ) :   0.9254
B(  1-C , 12-H ) :   0.9204 B(  2-C ,  3-C ) :   0.9187 B(  2-C ,  7-O ) :   0.8907
B(  2-C , 13-H ) :   0.9245 B(  3-C ,  4-N ) :   0.9155 B(  3-C , 14-H ) :   0.9229
B(  3-C , 15-H ) :   0.9322 B(  4-N ,  5-C ) :   1.1110 B(  4-N , 16-H ) :   0.8697
B(  5-C ,  6-O ) :   2.0347 B(  5-C ,  7-O ) :   1.0745

MP2 TOTAL ENERGY:     -400.412216220 Eh
FINAL SINGLE POINT ENERGY      -400.412216220025

DIPOLE MOMENT
-------------
                                X             Y             Z
Electronic contribution:     -6.94892      -4.41728       6.51416
Nuclear contribution   :      7.98858       3.77609      -8.11540
                        -----------------------------------------
Total Dipole Moment    :      1.03966      -0.64119      -1.60123
                        -----------------------------------------
Magnitude (a.u.)       :      2.01394
Magnitude (Debye)      :      5.11903

                             ****ORCA TERMINATED NORMALLY****
TOTAL RUN TIME: 0 days 0 hours 11 minutes 10 seconds 644 msec
