                         Program Version 3.0.3 - RELEASE   -
|  1> ! RI-MP2 RIJK def2-TZVP def2-TZVP/C def2-TZVP/JK TIGHTSCF
|  2> % maxcore 2000
|  3> % mp2 density relaxed end
|  4> *xyz 0 1
|  5>  C        0.0189239505     1.5317496424    -0.0634232447
|  6>  C        0.0420641540    -0.0032228615     0.0571301970
|  7>  C        0.6698124458    -0.4184537260     1.4013008269
|  8>  C       -1.3995747211    -0.5395455384    -0.0070969015
|  9>  O       -2.1522557671     0.0068426444     1.0660789408
| 10>  C        0.8039290437    -0.6394506019    -1.1322033882
| 11>  C        2.2562451681    -0.2473549720    -1.2659848679
| 12>  C        2.9248702783    -0.1963215057    -2.5726492898
| 13>  O        2.5437376990     1.0044535517    -1.9011685311
| 14>  H        1.0263217125     1.9505123176    -0.0033298039
| 15>  H       -0.4083309422     1.8430700097    -1.0229532825
| 16>  H       -0.5900997222     1.9622986387     0.7347737677
| 17>  H        0.0450664643    -0.0752929922     2.2287872433
| 18>  H        0.7598853805    -1.5087355306     1.4774458105
| 19>  H        1.6669512422     0.0125953797     1.5301075838
| 20>  H       -1.8443598252    -0.2645990841    -0.9775153244
| 21>  H       -1.3816985458    -1.6408272469     0.0485712642
| 22>  H       -3.0524139429    -0.3234235591     1.0021493961
| 23>  H        0.7584403939    -1.7342217982    -1.0398253086
| 24>  H        0.2976437089    -0.3773364255    -2.0698179979
| 25>  H        2.8866462697    -0.4466142966    -0.3987356493
| 26>  H        3.9970872533    -0.3748265585    -2.6436413382
| 27>  H        2.3571233319    -0.4280376970    -3.4734607024
| 28> *
| 29>
| 30>                          ****END OF INPUT****

CARTESIAN COORDINATES (ANGSTROEM)
---------------------------------
  C      0.018924    1.531750   -0.063423
  C      0.042064   -0.003223    0.057130
  C      0.669812   -0.418454    1.401301
  C     -1.399575   -0.539546   -0.007097
  O     -2.152256    0.006843    1.066079
  C      0.803929   -0.639451   -1.132203
  C      2.256245   -0.247355   -1.265985
  C      2.924870   -0.196322   -2.572649
  O      2.543738    1.004454   -1.901169
  H      1.026322    1.950512   -0.003330
  H     -0.408331    1.843070   -1.022953
  H     -0.590100    1.962299    0.734774
  H      0.045066   -0.075293    2.228787
  H      0.759885   -1.508736    1.477446
  H      1.666951    0.012595    1.530108
  H     -1.844360   -0.264599   -0.977515
  H     -1.381699   -1.640827    0.048571
  H     -3.052414   -0.323424    1.002149
  H      0.758440   -1.734222   -1.039825
  H      0.297644   -0.377336   -2.069818
  H      2.886646   -0.446614   -0.398736
  H      3.997087   -0.374827   -2.643641
  H      2.357123   -0.428038   -3.473461

 Total Charge           Charge          ....    0
 Multiplicity           Mult            ....    1
 Number of Electrons    NEL             ....   72
 Basis Dimension        Dim             ....  363

ORBITAL ENERGIES
----------------

  NO   OCC          E(Eh)            E(eV)
   0   2.0000     -20.563560      -559.5629
   1   2.0000     -20.555228      -559.3362
   2   2.0000     -11.284735      -307.0732
   3   2.0000     -11.279554      -306.9323
   4   2.0000     -11.273530      -306.7683
   5   2.0000     -11.234610      -305.7093
   6   2.0000     -11.228362      -305.5393
   7   2.0000     -11.205896      -304.9279
   8   2.0000     -11.196830      -304.6812
   9   2.0000      -1.406933       -38.2846
  10   2.0000      -1.360673       -37.0258
  11   2.0000      -1.103872       -30.0379
  12   2.0000      -0.984336       -26.7851
  13   2.0000      -0.924930       -25.1686
  14   2.0000      -0.917090       -24.9553
  15   2.0000      -0.902158       -24.5490
  16   2.0000      -0.818195       -22.2642
  17   2.0000      -0.737054       -20.0563
  18   2.0000      -0.706671       -19.2295
  19   2.0000      -0.681845       -18.5540
  20   2.0000      -0.649692       -17.6790
  21   2.0000      -0.641488       -17.4558
  22   2.0000      -0.598607       -16.2889
  23   2.0000      -0.591804       -16.1038
  24   2.0000      -0.578587       -15.7441
  25   2.0000      -0.543788       -14.7972
  26   2.0000      -0.542307       -14.7569
  27   2.0000      -0.522016       -14.2048
  28   2.0000      -0.515489       -14.0272
  29   2.0000      -0.503473       -13.7002
  30   2.0000      -0.482533       -13.1304
  31   2.0000      -0.464539       -12.6407
  32   2.0000      -0.456166       -12.4129
  33   2.0000      -0.439457       -11.9582
  34   2.0000      -0.435231       -11.8432
  35   2.0000      -0.421022       -11.4566
  36   0.0000       0.129677         3.5287
  37   0.0000       0.153701         4.1824
  38   0.0000       0.163135         4.4391
  39   0.0000       0.173111         4.7106
  40   0.0000       0.177964         4.8427

MULLIKEN ATOMIC CHARGES
-----------------------
   0 C :   -0.427374
   1 C :    0.126150
   2 C :   -0.456159
   3 C :   -0.068774
   4 O :   -0.470122
   5 C :   -0.266438
   6 C :    0.045248
   7 C :   -0.082920
   8 O :   -0.334896
   9 H :    0.145240
  10 H :    0.116605
  11 H :    0.150407
  12 H :    0.159768
  13 H :    0.119943
  14 H :    0.133705
  15 H :    0.100306
  16 H :    0.096256
  17 H :    0.315246
  18 H :    0.117617
  19 H :    0.122738
  20 H :    0.131730
  21 H :    0.113503
  22 H :    0.112222
Sum of atomic charges:   -0.0000000

LOEWDIN ATOMIC CHARGES
----------------------
   0 C :   -0.264920
   1 C :   -0.330594
   2 C :   -0.270505
   3 C :   -0.312390
   4 O :   -0.040857
   5 C :   -0.213977
   6 C :   -0.289533
   7 C :   -0.270244
   8 O :    0.140993
   9 H :    0.128551
  10 H :    0.126080
  11 H :    0.129254
  12 H :    0.132610
  13 H :    0.123752
  14 H :    0.123351
  15 H :    0.119867
  16 H :    0.118638
  17 H :    0.173023
  18 H :    0.149735
  19 H :    0.150770
  20 H :    0.138756
  21 H :    0.118337
  22 H :    0.119302

  Mayer bond orders larger than 0.1
B(  0-C ,  1-C ) :   0.9349 B(  0-C ,  9-H ) :   0.9297 B(  0-C , 10-H ) :   0.9298
B(  0-C , 11-H ) :   0.9297 B(  1-C ,  2-C ) :   0.9078 B(  1-C ,  3-C ) :   0.9045
B(  1-C ,  5-C ) :   0.9004 B(  2-C , 12-H ) :   0.9307 B(  2-C , 13-H ) :   0.9321
B(  2-C , 14-H ) :   0.9383 B(  3-C ,  4-O ) :   1.0291 B(  3-C , 15-H ) :   0.9273
B(  3-C , 16-H ) :   0.9245 B(  4-O , 17-H ) :   0.8472 B(  5-C ,  6-C ) :   0.9207
B(  5-C , 18-H ) :   0.9220 B(  5-C , 19-H ) :   0.9277 B(  6-C ,  7-C ) :   0.9741
B(  6-C ,  8-O ) :   0.8498 B(  6-C , 20-H ) :   0.9227 B(  7-C ,  8-O ) :   0.9290
B(  7-C , 21-H ) :   0.9211 B(  7-C , 22-H ) :   0.9075

MP2 TOTAL ENERGY:     -424.704794739 Eh
FINAL SINGLE POINT ENERGY      -424.704794738748

DIPOLE MOMENT
-------------
                                X             Y             Z
Electronic contribution:      1.28981       1.13622      -2.17231
Nuclear contribution   :     -1.63329      -2.17382       1.83715
                        -----------------------------------------
Total Dipole Moment    :     -0.34348      -1.03761      -0.33517
                        -----------------------------------------
Magnitude (a.u.)       :      1.14322
Magnitude (Debye)      :      2.90583

                             ****ORCA TERMINATED NORMALLY****
TOTAL RUN TIME: 0 days 0 hours 19 minutes 54 seconds 134 msec
