                         Program Version 3.0.3 - RELEASE   -
|  1> ! RI-MP2 RIJK def2-TZVP def2-TZVP/C def2-TZVP/JK TIGHTSCF
|  2> % maxcore 2000
|  3> % mp2 density relaxed end
|  4> *xyz 0 1
|  5>  C       -0.7337933344     1.3499555001     0.1593448760
|  6>  C       -0.0294951217    -0.0006475633     0.0503218690
|  7>  C        0.8021233784    -0.2381705139    -1.2334518058
|  8>  C        1.8797669789     0.8033734282    -1.5866581921
|  9>  O        2.9085243732     0.0289378139    -0.9160096068
| 10>  C        2.0056111278    -1.1130012488    -0.7799511815
| 11>  C        1.7787379906    -1.4899667297     0.6784406565
| 12>  C        0.9440404156    -0.3151709016     1.2236956362
| 13>  O        1.7657532754     0.7880907747     1.5811303976
| 14>  H       -0.0125748982     2.1619464424     0.2758443194
| 15>  H       -1.3509056951     1.5511993110    -0.7226999909
| 16>  H       -1.3888391904     1.3726246987     1.0363463902
| 17>  H       -0.7929308976    -0.7912471646     0.0682940550
| 18>  H        0.1944160638    -0.5849482117    -2.0703454095
| 19>  H        2.0880264099     0.8842438686    -2.6607253715
| 20>  H        1.7831016617     1.8077524585    -1.1635570293
| 21>  H        2.3222350445    -1.9371483084    -1.4273102351
| 22>  H        1.2108418275    -2.4269202058     0.7265203706
| 23>  H        2.7127696624    -1.6290953719     1.2305120348
| 24>  H        0.3865541635    -0.5802348186     2.1278028649
| 25>  H        2.4903673443     0.8088776323     0.9403692625
| 26> *
| 27>
| 28>                          ****END OF INPUT****

CARTESIAN COORDINATES (ANGSTROEM)
---------------------------------
  C     -0.733793    1.349956    0.159345
  C     -0.029495   -0.000648    0.050322
  C      0.802123   -0.238171   -1.233452
  C      1.879767    0.803373   -1.586658
  O      2.908524    0.028938   -0.916010
  C      2.005611   -1.113001   -0.779951
  C      1.778738   -1.489967    0.678441
  C      0.944040   -0.315171    1.223696
  O      1.765753    0.788091    1.581130
  H     -0.012575    2.161946    0.275844
  H     -1.350906    1.551199   -0.722700
  H     -1.388839    1.372625    1.036346
  H     -0.792931   -0.791247    0.068294
  H      0.194416   -0.584948   -2.070345
  H      2.088026    0.884244   -2.660725
  H      1.783102    1.807752   -1.163557
  H      2.322235   -1.937148   -1.427310
  H      1.210842   -2.426920    0.726520
  H      2.712770   -1.629095    1.230512
  H      0.386554   -0.580235    2.127803
  H      2.490367    0.808878    0.940369

 Total Charge           Charge          ....    0
 Multiplicity           Mult            ....    1
 Number of Electrons    NEL             ....   70
 Basis Dimension        Dim             ....  351

ORBITAL ENERGIES
----------------

  NO   OCC          E(Eh)            E(eV)
   0   2.0000     -20.557084      -559.3867
   1   2.0000     -20.538956      -558.8934
   2   2.0000     -11.287840      -307.1577
   3   2.0000     -11.282472      -307.0117
   4   2.0000     -11.275541      -306.8231
   5   2.0000     -11.236986      -305.7739
   6   2.0000     -11.231559      -305.6263
   7   2.0000     -11.225616      -305.4645
   8   2.0000     -11.213055      -305.1227
   9   2.0000      -1.386912       -37.7398
  10   2.0000      -1.346636       -36.6438
  11   2.0000      -1.110195       -30.2099
  12   2.0000      -1.021052       -27.7842
  13   2.0000      -0.979515       -26.6540
  14   2.0000      -0.910600       -24.7787
  15   2.0000      -0.872721       -23.7479
  16   2.0000      -0.793263       -21.5858
  17   2.0000      -0.733014       -19.9463
  18   2.0000      -0.717631       -19.5277
  19   2.0000      -0.656934       -17.8761
  20   2.0000      -0.635789       -17.3007
  21   2.0000      -0.630594       -17.1593
  22   2.0000      -0.608840       -16.5674
  23   2.0000      -0.599299       -16.3077
  24   2.0000      -0.577061       -15.7026
  25   2.0000      -0.570132       -15.5141
  26   2.0000      -0.532007       -14.4767
  27   2.0000      -0.514152       -13.9908
  28   2.0000      -0.509567       -13.8660
  29   2.0000      -0.498017       -13.5517
  30   2.0000      -0.468743       -12.7551
  31   2.0000      -0.450304       -12.2534
  32   2.0000      -0.443142       -12.0585
  33   2.0000      -0.420804       -11.4507
  34   2.0000      -0.411787       -11.2053
  35   0.0000       0.127603         3.4723
  36   0.0000       0.151279         4.1165
  37   0.0000       0.164598         4.4789
  38   0.0000       0.170522         4.6401
  39   0.0000       0.190050         5.1715

MULLIKEN ATOMIC CHARGES
-----------------------
   0 C :   -0.411641
   1 C :   -0.062699
   2 C :   -0.106450
   3 C :   -0.081835
   4 O :   -0.369124
   5 C :    0.051418
   6 C :   -0.248616
   7 C :    0.060212
   8 O :   -0.485634
   9 H :    0.137744
  10 H :    0.130988
  11 H :    0.132127
  12 H :    0.091878
  13 H :    0.126504
  14 H :    0.107513
  15 H :    0.124338
  16 H :    0.106581
  17 H :    0.116119
  18 H :    0.141525
  19 H :    0.105253
  20 H :    0.333799
Sum of atomic charges:   -0.0000000

LOEWDIN ATOMIC CHARGES
----------------------
   0 C :   -0.292546
   1 C :   -0.240518
   2 C :   -0.187562
   3 C :   -0.254816
   4 O :    0.114510
   5 C :   -0.240574
   6 C :   -0.229134
   7 C :   -0.308322
   8 O :   -0.017595
   9 H :    0.125798
  10 H :    0.123230
  11 H :    0.127118
  12 H :    0.158661
  13 H :    0.142319
  14 H :    0.120390
  15 H :    0.120283
  16 H :    0.132316
  17 H :    0.147970
  18 H :    0.145737
  19 H :    0.139678
  20 H :    0.173059

  Mayer bond orders larger than 0.1
B(  0-C ,  1-C ) :   0.8958 B(  0-C ,  9-H ) :   0.9313 B(  0-C , 10-H ) :   0.9429
B(  0-C , 11-H ) :   0.9372 B(  1-C ,  2-C ) :   0.9515 B(  1-C ,  7-C ) :   0.8892
B(  1-C , 12-H ) :   0.9216 B(  2-C ,  3-C ) :   0.9499 B(  2-C ,  5-C ) :   0.9292
B(  2-C , 13-H ) :   0.9152 B(  3-C ,  4-O ) :   0.8786 B(  3-C , 14-H ) :   0.9174
B(  3-C , 15-H ) :   0.9234 B(  4-O ,  5-C ) :   0.8938 B(  5-C ,  6-C ) :   0.9537
B(  5-C , 16-H ) :   0.9268 B(  6-C ,  7-C ) :   0.9364 B(  6-C , 17-H ) :   0.9137
B(  6-C , 18-H ) :   0.9162 B(  7-C ,  8-O ) :   0.9505 B(  7-C , 19-H ) :   0.9348
B(  8-O , 20-H ) :   0.8089

MP2 TOTAL ENERGY:     -423.527824355 Eh
FINAL SINGLE POINT ENERGY      -423.527824354502

DIPOLE MOMENT
-------------
                                X             Y             Z
Electronic contribution:      4.72344      -1.03846       0.05741
Nuclear contribution   :     -5.35707       0.46363      -0.74520
                        -----------------------------------------
Total Dipole Moment    :     -0.63363      -0.57483      -0.68779
                        -----------------------------------------
Magnitude (a.u.)       :      1.09771
Magnitude (Debye)      :      2.79016

                             ****ORCA TERMINATED NORMALLY****
TOTAL RUN TIME: 0 days 0 hours 19 minutes 43 seconds 741 msec
