                         Program Version 3.0.3 - RELEASE   -
|  1> ! RI-MP2 RIJK def2-TZVP def2-TZVP/C def2-TZVP/JK TIGHTSCF
|  2> % maxcore 2000
|  3> % mp2 density relaxed end
|  4> *xyz 0 1
|  5>  N        0.2902927119     1.4067586454    -0.0859657333
|  6>  C        0.1135686885     0.0245418371    -0.0709360910
|  7>  C       -1.0092899963    -0.7452002377    -0.0328893998
|  8>  O       -0.6773540484    -2.0551189576     0.0613107016
|  9>  N        0.6946956715    -2.1716510599     0.0786265134
| 10>  C        1.1629133219    -0.9468173857     0.0101409986
| 11>  C        2.6422953273    -0.6871332033     0.0202786901
| 12>  C        3.0946610577    -0.1386925507    -1.3278766503
| 13>  O        2.8184340015     0.9689870749    -1.7210254118
| 14>  H        1.0899571179     1.6817803657    -0.6476663327
| 15>  H       -0.5357006202     1.9185470802    -0.3636487155
| 16>  H       -2.0642974316    -0.5252886754    -0.0559273606
| 17>  H        2.8766052360     0.0669993985     0.7814870210
| 18>  H        3.1698650605    -1.6139060309     0.2551034523
| 19>  H        3.6893931618    -0.8294525906    -1.9607098220
| 20> *
| 21>
| 22>                          ****END OF INPUT****

CARTESIAN COORDINATES (ANGSTROEM)
---------------------------------
  N      0.290293    1.406759   -0.085966
  C      0.113569    0.024542   -0.070936
  C     -1.009290   -0.745200   -0.032889
  O     -0.677354   -2.055119    0.061311
  N      0.694696   -2.171651    0.078627
  C      1.162913   -0.946817    0.010141
  C      2.642295   -0.687133    0.020279
  C      3.094661   -0.138693   -1.327877
  O      2.818434    0.968987   -1.721025
  H      1.089957    1.681780   -0.647666
  H     -0.535701    1.918547   -0.363649
  H     -2.064297   -0.525289   -0.055927
  H      2.876605    0.066999    0.781487
  H      3.169865   -1.613906    0.255103
  H      3.689393   -0.829453   -1.960710

 Total Charge           Charge          ....    0
 Multiplicity           Mult            ....    1
 Number of Electrons    NEL             ....   66
 Basis Dimension        Dim             ....  315

ORBITAL ENERGIES
----------------

  NO   OCC          E(Eh)            E(eV)
   0   2.0000     -20.639752      -561.6362
   1   2.0000     -20.582181      -560.0696
   2   2.0000     -15.626882      -425.2291
   3   2.0000     -15.567430      -423.6113
   4   2.0000     -11.359672      -309.1124
   5   2.0000     -11.296218      -307.3857
   6   2.0000     -11.292531      -307.2854
   7   2.0000     -11.279441      -306.9292
   8   2.0000     -11.270395      -306.6830
   9   2.0000      -1.492215       -40.6052
  10   2.0000      -1.421997       -38.6945
  11   2.0000      -1.225803       -33.3558
  12   2.0000      -1.171083       -31.8668
  13   2.0000      -1.053197       -28.6589
  14   2.0000      -1.027179       -27.9510
  15   2.0000      -0.847243       -23.0546
  16   2.0000      -0.829453       -22.5706
  17   2.0000      -0.779839       -21.2205
  18   2.0000      -0.723741       -19.6940
  19   2.0000      -0.701216       -19.0811
  20   2.0000      -0.682140       -18.5620
  21   2.0000      -0.665938       -18.1211
  22   2.0000      -0.643862       -17.5204
  23   2.0000      -0.639022       -17.3887
  24   2.0000      -0.603610       -16.4251
  25   2.0000      -0.577431       -15.7127
  26   2.0000      -0.550670       -14.9845
  27   2.0000      -0.528430       -14.3793
  28   2.0000      -0.504681       -13.7331
  29   2.0000      -0.480555       -13.0766
  30   2.0000      -0.459567       -12.5055
  31   2.0000      -0.399452       -10.8696
  32   2.0000      -0.326062        -8.8726
  33   0.0000       0.098445         2.6788
  34   0.0000       0.124292         3.3822
  35   0.0000       0.135158         3.6778
  36   0.0000       0.153080         4.1655
  37   0.0000       0.169640         4.6162

MULLIKEN ATOMIC CHARGES
-----------------------
   0 N :   -0.531676
   1 C :    0.063803
   2 C :   -0.059444
   3 O :   -0.108035
   4 N :   -0.122739
   5 C :    0.063660
   6 C :   -0.231664
   7 C :    0.134351
   8 O :   -0.298775
   9 H :    0.272594
  10 H :    0.243270
  11 H :    0.155055
  12 H :    0.158322
  13 H :    0.151772
  14 H :    0.109505
Sum of atomic charges:    0.0000000

LOEWDIN ATOMIC CHARGES
----------------------
   0 N :   -0.077078
   1 C :   -0.272311
   2 C :   -0.256232
   3 O :    0.267244
   4 N :    0.046492
   5 C :   -0.266885
   6 C :   -0.220226
   7 C :   -0.265117
   8 O :    0.127254
   9 H :    0.171126
  10 H :    0.169168
  11 H :    0.135496
  12 H :    0.165482
  13 H :    0.157786
  14 H :    0.117799

  Mayer bond orders larger than 0.1
B(  0-N ,  1-C ) :   1.0403 B(  0-N ,  9-H ) :   0.8500 B(  0-N , 10-H ) :   0.8800
B(  1-C ,  2-C ) :   1.5055 B(  1-C ,  5-C ) :   1.1867 B(  2-C ,  3-O ) :   1.0789
B(  2-C ,  4-N ) :   0.1074 B(  2-C , 11-H ) :   0.9253 B(  3-O ,  4-N ) :   0.9087
B(  4-N ,  5-C ) :   1.5791 B(  5-C ,  6-C ) :   0.8939 B(  6-C ,  7-C ) :   0.8736
B(  6-C , 12-H ) :   0.9104 B(  6-C , 13-H ) :   0.9237 B(  7-C ,  8-O ) :   1.8981
B(  7-C , 14-H ) :   0.9271

MP2 TOTAL ENERGY:     -453.198311023 Eh
FINAL SINGLE POINT ENERGY      -453.198311022572

DIPOLE MOMENT
-------------
                                X             Y             Z
Electronic contribution:     -1.88199      -2.61394      -0.28638
Nuclear contribution   :      1.97932       3.21271       0.15243
                        -----------------------------------------
Total Dipole Moment    :      0.09733       0.59878      -0.13395
                        -----------------------------------------
Magnitude (a.u.)       :      0.62125
Magnitude (Debye)      :      1.57909

                             ****ORCA TERMINATED NORMALLY****
TOTAL RUN TIME: 0 days 0 hours 16 minutes 28 seconds 827 msec
