                         Program Version 3.0.3 - RELEASE   -
|  1> ! RI-MP2 RIJK def2-TZVP def2-TZVP/C def2-TZVP/JK TIGHTSCF
|  2> % maxcore 2000
|  3> % mp2 density relaxed end
|  4> *xyz 0 1
|  5>  C        0.0409915783     1.5267007640     0.0120489115
|  6>  C       -0.0080345033    -0.0060164742     0.0047945015
|  7>  O       -1.3681048369    -0.4520861465    -0.0434612213
|  8>  C        0.7256939252    -0.6330197193    -1.2110250330
|  9>  C        1.9294171146    -1.3408839348    -0.6189326556
| 10>  C        1.7987913649    -1.3231329834     0.8386183934
| 11>  C        0.7312182810    -0.5989764767     1.1925552999
| 12>  N        2.8528905937    -1.8297993742    -1.3548861687
| 13>  O        3.8640556606    -2.4308117833    -0.5824977604
| 14>  H        1.0723937666     1.8893207100    -0.0308359375
| 15>  H       -0.5083347332     1.9211115758    -0.8482439012
| 16>  H       -0.4149014918     1.9283292064     0.9254915082
| 17>  H       -1.8487070604    -0.0199534957     0.6711504476
| 18>  H        0.0500932167    -1.3501796276    -1.6849754430
| 19>  H        1.0111928433     0.1051647784    -1.9634627095
| 20>  H        2.4915998258    -1.8276068548     1.4969464930
| 21>  H        0.4008359486    -0.4168107254     2.2107567555
| 22>  H        4.4688556763    -2.7513618387    -1.2592243004
| 23> *
| 24>
| 25>                          ****END OF INPUT****

CARTESIAN COORDINATES (ANGSTROEM)
---------------------------------
  C      0.040992    1.526701    0.012049
  C     -0.008035   -0.006016    0.004795
  O     -1.368105   -0.452086   -0.043461
  C      0.725694   -0.633020   -1.211025
  C      1.929417   -1.340884   -0.618933
  C      1.798791   -1.323133    0.838618
  C      0.731218   -0.598976    1.192555
  N      2.852891   -1.829799   -1.354886
  O      3.864056   -2.430812   -0.582498
  H      1.072394    1.889321   -0.030836
  H     -0.508335    1.921112   -0.848244
  H     -0.414901    1.928329    0.925492
  H     -1.848707   -0.019953    0.671150
  H      0.050093   -1.350180   -1.684975
  H      1.011193    0.105165   -1.963463
  H      2.491600   -1.827607    1.496946
  H      0.400836   -0.416811    2.210757
  H      4.468856   -2.751362   -1.259224

 Total Charge           Charge          ....    0
 Multiplicity           Mult            ....    1
 Number of Electrons    NEL             ....   68
 Basis Dimension        Dim             ....  333

ORBITAL ENERGIES
----------------

  NO   OCC          E(Eh)            E(eV)
   0   2.0000     -20.584684      -560.1377
   1   2.0000     -20.564774      -559.5959
   2   2.0000     -15.606337      -424.6700
   3   2.0000     -11.305608      -307.6412
   4   2.0000     -11.277381      -306.8731
   5   2.0000     -11.252928      -306.2078
   6   2.0000     -11.242983      -305.9371
   7   2.0000     -11.233022      -305.6661
   8   2.0000     -11.231216      -305.6169
   9   2.0000      -1.410417       -38.3794
  10   2.0000      -1.372583       -37.3499
  11   2.0000      -1.181410       -32.1478
  12   2.0000      -1.101661       -29.9777
  13   2.0000      -1.012951       -27.5638
  14   2.0000      -0.962461       -26.1899
  15   2.0000      -0.869794       -23.6683
  16   2.0000      -0.778021       -21.1710
  17   2.0000      -0.747993       -20.3539
  18   2.0000      -0.695174       -18.9166
  19   2.0000      -0.685052       -18.6412
  20   2.0000      -0.663130       -18.0447
  21   2.0000      -0.626170       -17.0390
  22   2.0000      -0.605746       -16.4832
  23   2.0000      -0.592141       -16.1130
  24   2.0000      -0.582254       -15.8439
  25   2.0000      -0.558642       -15.2014
  26   2.0000      -0.549484       -14.9522
  27   2.0000      -0.534679       -14.5494
  28   2.0000      -0.527301       -14.3486
  29   2.0000      -0.482207       -13.1215
  30   2.0000      -0.453426       -12.3383
  31   2.0000      -0.432984       -11.7821
  32   2.0000      -0.426939       -11.6176
  33   2.0000      -0.342993        -9.3333
  34   0.0000       0.099105         2.6968
  35   0.0000       0.122510         3.3337
  36   0.0000       0.155527         4.2321
  37   0.0000       0.166494         4.5305
  38   0.0000       0.179437         4.8827

MULLIKEN ATOMIC CHARGES
-----------------------
   0 C :   -0.453315
   1 C :    0.320331
   2 O :   -0.462982
   3 C :   -0.193494
   4 C :    0.000439
   5 C :   -0.181858
   6 C :   -0.199106
   7 N :   -0.080493
   8 O :   -0.369704
   9 H :    0.142001
  10 H :    0.151242
  11 H :    0.121128
  12 H :    0.311905
  13 H :    0.140750
  14 H :    0.135131
  15 H :    0.149063
  16 H :    0.132675
  17 H :    0.336285
Sum of atomic charges:   -0.0000000

LOEWDIN ATOMIC CHARGES
----------------------
   0 C :   -0.276185
   1 C :   -0.369534
   2 O :    0.002781
   3 C :   -0.150473
   4 C :   -0.275489
   5 C :   -0.111130
   6 C :   -0.090483
   7 N :    0.024906
   8 O :   -0.079387
   9 H :    0.132877
  10 H :    0.130197
  11 H :    0.122623
  12 H :    0.173759
  13 H :    0.158970
  14 H :    0.148592
  15 H :    0.148750
  16 H :    0.140139
  17 H :    0.169089

  Mayer bond orders larger than 0.1
B(  0-C ,  1-C ) :   0.9183 B(  0-C ,  9-H ) :   0.9274 B(  0-C , 10-H ) :   0.9389
B(  0-C , 11-H ) :   0.9238 B(  1-C ,  2-O ) :   0.9457 B(  1-C ,  3-C ) :   0.8881
B(  1-C ,  6-C ) :   0.9185 B(  2-O , 12-H ) :   0.8429 B(  3-C ,  4-C ) :   0.9743
B(  3-C , 13-H ) :   0.8942 B(  3-C , 14-H ) :   0.9143 B(  4-C ,  5-C ) :   1.0104
B(  4-C ,  7-N ) :   1.8598 B(  5-C ,  6-C ) :   1.6726 B(  5-C , 15-H ) :   0.9248
B(  6-C , 16-H ) :   0.8999 B(  7-N ,  8-O ) :   0.7974 B(  8-O , 17-H ) :   0.8446

MP2 TOTAL ENERGY:     -438.336002697 Eh
FINAL SINGLE POINT ENERGY      -438.336002697138

DIPOLE MOMENT
-------------
                                X             Y             Z
Electronic contribution:      3.52612      -5.57723      -0.74597
Nuclear contribution   :     -3.59918       6.18018       1.32188
                        -----------------------------------------
Total Dipole Moment    :     -0.07307       0.60295       0.57591
                        -----------------------------------------
Magnitude (a.u.)       :      0.83700
Magnitude (Debye)      :      2.12748

                             ****ORCA TERMINATED NORMALLY****
TOTAL RUN TIME: 0 days 0 hours 17 minutes 26 seconds 836 msec
