                         Program Version 3.0.3 - RELEASE   -
|  1> ! RI-MP2 RIJK def2-TZVP def2-TZVP/C def2-TZVP/JK TIGHTSCF
|  2> % maxcore 2000
|  3> % mp2 density relaxed end
|  4> *xyz 0 1
|  5>  O       -0.0447738755     1.4802678487    -0.0129945666
|  6>  C        0.0246240385     0.0663912535     0.0262477159
|  7>  C       -1.3645685395    -0.5779114489     0.0113989151
|  8>  C       -1.3356087633    -2.1236307313    -0.0580506862
|  9>  C       -0.6716416057    -2.6860826545     1.1228390334
| 10>  N       -0.1781908942    -3.1237073166     2.0726561304
| 11>  C       -2.7423358970    -2.7016223441    -0.2274783281
| 12>  C       -3.0967694410    -4.0797030036     0.1835017569
| 13>  N       -3.6385218076    -2.9157699532     0.9124187688
| 14>  H       -0.3865931219     1.7859056311     0.8332172939
| 15>  H        0.5796779364    -0.2295217316    -0.8716465285
| 16>  H        0.6005567848    -0.2879664418     0.8938376433
| 17>  H       -1.9289720824    -0.2703108931     0.9001550239
| 18>  H       -1.9140994478    -0.2083172745    -0.8604932668
| 19>  H       -0.7421689160    -2.4187056518    -0.9350377503
| 20>  H       -3.2429206096    -2.2791381125    -1.0966542105
| 21>  H       -3.8259936335    -4.6421940573    -0.3918847649
| 22>  H       -2.3339722953    -4.6806895262     0.6705089643
| 23>  H       -3.1296888291    -2.8042159525     1.7880357459
| 24> *
| 25>
| 26>                          ****END OF INPUT****

CARTESIAN COORDINATES (ANGSTROEM)
---------------------------------
  O     -0.044774    1.480268   -0.012995
  C      0.024624    0.066391    0.026248
  C     -1.364569   -0.577911    0.011399
  C     -1.335609   -2.123631   -0.058051
  C     -0.671642   -2.686083    1.122839
  N     -0.178191   -3.123707    2.072656
  C     -2.742336   -2.701622   -0.227478
  C     -3.096769   -4.079703    0.183502
  N     -3.638522   -2.915770    0.912419
  H     -0.386593    1.785906    0.833217
  H      0.579678   -0.229522   -0.871647
  H      0.600557   -0.287966    0.893838
  H     -1.928972   -0.270311    0.900155
  H     -1.914099   -0.208317   -0.860493
  H     -0.742169   -2.418706   -0.935038
  H     -3.242921   -2.279138   -1.096654
  H     -3.825994   -4.642194   -0.391885
  H     -2.333972   -4.680690    0.670509
  H     -3.129689   -2.804216    1.788036

 Total Charge           Charge          ....    0
 Multiplicity           Mult            ....    1
 Number of Electrons    NEL             ....   68
 Basis Dimension        Dim             ....  339

ORBITAL ENERGIES
----------------

  NO   OCC          E(Eh)            E(eV)
   0   2.0000     -20.569601      -559.7273
   1   2.0000     -15.584150      -424.0663
   2   2.0000     -15.573258      -423.7699
   3   2.0000     -11.302485      -307.5563
   4   2.0000     -11.293023      -307.2988
   5   2.0000     -11.288569      -307.1776
   6   2.0000     -11.286060      -307.1093
   7   2.0000     -11.269180      -306.6500
   8   2.0000     -11.256821      -306.3137
   9   2.0000      -1.374650       -37.4061
  10   2.0000      -1.283383       -34.9226
  11   2.0000      -1.232566       -33.5398
  12   2.0000      -1.111595       -30.2480
  13   2.0000      -0.987905       -26.8823
  14   2.0000      -0.905278       -24.6339
  15   2.0000      -0.860994       -23.4289
  16   2.0000      -0.845574       -23.0092
  17   2.0000      -0.728018       -19.8104
  18   2.0000      -0.708064       -19.2674
  19   2.0000      -0.697312       -18.9748
  20   2.0000      -0.658453       -17.9174
  21   2.0000      -0.633645       -17.2424
  22   2.0000      -0.615832       -16.7576
  23   2.0000      -0.581295       -15.8178
  24   2.0000      -0.563527       -15.3343
  25   2.0000      -0.556678       -15.1480
  26   2.0000      -0.541898       -14.7458
  27   2.0000      -0.507597       -13.8124
  28   2.0000      -0.497094       -13.5266
  29   2.0000      -0.495589       -13.4857
  30   2.0000      -0.482013       -13.1163
  31   2.0000      -0.466631       -12.6977
  32   2.0000      -0.447579       -12.1792
  33   2.0000      -0.405979       -11.0473
  34   0.0000       0.119207         3.2438
  35   0.0000       0.130294         3.5455
  36   0.0000       0.150348         4.0912
  37   0.0000       0.158632         4.3166
  38   0.0000       0.164314         4.4712

MULLIKEN ATOMIC CHARGES
-----------------------
   0 O :   -0.464771
   1 C :   -0.046435
   2 C :   -0.245029
   3 C :    0.059676
   4 C :   -0.277270
   5 N :   -0.039824
   6 C :   -0.055925
   7 C :   -0.175089
   8 N :   -0.367117
   9 H :    0.318117
  10 H :    0.112891
  11 H :    0.135935
  12 H :    0.123457
  13 H :    0.137892
  14 H :    0.138960
  15 H :    0.132237
  16 H :    0.129523
  17 H :    0.151864
  18 H :    0.230908
Sum of atomic charges:   -0.0000000

LOEWDIN ATOMIC CHARGES
----------------------
   0 O :   -0.042873
   1 C :   -0.346126
   2 C :   -0.234869
   3 C :   -0.232551
   4 C :   -0.182073
   5 N :    0.065971
   6 C :   -0.252770
   7 C :   -0.253865
   8 N :   -0.005724
   9 H :    0.175977
  10 H :    0.130858
  11 H :    0.124187
  12 H :    0.144155
  13 H :    0.148402
  14 H :    0.183970
  15 H :    0.149801
  16 H :    0.126937
  17 H :    0.130326
  18 H :    0.170268

  Mayer bond orders larger than 0.1
B(  0-O ,  1-C ) :   0.9370 B(  0-O ,  9-H ) :   0.8461 B(  1-C ,  2-C ) :   0.9207
B(  1-C , 10-H ) :   0.9167 B(  1-C , 11-H ) :   0.9444 B(  2-C ,  3-C ) :   0.8751
B(  2-C , 12-H ) :   0.9106 B(  2-C , 13-H ) :   0.9252 B(  3-C ,  4-C ) :   0.8788
B(  3-C ,  6-C ) :   0.9030 B(  3-C , 14-H ) :   0.8992 B(  4-C ,  5-N ) :   2.8628
B(  6-C ,  7-C ) :   0.9437 B(  6-C ,  8-N ) :   0.9245 B(  6-C , 15-H ) :   0.9144
B(  7-C ,  8-N ) :   0.9212 B(  7-C , 16-H ) :   0.9242 B(  7-C , 17-H ) :   0.9116
B(  8-N , 18-H ) :   0.8760

MP2 TOTAL ENERGY:     -418.485928596 Eh
FINAL SINGLE POINT ENERGY      -418.485928595599

DIPOLE MOMENT
-------------
                                X             Y             Z
Electronic contribution:      1.62599      -1.43637       2.56789
Nuclear contribution   :     -1.84197       1.53195      -3.23151
                        -----------------------------------------
Total Dipole Moment    :     -0.21598       0.09558      -0.66362
                        -----------------------------------------
Magnitude (a.u.)       :      0.70440
Magnitude (Debye)      :      1.79044

                             ****ORCA TERMINATED NORMALLY****
TOTAL RUN TIME: 0 days 0 hours 16 minutes 48 seconds 7 msec
