                         Program Version 3.0.3 - RELEASE   -
|  1> ! RI-MP2 RIJK def2-TZVP def2-TZVP/C def2-TZVP/JK TIGHTSCF
|  2> % maxcore 2000
|  3> % mp2 density relaxed end
|  4> *xyz 0 1
|  5>  C       -0.6515890100     1.2938282276    -0.0488865602
|  6>  C       -0.1189070543    -0.1185133357    -0.0104022909
|  7>  C        1.2976556632    -0.4648058232    -0.3574827596
|  8>  O        2.2295782311     0.5301137499    -0.6947643988
|  9>  C        2.7307946635     1.4030356974     0.2252983715
| 10>  N        3.5207117479     2.2913227091    -0.2310723285
| 11>  C        2.3386861017     1.2290750729     1.6312606064
| 12>  C        1.4809421176     0.2851260078     2.0348417305
| 13>  C        0.8506912814    -0.6331633565     1.0746809236
| 14>  H       -0.9009541564     1.5749825710    -1.0771212132
| 15>  H       -1.5602336982     1.3807759383     0.5554858276
| 16>  H        0.0690871302     2.0225238085     0.3256938702
| 17>  H       -0.8386436934    -0.8728834883    -0.3185493837
| 18>  H        1.4882236374    -1.3460367718    -0.9600651235
| 19>  H        3.8446497576     2.8849322421     0.5305689109
| 20>  H        2.8087608002     1.9050248607     2.3371859536
| 21>  H        1.2463606972     0.1704205418     3.0894529902
| 22>  H        0.6669639233    -1.6397095715     1.4367236239
| 23> *
| 24>
| 25>                          ****END OF INPUT****

CARTESIAN COORDINATES (ANGSTROEM)
---------------------------------
  C     -0.651589    1.293828   -0.048887
  C     -0.118907   -0.118513   -0.010402
  C      1.297656   -0.464806   -0.357483
  O      2.229578    0.530114   -0.694764
  C      2.730795    1.403036    0.225298
  N      3.520712    2.291323   -0.231072
  C      2.338686    1.229075    1.631261
  C      1.480942    0.285126    2.034842
  C      0.850691   -0.633163    1.074681
  H     -0.900954    1.574983   -1.077121
  H     -1.560234    1.380776    0.555486
  H      0.069087    2.022524    0.325694
  H     -0.838644   -0.872883   -0.318549
  H      1.488224   -1.346037   -0.960065
  H      3.844650    2.884932    0.530569
  H      2.808761    1.905025    2.337186
  H      1.246361    0.170421    3.089453
  H      0.666964   -1.639710    1.436724

 Total Charge           Charge          ....    0
 Multiplicity           Mult            ....    1
 Number of Electrons    NEL             ....   66
 Basis Dimension        Dim             ....  333

ORBITAL ENERGIES
----------------

  NO   OCC          E(Eh)            E(eV)
   0   2.0000     -20.589150      -560.2592
   1   2.0000     -15.528477      -422.5513
   2   2.0000     -11.339121      -308.5532
   3   2.0000     -11.301835      -307.5386
   4   2.0000     -11.267922      -306.6158
   5   2.0000     -11.253909      -306.2344
   6   2.0000     -11.252163      -306.1869
   7   2.0000     -11.249091      -306.1033
   8   2.0000     -11.226364      -305.4849
   9   2.0000      -1.426528       -38.8178
  10   2.0000      -1.199878       -32.6503
  11   2.0000      -1.166005       -31.7286
  12   2.0000      -1.071712       -29.1628
  13   2.0000      -0.980599       -26.6834
  14   2.0000      -0.893155       -24.3040
  15   2.0000      -0.870898       -23.6983
  16   2.0000      -0.786115       -21.3913
  17   2.0000      -0.724931       -19.7264
  18   2.0000      -0.709950       -19.3187
  19   2.0000      -0.672363       -18.2959
  20   2.0000      -0.660529       -17.9739
  21   2.0000      -0.624999       -17.0071
  22   2.0000      -0.607118       -16.5205
  23   2.0000      -0.579727       -15.7752
  24   2.0000      -0.569888       -15.5074
  25   2.0000      -0.549011       -14.9394
  26   2.0000      -0.540301       -14.7023
  27   2.0000      -0.508916       -13.8483
  28   2.0000      -0.474285       -12.9059
  29   2.0000      -0.445281       -12.1167
  30   2.0000      -0.423228       -11.5166
  31   2.0000      -0.387529       -10.5452
  32   2.0000      -0.346934        -9.4405
  33   0.0000       0.095019         2.5856
  34   0.0000       0.130982         3.5642
  35   0.0000       0.150786         4.1031
  36   0.0000       0.160886         4.3779
  37   0.0000       0.172534         4.6949

MULLIKEN ATOMIC CHARGES
-----------------------
   0 C :   -0.375417
   1 C :   -0.137397
   2 C :    0.043416
   3 O :   -0.224782
   4 C :    0.171072
   5 N :   -0.313584
   6 C :   -0.238624
   7 C :   -0.171553
   8 C :   -0.065448
   9 H :    0.143659
  10 H :    0.134495
  11 H :    0.145424
  12 H :    0.124547
  13 H :    0.139917
  14 H :    0.215733
  15 H :    0.134569
  16 H :    0.136042
  17 H :    0.137932
Sum of atomic charges:    0.0000000

LOEWDIN ATOMIC CHARGES
----------------------
   0 C :   -0.282399
   1 C :   -0.199942
   2 C :   -0.235212
   3 O :    0.303559
   4 C :   -0.405984
   5 N :   -0.046338
   6 C :   -0.150190
   7 C :   -0.121717
   8 C :   -0.177129
   9 H :    0.133247
  10 H :    0.128423
  11 H :    0.133583
  12 H :    0.154208
  13 H :    0.145032
  14 H :    0.164628
  15 H :    0.151640
  16 H :    0.149841
  17 H :    0.154750

  Mayer bond orders larger than 0.1
B(  0-C ,  1-C ) :   0.9278 B(  0-C ,  9-H ) :   0.9332 B(  0-C , 10-H ) :   0.9361
B(  0-C , 11-H ) :   0.9268 B(  1-C ,  2-C ) :   0.8729 B(  1-C ,  8-C ) :   0.8115
B(  1-C , 12-H ) :   0.9191 B(  2-C ,  3-O ) :   0.9478 B(  2-C ,  8-C ) :   0.8542
B(  2-C , 13-H ) :   0.9483 B(  3-O ,  4-C ) :   1.0993 B(  4-C ,  5-N ) :   1.9649
B(  4-C ,  6-C ) :   1.0203 B(  5-N , 14-H ) :   0.8629 B(  6-C ,  7-C ) :   1.6809
B(  6-C , 15-H ) :   0.9105 B(  7-C ,  8-C ) :   0.9583 B(  7-C , 16-H ) :   0.9194
B(  8-C , 17-H ) :   0.9175

MP2 TOTAL ENERGY:     -401.247216746 Eh
FINAL SINGLE POINT ENERGY      -401.247216745555

DIPOLE MOMENT
-------------
                                X             Y             Z
Electronic contribution:      5.45142      -0.67566      -1.17470
Nuclear contribution   :     -6.40323       0.04290       2.36288
                        -----------------------------------------
Total Dipole Moment    :     -0.95181      -0.63277       1.18819
                        -----------------------------------------
Magnitude (a.u.)       :      1.64867
Magnitude (Debye)      :      4.19060

                             ****ORCA TERMINATED NORMALLY****
TOTAL RUN TIME: 0 days 0 hours 19 minutes 19 seconds 303 msec
