                         Program Version 3.0.3 - RELEASE   -
|  1> ! RI-MP2 RIJK def2-TZVP def2-TZVP/C def2-TZVP/JK TIGHTSCF
|  2> % maxcore 2000
|  3> % mp2 density relaxed end
|  4> *xyz 0 1
|  5>  C       -0.0046830644     1.4260943650     0.0496816847
|  6>  N       -0.0215684126    -0.0241694883     0.0321868541
|  7>  C        0.5030368868    -0.6549805459     0.9881146624
|  8>  N        0.5775651854    -2.0235775088     1.1540413023
|  9>  C        1.4149954248    -2.3114606724     2.2589198536
| 10>  C        1.6927521323    -1.1359741022     2.8248587047
| 11>  O        2.3224947029    -0.8128842814     3.9614914341
| 12>  O        1.1375786814    -0.0985452544     2.1056236140
| 13>  H        0.8981907418     1.8495313904     0.5113198774
| 14>  H       -0.0695217403     1.7963837073    -0.9777582812
| 15>  H       -0.8709254063     1.8280178230     0.5940389764
| 16>  H        0.4903941115    -2.6174113210     0.3469796208
| 17>  H        1.6494616616    -3.3116348151     2.5727861975
| 18>  H        2.6170665052     0.1036281537     3.8947741892
| 19> *
| 20>
| 21>                          ****END OF INPUT****

CARTESIAN COORDINATES (ANGSTROEM)
---------------------------------
  C     -0.004683    1.426094    0.049682
  N     -0.021568   -0.024169    0.032187
  C      0.503037   -0.654981    0.988115
  N      0.577565   -2.023578    1.154041
  C      1.414995   -2.311461    2.258920
  C      1.692752   -1.135974    2.824859
  O      2.322495   -0.812884    3.961491
  O      1.137579   -0.098545    2.105624
  H      0.898191    1.849531    0.511320
  H     -0.069522    1.796384   -0.977758
  H     -0.870925    1.828018    0.594039
  H      0.490394   -2.617411    0.346980
  H      1.649462   -3.311635    2.572786
  H      2.617067    0.103628    3.894774

 Total Charge           Charge          ....    0
 Multiplicity           Mult            ....    1
 Number of Electrons    NEL             ....   60
 Basis Dimension        Dim             ....  284

ORBITAL ENERGIES
----------------

  NO   OCC          E(Eh)            E(eV)
   0   2.0000     -20.630096      -561.3734
   1   2.0000     -20.618731      -561.0642
   2   2.0000     -15.596457      -424.4012
   3   2.0000     -15.524097      -422.4322
   4   2.0000     -11.373115      -309.4782
   5   2.0000     -11.363716      -309.2224
   6   2.0000     -11.267036      -306.5916
   7   2.0000     -11.238001      -305.8016
   8   2.0000      -1.496202       -40.7137
   9   2.0000      -1.420972       -38.6666
  10   2.0000      -1.259965       -34.2854
  11   2.0000      -1.205557       -32.8049
  12   2.0000      -1.021414       -27.7941
  13   2.0000      -0.926901       -25.2223
  14   2.0000      -0.856607       -23.3095
  15   2.0000      -0.821671       -22.3588
  16   2.0000      -0.785370       -21.3710
  17   2.0000      -0.696431       -18.9508
  18   2.0000      -0.671836       -18.2816
  19   2.0000      -0.655878       -17.8474
  20   2.0000      -0.624794       -17.0015
  21   2.0000      -0.616335       -16.7713
  22   2.0000      -0.600786       -16.3482
  23   2.0000      -0.578470       -15.7410
  24   2.0000      -0.558126       -15.1874
  25   2.0000      -0.545781       -14.8515
  26   2.0000      -0.511393       -13.9157
  27   2.0000      -0.412276       -11.2186
  28   2.0000      -0.409253       -11.1363
  29   2.0000      -0.295335        -8.0365
  30   0.0000       0.129512         3.5242
  31   0.0000       0.143825         3.9137
  32   0.0000       0.169528         4.6131
  33   0.0000       0.180848         4.9211
  34   0.0000       0.192286         5.2324

MULLIKEN ATOMIC CHARGES
-----------------------
   0 C :   -0.269670
   1 N :   -0.290783
   2 C :    0.265289
   3 N :   -0.293327
   4 C :   -0.151058
   5 C :    0.281063
   6 O :   -0.425075
   7 O :   -0.269138
   8 H :    0.112402
   9 H :    0.136510
  10 H :    0.128979
  11 H :    0.260800
  12 H :    0.163504
  13 H :    0.350503
Sum of atomic charges:    0.0000000

LOEWDIN ATOMIC CHARGES
----------------------
   0 C :   -0.340882
   1 N :    0.031121
   2 C :   -0.417815
   3 N :    0.131313
   4 C :   -0.236986
   5 C :   -0.419021
   6 O :    0.089039
   7 O :    0.285795
   8 H :    0.105494
   9 H :    0.114499
  10 H :    0.113943
  11 H :    0.194880
  12 H :    0.142243
  13 H :    0.206375

  Mayer bond orders larger than 0.1
B(  0-C ,  1-N ) :   0.8850 B(  0-C ,  8-H ) :   0.9287 B(  0-C ,  9-H ) :   0.9438
B(  0-C , 10-H ) :   0.9335 B(  1-N ,  2-C ) :   1.9366 B(  2-C ,  3-N ) :   1.1271
B(  2-C ,  7-O ) :   0.9662 B(  3-N ,  4-C ) :   0.9766 B(  3-N , 11-H ) :   0.8623
B(  4-C ,  5-C ) :   1.7119 B(  4-C , 12-H ) :   0.9086 B(  5-C ,  6-O ) :   1.1122
B(  5-C ,  7-O ) :   1.0059 B(  6-O , 13-H ) :   0.8147

MP2 TOTAL ENERGY:     -415.195030055 Eh
FINAL SINGLE POINT ENERGY      -415.195030054508

DIPOLE MOMENT
-------------
                                X             Y             Z
Electronic contribution:      1.69799      -3.56489       3.34768
Nuclear contribution   :     -1.04847       3.41010      -3.04064
                        -----------------------------------------
Total Dipole Moment    :      0.64952      -0.15478       0.30704
                        -----------------------------------------
Magnitude (a.u.)       :      0.73492
Magnitude (Debye)      :      1.86801

                             ****ORCA TERMINATED NORMALLY****
TOTAL RUN TIME: 0 days 0 hours 9 minutes 36 seconds 800 msec
