                         Program Version 3.0.3 - RELEASE   -
|  1> ! RI-MP2 RIJK def2-TZVP def2-TZVP/C def2-TZVP/JK TIGHTSCF
|  2> % maxcore 2000
|  3> % mp2 density relaxed end
|  4> *xyz 0 1
|  5>  O       -0.1036943527     1.4170350630    -0.1926677307
|  6>  C       -0.0754866669     0.0070135459    -0.0044662581
|  7>  C        0.2081834237    -0.5413522331     1.4238437634
|  8>  C       -1.1767361276    -1.2420920809     1.4290977988
|  9>  C       -2.2640208022    -0.3735347312     2.0331895393
| 10>  C       -3.5771879944    -0.6046194243     1.3183403109
| 11>  C       -2.5556874035     0.2388772487     0.6373305548
| 12>  O       -2.8650277581     1.5200493498     0.2452706520
| 13>  C       -1.4835034739    -0.6287912447    -0.0075749712
| 14>  H        0.7698073404     1.7733954821    -0.0037958650
| 15>  H        0.5788192821    -0.4557184454    -0.7547451390
| 16>  H        1.0653060506    -1.2177931116     1.4657237243
| 17>  H        0.3266250061     0.2270996822     2.1931699750
| 18>  H       -1.1944302877    -2.3172373186     1.6197945106
| 19>  H       -2.2150657236     0.1017374620     3.0065794204
| 20>  H       -3.8522159012    -1.5903590785     0.9457614565
| 21>  H       -4.4064835099    -0.0285001221     1.7168844962
| 22>  H       -2.0154464358     1.9609396801     0.0998684144
| 23>  H       -1.7592804654    -1.2035861934    -0.8950155227
| 24> *
| 25>
| 26>                          ****END OF INPUT****

CARTESIAN COORDINATES (ANGSTROEM)
---------------------------------
  O     -0.103694    1.417035   -0.192668
  C     -0.075487    0.007014   -0.004466
  C      0.208183   -0.541352    1.423844
  C     -1.176736   -1.242092    1.429098
  C     -2.264021   -0.373535    2.033190
  C     -3.577188   -0.604619    1.318340
  C     -2.555687    0.238877    0.637331
  O     -2.865028    1.520049    0.245271
  C     -1.483503   -0.628791   -0.007575
  H      0.769807    1.773395   -0.003796
  H      0.578819   -0.455718   -0.754745
  H      1.065306   -1.217793    1.465724
  H      0.326625    0.227100    2.193170
  H     -1.194430   -2.317237    1.619795
  H     -2.215066    0.101737    3.006579
  H     -3.852216   -1.590359    0.945761
  H     -4.406484   -0.028500    1.716884
  H     -2.015446    1.960940    0.099868
  H     -1.759280   -1.203586   -0.895016

 Total Charge           Charge          ....    0
 Multiplicity           Mult            ....    1
 Number of Electrons    NEL             ....   68
 Basis Dimension        Dim             ....  339

ORBITAL ENERGIES
----------------

  NO   OCC          E(Eh)            E(eV)
   0   2.0000     -20.573323      -559.8286
   1   2.0000     -20.546426      -559.0967
   2   2.0000     -11.290332      -307.2255
   3   2.0000     -11.283376      -307.0363
   4   2.0000     -11.237364      -305.7842
   5   2.0000     -11.230914      -305.6087
   6   2.0000     -11.227736      -305.5222
   7   2.0000     -11.224342      -305.4299
   8   2.0000     -11.219266      -305.2917
   9   2.0000      -1.381681       -37.5975
  10   2.0000      -1.360440       -37.0195
  11   2.0000      -1.192301       -32.4442
  12   2.0000      -1.073995       -29.2249
  13   2.0000      -0.928449       -25.2644
  14   2.0000      -0.901551       -24.5325
  15   2.0000      -0.811019       -22.0690
  16   2.0000      -0.790064       -21.4987
  17   2.0000      -0.730239       -19.8708
  18   2.0000      -0.711163       -19.3517
  19   2.0000      -0.681205       -18.5365
  20   2.0000      -0.671774       -18.2799
  21   2.0000      -0.634333       -17.2611
  22   2.0000      -0.609948       -16.5975
  23   2.0000      -0.584348       -15.9009
  24   2.0000      -0.562410       -15.3040
  25   2.0000      -0.541999       -14.7485
  26   2.0000      -0.525342       -14.2953
  27   2.0000      -0.504612       -13.7312
  28   2.0000      -0.486026       -13.2254
  29   2.0000      -0.470202       -12.7949
  30   2.0000      -0.462866       -12.5952
  31   2.0000      -0.414666       -11.2836
  32   2.0000      -0.390017       -10.6129
  33   2.0000      -0.350213        -9.5298
  34   0.0000       0.127352         3.4654
  35   0.0000       0.153305         4.1717
  36   0.0000       0.161792         4.4026
  37   0.0000       0.172529         4.6948
  38   0.0000       0.187487         5.1018

MULLIKEN ATOMIC CHARGES
-----------------------
   0 O :   -0.506280
   1 C :    0.012202
   2 C :   -0.244282
   3 C :   -0.071206
   4 C :   -0.187380
   5 C :   -0.265451
   6 C :    0.114643
   7 O :   -0.458765
   8 C :   -0.007173
   9 H :    0.323462
  10 H :    0.093537
  11 H :    0.122688
  12 H :    0.108703
  13 H :    0.114169
  14 H :    0.129205
  15 H :    0.125334
  16 H :    0.130686
  17 H :    0.346462
  18 H :    0.119447
Sum of atomic charges:   -0.0000000

LOEWDIN ATOMIC CHARGES
----------------------
   0 O :   -0.030675
   1 C :   -0.292159
   2 C :   -0.204750
   3 C :   -0.159636
   4 C :   -0.159597
   5 C :   -0.182309
   6 C :   -0.321207
   7 O :    0.037597
   8 C :   -0.127910
   9 H :    0.177452
  10 H :    0.131526
  11 H :    0.131112
  12 H :    0.133935
  13 H :    0.132875
  14 H :    0.135716
  15 H :    0.130546
  16 H :    0.147717
  17 H :    0.183453
  18 H :    0.136312

  Mayer bond orders larger than 0.1
B(  0-O ,  1-C ) :   0.9863 B(  0-O ,  9-H ) :   0.8383 B(  1-C ,  2-C ) :   0.9522
B(  1-C ,  8-C ) :   0.8627 B(  1-C , 10-H ) :   0.9487 B(  2-C ,  3-C ) :   0.9310
B(  2-C , 11-H ) :   0.9153 B(  2-C , 12-H ) :   0.9020 B(  3-C ,  4-C ) :   0.8973
B(  3-C ,  8-C ) :   0.8791 B(  3-C , 13-H ) :   0.8970 B(  4-C ,  5-C ) :   0.8890
B(  4-C ,  6-C ) :   0.7948 B(  4-C , 14-H ) :   0.9082 B(  5-C ,  6-C ) :   0.9117
B(  5-C , 15-H ) :   0.9158 B(  5-C , 16-H ) :   0.9270 B(  6-C ,  7-O ) :   1.0897
B(  6-C ,  8-C ) :   0.9199 B(  7-O , 17-H ) :   0.8080 B(  8-C , 18-H ) :   0.9068

MP2 TOTAL ENERGY:     -422.280771170 Eh
FINAL SINGLE POINT ENERGY      -422.280771169883

DIPOLE MOMENT
-------------
                                X             Y             Z
Electronic contribution:     -1.11336       2.67195      -1.72123
Nuclear contribution   :      2.32625      -3.01773       1.92528
                        -----------------------------------------
Total Dipole Moment    :      1.21289      -0.34579       0.20406
                        -----------------------------------------
Magnitude (a.u.)       :      1.27762
Magnitude (Debye)      :      3.24745

                             ****ORCA TERMINATED NORMALLY****
TOTAL RUN TIME: 0 days 0 hours 17 minutes 39 seconds 784 msec
