                         Program Version 3.0.3 - RELEASE   -
|  1> ! RI-MP2 RIJK def2-TZVP def2-TZVP/C def2-TZVP/JK TIGHTSCF
|  2> % maxcore 2000
|  3> % mp2 density relaxed end
|  4> *xyz 0 1
|  5>  C       -0.1529290087     1.3222104840     0.0933747037
|  6>  O        0.1282870577    -0.0707490402     0.0634547244
|  7>  C        0.7040383357    -0.5485493587    -1.1326101942
|  8>  C        2.0888830517     0.0292909501    -1.4153670563
|  9>  C        0.6426371653    -2.0787670636    -1.2135198167
| 10>  C       -0.7441169262    -2.5521627565    -1.2276615052
| 11>  N       -0.1822694625    -2.0296509200    -2.5130628476
| 12>  C       -0.2028551943    -0.5848808419    -2.3768465371
| 13>  N       -0.6998021564     0.3133097588    -3.1019472762
| 14>  H        0.7620441630     1.9260022739     0.1603691223
| 15>  H       -0.7229818516     1.6370929258    -0.7881255134
| 16>  H       -0.7484972234     1.4946735002     0.9928065051
| 17>  H        2.7321430317    -0.1087110171    -0.5404488712
| 18>  H        2.5465755563    -0.4724694025    -2.2725517514
| 19>  H        2.0291985420     1.0949409793    -1.6479138288
| 20>  H        1.5004706310    -2.7363974089    -1.1389318209
| 21>  H       -0.9165381665    -3.6227148786    -1.2650100579
| 22>  H       -1.5102706409    -1.9732322853    -0.7219383406
| 23>  H       -1.2091398439    -0.1023795685    -3.8879641280
| 24> *
| 25>
| 26>                          ****END OF INPUT****

CARTESIAN COORDINATES (ANGSTROEM)
---------------------------------
  C     -0.152929    1.322210    0.093375
  O      0.128287   -0.070749    0.063455
  C      0.704038   -0.548549   -1.132610
  C      2.088883    0.029291   -1.415367
  C      0.642637   -2.078767   -1.213520
  C     -0.744117   -2.552163   -1.227662
  N     -0.182269   -2.029651   -2.513063
  C     -0.202855   -0.584881   -2.376847
  N     -0.699802    0.313310   -3.101947
  H      0.762044    1.926002    0.160369
  H     -0.722982    1.637093   -0.788126
  H     -0.748497    1.494674    0.992807
  H      2.732143   -0.108711   -0.540449
  H      2.546576   -0.472469   -2.272552
  H      2.029199    1.094941   -1.647914
  H      1.500471   -2.736397   -1.138932
  H     -0.916538   -3.622715   -1.265010
  H     -1.510271   -1.973232   -0.721938
  H     -1.209140   -0.102380   -3.887964

 Total Charge           Charge          ....    0
 Multiplicity           Mult            ....    1
 Number of Electrons    NEL             ....   68
 Basis Dimension        Dim             ....  339

ORBITAL ENERGIES
----------------

  NO   OCC          E(Eh)            E(eV)
   0   2.0000     -20.565059      -559.6037
   1   2.0000     -15.582867      -424.0314
   2   2.0000     -15.546392      -423.0388
   3   2.0000     -11.312096      -307.8178
   4   2.0000     -11.310231      -307.7670
   5   2.0000     -11.278665      -306.9081
   6   2.0000     -11.277839      -306.8856
   7   2.0000     -11.269634      -306.6623
   8   2.0000     -11.229986      -305.5835
   9   2.0000      -1.390268       -37.8311
  10   2.0000      -1.315707       -35.8022
  11   2.0000      -1.196572       -32.5604
  12   2.0000      -1.046877       -28.4870
  13   2.0000      -0.944800       -25.7093
  14   2.0000      -0.938539       -25.5389
  15   2.0000      -0.883655       -24.0455
  16   2.0000      -0.823043       -22.3961
  17   2.0000      -0.722889       -19.6708
  18   2.0000      -0.707382       -19.2488
  19   2.0000      -0.675270       -18.3750
  20   2.0000      -0.655562       -17.8388
  21   2.0000      -0.633746       -17.2451
  22   2.0000      -0.617027       -16.7901
  23   2.0000      -0.584028       -15.8922
  24   2.0000      -0.560702       -15.2575
  25   2.0000      -0.557327       -15.1656
  26   2.0000      -0.527885       -14.3645
  27   2.0000      -0.521557       -14.1923
  28   2.0000      -0.497294       -13.5320
  29   2.0000      -0.474012       -12.8985
  30   2.0000      -0.456201       -12.4139
  31   2.0000      -0.424704       -11.5568
  32   2.0000      -0.406984       -11.0746
  33   2.0000      -0.387265       -10.5380
  34   0.0000       0.142234         3.8704
  35   0.0000       0.148810         4.0493
  36   0.0000       0.163461         4.4480
  37   0.0000       0.176404         4.8002
  38   0.0000       0.181929         4.9505

MULLIKEN ATOMIC CHARGES
-----------------------
   0 C :   -0.244490
   1 O :   -0.312862
   2 C :    0.408510
   3 C :   -0.460773
   4 C :   -0.162470
   5 C :   -0.118569
   6 N :   -0.199418
   7 C :   -0.071024
   8 N :   -0.351186
   9 H :    0.117080
  10 H :    0.150806
  11 H :    0.140406
  12 H :    0.144320
  13 H :    0.149786
  14 H :    0.155911
  15 H :    0.143766
  16 H :    0.139649
  17 H :    0.144348
  18 H :    0.226208
Sum of atomic charges:   -0.0000000

LOEWDIN ATOMIC CHARGES
----------------------
   0 C :   -0.340795
   1 O :    0.181103
   2 C :   -0.335233
   3 C :   -0.257930
   4 C :   -0.154265
   5 C :   -0.214232
   6 N :    0.138625
   7 C :   -0.309344
   8 N :   -0.026913
   9 H :    0.103164
  10 H :    0.113361
  11 H :    0.113528
  12 H :    0.132275
  13 H :    0.137337
  14 H :    0.133641
  15 H :    0.139253
  16 H :    0.136494
  17 H :    0.136659
  18 H :    0.173270

  Mayer bond orders larger than 0.1
B(  0-C ,  1-O ) :   0.8813 B(  0-C ,  9-H ) :   0.9357 B(  0-C , 10-H ) :   0.9276
B(  0-C , 11-H ) :   0.9385 B(  1-O ,  2-C ) :   0.9945 B(  2-C ,  3-C ) :   0.8748
B(  2-C ,  4-C ) :   0.9166 B(  2-C ,  7-C ) :   0.8379 B(  3-C , 12-H ) :   0.9358
B(  3-C , 13-H ) :   0.9243 B(  3-C , 14-H ) :   0.9334 B(  4-C ,  5-C ) :   0.9806
B(  4-C ,  6-N ) :   0.8529 B(  4-C , 15-H ) :   0.8994 B(  5-C ,  6-N ) :   0.8369
B(  5-C , 16-H ) :   0.9256 B(  5-C , 17-H ) :   0.8986 B(  6-N ,  7-C ) :   1.0062
B(  7-C ,  8-N ) :   2.0931 B(  8-N , 18-H ) :   0.8483

MP2 TOTAL ENERGY:     -418.446309349 Eh
FINAL SINGLE POINT ENERGY      -418.446309349390

DIPOLE MOMENT
-------------
                                X             Y             Z
Electronic contribution:     -2.33958      -3.57922      -2.28894
Nuclear contribution   :      2.52499       3.34802       2.68507
                        -----------------------------------------
Total Dipole Moment    :      0.18541      -0.23120       0.39613
                        -----------------------------------------
Magnitude (a.u.)       :      0.49472
Magnitude (Debye)      :      1.25749

                             ****ORCA TERMINATED NORMALLY****
TOTAL RUN TIME: 0 days 0 hours 18 minutes 2 seconds 222 msec
