                         Program Version 3.0.3 - RELEASE   -
|  1> ! RI-MP2 RIJK def2-TZVP def2-TZVP/C def2-TZVP/JK TIGHTSCF
|  2> % maxcore 2000
|  3> % mp2 density relaxed end
|  4> *xyz 0 1
|  5>  O       -0.1281895484     1.4122851668    -0.2339104470
|  6>  C        0.0166976564     0.0502538506     0.1416827692
|  7>  C       -1.3597074705    -0.5803240452     0.0396317629
|  8>  C       -2.0138475957    -0.7177692103    -1.3606380845
|  9>  C       -1.1640083322    -1.9823635189    -1.6041203739
| 10>  C       -1.4392646989    -2.1520915050    -0.0669209885
| 11>  C       -2.9569053937    -2.2828879515    -0.1252645285
| 12>  O       -3.7281771237    -3.0140300123     0.4163328719
| 13>  O       -3.3130895217    -1.2935066330    -1.0145531873
| 14>  H        0.7074102826     1.8620399196    -0.0771925762
| 15>  H        0.7516976038    -0.4616629084    -0.4960692727
| 16>  H        0.3694774673    -0.0458985806     1.1803704811
| 17>  H       -2.0192369905    -0.1216192216     0.7818728205
| 18>  H       -2.1495317831     0.0994215465    -2.0630682393
| 19>  H       -1.5791843724    -2.7308079524    -2.2817987339
| 20>  H       -0.1196847288    -1.7867968462    -1.8425253755
| 21>  H       -0.9114383004    -2.8436196080     0.5844829117
| 22> *
| 23>
| 24>                          ****END OF INPUT****

CARTESIAN COORDINATES (ANGSTROEM)
---------------------------------
  O     -0.128190    1.412285   -0.233910
  C      0.016698    0.050254    0.141683
  C     -1.359707   -0.580324    0.039632
  C     -2.013848   -0.717769   -1.360638
  C     -1.164008   -1.982364   -1.604120
  C     -1.439265   -2.152092   -0.066921
  C     -2.956905   -2.282888   -0.125265
  O     -3.728177   -3.014030    0.416333
  O     -3.313090   -1.293507   -1.014553
  H      0.707410    1.862040   -0.077193
  H      0.751698   -0.461663   -0.496069
  H      0.369477   -0.045899    1.180370
  H     -2.019237   -0.121619    0.781873
  H     -2.149532    0.099422   -2.063068
  H     -1.579184   -2.730808   -2.281799
  H     -0.119685   -1.786797   -1.842525
  H     -0.911438   -2.843620    0.584483

 Total Charge           Charge          ....    0
 Multiplicity           Mult            ....    1
 Number of Electrons    NEL             ....   68
 Basis Dimension        Dim             ....  327

ORBITAL ENERGIES
----------------

  NO   OCC          E(Eh)            E(eV)
   0   2.0000     -20.594330      -560.4002
   1   2.0000     -20.577229      -559.9349
   2   2.0000     -20.544031      -559.0315
   3   2.0000     -11.376834      -309.5794
   4   2.0000     -11.312332      -307.8242
   5   2.0000     -11.302280      -307.5507
   6   2.0000     -11.272538      -306.7414
   7   2.0000     -11.262679      -306.4731
   8   2.0000     -11.258239      -306.3523
   9   2.0000      -1.458099       -39.6769
  10   2.0000      -1.382042       -37.6073
  11   2.0000      -1.370643       -37.2971
  12   2.0000      -1.162208       -31.6253
  13   2.0000      -0.997987       -27.1566
  14   2.0000      -0.957999       -26.0685
  15   2.0000      -0.895333       -24.3632
  16   2.0000      -0.792423       -21.5629
  17   2.0000      -0.762399       -20.7459
  18   2.0000      -0.729133       -19.8407
  19   2.0000      -0.701829       -19.0977
  20   2.0000      -0.699530       -19.0352
  21   2.0000      -0.653728       -17.7888
  22   2.0000      -0.630980       -17.1698
  23   2.0000      -0.621766       -16.9191
  24   2.0000      -0.583517       -15.8783
  25   2.0000      -0.564113       -15.3503
  26   2.0000      -0.549734       -14.9590
  27   2.0000      -0.540854       -14.7174
  28   2.0000      -0.520628       -14.1670
  29   2.0000      -0.488287       -13.2870
  30   2.0000      -0.483344       -13.1525
  31   2.0000      -0.469298       -12.7702
  32   2.0000      -0.437363       -11.9012
  33   2.0000      -0.423073       -11.5124
  34   0.0000       0.118697         3.2299
  35   0.0000       0.143357         3.9009
  36   0.0000       0.152670         4.1544
  37   0.0000       0.171583         4.6690
  38   0.0000       0.179382         4.8812

MULLIKEN ATOMIC CHARGES
-----------------------
   0 O :   -0.460259
   1 C :   -0.111219
   2 C :   -0.084306
   3 C :    0.081860
   4 C :   -0.279812
   5 C :   -0.100669
   6 C :    0.227726
   7 O :   -0.266634
   8 O :   -0.246198
   9 H :    0.319988
  10 H :    0.098021
  11 H :    0.113865
  12 H :    0.129916
  13 H :    0.152480
  14 H :    0.140156
  15 H :    0.134617
  16 H :    0.150469
Sum of atomic charges:   -0.0000000

LOEWDIN ATOMIC CHARGES
----------------------
   0 O :   -0.040829
   1 C :   -0.326698
   2 C :   -0.181718
   3 C :   -0.205455
   4 C :   -0.184811
   5 C :   -0.152466
   6 C :   -0.440198
   7 O :    0.149577
   8 O :    0.251795
   9 H :    0.175340
  10 H :    0.117768
  11 H :    0.123577
  12 H :    0.157678
  13 H :    0.138046
  14 H :    0.136906
  15 H :    0.137052
  16 H :    0.144435

  Mayer bond orders larger than 0.1
B(  0-O ,  1-C ) :   1.0458 B(  0-O ,  2-C ) :  -0.1079 B(  0-O ,  9-H ) :   0.8454
B(  1-C ,  2-C ) :   0.9260 B(  1-C , 10-H ) :   0.9139 B(  1-C , 11-H ) :   0.9288
B(  2-C ,  3-C ) :   0.9162 B(  2-C ,  5-C ) :   0.8638 B(  2-C , 12-H ) :   0.9110
B(  3-C ,  4-C ) :   0.9315 B(  3-C ,  8-O ) :   0.8320 B(  3-C , 13-H ) :   0.9066
B(  4-C ,  5-C ) :   0.8962 B(  4-C , 14-H ) :   0.9154 B(  4-C , 15-H ) :   0.9252
B(  5-C ,  6-C ) :   0.9048 B(  5-C , 16-H ) :   0.9030 B(  6-C ,  7-O ) :   2.0653
B(  6-C ,  8-O ) :   1.0884

MP2 TOTAL ENERGY:     -458.238574861 Eh
FINAL SINGLE POINT ENERGY      -458.238574861287

DIPOLE MOMENT
-------------
                                X             Y             Z
Electronic contribution:     -6.47941      -2.22270       0.61943
Nuclear contribution   :      8.61335       2.81344      -0.82499
                        -----------------------------------------
Total Dipole Moment    :      2.13394       0.59074      -0.20556
                        -----------------------------------------
Magnitude (a.u.)       :      2.22372
Magnitude (Debye)      :      5.65224

                             ****ORCA TERMINATED NORMALLY****
TOTAL RUN TIME: 0 days 0 hours 26 minutes 15 seconds 717 msec
