                         Program Version 3.0.3 - RELEASE   -
|  1> ! RI-MP2 RIJK def2-TZVP def2-TZVP/C def2-TZVP/JK TIGHTSCF
|  2> % maxcore 2000
|  3> % mp2 density relaxed end
|  4> *xyz 0 1
|  5>  C       -2.9509977401    -3.0385353728    -0.8814906422
|  6>  C       -1.5473365815    -2.4759194014    -0.6732075333
|  7>  C       -0.6239302560    -2.7506664401    -1.8441096909
|  8>  O       -0.9213969766    -3.3575324369    -2.8408663613
|  9>  O        0.5982497028    -2.2119884299    -1.6115571079
| 10>  C        1.5965572690    -2.3781595417    -2.6196458358
| 11>  C        1.3797770116    -1.5163206730    -3.8386428220
| 12>  C        2.9662658471    -2.5873570145    -2.0462712623
| 13>  C        2.2302038903    -3.7337054721    -2.7124317646
| 14>  H       -3.4193601041    -2.6036667189    -1.7680919645
| 15>  H       -2.9210209945    -4.1211799728    -1.0273913211
| 16>  H       -3.5824412618    -2.8226462873    -0.0152198506
| 17>  H       -1.5671661767    -1.3914812434    -0.5130036152
| 18>  H       -1.0764352385    -2.8915717238     0.2257718145
| 19>  H        1.2965818435    -0.4621580385    -3.5535694487
| 20>  H        2.2255460571    -1.6160409648    -4.5248768396
| 21>  H        0.4707361546    -1.8142939413    -4.3659074051
| 22>  H        3.8073017052    -2.1342257954    -2.5593191945
| 23>  H        3.0489673485    -2.6079283385    -0.9657609057
| 24>  H        1.8358884092    -4.5149643812    -2.0738961918
| 25>  H        2.5584950610    -4.0736382117    -3.6883151074
| 26> *
| 27>
| 28>                          ****END OF INPUT****

CARTESIAN COORDINATES (ANGSTROEM)
---------------------------------
  C     -2.950998   -3.038535   -0.881491
  C     -1.547337   -2.475919   -0.673208
  C     -0.623930   -2.750666   -1.844110
  O     -0.921397   -3.357532   -2.840866
  O      0.598250   -2.211988   -1.611557
  C      1.596557   -2.378160   -2.619646
  C      1.379777   -1.516321   -3.838643
  C      2.966266   -2.587357   -2.046271
  C      2.230204   -3.733705   -2.712432
  H     -3.419360   -2.603667   -1.768092
  H     -2.921021   -4.121180   -1.027391
  H     -3.582441   -2.822646   -0.015220
  H     -1.567166   -1.391481   -0.513004
  H     -1.076435   -2.891572    0.225772
  H      1.296582   -0.462158   -3.553569
  H      2.225546   -1.616041   -4.524877
  H      0.470736   -1.814294   -4.365907
  H      3.807302   -2.134226   -2.559319
  H      3.048967   -2.607928   -0.965761
  H      1.835888   -4.514964   -2.073896
  H      2.558495   -4.073638   -3.688315

 Total Charge           Charge          ....    0
 Multiplicity           Mult            ....    1
 Number of Electrons    NEL             ....   70
 Basis Dimension        Dim             ....  351

ORBITAL ENERGIES
----------------

  NO   OCC          E(Eh)            E(eV)
   0   2.0000     -20.597417      -560.4842
   1   2.0000     -20.538876      -558.8912
   2   2.0000     -11.374200      -309.5077
   3   2.0000     -11.297055      -307.4085
   4   2.0000     -11.242887      -305.9345
   5   2.0000     -11.228749      -305.5498
   6   2.0000     -11.228111      -305.5324
   7   2.0000     -11.219419      -305.2959
   8   2.0000     -11.219304      -305.2928
   9   2.0000      -1.455515       -39.6066
  10   2.0000      -1.359378       -36.9906
  11   2.0000      -1.148278       -31.2462
  12   2.0000      -1.055083       -28.7103
  13   2.0000      -0.975002       -26.5312
  14   2.0000      -0.908762       -24.7287
  15   2.0000      -0.838406       -22.8142
  16   2.0000      -0.811651       -22.0861
  17   2.0000      -0.728820       -19.8322
  18   2.0000      -0.690478       -18.7889
  19   2.0000      -0.677860       -18.4455
  20   2.0000      -0.672204       -18.2916
  21   2.0000      -0.635248       -17.2860
  22   2.0000      -0.608906       -16.5692
  23   2.0000      -0.587457       -15.9855
  24   2.0000      -0.568917       -15.4810
  25   2.0000      -0.553434       -15.0597
  26   2.0000      -0.542873       -14.7723
  27   2.0000      -0.522374       -14.2145
  28   2.0000      -0.519457       -14.1351
  29   2.0000      -0.512012       -13.9326
  30   2.0000      -0.497166       -13.5286
  31   2.0000      -0.476720       -12.9722
  32   2.0000      -0.450929       -12.2704
  33   2.0000      -0.415563       -11.3080
  34   2.0000      -0.405727       -11.0404
  35   0.0000       0.131167         3.5692
  36   0.0000       0.152531         4.1506
  37   0.0000       0.166494         4.5305
  38   0.0000       0.176181         4.7941
  39   0.0000       0.182957         4.9785

MULLIKEN ATOMIC CHARGES
-----------------------
   0 C :   -0.369881
   1 C :   -0.226262
   2 C :    0.302304
   3 O :   -0.329198
   4 O :   -0.257575
   5 C :    0.240322
   6 C :   -0.427489
   7 C :   -0.281256
   8 C :   -0.284219
   9 H :    0.131940
  10 H :    0.132679
  11 H :    0.132736
  12 H :    0.137129
  13 H :    0.135226
  14 H :    0.133832
  15 H :    0.127278
  16 H :    0.163454
  17 H :    0.131579
  18 H :    0.136069
  19 H :    0.138138
  20 H :    0.133193
Sum of atomic charges:    0.0000000

LOEWDIN ATOMIC CHARGES
----------------------
   0 C :   -0.309061
   1 C :   -0.263993
   2 C :   -0.466986
   3 O :    0.134308
   4 O :    0.292474
   5 C :   -0.333700
   6 C :   -0.266836
   7 C :   -0.205754
   8 C :   -0.203183
   9 H :    0.126578
  10 H :    0.126702
  11 H :    0.121571
  12 H :    0.152043
  13 H :    0.151715
  14 H :    0.129318
  15 H :    0.132984
  16 H :    0.134147
  17 H :    0.134220
  18 H :    0.138040
  19 H :    0.139250
  20 H :    0.136162

  Mayer bond orders larger than 0.1
B(  0-C ,  1-C ) :   0.9365 B(  0-C ,  9-H ) :   0.9344 B(  0-C , 10-H ) :   0.9342
B(  0-C , 11-H ) :   0.9370 B(  1-C ,  2-C ) :   0.9497 B(  1-C , 12-H ) :   0.9156
B(  1-C , 13-H ) :   0.9134 B(  2-C ,  3-O ) :   1.9214 B(  2-C ,  4-O ) :   1.0826
B(  4-O ,  5-C ) :   0.8579 B(  5-C ,  6-C ) :   0.9181 B(  5-C ,  7-C ) :   0.8805
B(  5-C ,  8-C ) :   0.8909 B(  6-C , 14-H ) :   0.9342 B(  6-C , 15-H ) :   0.9230
B(  6-C , 16-H ) :   0.9349 B(  7-C ,  8-C ) :   0.9034 B(  7-C , 17-H ) :   0.9247
B(  7-C , 18-H ) :   0.9191 B(  8-C , 19-H ) :   0.9229 B(  8-C , 20-H ) :   0.9219

MP2 TOTAL ENERGY:     -423.544916007 Eh
FINAL SINGLE POINT ENERGY      -423.544916007309

DIPOLE MOMENT
-------------
                                X             Y             Z
Electronic contribution:      0.82330      -0.62710      -0.19665
Nuclear contribution   :     -0.50233       0.93625       0.57750
                        -----------------------------------------
Total Dipole Moment    :      0.32097       0.30915       0.38085
                        -----------------------------------------
Magnitude (a.u.)       :      0.58621
Magnitude (Debye)      :      1.49003

                             ****ORCA TERMINATED NORMALLY****
TOTAL RUN TIME: 0 days 0 hours 17 minutes 36 seconds 778 msec
