                         Program Version 3.0.3 - RELEASE   -
|  1> ! RI-MP2 RIJK def2-TZVP def2-TZVP/C def2-TZVP/JK TIGHTSCF
|  2> % maxcore 2000
|  3> % mp2 density relaxed end
|  4> *xyz 0 1
|  5>  C        0.4789315653     1.4890006417    -1.1888859677
|  6>  C        0.4247011660    -0.0107163980    -0.8834532826
|  7>  C        1.6429231707    -0.9955964355    -0.9133707985
|  8>  C        2.1220491007    -0.4427941641     0.4636022563
|  9>  C        2.9190175637     0.8547211491     0.6115907845
| 10>  C        0.5541698526    -0.5796073440     0.5727654894
| 11>  C       -0.3062212922    -0.2470028381     1.7644330236
| 12>  C        0.7630039076    -1.9925983488    -0.0859379806
| 13>  C       -0.3773578262    -2.8031913178    -0.6871423119
| 14>  H        1.0508530443     1.6938189953    -2.1015345512
| 15>  H       -0.5367169951     1.8616951232    -1.3602778638
| 16>  H        0.9040540987     2.0922675861    -0.3866578178
| 17>  H       -0.4335985153    -0.4146055133    -1.4247054523
| 18>  H        2.2687328751    -1.2390291104    -1.7758325466
| 19>  H        2.6177014663    -1.2095737286     1.0721830195
| 20>  H        2.6044414214     1.4224694990     1.4956972491
| 21>  H        3.9781773662     0.6128489823     0.7508547970
| 22>  H        2.8576428264     1.5172127676    -0.2511500173
| 23>  H       -0.2736207449     0.8248762891     1.9922836357
| 24>  H       -1.3539070068    -0.5146364213     1.5850145868
| 25>  H        0.0290485231    -0.7868359259     2.6574657637
| 26>  H        1.3672967915    -2.6586398159     0.5416558466
| 27>  H       -1.0380621451    -2.2367469058    -1.3473868552
| 28>  H        0.0233503388    -3.6421919441    -1.2672650746
| 29>  H       -0.9977795731    -3.2301810317     0.1094310178
| 30> *
| 31>
| 32>                          ****END OF INPUT****

CARTESIAN COORDINATES (ANGSTROEM)
---------------------------------
  C      0.478932    1.489001   -1.188886
  C      0.424701   -0.010716   -0.883453
  C      1.642923   -0.995596   -0.913371
  C      2.122049   -0.442794    0.463602
  C      2.919018    0.854721    0.611591
  C      0.554170   -0.579607    0.572765
  C     -0.306221   -0.247003    1.764433
  C      0.763004   -1.992598   -0.085938
  C     -0.377358   -2.803191   -0.687142
  H      1.050853    1.693819   -2.101535
  H     -0.536717    1.861695   -1.360278
  H      0.904054    2.092268   -0.386658
  H     -0.433599   -0.414606   -1.424705
  H      2.268733   -1.239029   -1.775833
  H      2.617701   -1.209574    1.072183
  H      2.604441    1.422469    1.495697
  H      3.978177    0.612849    0.750855
  H      2.857643    1.517213   -0.251150
  H     -0.273621    0.824876    1.992284
  H     -1.353907   -0.514636    1.585015
  H      0.029049   -0.786836    2.657466
  H      1.367297   -2.658640    0.541656
  H     -1.038062   -2.236747   -1.347387
  H      0.023350   -3.642192   -1.267265
  H     -0.997780   -3.230181    0.109431

 Total Charge           Charge          ....    0
 Multiplicity           Mult            ....    1
 Number of Electrons    NEL             ....   70
 Basis Dimension        Dim             ....  375

ORBITAL ENERGIES
----------------

  NO   OCC          E(Eh)            E(eV)
   0   2.0000     -11.237304      -305.7826
   1   2.0000     -11.230384      -305.5943
   2   2.0000     -11.225026      -305.4485
   3   2.0000     -11.224111      -305.4236
   4   2.0000     -11.222641      -305.3836
   5   2.0000     -11.211173      -305.0715
   6   2.0000     -11.208467      -304.9979
   7   2.0000     -11.207367      -304.9680
   8   2.0000     -11.207223      -304.9640
   9   2.0000      -1.201085       -32.6832
  10   2.0000      -1.004252       -27.3271
  11   2.0000      -0.991405       -26.9775
  12   2.0000      -0.978824       -26.6352
  13   2.0000      -0.947931       -25.7945
  14   2.0000      -0.834412       -22.7055
  15   2.0000      -0.800897       -21.7935
  16   2.0000      -0.788916       -21.4675
  17   2.0000      -0.694529       -18.8991
  18   2.0000      -0.625758       -17.0277
  19   2.0000      -0.622447       -16.9376
  20   2.0000      -0.583606       -15.8807
  21   2.0000      -0.580716       -15.8021
  22   2.0000      -0.568085       -15.4584
  23   2.0000      -0.551194       -14.9988
  24   2.0000      -0.549518       -14.9531
  25   2.0000      -0.540005       -14.6943
  26   2.0000      -0.537080       -14.6147
  27   2.0000      -0.535601       -14.5744
  28   2.0000      -0.503157       -13.6916
  29   2.0000      -0.463319       -12.6075
  30   2.0000      -0.426801       -11.6138
  31   2.0000      -0.419572       -11.4171
  32   2.0000      -0.411018       -11.1844
  33   2.0000      -0.408075       -11.1043
  34   2.0000      -0.399167       -10.8619
  35   0.0000       0.131965         3.5909
  36   0.0000       0.153257         4.1703
  37   0.0000       0.164282         4.4703
  38   0.0000       0.168995         4.5986
  39   0.0000       0.188069         5.1176

MULLIKEN ATOMIC CHARGES
-----------------------
   0 C :   -0.467298
   1 C :   -0.077291
   2 C :   -0.101500
   3 C :   -0.058096
   4 C :   -0.459209
   5 C :    0.029919
   6 C :   -0.408907
   7 C :   -0.035550
   8 C :   -0.429643
   9 H :    0.139520
  10 H :    0.133230
  11 H :    0.141123
  12 H :    0.080964
  13 H :    0.124436
  14 H :    0.084965
  15 H :    0.136690
  16 H :    0.135433
  17 H :    0.143976
  18 H :    0.133175
  19 H :    0.135774
  20 H :    0.133760
  21 H :    0.091273
  22 H :    0.125788
  23 H :    0.135438
  24 H :    0.132027
Sum of atomic charges:   -0.0000000

LOEWDIN ATOMIC CHARGES
----------------------
   0 C :   -0.303440
   1 C :   -0.183319
   2 C :   -0.132274
   3 C :   -0.184331
   4 C :   -0.302899
   5 C :   -0.185822
   6 C :   -0.280464
   7 C :   -0.187662
   8 C :   -0.300390
   9 H :    0.125466
  10 H :    0.123515
  11 H :    0.123132
  12 H :    0.143448
  13 H :    0.122659
  14 H :    0.145599
  15 H :    0.124462
  16 H :    0.124287
  17 H :    0.123689
  18 H :    0.128241
  19 H :    0.129144
  20 H :    0.129126
  21 H :    0.146094
  22 H :    0.119602
  23 H :    0.126451
  24 H :    0.125685

  Mayer bond orders larger than 0.1
B(  0-C ,  1-C ) :   0.8779 B(  0-C ,  9-H ) :   0.9401 B(  0-C , 10-H ) :   0.9387
B(  0-C , 11-H ) :   0.9480 B(  1-C ,  2-C ) :   0.8796 B(  1-C ,  5-C ) :   0.8798
B(  1-C , 12-H ) :   0.9378 B(  2-C ,  3-C ) :   0.8893 B(  2-C ,  7-C ) :   0.8888
B(  2-C , 13-H ) :   0.8815 B(  3-C ,  4-C ) :   0.8736 B(  3-C ,  5-C ) :   0.8602
B(  3-C , 14-H ) :   0.9341 B(  4-C , 15-H ) :   0.9408 B(  4-C , 16-H ) :   0.9404
B(  4-C , 17-H ) :   0.9468 B(  5-C ,  6-C ) :   0.8103 B(  5-C ,  7-C ) :   0.8589
B(  6-C , 18-H ) :   0.9384 B(  6-C , 19-H ) :   0.9430 B(  6-C , 20-H ) :   0.9447
B(  7-C ,  8-C ) :   0.9023 B(  7-C , 21-H ) :   0.9296 B(  8-C , 22-H ) :   0.9353
B(  8-C , 23-H ) :   0.9416 B(  8-C , 24-H ) :   0.9400

MP2 TOTAL ENERGY:     -351.664518162 Eh
FINAL SINGLE POINT ENERGY      -351.664518161736

DIPOLE MOMENT
-------------
                                X             Y             Z
Electronic contribution:      1.20894      -2.02804      -0.69574
Nuclear contribution   :     -1.26365       2.03906       0.73931
                        -----------------------------------------
Total Dipole Moment    :     -0.05471       0.01102       0.04357
                        -----------------------------------------
Magnitude (a.u.)       :      0.07080
Magnitude (Debye)      :      0.17997

                             ****ORCA TERMINATED NORMALLY****
TOTAL RUN TIME: 0 days 0 hours 23 minutes 17 seconds 552 msec
