                         Program Version 3.0.3 - RELEASE   -
|  1> ! RI-MP2 RIJK def2-TZVP def2-TZVP/C def2-TZVP/JK TIGHTSCF
|  2> % maxcore 2000
|  3> % mp2 density relaxed end
|  4> *xyz 0 1
|  5>  C        0.0274614322     1.4380511144     0.0489866603
|  6>  N        0.0998311394    -0.0099363043     0.0475235934
|  7>  C        0.5864592711    -0.6392226175    -0.9522814328
|  8>  C        0.6632111225    -2.0893147235    -0.9628775852
|  9>  C        1.1810014094    -2.7245744750    -2.0300721562
| 10>  C        1.3306787234    -4.2049528614    -2.1966103985
| 11>  N        1.6192009147    -1.9367760252    -3.0775884212
| 12>  N        1.5632543131    -0.5795936198    -3.1025997591
| 13>  N        1.0847400381     0.0396989025    -2.1197659081
| 14>  H        0.5778034188     1.8178214678     0.9193457110
| 15>  H        0.4141240044     1.9212175234    -0.8535989020
| 16>  H       -1.0181673388     1.7387603576     0.1933731448
| 17>  H        0.2979666723    -2.6341837110    -0.1020074339
| 18>  H        0.7760913962    -4.5624412427    -3.0722601805
| 19>  H        2.3821361927    -4.4828891376    -2.3356526389
| 20>  H        0.9517913784    -4.7233854907    -1.3144816988
| 21>  H        2.0198404322    -2.3279966070    -3.9143779244
| 22> *
| 23>
| 24>                          ****END OF INPUT****

CARTESIAN COORDINATES (ANGSTROEM)
---------------------------------
  C      0.027461    1.438051    0.048987
  N      0.099831   -0.009936    0.047524
  C      0.586459   -0.639223   -0.952281
  C      0.663211   -2.089315   -0.962878
  C      1.181001   -2.724574   -2.030072
  C      1.330679   -4.204953   -2.196610
  N      1.619201   -1.936776   -3.077588
  N      1.563254   -0.579594   -3.102600
  N      1.084740    0.039699   -2.119766
  H      0.577803    1.817821    0.919346
  H      0.414124    1.921218   -0.853599
  H     -1.018167    1.738760    0.193373
  H      0.297967   -2.634184   -0.102007
  H      0.776091   -4.562441   -3.072260
  H      2.382136   -4.482889   -2.335653
  H      0.951791   -4.723385   -1.314482
  H      2.019840   -2.327997   -3.914378

 Total Charge           Charge          ....    0
 Multiplicity           Mult            ....    1
 Number of Electrons    NEL             ....   66
 Basis Dimension        Dim             ....  327

ORBITAL ENERGIES
----------------

  NO   OCC          E(Eh)            E(eV)
   0   2.0000     -15.692384      -427.0115
   1   2.0000     -15.646645      -425.7669
   2   2.0000     -15.612890      -424.8483
   3   2.0000     -15.531314      -422.6285
   4   2.0000     -11.314026      -307.8703
   5   2.0000     -11.305828      -307.6472
   6   2.0000     -11.261515      -306.4414
   7   2.0000     -11.236224      -305.7532
   8   2.0000     -11.223902      -305.4179
   9   2.0000      -1.429872       -38.9088
  10   2.0000      -1.254144       -34.1270
  11   2.0000      -1.210382       -32.9362
  12   2.0000      -1.100573       -29.9481
  13   2.0000      -1.004661       -27.3382
  14   2.0000      -0.936788       -25.4913
  15   2.0000      -0.921646       -25.0793
  16   2.0000      -0.832749       -22.6603
  17   2.0000      -0.777832       -21.1659
  18   2.0000      -0.726625       -19.7725
  19   2.0000      -0.651901       -17.7391
  20   2.0000      -0.646712       -17.5979
  21   2.0000      -0.609012       -16.5721
  22   2.0000      -0.600785       -16.3482
  23   2.0000      -0.596763       -16.2388
  24   2.0000      -0.589395       -16.0383
  25   2.0000      -0.565970       -15.4008
  26   2.0000      -0.543478       -14.7888
  27   2.0000      -0.527608       -14.3569
  28   2.0000      -0.470117       -12.7925
  29   2.0000      -0.442767       -12.0483
  30   2.0000      -0.440443       -11.9851
  31   2.0000      -0.376917       -10.2564
  32   2.0000      -0.305163        -8.3039
  33   0.0000       0.096212         2.6181
  34   0.0000       0.113756         3.0955
  35   0.0000       0.121960         3.3187
  36   0.0000       0.157344         4.2815
  37   0.0000       0.172747         4.7007

MULLIKEN ATOMIC CHARGES
-----------------------
   0 C :   -0.274572
   1 N :   -0.238884
   2 C :    0.091505
   3 C :   -0.201172
   4 C :    0.172136
   5 C :   -0.448824
   6 N :   -0.123381
   7 N :   -0.117793
   8 N :   -0.127802
   9 H :    0.128575
  10 H :    0.136994
  11 H :    0.128581
  12 H :    0.142794
  13 H :    0.155515
  14 H :    0.155651
  15 H :    0.158286
  16 H :    0.262391
Sum of atomic charges:    0.0000000

LOEWDIN ATOMIC CHARGES
----------------------
   0 C :   -0.344017
   1 N :    0.077062
   2 C :   -0.349762
   3 C :   -0.109102
   4 C :   -0.252368
   5 C :   -0.261544
   6 N :    0.095053
   7 N :   -0.013263
   8 N :    0.048316
   9 H :    0.117140
  10 H :    0.109230
  11 H :    0.117132
  12 H :    0.159485
  13 H :    0.136206
  14 H :    0.136253
  15 H :    0.141600
  16 H :    0.192580

  Mayer bond orders larger than 0.1
B(  0-C ,  1-N ) :   0.8660 B(  0-C ,  9-H ) :   0.9328 B(  0-C , 10-H ) :   0.9253
B(  0-C , 11-H ) :   0.9328 B(  1-N ,  2-C ) :   1.8755 B(  2-C ,  3-C ) :   1.0531
B(  2-C ,  8-N ) :   1.0510 B(  3-C ,  4-C ) :   1.5476 B(  3-C , 12-H ) :   0.9144
B(  4-C ,  5-C ) :   0.8751 B(  4-C ,  6-N ) :   1.0530 B(  5-C , 13-H ) :   0.9286
B(  5-C , 14-H ) :   0.9285 B(  5-C , 15-H ) :   0.9441 B(  6-N ,  7-N ) :   0.9576
B(  6-N , 16-H ) :   0.8725 B(  7-N ,  8-N ) :   1.5014

MP2 TOTAL ENERGY:     -413.441548285 Eh
FINAL SINGLE POINT ENERGY      -413.441548284810

DIPOLE MOMENT
-------------
                                X             Y             Z
Electronic contribution:      1.25991       1.82578      -2.96683
Nuclear contribution   :     -0.82953      -3.53922       2.20921
                        -----------------------------------------
Total Dipole Moment    :      0.43039      -1.71344      -0.75762
                        -----------------------------------------
Magnitude (a.u.)       :      1.92226
Magnitude (Debye)      :      4.88600

                             ****ORCA TERMINATED NORMALLY****
TOTAL RUN TIME: 0 days 0 hours 17 minutes 57 seconds 117 msec
