                         Program Version 3.0.3 - RELEASE   -
|  1> ! RI-MP2 RIJK def2-TZVP def2-TZVP/C def2-TZVP/JK TIGHTSCF
|  2> % maxcore 2000
|  3> % mp2 density relaxed end
|  4> *xyz 0 1
|  5>  C       -0.2788387612     1.4434075376     0.0944517551
|  6>  C        0.0203110345    -0.0142029998     0.0469274426
|  7>  N        1.1348993010    -0.4863863985    -0.4475818421
|  8>  O        1.0007125926    -1.8752510611    -0.2923586043
|  9>  C       -0.1922427176    -2.0777029329     0.2763640160
| 10>  C       -0.6011519470    -3.4737333481     0.5911967842
| 11>  C       -0.9425946261    -3.6565809052     2.0739348897
| 12>  O       -0.7039571563    -4.6628443951     2.6815064242
| 13>  N       -0.8473118756    -0.9819120778     0.5149844523
| 14>  H       -0.4447429035     1.7617419655     1.1279081211
| 15>  H        0.5483084307     2.0140623919    -0.3296259067
| 16>  H       -1.1927063935     1.6604570377    -0.4664238534
| 17>  H       -1.5177458915    -3.7064059892     0.0320025971
| 18>  H        0.1687709593    -4.1896536228     0.3007412065
| 19>  H       -1.4515629555    -2.7855547221     2.5359242077
| 20> *
| 21>
| 22>                          ****END OF INPUT****

CARTESIAN COORDINATES (ANGSTROEM)
---------------------------------
  C     -0.278839    1.443408    0.094452
  C      0.020311   -0.014203    0.046927
  N      1.134899   -0.486386   -0.447582
  O      1.000713   -1.875251   -0.292359
  C     -0.192243   -2.077703    0.276364
  C     -0.601152   -3.473733    0.591197
  C     -0.942595   -3.656581    2.073935
  O     -0.703957   -4.662844    2.681506
  N     -0.847312   -0.981912    0.514984
  H     -0.444743    1.761742    1.127908
  H      0.548308    2.014062   -0.329626
  H     -1.192706    1.660457   -0.466424
  H     -1.517746   -3.706406    0.032003
  H      0.168771   -4.189654    0.300741
  H     -1.451563   -2.785555    2.535924

 Total Charge           Charge          ....    0
 Multiplicity           Mult            ....    1
 Number of Electrons    NEL             ....   66
 Basis Dimension        Dim             ....  315

ORBITAL ENERGIES
----------------

  NO   OCC          E(Eh)            E(eV)
   0   2.0000     -20.666948      -562.3762
   1   2.0000     -20.579406      -559.9941
   2   2.0000     -15.630812      -425.3360
   3   2.0000     -15.584122      -424.0655
   4   2.0000     -11.378701      -309.6302
   5   2.0000     -11.357528      -309.0541
   6   2.0000     -11.327179      -308.2282
   7   2.0000     -11.283941      -307.0517
   8   2.0000     -11.250815      -306.1503
   9   2.0000      -1.529767       -41.6271
  10   2.0000      -1.420180       -38.6451
  11   2.0000      -1.267787       -34.4982
  12   2.0000      -1.187244       -32.3066
  13   2.0000      -1.062772       -28.9195
  14   2.0000      -1.009146       -27.4603
  15   2.0000      -0.864381       -23.5210
  16   2.0000      -0.824102       -22.4250
  17   2.0000      -0.814490       -22.1634
  18   2.0000      -0.726548       -19.7704
  19   2.0000      -0.703810       -19.1516
  20   2.0000      -0.675165       -18.3722
  21   2.0000      -0.648745       -17.6533
  22   2.0000      -0.635480       -17.2923
  23   2.0000      -0.609951       -16.5976
  24   2.0000      -0.595896       -16.2151
  25   2.0000      -0.572919       -15.5899
  26   2.0000      -0.562555       -15.3079
  27   2.0000      -0.541098       -14.7240
  28   2.0000      -0.523666       -14.2497
  29   2.0000      -0.479628       -13.0513
  30   2.0000      -0.470206       -12.7949
  31   2.0000      -0.448991       -12.2177
  32   2.0000      -0.405084       -11.0229
  33   0.0000       0.097962         2.6657
  34   0.0000       0.127218         3.4618
  35   0.0000       0.137667         3.7461
  36   0.0000       0.144049         3.9198
  37   0.0000       0.175943         4.7877

MULLIKEN ATOMIC CHARGES
-----------------------
   0 C :   -0.418280
   1 C :    0.192652
   2 N :   -0.132388
   3 O :   -0.092176
   4 C :    0.221402
   5 C :   -0.192610
   6 C :    0.085830
   7 O :   -0.246131
   8 N :   -0.324496
   9 H :    0.152945
  10 H :    0.160699
  11 H :    0.153240
  12 H :    0.162886
  13 H :    0.162059
  14 H :    0.114370
Sum of atomic charges:   -0.0000000

LOEWDIN ATOMIC CHARGES
----------------------
   0 C :   -0.262895
   1 C :   -0.373898
   2 N :    0.053901
   3 O :    0.292655
   4 C :   -0.373106
   5 C :   -0.216351
   6 C :   -0.275886
   7 O :    0.149818
   8 N :    0.127994
   9 H :    0.139975
  10 H :    0.139875
  11 H :    0.140001
  12 H :    0.174594
  13 H :    0.162654
  14 H :    0.120672

  Mayer bond orders larger than 0.1
B(  0-C ,  1-C ) :   0.8639 B(  0-C ,  9-H ) :   0.9289 B(  0-C , 10-H ) :   0.9504
B(  0-C , 11-H ) :   0.9294 B(  1-C ,  2-N ) :   1.6434 B(  1-C ,  8-N ) :   1.1851
B(  2-N ,  3-O ) :   0.8746 B(  3-O ,  4-C ) :   1.1803 B(  4-C ,  5-C ) :   0.8606
B(  4-C ,  8-N ) :   1.5712 B(  5-C ,  6-C ) :   0.8679 B(  5-C , 12-H ) :   0.9073
B(  5-C , 13-H ) :   0.9147 B(  6-C ,  7-O ) :   1.9959 B(  6-C , 14-H ) :   0.9252

MP2 TOTAL ENERGY:     -453.219378502 Eh
FINAL SINGLE POINT ENERGY      -453.219378502298

DIPOLE MOMENT
-------------
                                X             Y             Z
Electronic contribution:      2.21348      -4.48152       0.16839
Nuclear contribution   :     -2.78453       5.03931      -0.53218
                        -----------------------------------------
Total Dipole Moment    :     -0.57105       0.55779      -0.36379
                        -----------------------------------------
Magnitude (a.u.)       :      0.87725
Magnitude (Debye)      :      2.22979

                             ****ORCA TERMINATED NORMALLY****
TOTAL RUN TIME: 0 days 0 hours 13 minutes 45 seconds 739 msec
