                         Program Version 3.0.3 - RELEASE   -
|  1> ! RI-MP2 RIJK def2-TZVP def2-TZVP/C def2-TZVP/JK TIGHTSCF
|  2> % maxcore 2000
|  3> % mp2 density relaxed end
|  4> *xyz 0 1
|  5>  C        0.0764746055    -3.7377877735    -0.0208694680
|  6>  C        0.0436146640    -2.5305549003    -0.0091822419
|  7>  C        0.0077387966    -1.1718376051     0.0042438595
|  8>  C       -0.0170116477     0.0389052977     0.0261737525
|  9>  C       -0.0396254273     1.4769674025     0.0323549155
| 10>  C        0.5328937324     2.1705242444     1.2464553597
| 11>  N        1.2726181813     2.1977309371    -0.0064491346
| 12>  C       -1.1154574308     2.0944714740    -0.7049318918
| 13>  C       -2.0280301014     2.5995885423    -1.3001391686
| 14>  H        0.1040800443    -4.7992123926    -0.0311270298
| 15>  H        0.0899185903     3.1174444091     1.5387303047
| 16>  H        0.8713208988     1.5347365059     2.0592395144
| 17>  H        2.0169421970     1.5033360713     0.0076657019
| 18>  H       -2.8293539629     3.0463555572    -1.8351291835
| 19> *
| 20>
| 21>                          ****END OF INPUT****

CARTESIAN COORDINATES (ANGSTROEM)
---------------------------------
  C      0.076475   -3.737788   -0.020869
  C      0.043615   -2.530555   -0.009182
  C      0.007739   -1.171838    0.004244
  C     -0.017012    0.038905    0.026174
  C     -0.039625    1.476967    0.032355
  C      0.532894    2.170524    1.246455
  N      1.272618    2.197731   -0.006449
  C     -1.115457    2.094471   -0.704932
  C     -2.028030    2.599589   -1.300139
  H      0.104080   -4.799212   -0.031127
  H      0.089919    3.117444    1.538730
  H      0.871321    1.534737    2.059240
  H      2.016942    1.503336    0.007666
  H     -2.829354    3.046356   -1.835129

 Total Charge           Charge          ....    0
 Multiplicity           Mult            ....    1
 Number of Electrons    NEL             ....   60
 Basis Dimension        Dim             ....  309

ORBITAL ENERGIES
----------------

  NO   OCC          E(Eh)            E(eV)
   0   2.0000     -15.592589      -424.2959
   1   2.0000     -11.330348      -308.3144
   2   2.0000     -11.289518      -307.2034
   3   2.0000     -11.268780      -306.6391
   4   2.0000     -11.265707      -306.5555
   5   2.0000     -11.263594      -306.4980
   6   2.0000     -11.256843      -306.3143
   7   2.0000     -11.245579      -306.0078
   8   2.0000     -11.235656      -305.7377
   9   2.0000      -1.299608       -35.3641
  10   2.0000      -1.099691       -29.9241
  11   2.0000      -1.057699       -28.7814
  12   2.0000      -1.025128       -27.8952
  13   2.0000      -0.945903       -25.7393
  14   2.0000      -0.899437       -24.4749
  15   2.0000      -0.841764       -22.9056
  16   2.0000      -0.768390       -20.9089
  17   2.0000      -0.726678       -19.7739
  18   2.0000      -0.715671       -19.4744
  19   2.0000      -0.684315       -18.6212
  20   2.0000      -0.606740       -16.5102
  21   2.0000      -0.552396       -15.0315
  22   2.0000      -0.543074       -14.7778
  23   2.0000      -0.494254       -13.4493
  24   2.0000      -0.489714       -13.3258
  25   2.0000      -0.447756       -12.1841
  26   2.0000      -0.407435       -11.0869
  27   2.0000      -0.393439       -10.7060
  28   2.0000      -0.365633        -9.9494
  29   2.0000      -0.346351        -9.4247
  30   0.0000       0.095849         2.6082
  31   0.0000       0.102242         2.7821
  32   0.0000       0.138187         3.7603
  33   0.0000       0.150840         4.1046
  34   0.0000       0.163790         4.4570

MULLIKEN ATOMIC CHARGES
-----------------------
   0 C :   -0.139058
   1 C :    0.007012
   2 C :    0.050232
   3 C :   -0.116958
   4 C :   -0.202348
   5 C :   -0.138337
   6 N :   -0.325989
   7 C :    0.037752
   8 C :   -0.084567
   9 H :    0.197032
  10 H :    0.140487
  11 H :    0.143962
  12 H :    0.233333
  13 H :    0.197446
Sum of atomic charges:    0.0000000

LOEWDIN ATOMIC CHARGES
----------------------
   0 C :   -0.038887
   1 C :   -0.096618
   2 C :   -0.040711
   3 C :    0.022659
   4 C :   -0.278335
   5 C :   -0.201815
   6 N :    0.044544
   7 C :   -0.048665
   8 C :   -0.065466
   9 H :    0.131431
  10 H :    0.135658
  11 H :    0.130282
  12 H :    0.176038
  13 H :    0.129886

  Mayer bond orders larger than 0.1
B(  0-C ,  1-C ) :   2.5386 B(  0-C ,  3-C ) :   0.1216 B(  0-C ,  9-H ) :   0.8859
B(  1-C ,  2-C ) :   1.2980 B(  2-C ,  3-C ) :   2.4734 B(  2-C ,  4-C ) :  -0.1169
B(  3-C ,  4-C ) :   1.1394 B(  4-C ,  5-C ) :   0.8859 B(  4-C ,  6-N ) :   0.9664
B(  4-C ,  7-C ) :   1.1983 B(  4-C ,  8-C ) :  -0.1468 B(  5-C ,  6-N ) :   0.9393
B(  5-C , 10-H ) :   0.9176 B(  5-C , 11-H ) :   0.9105 B(  6-N , 12-H ) :   0.8680
B(  7-C ,  8-C ) :   2.5532 B(  8-C , 13-H ) :   0.8896

MP2 TOTAL ENERGY:     -361.595121876 Eh
FINAL SINGLE POINT ENERGY      -361.595121876278

DIPOLE MOMENT
-------------
                                X             Y             Z
Electronic contribution:     -0.70156      -2.57012      -1.43686
Nuclear contribution   :      0.75091       2.24521       1.91962
                        -----------------------------------------
Total Dipole Moment    :      0.04934      -0.32492       0.48276
                        -----------------------------------------
Magnitude (a.u.)       :      0.58400
Magnitude (Debye)      :      1.48442

                             ****ORCA TERMINATED NORMALLY****
TOTAL RUN TIME: 0 days 0 hours 13 minutes 10 seconds 186 msec
