                         Program Version 3.0.3 - RELEASE   -
|  1> ! RI-MP2 RIJK def2-TZVP def2-TZVP/C def2-TZVP/JK TIGHTSCF
|  2> % maxcore 2000
|  3> % mp2 density relaxed end
|  4> *xyz 0 1
|  5>  C       -0.3368987193     1.4490104310    -0.1557762812
|  6>  C        0.0098895441    -0.0389928356     0.0461425666
|  7>  C        0.9058816673    -0.2379728863     1.2841919361
|  8>  O       -1.1893147693    -0.8126324689     0.1747453072
|  9>  C        0.7005513749    -0.5466702552    -1.1446521669
| 10>  C        1.3044335631    -0.9295771611    -2.1143213670
| 11>  C        2.0676157613    -1.3596675747    -3.2773932422
| 12>  N        1.4836370593    -2.3821590073    -3.9665530700
| 13>  O        3.1251596903    -0.8512772226    -3.5970864878
| 14>  H        0.5641146008     2.0467451482    -0.3160527666
| 15>  H       -0.9968952190     1.5658257066    -1.0178840953
| 16>  H       -0.8492138846     1.8311853034     0.7347483689
| 17>  H        0.3931460877     0.1445857050     2.1743153445
| 18>  H        1.1145782546    -1.3000997518     1.4284030095
| 19>  H        1.8527361601     0.2975799943     1.1771730261
| 20>  H       -1.6512292285    -0.4870367424     0.9556241965
| 21>  H        0.6046198069    -2.7767535442    -3.6813700110
| 22>  H        1.9480251103    -2.7323074285    -4.7881237273
| 23> *
| 24>
| 25>                          ****END OF INPUT****

CARTESIAN COORDINATES (ANGSTROEM)
---------------------------------
  C     -0.336899    1.449010   -0.155776
  C      0.009890   -0.038993    0.046143
  C      0.905882   -0.237973    1.284192
  O     -1.189315   -0.812632    0.174745
  C      0.700551   -0.546670   -1.144652
  C      1.304434   -0.929577   -2.114321
  C      2.067616   -1.359668   -3.277393
  N      1.483637   -2.382159   -3.966553
  O      3.125160   -0.851277   -3.597086
  H      0.564115    2.046745   -0.316053
  H     -0.996895    1.565826   -1.017884
  H     -0.849214    1.831185    0.734748
  H      0.393146    0.144586    2.174315
  H      1.114578   -1.300100    1.428403
  H      1.852736    0.297580    1.177173
  H     -1.651229   -0.487037    0.955624
  H      0.604620   -2.776754   -3.681370
  H      1.948025   -2.732307   -4.788124

 Total Charge           Charge          ....    0
 Multiplicity           Mult            ....    1
 Number of Electrons    NEL             ....   68
 Basis Dimension        Dim             ....  333

ORBITAL ENERGIES
----------------

  NO   OCC          E(Eh)            E(eV)
   0   2.0000     -20.572754      -559.8131
   1   2.0000     -20.525274      -558.5211
   2   2.0000     -15.588838      -424.1938
   3   2.0000     -11.376759      -309.5774
   4   2.0000     -11.330192      -308.3102
   5   2.0000     -11.254292      -306.2449
   6   2.0000     -11.240462      -305.8685
   7   2.0000     -11.236284      -305.7548
   8   2.0000     -11.236270      -305.7545
   9   2.0000      -1.389319       -37.8053
  10   2.0000      -1.382036       -37.6071
  11   2.0000      -1.218642       -33.1609
  12   2.0000      -1.097244       -29.8575
  13   2.0000      -1.029585       -28.0164
  14   2.0000      -0.958916       -26.0934
  15   2.0000      -0.898024       -24.4365
  16   2.0000      -0.842843       -22.9349
  17   2.0000      -0.756469       -20.5846
  18   2.0000      -0.695905       -18.9365
  19   2.0000      -0.687227       -18.7004
  20   2.0000      -0.680309       -18.5121
  21   2.0000      -0.629318       -17.1246
  22   2.0000      -0.619581       -16.8597
  23   2.0000      -0.598857       -16.2957
  24   2.0000      -0.587249       -15.9799
  25   2.0000      -0.565058       -15.3760
  26   2.0000      -0.550566       -14.9817
  27   2.0000      -0.529497       -14.4084
  28   2.0000      -0.513509       -13.9733
  29   2.0000      -0.467290       -12.7156
  30   2.0000      -0.453759       -12.3474
  31   2.0000      -0.420103       -11.4316
  32   2.0000      -0.407190       -11.0802
  33   2.0000      -0.397562       -10.8182
  34   0.0000       0.117319         3.1924
  35   0.0000       0.119279         3.2458
  36   0.0000       0.135271         3.6809
  37   0.0000       0.164687         4.4814
  38   0.0000       0.170682         4.6445

MULLIKEN ATOMIC CHARGES
-----------------------
   0 C :   -0.407393
   1 C :    0.028863
   2 C :   -0.407434
   3 O :   -0.446776
   4 C :    0.001005
   5 C :    0.119487
   6 C :    0.214531
   7 N :   -0.466554
   8 O :   -0.321513
   9 H :    0.140945
  10 H :    0.150216
  11 H :    0.127542
  12 H :    0.127534
  13 H :    0.150288
  14 H :    0.140943
  15 H :    0.315526
  16 H :    0.270362
  17 H :    0.262429
Sum of atomic charges:   -0.0000000

LOEWDIN ATOMIC CHARGES
----------------------
   0 C :   -0.258627
   1 C :   -0.415556
   2 C :   -0.258623
   3 O :    0.011005
   4 C :    0.006336
   5 C :   -0.015960
   6 C :   -0.481673
   7 N :   -0.002189
   8 O :    0.103689
   9 H :    0.134009
  10 H :    0.132827
  11 H :    0.123871
  12 H :    0.123872
  13 H :    0.132841
  14 H :    0.134015
  15 H :    0.177123
  16 H :    0.177566
  17 H :    0.175473

  Mayer bond orders larger than 0.1
B(  0-C ,  1-C ) :   0.9548 B(  0-C ,  9-H ) :   0.9232 B(  0-C , 10-H ) :   0.9372
B(  0-C , 11-H ) :   0.9280 B(  1-C ,  2-C ) :   0.9548 B(  1-C ,  3-O ) :   1.0615
B(  1-C ,  4-C ) :   1.0327 B(  1-C ,  5-C ) :  -0.1672 B(  2-C , 12-H ) :   0.9280
B(  2-C , 13-H ) :   0.9372 B(  2-C , 14-H ) :   0.9232 B(  3-O ,  4-C ) :  -0.1017
B(  3-O , 15-H ) :   0.8418 B(  4-C ,  5-C ) :   2.7427 B(  5-C ,  6-C ) :   0.8550
B(  5-C ,  7-N ) :  -0.1168 B(  6-C ,  7-N ) :   1.2430 B(  6-C ,  8-O ) :   2.0476
B(  7-N , 16-H ) :   0.8652 B(  7-N , 17-H ) :   0.8591

MP2 TOTAL ENERGY:     -438.366937245 Eh
FINAL SINGLE POINT ENERGY      -438.366937244720

DIPOLE MOMENT
-------------
                                X             Y             Z
Electronic contribution:      3.43599      -4.27380      -7.97094
Nuclear contribution   :     -4.54473       4.06704       8.67551
                        -----------------------------------------
Total Dipole Moment    :     -1.10874      -0.20675       0.70457
                        -----------------------------------------
Magnitude (a.u.)       :      1.32984
Magnitude (Debye)      :      3.38018

                             ****ORCA TERMINATED NORMALLY****
TOTAL RUN TIME: 0 days 0 hours 15 minutes 22 seconds 829 msec
