                         Program Version 3.0.3 - RELEASE   -
|  1> ! RI-MP2 RIJK def2-TZVP def2-TZVP/C def2-TZVP/JK TIGHTSCF
|  2> % maxcore 2000
|  3> % mp2 density relaxed end
|  4> *xyz 0 1
|  5>  N        0.0907891329     1.1692914433    -0.4564852268
|  6>  C       -0.0571024802     0.0831073312     0.3542305189
|  7>  O        0.7679851893    -0.2471482076     1.1846833339
|  8>  C       -1.3330400036    -0.7013287381     0.1550818529
|  9>  C       -2.5413115892    -0.5303016197    -0.8001042117
| 10>  N       -2.9362594090    -1.7895995644    -0.0090993132
| 11>  C       -1.4631781788    -2.2031064417    -0.1929075127
| 12>  C       -2.4111079736    -1.0195334501     1.2180640558
| 13>  H        0.9229176022     1.7298295999    -0.3674902228
| 14>  H       -0.6010165498     1.4277163802    -1.1372327005
| 15>  H       -3.2172126297     0.3139699287    -0.6347975180
| 16>  H       -2.3894452184    -0.7195543284    -1.8669113787
| 17>  H       -1.2202044097    -2.5138001149    -1.2126038274
| 18>  H       -1.1125020116    -2.9269474614     0.5450907669
| 19>  H       -2.1257587854    -1.6618043565     2.0533052806
| 20>  H       -3.0681907552    -0.2064099606     1.5380978528
| 21> *
| 22>
| 23>                          ****END OF INPUT****

CARTESIAN COORDINATES (ANGSTROEM)
---------------------------------
  N      0.090789    1.169291   -0.456485
  C     -0.057102    0.083107    0.354231
  O      0.767985   -0.247148    1.184683
  C     -1.333040   -0.701329    0.155082
  C     -2.541312   -0.530302   -0.800104
  N     -2.936259   -1.789600   -0.009099
  C     -1.463178   -2.203106   -0.192908
  C     -2.411108   -1.019533    1.218064
  H      0.922918    1.729830   -0.367490
  H     -0.601017    1.427716   -1.137233
  H     -3.217213    0.313970   -0.634798
  H     -2.389445   -0.719554   -1.866911
  H     -1.220204   -2.513800   -1.212604
  H     -1.112502   -2.926947    0.545091
  H     -2.125759   -1.661804    2.053305
  H     -3.068191   -0.206410    1.538098

 Total Charge           Charge          ....    0
 Multiplicity           Mult            ....    1
 Number of Electrons    NEL             ....   60
 Basis Dimension        Dim             ....  296

ORBITAL ENERGIES
----------------

  NO   OCC          E(Eh)            E(eV)
   0   2.0000     -20.522484      -558.4452
   1   2.0000     -15.592661      -424.2979
   2   2.0000     -15.580758      -423.9740
   3   2.0000     -11.356654      -309.0303
   4   2.0000     -11.276135      -306.8392
   5   2.0000     -11.271868      -306.7231
   6   2.0000     -11.271780      -306.7207
   7   2.0000     -11.269888      -306.6692
   8   2.0000      -1.386685       -37.7336
   9   2.0000      -1.306443       -35.5501
  10   2.0000      -1.218621       -33.1604
  11   2.0000      -0.971832       -26.4449
  12   2.0000      -0.936884       -25.4939
  13   2.0000      -0.932533       -25.3755
  14   2.0000      -0.828407       -22.5421
  15   2.0000      -0.764385       -20.8000
  16   2.0000      -0.740161       -20.1408
  17   2.0000      -0.682449       -18.5704
  18   2.0000      -0.647932       -17.6311
  19   2.0000      -0.646123       -17.5819
  20   2.0000      -0.614272       -16.7152
  21   2.0000      -0.587175       -15.9779
  22   2.0000      -0.522132       -14.2079
  23   2.0000      -0.508735       -13.8434
  24   2.0000      -0.497219       -13.5300
  25   2.0000      -0.475413       -12.9366
  26   2.0000      -0.469867       -12.7857
  27   2.0000      -0.457349       -12.4451
  28   2.0000      -0.421943       -11.4817
  29   2.0000      -0.377040       -10.2598
  30   0.0000       0.115937         3.1548
  31   0.0000       0.151759         4.1296
  32   0.0000       0.154044         4.1917
  33   0.0000       0.172728         4.7002
  34   0.0000       0.177763         4.8372

MULLIKEN ATOMIC CHARGES
-----------------------
   0 N :   -0.467603
   1 C :    0.244918
   2 O :   -0.343357
   3 C :   -0.007035
   4 C :   -0.205366
   5 N :   -0.194610
   6 C :   -0.150289
   7 C :   -0.150283
   8 H :    0.259764
   9 H :    0.262331
  10 H :    0.127572
  11 H :    0.127580
  12 H :    0.117742
  13 H :    0.130450
  14 H :    0.130454
  15 H :    0.117733
Sum of atomic charges:    0.0000000

LOEWDIN ATOMIC CHARGES
----------------------
   0 N :   -0.007894
   1 C :   -0.460821
   2 O :    0.090113
   3 C :   -0.216872
   4 C :   -0.218251
   5 N :    0.085583
   6 C :   -0.191221
   7 C :   -0.191230
   8 H :    0.174271
   9 H :    0.171761
  10 H :    0.125034
  11 H :    0.125040
  12 H :    0.126121
  13 H :    0.131125
  14 H :    0.131124
  15 H :    0.126118

  Mayer bond orders larger than 0.1
B(  0-N ,  1-C ) :   1.1778 B(  0-N ,  8-H ) :   0.8585 B(  0-N ,  9-H ) :   0.8682
B(  1-C ,  2-O ) :   2.0187 B(  1-C ,  3-C ) :   0.7947 B(  3-C ,  4-C ) :   0.8910
B(  3-C ,  6-C ) :   0.9186 B(  3-C ,  7-C ) :   0.9186 B(  4-C ,  5-N ) :   0.9298
B(  4-C , 10-H ) :   0.9304 B(  4-C , 11-H ) :   0.9304 B(  5-N ,  6-C ) :   0.9174
B(  5-N ,  7-C ) :   0.9174 B(  6-C , 12-H ) :   0.9249 B(  6-C , 13-H ) :   0.9294
B(  7-C , 14-H ) :   0.9294 B(  7-C , 15-H ) :   0.9249

MP2 TOTAL ENERGY:     -379.242189649 Eh
FINAL SINGLE POINT ENERGY      -379.242189649182

DIPOLE MOMENT
-------------
                                X             Y             Z
Electronic contribution:      2.83457       0.59133       1.40687
Nuclear contribution   :     -3.00773       0.40155      -2.35479
                        -----------------------------------------
Total Dipole Moment    :     -0.17315       0.99288      -0.94791
                        -----------------------------------------
Magnitude (a.u.)       :      1.38359
Magnitude (Debye)      :      3.51681

                             ****ORCA TERMINATED NORMALLY****
TOTAL RUN TIME: 0 days 0 hours 11 minutes 14 seconds 360 msec
