                         Program Version 3.0.3 - RELEASE   -
|  1> ! RI-MP2 RIJK def2-TZVP def2-TZVP/C def2-TZVP/JK TIGHTSCF
|  2> % maxcore 2000
|  3> % mp2 density relaxed end
|  4> *xyz 0 1
|  5>  N       -0.0331050960     1.2839514758    -0.0152791694
|  6>  C        1.2211438472     1.7189448816    -0.0265973110
|  7>  C        2.1403655122     0.6535894773    -0.0165528884
|  8>  C        1.3273911851    -0.4314844918     0.0012880397
|  9>  N        2.0920964989    -1.6570688339     0.0140316719
| 10>  C        3.1607085774    -1.1770263509     1.0345160322
| 11>  C        3.4983101065    -0.0607607003    -0.0131043282
| 12>  C        3.1516650021    -1.2041181576    -1.0280426068
| 13>  O        0.0443008803    -0.1392840116     0.0030533655
| 14>  H        1.3742113642     2.7891918274    -0.0413666444
| 15>  H        2.7524778937    -0.8789066439     2.0014923042
| 16>  H        3.9263401998    -1.9489107435     1.1480141478
| 17>  H        4.4343992439     0.4941634231    -0.0244992366
| 18>  H        3.9163639645    -1.9788022511    -1.1279367540
| 19>  H        2.7349366600    -0.9314530306    -1.9988991424
| 20> *
| 21>
| 22>                          ****END OF INPUT****

CARTESIAN COORDINATES (ANGSTROEM)
---------------------------------
  N     -0.033105    1.283951   -0.015279
  C      1.221144    1.718945   -0.026597
  C      2.140366    0.653589   -0.016553
  C      1.327391   -0.431484    0.001288
  N      2.092096   -1.657069    0.014032
  C      3.160709   -1.177026    1.034516
  C      3.498310   -0.060761   -0.013104
  C      3.151665   -1.204118   -1.028043
  O      0.044301   -0.139284    0.003053
  H      1.374211    2.789192   -0.041367
  H      2.752478   -0.878907    2.001492
  H      3.926340   -1.948911    1.148014
  H      4.434399    0.494163   -0.024499
  H      3.916364   -1.978802   -1.127937
  H      2.734937   -0.931453   -1.998899

 Total Charge           Charge          ....    0
 Multiplicity           Mult            ....    1
 Number of Electrons    NEL             ....   64
 Basis Dimension        Dim             ....  315

ORBITAL ENERGIES
----------------

  NO   OCC          E(Eh)            E(eV)
   0   2.0000     -20.649182      -561.8928
   1   2.0000     -15.613382      -424.8617
   2   2.0000     -15.600130      -424.5011
   3   2.0000     -11.333555      -308.4017
   4   2.0000     -11.291278      -307.2513
   5   2.0000     -11.289917      -307.2143
   6   2.0000     -11.289897      -307.2137
   7   2.0000     -11.281096      -306.9742
   8   2.0000     -11.228320      -305.5381
   9   2.0000      -1.491828       -40.5947
  10   2.0000      -1.308591       -35.6086
  11   2.0000      -1.165630       -31.7184
  12   2.0000      -1.048447       -28.5297
  13   2.0000      -1.009492       -27.4697
  14   2.0000      -0.940008       -25.5789
  15   2.0000      -0.855122       -23.2691
  16   2.0000      -0.803678       -21.8692
  17   2.0000      -0.772188       -21.0123
  18   2.0000      -0.708102       -19.2684
  19   2.0000      -0.682682       -18.5767
  20   2.0000      -0.666931       -18.1481
  21   2.0000      -0.592864       -16.1327
  22   2.0000      -0.592547       -16.1240
  23   2.0000      -0.584478       -15.9045
  24   2.0000      -0.569157       -15.4875
  25   2.0000      -0.542774       -14.7696
  26   2.0000      -0.513249       -13.9662
  27   2.0000      -0.496252       -13.5037
  28   2.0000      -0.470255       -12.7963
  29   2.0000      -0.427522       -11.6335
  30   2.0000      -0.421071       -11.4579
  31   2.0000      -0.330677        -8.9982
  32   0.0000       0.127418         3.4672
  33   0.0000       0.137729         3.7478
  34   0.0000       0.156250         4.2518
  35   0.0000       0.162540         4.4229
  36   0.0000       0.164862         4.4861

MULLIKEN ATOMIC CHARGES
-----------------------
   0 N :   -0.108483
   1 C :   -0.140992
   2 C :   -0.082399
   3 C :    0.141642
   4 N :   -0.181883
   5 C :   -0.163186
   6 C :   -0.060559
   7 C :   -0.163183
   8 O :   -0.088209
   9 H :    0.149144
  10 H :    0.143209
  11 H :    0.133665
  12 H :    0.144365
  13 H :    0.133662
  14 H :    0.143208
Sum of atomic charges:   -0.0000000

LOEWDIN ATOMIC CHARGES
----------------------
   0 N :    0.038853
   1 C :   -0.255999
   2 C :   -0.154320
   3 C :   -0.337049
   4 N :    0.125644
   5 C :   -0.182984
   6 C :   -0.169714
   7 C :   -0.182984
   8 O :    0.314046
   9 H :    0.142382
  10 H :    0.131023
  11 H :    0.131697
  12 H :    0.136685
  13 H :    0.131696
  14 H :    0.131023

  Mayer bond orders larger than 0.1
B(  0-N ,  1-C ) :   1.5599 B(  0-N ,  3-C ) :   0.1178 B(  0-N ,  8-O ) :   0.8593
B(  1-C ,  2-C ) :   1.2147 B(  1-C ,  9-H ) :   0.9265 B(  2-C ,  3-C ) :   1.3884
B(  2-C ,  6-C ) :   0.8951 B(  3-C ,  4-N ) :   1.0191 B(  3-C ,  8-O ) :   1.2014
B(  4-N ,  5-C ) :   0.8700 B(  4-N ,  7-C ) :   0.8700 B(  5-C ,  6-C ) :   0.9143
B(  5-C , 10-H ) :   0.9266 B(  5-C , 11-H ) :   0.9210 B(  6-C ,  7-C ) :   0.9143
B(  6-C , 12-H ) :   0.9057 B(  7-C , 13-H ) :   0.9210 B(  7-C , 14-H ) :   0.9266

MP2 TOTAL ENERGY:     -416.002991673 Eh
FINAL SINGLE POINT ENERGY      -416.002991673420

DIPOLE MOMENT
-------------
                                X             Y             Z
Electronic contribution:     -5.83999       1.68032       0.00356
Nuclear contribution   :      7.64211      -1.56878      -0.01295
                        -----------------------------------------
Total Dipole Moment    :      1.80212       0.11154      -0.00940
                        -----------------------------------------
Magnitude (a.u.)       :      1.80559
Magnitude (Debye)      :      4.58946

                             ****ORCA TERMINATED NORMALLY****
TOTAL RUN TIME: 0 days 0 hours 17 minutes 38 seconds 876 msec
