                         Program Version 3.0.3 - RELEASE   -
|  1> ! RI-MP2 RIJK def2-TZVP def2-TZVP/C def2-TZVP/JK TIGHTSCF
|  2> % maxcore 2000
|  3> % mp2 density relaxed end
|  4> *xyz 0 1
|  5>  C       -0.1624171526    -1.2081618045     0.2548737175
|  6>  C       -0.0687244445    -0.0122323718     0.1772410511
|  7>  C        0.0213426250     1.4160581661     0.0479304252
|  8>  N        0.7615356887     2.1601415125     1.0971482920
|  9>  C        1.3062881495     2.1221665672    -0.2633794440
| 10>  C        2.6122685743     1.3840696370    -0.4364426283
| 11>  C        3.7800010749     2.1879674075     0.1729731259
| 12>  C        5.0668341356     1.5152903100     0.0176125265
| 13>  N        6.0778954998     0.9722950066    -0.1177901597
| 14>  H       -0.2417961274    -2.2643357292     0.3342825654
| 15>  H       -0.8776906707     1.8863971359    -0.3450583882
| 16>  H        0.2924043789     3.0436156426     1.2785798670
| 17>  H        1.2023764542     3.0232194218    -0.8679622662
| 18>  H        2.5489838171     0.4089366467     0.0523642167
| 19>  H        2.7976743883     1.2044604447    -1.5007133166
| 20>  H        3.8502172021     3.1786254847    -0.2921899908
| 21>  H        3.5868162067     2.3475828221     1.2392333565
| 22> *
| 23>
| 24>                          ****END OF INPUT****

CARTESIAN COORDINATES (ANGSTROEM)
---------------------------------
  C     -0.162417   -1.208162    0.254874
  C     -0.068724   -0.012232    0.177241
  C      0.021343    1.416058    0.047930
  N      0.761536    2.160142    1.097148
  C      1.306288    2.122167   -0.263379
  C      2.612269    1.384070   -0.436443
  C      3.780001    2.187967    0.172973
  C      5.066834    1.515290    0.017613
  N      6.077895    0.972295   -0.117790
  H     -0.241796   -2.264336    0.334283
  H     -0.877691    1.886397   -0.345058
  H      0.292404    3.043616    1.278580
  H      1.202376    3.023219   -0.867962
  H      2.548984    0.408937    0.052364
  H      2.797674    1.204460   -1.500713
  H      3.850217    3.178625   -0.292190
  H      3.586816    2.347583    1.239233

 Total Charge           Charge          ....    0
 Multiplicity           Mult            ....    1
 Number of Electrons    NEL             ....   64
 Basis Dimension        Dim             ....  327

ORBITAL ENERGIES
----------------

  NO   OCC          E(Eh)            E(eV)
   0   2.0000     -15.587438      -424.1557
   1   2.0000     -15.565643      -423.5627
   2   2.0000     -11.304646      -307.6151
   3   2.0000     -11.293426      -307.3097
   4   2.0000     -11.282477      -307.0118
   5   2.0000     -11.270479      -306.6853
   6   2.0000     -11.255822      -306.2865
   7   2.0000     -11.245957      -306.0180
   8   2.0000     -11.236959      -305.7732
   9   2.0000      -1.294795       -35.2332
  10   2.0000      -1.215750       -33.0822
  11   2.0000      -1.091079       -29.6898
  12   2.0000      -1.050124       -28.5753
  13   2.0000      -0.961393       -26.1608
  14   2.0000      -0.921747       -25.0820
  15   2.0000      -0.827862       -22.5273
  16   2.0000      -0.744624       -20.2622
  17   2.0000      -0.732271       -19.9261
  18   2.0000      -0.703412       -19.1408
  19   2.0000      -0.661008       -17.9870
  20   2.0000      -0.651949       -17.7404
  21   2.0000      -0.589500       -16.0411
  22   2.0000      -0.569408       -15.4944
  23   2.0000      -0.554720       -15.0947
  24   2.0000      -0.541089       -14.7238
  25   2.0000      -0.514677       -14.0051
  26   2.0000      -0.501166       -13.6374
  27   2.0000      -0.459833       -12.5127
  28   2.0000      -0.454721       -12.3736
  29   2.0000      -0.437572       -11.9070
  30   2.0000      -0.402388       -10.9495
  31   2.0000      -0.382189       -10.3999
  32   0.0000       0.110199         2.9987
  33   0.0000       0.134837         3.6691
  34   0.0000       0.146883         3.9969
  35   0.0000       0.159471         4.3394
  36   0.0000       0.165006         4.4900

MULLIKEN ATOMIC CHARGES
-----------------------
   0 C :   -0.092915
   1 C :    0.025220
   2 C :   -0.288554
   3 N :   -0.377072
   4 C :    0.054347
   5 C :   -0.265423
   6 C :   -0.131730
   7 C :   -0.186141
   8 N :   -0.058719
   9 H :    0.196534
  10 H :    0.144116
  11 H :    0.226230
  12 H :    0.135992
  13 H :    0.159647
  14 H :    0.135719
  15 H :    0.150237
  16 H :    0.172512
Sum of atomic charges:    0.0000000

LOEWDIN ATOMIC CHARGES
----------------------
   0 C :   -0.078147
   1 C :   -0.094333
   2 C :   -0.238253
   3 N :    0.022580
   4 C :   -0.247921
   5 C :   -0.222090
   6 C :   -0.240086
   7 C :   -0.193467
   8 N :    0.054488
   9 H :    0.129452
  10 H :    0.155908
  11 H :    0.170358
  12 H :    0.141446
  13 H :    0.158947
  14 H :    0.150125
  15 H :    0.162246
  16 H :    0.168746

  Mayer bond orders larger than 0.1
B(  0-C ,  1-C ) :   2.5872 B(  0-C ,  2-C ) :  -0.1471 B(  0-C ,  9-H ) :   0.8929
B(  1-C ,  2-C ) :   1.1704 B(  2-C ,  3-N ) :   0.9651 B(  2-C ,  4-C ) :   0.8921
B(  2-C , 10-H ) :   0.9378 B(  3-N ,  4-C ) :   0.8428 B(  3-N , 11-H ) :   0.8636
B(  4-C ,  5-C ) :   0.9173 B(  4-C , 12-H ) :   0.9146 B(  5-C ,  6-C ) :   0.9226
B(  5-C , 13-H ) :   0.9250 B(  5-C , 14-H ) :   0.9322 B(  6-C ,  7-C ) :   0.9384
B(  6-C , 15-H ) :   0.9061 B(  6-C , 16-H ) :   0.9040 B(  7-C ,  8-N ) :   2.8843

MP2 TOTAL ENERGY:     -380.140335142 Eh
FINAL SINGLE POINT ENERGY      -380.140335142340

DIPOLE MOMENT
-------------
                                X             Y             Z
Electronic contribution:      2.17349      -1.90171       0.59888
Nuclear contribution   :     -3.87330       2.93507      -0.91960
                        -----------------------------------------
Total Dipole Moment    :     -1.69981       1.03335      -0.32072
                        -----------------------------------------
Magnitude (a.u.)       :      2.01495
Magnitude (Debye)      :      5.12160

                             ****ORCA TERMINATED NORMALLY****
TOTAL RUN TIME: 0 days 0 hours 14 minutes 31 seconds 128 msec
