                         Program Version 3.0.3 - RELEASE   -
|  1> ! RI-MP2 RIJK def2-TZVP def2-TZVP/C def2-TZVP/JK TIGHTSCF
|  2> % maxcore 2000
|  3> % mp2 density relaxed end
|  4> *xyz 0 1
|  5>  C       -0.0354579447     1.5381581615    -0.1229650805
|  6>  C        0.0313477306     0.0289135267    -0.0016647320
|  7>  C       -1.2039287407    -0.6920407514    -0.5206835346
|  8>  C        1.3060723668    -0.7387669774    -0.1984265846
|  9>  N        2.4598147467     0.0668136157     0.2681835838
| 10>  C        1.9585371043    -0.0594252439     1.6757036145
| 11>  C        1.9123067202     1.1826667897     2.4560020308
| 12>  N        1.8767681454     2.1412658041     3.1006193942
| 13>  C        0.6516045577    -0.7014222175     1.1812869420
| 14>  H        0.9187438170     2.0098313210     0.1131793012
| 15>  H       -0.2989686741     1.8163804532    -1.1497754506
| 16>  H       -0.8012750280     1.9508503885     0.5420224503
| 17>  H       -1.3837877091    -0.4399017475    -1.5711921862
| 18>  H       -1.1023850982    -1.7801124587    -0.4484968208
| 19>  H       -2.0923106777    -0.4007565154     0.0502305543
| 20>  H        1.4296450113    -1.5509692355    -0.9057297471
| 21>  H        3.3392969470    -0.4261730678     0.1613582971
| 22>  H        2.5344535214    -0.7919847560     2.2517372058
| 23>  H        0.1123507140    -1.4544158490     1.7416947325
| 24> *
| 25>
| 26>                          ****END OF INPUT****

CARTESIAN COORDINATES (ANGSTROEM)
---------------------------------
  C     -0.035458    1.538158   -0.122965
  C      0.031348    0.028914   -0.001665
  C     -1.203929   -0.692041   -0.520684
  C      1.306072   -0.738767   -0.198427
  N      2.459815    0.066814    0.268184
  C      1.958537   -0.059425    1.675704
  C      1.912307    1.182667    2.456002
  N      1.876768    2.141266    3.100619
  C      0.651605   -0.701422    1.181287
  H      0.918744    2.009831    0.113179
  H     -0.298969    1.816380   -1.149775
  H     -0.801275    1.950850    0.542022
  H     -1.383788   -0.439902   -1.571192
  H     -1.102385   -1.780112   -0.448497
  H     -2.092311   -0.400757    0.050231
  H      1.429645   -1.550969   -0.905730
  H      3.339297   -0.426173    0.161358
  H      2.534454   -0.791985    2.251737
  H      0.112351   -1.454416    1.741695

 Total Charge           Charge          ....    0
 Multiplicity           Mult            ....    1
 Number of Electrons    NEL             ....   66
 Basis Dimension        Dim             ....  339

ORBITAL ENERGIES
----------------

  NO   OCC          E(Eh)            E(eV)
   0   2.0000     -15.576238      -423.8510
   1   2.0000     -15.567151      -423.6037
   2   2.0000     -11.318495      -307.9919
   3   2.0000     -11.281191      -306.9768
   4   2.0000     -11.267191      -306.5959
   5   2.0000     -11.257038      -306.3196
   6   2.0000     -11.255635      -306.2814
   7   2.0000     -11.230402      -305.5948
   8   2.0000     -11.213756      -305.1418
   9   2.0000      -1.290612       -35.1193
  10   2.0000      -1.211656       -32.9708
  11   2.0000      -1.118379       -30.4326
  12   2.0000      -0.999185       -27.1892
  13   2.0000      -0.973014       -26.4771
  14   2.0000      -0.943053       -25.6618
  15   2.0000      -0.802466       -21.8362
  16   2.0000      -0.763079       -20.7644
  17   2.0000      -0.735991       -20.0273
  18   2.0000      -0.687828       -18.7168
  19   2.0000      -0.634086       -17.2543
  20   2.0000      -0.599112       -16.3027
  21   2.0000      -0.593774       -16.1574
  22   2.0000      -0.573178       -15.5970
  23   2.0000      -0.563542       -15.3348
  24   2.0000      -0.547628       -14.9017
  25   2.0000      -0.544255       -14.8099
  26   2.0000      -0.533246       -14.5104
  27   2.0000      -0.495011       -13.4699
  28   2.0000      -0.473400       -12.8819
  29   2.0000      -0.458611       -12.4794
  30   2.0000      -0.447575       -12.1791
  31   2.0000      -0.412530       -11.2255
  32   2.0000      -0.371016       -10.0959
  33   0.0000       0.117639         3.2011
  34   0.0000       0.135034         3.6745
  35   0.0000       0.144939         3.9440
  36   0.0000       0.161429         4.3927
  37   0.0000       0.179969         4.8972

MULLIKEN ATOMIC CHARGES
-----------------------
   0 C :   -0.398462
   1 C :    0.097798
   2 C :   -0.442541
   3 C :   -0.034755
   4 N :   -0.353419
   5 C :    0.076806
   6 C :   -0.182472
   7 N :   -0.052547
   8 C :   -0.209769
   9 H :    0.168782
  10 H :    0.127100
  11 H :    0.135590
  12 H :    0.141633
  13 H :    0.132159
  14 H :    0.143725
  15 H :    0.138552
  16 H :    0.217015
  17 H :    0.148708
  18 H :    0.146098
Sum of atomic charges:    0.0000000

LOEWDIN ATOMIC CHARGES
----------------------
   0 C :   -0.257379
   1 C :   -0.261266
   2 C :   -0.256255
   3 C :   -0.185821
   4 N :    0.030910
   5 C :   -0.235592
   6 C :   -0.169268
   7 N :    0.066559
   8 C :   -0.131582
   9 H :    0.137333
  10 H :    0.129213
  11 H :    0.131060
  12 H :    0.129566
  13 H :    0.129815
  14 H :    0.130670
  15 H :    0.134910
  16 H :    0.167676
  17 H :    0.167370
  18 H :    0.142081

  Mayer bond orders larger than 0.1
B(  0-C ,  1-C ) :   0.9199 B(  0-C ,  9-H ) :   0.9230 B(  0-C , 10-H ) :   0.9320
B(  0-C , 11-H ) :   0.9333 B(  1-C ,  2-C ) :   0.8918 B(  1-C ,  3-C ) :   0.8771
B(  1-C ,  8-C ) :   0.8467 B(  2-C , 12-H ) :   0.9424 B(  2-C , 13-H ) :   0.9276
B(  2-C , 14-H ) :   0.9421 B(  3-C ,  4-N ) :   0.9751 B(  3-C ,  8-C ) :   0.8576
B(  3-C , 15-H ) :   0.9109 B(  4-N ,  5-C ) :   0.9809 B(  4-N , 16-H ) :   0.8778
B(  5-C ,  6-C ) :   0.9275 B(  5-C ,  8-C ) :   0.8822 B(  5-C , 17-H ) :   0.9092
B(  6-C ,  7-N ) :   2.8611 B(  8-C , 18-H ) :   0.9198

MP2 TOTAL ENERGY:     -381.360597099 Eh
FINAL SINGLE POINT ENERGY      -381.360597099090

DIPOLE MOMENT
-------------
                                X             Y             Z
Electronic contribution:      6.51926       2.07507       6.23931
Nuclear contribution   :     -6.62708      -3.79961      -7.06067
                        -----------------------------------------
Total Dipole Moment    :     -0.10782      -1.72455      -0.82136
                        -----------------------------------------
Magnitude (a.u.)       :      1.91319
Magnitude (Debye)      :      4.86295

                             ****ORCA TERMINATED NORMALLY****
TOTAL RUN TIME: 0 days 0 hours 21 minutes 29 seconds 601 msec
