                         Program Version 3.0.3 - RELEASE   -
|  1> ! RI-MP2 RIJK def2-TZVP def2-TZVP/C def2-TZVP/JK TIGHTSCF
|  2> % maxcore 2000
|  3> % mp2 density relaxed end
|  4> *xyz 0 1
|  5>  N       -0.1767061494     1.3005615893    -0.2143364810
|  6>  C       -0.0168491695     0.1053405264     0.1594565066
|  7>  O        1.0993629302    -0.3066504261     0.8302859710
|  8>  C        1.3600919227    -1.6919077587     1.0389035767
|  9>  C        0.1276679471    -2.4721032653     1.4321122593
| 10>  O       -0.8148878073    -1.7764102278     2.2216825953
| 11>  C       -1.1690873046    -2.0643576153     0.8577245958
| 12>  C       -1.1268981213    -0.9098330742    -0.0926116248
| 13>  O       -1.8975590593    -0.8077131276    -1.0123153098
| 14>  H        0.6394979485     1.8635193033     0.0380098609
| 15>  H        1.8047072869    -2.1408979318     0.1394649376
| 16>  H        2.1069294295    -1.7247652849     1.8371446426
| 17>  H        0.2864537935    -3.5202727829     1.6850152923
| 18>  H       -1.9769265070    -2.7756354445     0.7091723676
| 19> *
| 20>
| 21>                          ****END OF INPUT****

CARTESIAN COORDINATES (ANGSTROEM)
---------------------------------
  N     -0.176706    1.300562   -0.214336
  C     -0.016849    0.105341    0.159457
  O      1.099363   -0.306650    0.830286
  C      1.360092   -1.691908    1.038904
  C      0.127668   -2.472103    1.432112
  O     -0.814888   -1.776410    2.221683
  C     -1.169087   -2.064358    0.857725
  C     -1.126898   -0.909833   -0.092612
  O     -1.897559   -0.807713   -1.012315
  H      0.639498    1.863519    0.038010
  H      1.804707   -2.140898    0.139465
  H      2.106929   -1.724765    1.837145
  H      0.286454   -3.520273    1.685015
  H     -1.976927   -2.775635    0.709172

 Total Charge           Charge          ....    0
 Multiplicity           Mult            ....    1
 Number of Electrons    NEL             ....   66
 Basis Dimension        Dim             ....  309

ORBITAL ENERGIES
----------------

  NO   OCC          E(Eh)            E(eV)
   0   2.0000     -20.618055      -561.0458
   1   2.0000     -20.614604      -560.9519
   2   2.0000     -20.581683      -560.0561
   3   2.0000     -15.561222      -423.4424
   4   2.0000     -11.364150      -309.2342
   5   2.0000     -11.359487      -309.1074
   6   2.0000     -11.334473      -308.4267
   7   2.0000     -11.329226      -308.2839
   8   2.0000     -11.325276      -308.1764
   9   2.0000      -1.473356       -40.0920
  10   2.0000      -1.439751       -39.1776
  11   2.0000      -1.419699       -38.6320
  12   2.0000      -1.218580       -33.1593
  13   2.0000      -1.045503       -28.4496
  14   2.0000      -1.016895       -27.6711
  15   2.0000      -0.898457       -24.4483
  16   2.0000      -0.883682       -24.0462
  17   2.0000      -0.758836       -20.6490
  18   2.0000      -0.750720       -20.4281
  19   2.0000      -0.732800       -19.9405
  20   2.0000      -0.698026       -18.9943
  21   2.0000      -0.667545       -18.1648
  22   2.0000      -0.647347       -17.6152
  23   2.0000      -0.634890       -17.2762
  24   2.0000      -0.611410       -16.6373
  25   2.0000      -0.580576       -15.7983
  26   2.0000      -0.555491       -15.1157
  27   2.0000      -0.553092       -15.0504
  28   2.0000      -0.495442       -13.4817
  29   2.0000      -0.474178       -12.9030
  30   2.0000      -0.462143       -12.5755
  31   2.0000      -0.440673       -11.9913
  32   2.0000      -0.418081       -11.3766
  33   0.0000       0.071141         1.9359
  34   0.0000       0.130290         3.5454
  35   0.0000       0.151971         4.1353
  36   0.0000       0.167458         4.5568
  37   0.0000       0.176824         4.8116

MULLIKEN ATOMIC CHARGES
-----------------------
   0 N :   -0.317927
   1 C :    0.124894
   2 O :   -0.249977
   3 C :   -0.037464
   4 C :    0.009134
   5 O :   -0.296140
   6 C :    0.004926
   7 C :    0.194628
   8 O :   -0.226890
   9 H :    0.227268
  10 H :    0.126374
  11 H :    0.143335
  12 H :    0.144611
  13 H :    0.153229
Sum of atomic charges:   -0.0000000

LOEWDIN ATOMIC CHARGES
----------------------
   0 N :   -0.004974
   1 C :   -0.374191
   2 O :    0.248403
   3 C :   -0.269799
   4 C :   -0.270224
   5 O :    0.205518
   6 C :   -0.214803
   7 C :   -0.282778
   8 O :    0.209352
   9 H :    0.173074
  10 H :    0.138390
  11 H :    0.143346
  12 H :    0.147980
  13 H :    0.150705

  Mayer bond orders larger than 0.1
B(  0-N ,  1-C ) :   2.0431 B(  0-N ,  9-H ) :   0.8516 B(  1-C ,  2-O ) :   1.0590
B(  1-C ,  7-C ) :   0.8641 B(  2-O ,  3-C ) :   0.8978 B(  3-C ,  4-C ) :   0.9336
B(  3-C , 10-H ) :   0.9228 B(  3-C , 11-H ) :   0.9198 B(  4-C ,  5-O ) :   0.9166
B(  4-C ,  6-C ) :   0.9124 B(  4-C , 12-H ) :   0.9044 B(  5-O ,  6-C ) :   0.9047
B(  6-C ,  7-C ) :   0.9253 B(  6-C , 13-H ) :   0.9197 B(  7-C ,  8-O ) :   1.9863

MP2 TOTAL ENERGY:     -473.056377642 Eh
FINAL SINGLE POINT ENERGY      -473.056377642271

DIPOLE MOMENT
-------------
                                X             Y             Z
Electronic contribution:     -2.70952       1.87040      -0.82291
Nuclear contribution   :      3.97600      -3.31226       1.37302
                        -----------------------------------------
Total Dipole Moment    :      1.26648      -1.44186       0.55010
                        -----------------------------------------
Magnitude (a.u.)       :      1.99639
Magnitude (Debye)      :      5.07441

                             ****ORCA TERMINATED NORMALLY****
TOTAL RUN TIME: 0 days 0 hours 14 minutes 25 seconds 47 msec
