                         Program Version 3.0.3 - RELEASE   -
|  1> ! RI-MP2 RIJK def2-TZVP def2-TZVP/C def2-TZVP/JK TIGHTSCF
|  2> % maxcore 2000
|  3> % mp2 density relaxed end
|  4> *xyz 0 1
|  5>  O       -0.0832008681     1.4078577157    -0.0449856409
|  6>  C       -0.0000102772     0.0268449032    -0.0247566561
|  7>  C       -1.1333800194    -0.9765507140     0.0915917056
|  8>  C       -0.6031099111    -1.7550427251    -1.1169210224
|  9>  C        0.6708131954    -0.8406678028    -1.1183651133
| 10>  C        1.9318727127    -1.5385237931    -0.6182469480
| 11>  O        1.6276520320    -2.4245112146     0.4492902553
| 12>  C        1.0082278874    -1.8044980393     1.5644537163
| 13>  C       -0.0933256466    -0.8226233298     1.2029285754
| 14>  H        0.6673586806     1.7691002516     0.4389744355
| 15>  H       -2.1775203301    -0.7866213615     0.3103769827
| 16>  H       -0.4336887459    -2.8262029803    -0.9938557186
| 17>  H       -1.2206783007    -1.5810145381    -2.0014042856
| 18>  H        0.8419853091    -0.3073455351    -2.0553930540
| 19>  H        2.3809804345    -2.1656919322    -1.3948706871
| 20>  H        2.6853722296    -0.7929236710    -0.3070974740
| 21>  H        0.6253855163    -2.6248567157     2.1813743115
| 22>  H        1.7658189654    -1.2668684064     2.1639794997
| 23>  H       -0.5006950138    -0.2932399117     2.0618329078
| 24> *
| 25>
| 26>                          ****END OF INPUT****

CARTESIAN COORDINATES (ANGSTROEM)
---------------------------------
  O     -0.083201    1.407858   -0.044986
  C     -0.000010    0.026845   -0.024757
  C     -1.133380   -0.976551    0.091592
  C     -0.603110   -1.755043   -1.116921
  C      0.670813   -0.840668   -1.118365
  C      1.931873   -1.538524   -0.618247
  O      1.627652   -2.424511    0.449290
  C      1.008228   -1.804498    1.564454
  C     -0.093326   -0.822623    1.202929
  H      0.667359    1.769100    0.438974
  H     -2.177520   -0.786621    0.310377
  H     -0.433689   -2.826203   -0.993856
  H     -1.220678   -1.581015   -2.001404
  H      0.841985   -0.307346   -2.055393
  H      2.380980   -2.165692   -1.394871
  H      2.685372   -0.792924   -0.307097
  H      0.625386   -2.624857    2.181374
  H      1.765819   -1.266868    2.163979
  H     -0.500695   -0.293240    2.061833

 Total Charge           Charge          ....    0
 Multiplicity           Mult            ....    1
 Number of Electrons    NEL             ....   68
 Basis Dimension        Dim             ....  339

ORBITAL ENERGIES
----------------

  NO   OCC          E(Eh)            E(eV)
   0   2.0000     -20.570532      -559.7526
   1   2.0000     -20.551583      -559.2370
   2   2.0000     -11.284589      -307.0693
   3   2.0000     -11.276988      -306.8624
   4   2.0000     -11.273644      -306.7715
   5   2.0000     -11.235363      -305.7298
   6   2.0000     -11.231008      -305.6113
   7   2.0000     -11.230927      -305.6090
   8   2.0000     -11.223142      -305.3972
   9   2.0000      -1.382320       -37.6148
  10   2.0000      -1.371692       -37.3256
  11   2.0000      -1.183263       -32.1982
  12   2.0000      -1.040770       -28.3208
  13   2.0000      -0.938675       -25.5426
  14   2.0000      -0.924011       -25.1436
  15   2.0000      -0.849819       -23.1247
  16   2.0000      -0.760476       -20.6936
  17   2.0000      -0.742848       -20.2139
  18   2.0000      -0.706594       -19.2274
  19   2.0000      -0.663939       -18.0667
  20   2.0000      -0.649234       -17.6666
  21   2.0000      -0.646131       -17.5821
  22   2.0000      -0.615856       -16.7583
  23   2.0000      -0.598047       -16.2737
  24   2.0000      -0.564629       -15.3643
  25   2.0000      -0.547816       -14.9068
  26   2.0000      -0.529027       -14.3956
  27   2.0000      -0.519692       -14.1415
  28   2.0000      -0.502280       -13.6677
  29   2.0000      -0.459947       -12.5158
  30   2.0000      -0.447369       -12.1735
  31   2.0000      -0.431882       -11.7521
  32   2.0000      -0.381467       -10.3802
  33   2.0000      -0.365161        -9.9365
  34   0.0000       0.125049         3.4027
  35   0.0000       0.154583         4.2064
  36   0.0000       0.163912         4.4603
  37   0.0000       0.177150         4.8205
  38   0.0000       0.182269         4.9598

MULLIKEN ATOMIC CHARGES
-----------------------
   0 O :   -0.450540
   1 C :    0.127319
   2 C :   -0.111901
   3 C :   -0.264789
   4 C :   -0.006899
   5 C :   -0.096606
   6 O :   -0.320723
   7 C :    0.012641
   8 C :   -0.259785
   9 H :    0.327213
  10 H :    0.135649
  11 H :    0.125490
  12 H :    0.118942
  13 H :    0.118163
  14 H :    0.125740
  15 H :    0.091721
  16 H :    0.118183
  17 H :    0.085460
  18 H :    0.124721
Sum of atomic charges:   -0.0000000

LOEWDIN ATOMIC CHARGES
----------------------
   0 O :    0.029222
   1 C :   -0.302200
   2 C :   -0.140214
   3 C :   -0.188404
   4 C :   -0.187309
   5 C :   -0.296154
   6 O :    0.154702
   7 C :   -0.297343
   8 C :   -0.186570
   9 H :    0.184926
  10 H :    0.138567
  11 H :    0.131575
  12 H :    0.136826
  13 H :    0.150748
  14 H :    0.131546
  15 H :    0.122472
  16 H :    0.132717
  17 H :    0.123137
  18 H :    0.161757

  Mayer bond orders larger than 0.1
B(  0-O ,  1-C ) :   1.0108 B(  0-O ,  9-H ) :   0.8353 B(  1-C ,  2-C ) :   0.8306
B(  1-C ,  4-C ) :   0.8854 B(  1-C ,  8-C ) :   0.9506 B(  2-C ,  3-C ) :   0.9703
B(  2-C ,  8-C ) :   0.8479 B(  2-C , 10-H ) :   0.9094 B(  3-C ,  4-C ) :   0.9460
B(  3-C , 11-H ) :   0.9075 B(  3-C , 12-H ) :   0.9258 B(  4-C ,  5-C ) :   0.9126
B(  4-C , 13-H ) :   0.9006 B(  5-C ,  6-O ) :   0.9145 B(  5-C , 14-H ) :   0.9283
B(  5-C , 15-H ) :   0.9332 B(  6-O ,  7-C ) :   0.9413 B(  7-C ,  8-C ) :   0.8979
B(  7-C , 16-H ) :   0.9216 B(  7-C , 17-H ) :   0.9282 B(  8-C , 18-H ) :   0.9314

MP2 TOTAL ENERGY:     -422.289282292 Eh
FINAL SINGLE POINT ENERGY      -422.289282292462

DIPOLE MOMENT
-------------
                                X             Y             Z
Electronic contribution:     -0.32707       1.60049       0.33883
Nuclear contribution   :      0.58286      -1.27767      -0.11070
                        -----------------------------------------
Total Dipole Moment    :      0.25579       0.32282       0.22814
                        -----------------------------------------
Magnitude (a.u.)       :      0.47083
Magnitude (Debye)      :      1.19676

                             ****ORCA TERMINATED NORMALLY****
TOTAL RUN TIME: 0 days 0 hours 18 minutes 0 seconds 589 msec
