                         Program Version 3.0.3 - RELEASE   -
|  1> ! RI-MP2 RIJK def2-TZVP def2-TZVP/C def2-TZVP/JK TIGHTSCF
|  2> % maxcore 2000
|  3> % mp2 density relaxed end
|  4> *xyz 0 1
|  5>  N        0.0019837863     1.4234334438     0.1662300598
|  6>  C       -0.0273369920     0.0361494496     0.0645596372
|  7>  C       -1.1673711022    -0.6955889000     0.0364528858
|  8>  O       -2.3949174140    -0.1398219876     0.0338787721
|  9>  O       -1.2008510896    -2.0482877196    -0.0041326659
| 10>  C       -0.0268274190    -2.7267770509    -0.0153360089
| 11>  C        1.1648339635    -2.1108734961    -0.0023757596
| 12>  C        1.2621958750    -0.6542129519     0.0218795387
| 13>  O        2.3193865923    -0.0264086329    -0.0005029609
| 14>  H        0.9261894326     1.7593109512    -0.0827296301
| 15>  H       -0.7416483639     1.9069463367    -0.3165543610
| 16>  H       -3.0527465555    -0.8452187574     0.0130367436
| 17>  H       -0.1954239477    -3.7947784594    -0.0385553390
| 18>  H        2.0780687842    -2.6917434956    -0.0229223717
| 19> *
| 20>
| 21>                          ****END OF INPUT****

CARTESIAN COORDINATES (ANGSTROEM)
---------------------------------
  N      0.001984    1.423433    0.166230
  C     -0.027337    0.036149    0.064560
  C     -1.167371   -0.695589    0.036453
  O     -2.394917   -0.139822    0.033879
  O     -1.200851   -2.048288   -0.004133
  C     -0.026827   -2.726777   -0.015336
  C      1.164834   -2.110873   -0.002376
  C      1.262196   -0.654213    0.021880
  O      2.319387   -0.026409   -0.000503
  H      0.926189    1.759311   -0.082730
  H     -0.741648    1.906946   -0.316554
  H     -3.052747   -0.845219    0.013037
  H     -0.195424   -3.794778   -0.038555
  H      2.078069   -2.691743   -0.022922

 Total Charge           Charge          ....    0
 Multiplicity           Mult            ....    1
 Number of Electrons    NEL             ....   66
 Basis Dimension        Dim             ....  309

ORBITAL ENERGIES
----------------

  NO   OCC          E(Eh)            E(eV)
   0   2.0000     -20.661447      -562.2265
   1   2.0000     -20.624710      -561.2269
   2   2.0000     -20.523112      -558.4623
   3   2.0000     -15.552292      -423.1994
   4   2.0000     -11.383721      -309.7668
   5   2.0000     -11.341438      -308.6162
   6   2.0000     -11.330685      -308.3236
   7   2.0000     -11.270245      -306.6790
   8   2.0000     -11.250705      -306.1472
   9   2.0000      -1.515755       -41.2458
  10   2.0000      -1.425988       -38.8031
  11   2.0000      -1.366927       -37.1960
  12   2.0000      -1.210310       -32.9342
  13   2.0000      -1.093050       -29.7434
  14   2.0000      -1.042855       -28.3775
  15   2.0000      -0.902163       -24.5491
  16   2.0000      -0.877055       -23.8659
  17   2.0000      -0.778065       -21.1722
  18   2.0000      -0.755943       -20.5703
  19   2.0000      -0.717902       -19.5351
  20   2.0000      -0.698434       -19.0053
  21   2.0000      -0.677090       -18.4246
  22   2.0000      -0.639499       -17.4016
  23   2.0000      -0.628377       -17.0990
  24   2.0000      -0.621898       -16.9227
  25   2.0000      -0.590757       -16.0753
  26   2.0000      -0.583390       -15.8749
  27   2.0000      -0.559920       -15.2362
  28   2.0000      -0.550708       -14.9855
  29   2.0000      -0.473692       -12.8898
  30   2.0000      -0.423621       -11.5273
  31   2.0000      -0.386092       -10.5061
  32   2.0000      -0.310372        -8.4457
  33   0.0000       0.096861         2.6357
  34   0.0000       0.126799         3.4504
  35   0.0000       0.149677         4.0729
  36   0.0000       0.154146         4.1945
  37   0.0000       0.166681         4.5356

MULLIKEN ATOMIC CHARGES
-----------------------
   0 N :   -0.521256
   1 C :    0.001852
   2 C :    0.295989
   3 O :   -0.417904
   4 O :   -0.227790
   5 C :    0.053940
   6 C :   -0.230703
   7 C :    0.255967
   8 O :   -0.385765
   9 H :    0.269746
  10 H :    0.252418
  11 H :    0.347550
  12 H :    0.155879
  13 H :    0.150076
Sum of atomic charges:    0.0000000

LOEWDIN ATOMIC CHARGES
----------------------
   0 N :   -0.063212
   1 C :   -0.239879
   2 C :   -0.362158
   3 O :    0.092024
   4 O :    0.334350
   5 C :   -0.215724
   6 C :   -0.136711
   7 C :   -0.345334
   8 O :    0.079975
   9 H :    0.179999
  10 H :    0.169006
  11 H :    0.203557
  12 H :    0.142976
  13 H :    0.161131

  Mayer bond orders larger than 0.1
B(  0-N ,  1-C ) :   1.0544 B(  0-N ,  9-H ) :   0.8470 B(  0-N , 10-H ) :   0.8705
B(  1-C ,  2-C ) :   1.4807 B(  1-C ,  7-C ) :   1.0010 B(  2-C ,  3-O ) :   1.1383
B(  2-C ,  4-O ) :   1.0445 B(  3-O , 11-H ) :   0.8137 B(  4-O ,  5-C ) :   1.0255
B(  5-C ,  6-C ) :   1.5992 B(  5-C , 12-H ) :   0.9290 B(  6-C ,  7-C ) :   1.1051
B(  6-C , 13-H ) :   0.9029 B(  7-C ,  8-O ) :   1.8048

MP2 TOTAL ENERGY:     -473.109370407 Eh
FINAL SINGLE POINT ENERGY      -473.109370407000

DIPOLE MOMENT
-------------
                                X             Y             Z
Electronic contribution:     -0.79584      -1.03629       0.13255
Nuclear contribution   :     -0.68586       0.00771      -0.55328
                        -----------------------------------------
Total Dipole Moment    :     -1.48170      -1.02858      -0.42074
                        -----------------------------------------
Magnitude (a.u.)       :      1.85214
Magnitude (Debye)      :      4.70777

                             ****ORCA TERMINATED NORMALLY****
TOTAL RUN TIME: 0 days 0 hours 13 minutes 39 seconds 273 msec
