                         Program Version 3.0.3 - RELEASE   -
|  1> ! RI-MP2 RIJK def2-TZVP def2-TZVP/C def2-TZVP/JK TIGHTSCF
|  2> % maxcore 2000
|  3> % mp2 density relaxed end
|  4> *xyz 0 1
|  5>  C       -0.2182062476     1.9035020830     1.0187415873
|  6>  C       -0.2410354282     0.3780098514     1.0017702233
|  7>  C        1.0885494925    -0.2620751672     1.3721996345
|  8>  O        2.0875809608     0.3957521659     1.5666505405
|  9>  C        1.0897684156    -1.7729787331     1.5118356173
| 10>  C        2.4610242434    -2.4712777700     1.4833850040
| 11>  O        2.3132974557    -2.9586044630     2.8324081576
| 12>  C        1.0204678548    -2.3385655722     2.9783645858
| 13>  C        0.9747091607    -1.3814555119     4.1532839288
| 14>  H        0.5424250522     2.2872162467     0.3345618714
| 15>  H       -1.1896117005     2.3093144601     0.7232327431
| 16>  H        0.0247905551     2.2795706859     2.0160484090
| 17>  H       -1.0098611107    -0.0227433636     1.6777849884
| 18>  H       -0.5182932545    -0.0045375506     0.0084452054
| 19>  H        0.3319577032    -2.2157262460     0.8623373710
| 20>  H        2.5560750978    -3.2881416316     0.7587664422
| 21>  H        3.3054829471    -1.7816122261     1.3872117591
| 22>  H        0.2351053063    -3.1000973470     3.0809890575
| 23>  H        1.7173716923    -0.5875026056     4.0441184399
| 24>  H       -0.0193059289    -0.9309871420     4.2548245727
| 25>  H        1.1905568528    -1.9336533433     5.0731961911
| 26> *
| 27>
| 28>                          ****END OF INPUT****

CARTESIAN COORDINATES (ANGSTROEM)
---------------------------------
  C     -0.218206    1.903502    1.018742
  C     -0.241035    0.378010    1.001770
  C      1.088549   -0.262075    1.372200
  O      2.087581    0.395752    1.566651
  C      1.089768   -1.772979    1.511836
  C      2.461024   -2.471278    1.483385
  O      2.313297   -2.958604    2.832408
  C      1.020468   -2.338566    2.978365
  C      0.974709   -1.381456    4.153284
  H      0.542425    2.287216    0.334562
  H     -1.189612    2.309314    0.723233
  H      0.024791    2.279571    2.016048
  H     -1.009861   -0.022743    1.677785
  H     -0.518293   -0.004538    0.008445
  H      0.331958   -2.215726    0.862337
  H      2.556075   -3.288142    0.758766
  H      3.305483   -1.781612    1.387212
  H      0.235105   -3.100097    3.080989
  H      1.717372   -0.587503    4.044118
  H     -0.019306   -0.930987    4.254825
  H      1.190557   -1.933653    5.073196

 Total Charge           Charge          ....    0
 Multiplicity           Mult            ....    1
 Number of Electrons    NEL             ....   70
 Basis Dimension        Dim             ....  351

ORBITAL ENERGIES
----------------

  NO   OCC          E(Eh)            E(eV)
   0   2.0000     -20.549166      -559.1712
   1   2.0000     -20.548701      -559.1586
   2   2.0000     -11.333675      -308.4050
   3   2.0000     -11.297952      -307.4329
   4   2.0000     -11.280174      -306.9491
   5   2.0000     -11.247069      -306.0483
   6   2.0000     -11.246178      -306.0241
   7   2.0000     -11.222053      -305.3676
   8   2.0000     -11.220138      -305.3155
   9   2.0000      -1.395836       -37.9826
  10   2.0000      -1.379731       -37.5444
  11   2.0000      -1.072733       -29.1906
  12   2.0000      -1.037733       -28.2382
  13   2.0000      -1.006718       -27.3942
  14   2.0000      -0.906687       -24.6722
  15   2.0000      -0.873839       -23.7784
  16   2.0000      -0.793266       -21.5859
  17   2.0000      -0.716404       -19.4943
  18   2.0000      -0.701544       -19.0900
  19   2.0000      -0.675639       -18.3851
  20   2.0000      -0.644209       -17.5298
  21   2.0000      -0.635704       -17.2984
  22   2.0000      -0.617166       -16.7939
  23   2.0000      -0.581460       -15.8223
  24   2.0000      -0.579397       -15.7662
  25   2.0000      -0.549729       -14.9589
  26   2.0000      -0.537284       -14.6202
  27   2.0000      -0.534518       -14.5450
  28   2.0000      -0.524919       -14.2838
  29   2.0000      -0.518861       -14.1189
  30   2.0000      -0.491991       -13.3878
  31   2.0000      -0.472776       -12.8649
  32   2.0000      -0.451959       -12.2984
  33   2.0000      -0.421884       -11.4800
  34   2.0000      -0.406388       -11.0584
  35   0.0000       0.119193         3.2434
  36   0.0000       0.132110         3.5949
  37   0.0000       0.152095         4.1387
  38   0.0000       0.156641         4.2624
  39   0.0000       0.173720         4.7272

MULLIKEN ATOMIC CHARGES
-----------------------
   0 C :   -0.370698
   1 C :   -0.247784
   2 C :    0.132260
   3 O :   -0.298795
   4 C :   -0.066264
   5 C :   -0.022166
   6 O :   -0.327862
   7 C :    0.082221
   8 C :   -0.410583
   9 H :    0.137423
  10 H :    0.134366
  11 H :    0.131947
  12 H :    0.133815
  13 H :    0.135934
  14 H :    0.130648
  15 H :    0.096984
  16 H :    0.120954
  17 H :    0.086581
  18 H :    0.155519
  19 H :    0.119619
  20 H :    0.145880
Sum of atomic charges:   -0.0000000

LOEWDIN ATOMIC CHARGES
----------------------
   0 C :   -0.310505
   1 C :   -0.269306
   2 C :   -0.313727
   3 O :    0.159841
   4 C :   -0.189638
   5 C :   -0.242471
   6 O :    0.137088
   7 C :   -0.277905
   8 C :   -0.295398
   9 H :    0.128175
  10 H :    0.121719
  11 H :    0.126839
  12 H :    0.150269
  13 H :    0.152386
  14 H :    0.153145
  15 H :    0.117179
  16 H :    0.126515
  17 H :    0.134507
  18 H :    0.132829
  19 H :    0.125902
  20 H :    0.132556

  Mayer bond orders larger than 0.1
B(  0-C ,  1-C ) :   0.9399 B(  0-C ,  9-H ) :   0.9347 B(  0-C , 10-H ) :   0.9388
B(  0-C , 11-H ) :   0.9357 B(  1-C ,  2-C ) :   0.9327 B(  1-C , 12-H ) :   0.9122
B(  1-C , 13-H ) :   0.9095 B(  2-C ,  3-O ) :   1.9629 B(  2-C ,  4-C ) :   0.8761
B(  4-C ,  5-C ) :   0.9426 B(  4-C ,  7-C ) :   0.8934 B(  4-C , 14-H ) :   0.9168
B(  5-C ,  6-O ) :   0.9510 B(  5-C , 15-H ) :   0.9143 B(  5-C , 16-H ) :   0.9026
B(  6-O ,  7-C ) :   0.9593 B(  7-C ,  8-C ) :   0.9141 B(  7-C , 17-H ) :   0.9198
B(  8-C , 18-H ) :   0.9319 B(  8-C , 19-H ) :   0.9262 B(  8-C , 20-H ) :   0.9291

MP2 TOTAL ENERGY:     -423.519919715 Eh
FINAL SINGLE POINT ENERGY      -423.519919715468

DIPOLE MOMENT
-------------
                                X             Y             Z
Electronic contribution:      5.35281      -4.00652      -0.61345
Nuclear contribution   :     -6.58037       3.92506       0.13997
                        -----------------------------------------
Total Dipole Moment    :     -1.22756      -0.08146      -0.47348
                        -----------------------------------------
Magnitude (a.u.)       :      1.31823
Magnitude (Debye)      :      3.35067

                             ****ORCA TERMINATED NORMALLY****
TOTAL RUN TIME: 0 days 0 hours 18 minutes 19 seconds 68 msec
