                         Program Version 3.0.3 - RELEASE   -
|  1> ! RI-MP2 RIJK def2-TZVP def2-TZVP/C def2-TZVP/JK TIGHTSCF
|  2> % maxcore 2000
|  3> % mp2 density relaxed end
|  4> *xyz 0 1
|  5>  C       -0.0324232348     1.4200758507     0.2571847249
|  6>  C        0.0167008941    -0.0645663264     0.0477076312
|  7>  C       -0.8418322881    -1.0178526835     0.7979168646
|  8>  C        0.6521806481    -1.1572764112     0.9949436043
|  9>  C        1.2657973686    -1.8716283438    -0.2087474670
| 10>  C        0.6655230525    -0.7669156870    -1.1463814022
| 11>  O       -0.2687640932    -1.1534768880    -2.1293661862
| 12>  C        1.2987290116    -0.8451963304     2.2723564107
| 13>  O        0.7920351170    -0.1917536830     3.1596131526
| 14>  H        0.8936578288     1.9029790577    -0.0728705306
| 15>  H       -0.8616863635     1.8625448094    -0.3068977741
| 16>  H       -0.1783129385     1.6527692345     1.3159679828
| 17>  H       -1.3612596619    -0.5959291876     1.6515106268
| 18>  H       -1.3638494338    -1.8148907679     0.2765463064
| 19>  H        2.3591557951    -1.8829452009    -0.2097633175
| 20>  H        0.8935850227    -2.8846556224    -0.3920325973
| 21>  H        1.4612370395    -0.1445122015    -1.5780382895
| 22>  H        0.2048149413    -1.5964420960    -2.8408956355
| 23>  H        2.3404806943    -1.2284387227     2.3711117255
| 24> *
| 25>
| 26>                          ****END OF INPUT****

CARTESIAN COORDINATES (ANGSTROEM)
---------------------------------
  C     -0.032423    1.420076    0.257185
  C      0.016701   -0.064566    0.047708
  C     -0.841832   -1.017853    0.797917
  C      0.652181   -1.157276    0.994944
  C      1.265797   -1.871628   -0.208747
  C      0.665523   -0.766916   -1.146381
  O     -0.268764   -1.153477   -2.129366
  C      1.298729   -0.845196    2.272356
  O      0.792035   -0.191754    3.159613
  H      0.893658    1.902979   -0.072871
  H     -0.861686    1.862545   -0.306898
  H     -0.178313    1.652769    1.315968
  H     -1.361260   -0.595929    1.651511
  H     -1.363849   -1.814891    0.276546
  H      2.359156   -1.882945   -0.209763
  H      0.893585   -2.884656   -0.392033
  H      1.461237   -0.144512   -1.578038
  H      0.204815   -1.596442   -2.840896
  H      2.340481   -1.228439    2.371112

 Total Charge           Charge          ....    0
 Multiplicity           Mult            ....    1
 Number of Electrons    NEL             ....   68
 Basis Dimension        Dim             ....  339

ORBITAL ENERGIES
----------------

  NO   OCC          E(Eh)            E(eV)
   0   2.0000     -20.567527      -559.6709
   1   2.0000     -20.543955      -559.0294
   2   2.0000     -11.328760      -308.2712
   3   2.0000     -11.297844      -307.4300
   4   2.0000     -11.258816      -306.3680
   5   2.0000     -11.247132      -306.0500
   6   2.0000     -11.241633      -305.9004
   7   2.0000     -11.238547      -305.8164
   8   2.0000     -11.223365      -305.4033
   9   2.0000      -1.382966       -37.6324
  10   2.0000      -1.375854       -37.4389
  11   2.0000      -1.203731       -32.7552
  12   2.0000      -1.007841       -27.4248
  13   2.0000      -0.981619       -26.7112
  14   2.0000      -0.924826       -25.1658
  15   2.0000      -0.855153       -23.2699
  16   2.0000      -0.777506       -21.1570
  17   2.0000      -0.725087       -19.7306
  18   2.0000      -0.710045       -19.3213
  19   2.0000      -0.672343       -18.2954
  20   2.0000      -0.649026       -17.6609
  21   2.0000      -0.628640       -17.1062
  22   2.0000      -0.596201       -16.2235
  23   2.0000      -0.593953       -16.1623
  24   2.0000      -0.572122       -15.5682
  25   2.0000      -0.553656       -15.0658
  26   2.0000      -0.542295       -14.7566
  27   2.0000      -0.530142       -14.4259
  28   2.0000      -0.524039       -14.2598
  29   2.0000      -0.494418       -13.4538
  30   2.0000      -0.443297       -12.0627
  31   2.0000      -0.428851       -11.6696
  32   2.0000      -0.411897       -11.2083
  33   2.0000      -0.369029       -10.0418
  34   0.0000       0.112497         3.0612
  35   0.0000       0.130035         3.5384
  36   0.0000       0.152983         4.1629
  37   0.0000       0.157235         4.2786
  38   0.0000       0.179672         4.8891

MULLIKEN ATOMIC CHARGES
-----------------------
   0 C :   -0.420089
   1 C :    0.093387
   2 C :   -0.269024
   3 C :    0.015865
   4 C :   -0.202210
   5 C :    0.011801
   6 O :   -0.449642
   7 C :    0.063684
   8 O :   -0.301055
   9 H :    0.125384
  10 H :    0.148414
  11 H :    0.163527
  12 H :    0.155023
  13 H :    0.149838
  14 H :    0.120065
  15 H :    0.115340
  16 H :    0.086327
  17 H :    0.317274
  18 H :    0.076090
Sum of atomic charges:    0.0000000

LOEWDIN ATOMIC CHARGES
----------------------
   0 C :   -0.265510
   1 C :   -0.168607
   2 C :   -0.138360
   3 C :   -0.185285
   4 C :   -0.180036
   5 C :   -0.282890
   6 O :   -0.011630
   7 C :   -0.279021
   8 O :    0.114027
   9 H :    0.127908
  10 H :    0.135033
  11 H :    0.139964
  12 H :    0.154001
  13 H :    0.143716
  14 H :    0.136126
  15 H :    0.133259
  16 H :    0.135016
  17 H :    0.176814
  18 H :    0.115476

  Mayer bond orders larger than 0.1
B(  0-C ,  1-C ) :   0.9028 B(  0-C ,  9-H ) :   0.9348 B(  0-C , 10-H ) :   0.9322
B(  0-C , 11-H ) :   0.9296 B(  1-C ,  2-C ) :   0.9274 B(  1-C ,  3-C ) :   0.7082
B(  1-C ,  5-C ) :   0.8978 B(  1-C ,  6-O ) :  -0.1259 B(  2-C ,  3-C ) :   0.8562
B(  2-C , 12-H ) :   0.9240 B(  2-C , 13-H ) :   0.9076 B(  3-C ,  4-C ) :   0.9225
B(  3-C ,  7-C ) :   0.9071 B(  4-C ,  5-C ) :   0.9557 B(  4-C , 14-H ) :   0.9068
B(  4-C , 15-H ) :   0.8886 B(  5-C ,  6-O ) :   1.1371 B(  5-C , 16-H ) :   0.9455
B(  6-O , 17-H ) :   0.8426 B(  7-C ,  8-O ) :   1.9420 B(  7-C , 18-H ) :   0.9620

MP2 TOTAL ENERGY:     -422.308129730 Eh
FINAL SINGLE POINT ENERGY      -422.308129729788

DIPOLE MOMENT
-------------
                                X             Y             Z
Electronic contribution:      0.18604      -1.78697       2.58431
Nuclear contribution   :      0.45956       1.36020      -3.73072
                        -----------------------------------------
Total Dipole Moment    :      0.64560      -0.42677      -1.14641
                        -----------------------------------------
Magnitude (a.u.)       :      1.38318
Magnitude (Debye)      :      3.51577

                             ****ORCA TERMINATED NORMALLY****
TOTAL RUN TIME: 0 days 0 hours 21 minutes 13 seconds 311 msec
