                         Program Version 3.0.3 - RELEASE   -
|  1> ! RI-MP2 RIJK def2-TZVP def2-TZVP/C def2-TZVP/JK TIGHTSCF
|  2> % maxcore 2000
|  3> % mp2 density relaxed end
|  4> *xyz 0 1
|  5>  O       -0.0218885384     0.0492801619    -0.3005735676
|  6>  C       -0.0563570134     1.2208243212    -0.0339694364
|  7>  C       -1.3217402340     2.0316587383     0.2990662035
|  8>  C       -0.8091495218     3.3329031425     0.8840069402
|  9>  C        0.6866431567     3.3210750349     0.9286387566
| 10>  C        1.1537800479     2.1645257342     0.0422116297
| 11>  C        1.3247601913     2.8415734225    -1.3449607864
| 12>  C        0.2339101660     3.9372757515    -1.3413050696
| 13>  N       -0.0195287934     4.2840425487     0.0745070587
| 14>  H       -1.9388069428     2.1492076486    -0.6000349654
| 15>  H       -1.9290796065     1.4795633721     1.0232841610
| 16>  H       -1.4035998740     3.8130992533     1.6551667726
| 17>  H        1.2869248625     3.6929373842     1.7520732427
| 18>  H        2.0464655073     1.6324378695     0.3713993311
| 19>  H        2.3190236002     3.2956874903    -1.3996053906
| 20>  H        1.2325341014     2.1373442329    -2.1768070925
| 21>  H        0.5644944495     4.8408374020    -1.8603279667
| 22>  H       -0.6871600785     3.6043365014    -1.8328883112
| 23> *
| 24>
| 25>                          ****END OF INPUT****

CARTESIAN COORDINATES (ANGSTROEM)
---------------------------------
  O     -0.021889    0.049280   -0.300574
  C     -0.056357    1.220824   -0.033969
  C     -1.321740    2.031659    0.299066
  C     -0.809150    3.332903    0.884007
  C      0.686643    3.321075    0.928639
  C      1.153780    2.164526    0.042212
  C      1.324760    2.841573   -1.344961
  C      0.233910    3.937276   -1.341305
  N     -0.019529    4.284043    0.074507
  H     -1.938807    2.149208   -0.600035
  H     -1.929080    1.479563    1.023284
  H     -1.403600    3.813099    1.655167
  H      1.286925    3.692937    1.752073
  H      2.046466    1.632438    0.371399
  H      2.319024    3.295687   -1.399605
  H      1.232534    2.137344   -2.176807
  H      0.564494    4.840837   -1.860328
  H     -0.687160    3.604337   -1.832888

 Total Charge           Charge          ....    0
 Multiplicity           Mult            ....    1
 Number of Electrons    NEL             ....   66
 Basis Dimension        Dim             ....  333

ORBITAL ENERGIES
----------------

  NO   OCC          E(Eh)            E(eV)
   0   2.0000     -20.551098      -559.2238
   1   2.0000     -15.567552      -423.6146
   2   2.0000     -11.334036      -308.4148
   3   2.0000     -11.272891      -306.7510
   4   2.0000     -11.266883      -306.5875
   5   2.0000     -11.260886      -306.4243
   6   2.0000     -11.249011      -306.1011
   7   2.0000     -11.246350      -306.0287
   8   2.0000     -11.242340      -305.9196
   9   2.0000      -1.396338       -37.9963
  10   2.0000      -1.299391       -35.3582
  11   2.0000      -1.074541       -29.2397
  12   2.0000      -1.061940       -28.8969
  13   2.0000      -0.986463       -26.8430
  14   2.0000      -0.869911       -23.6715
  15   2.0000      -0.803558       -21.8659
  16   2.0000      -0.787692       -21.4342
  17   2.0000      -0.745090       -20.2749
  18   2.0000      -0.709038       -19.2939
  19   2.0000      -0.658030       -17.9059
  20   2.0000      -0.628482       -17.1019
  21   2.0000      -0.614170       -16.7124
  22   2.0000      -0.604361       -16.4455
  23   2.0000      -0.593750       -16.1568
  24   2.0000      -0.584491       -15.9048
  25   2.0000      -0.532343       -14.4858
  26   2.0000      -0.511047       -13.9063
  27   2.0000      -0.509038       -13.8516
  28   2.0000      -0.482644       -13.1334
  29   2.0000      -0.454972       -12.3804
  30   2.0000      -0.449117       -12.2211
  31   2.0000      -0.401120       -10.9150
  32   2.0000      -0.383088       -10.4244
  33   0.0000       0.124751         3.3947
  34   0.0000       0.136935         3.7262
  35   0.0000       0.160480         4.3669
  36   0.0000       0.165955         4.5159
  37   0.0000       0.180326         4.9069

MULLIKEN ATOMIC CHARGES
-----------------------
   0 O :   -0.252971
   1 C :    0.057132
   2 C :   -0.212041
   3 C :   -0.129541
   4 C :   -0.092055
   5 C :    0.059017
   6 C :   -0.277871
   7 C :   -0.158390
   8 N :   -0.206613
   9 H :    0.139624
  10 H :    0.150079
  11 H :    0.130918
  12 H :    0.143366
  13 H :    0.131787
  14 H :    0.130519
  15 H :    0.136769
  16 H :    0.130928
  17 H :    0.119343
Sum of atomic charges:   -0.0000000

LOEWDIN ATOMIC CHARGES
----------------------
   0 O :    0.161187
   1 C :   -0.285193
   2 C :   -0.210204
   3 C :   -0.221858
   4 C :   -0.195696
   5 C :   -0.189274
   6 C :   -0.219659
   7 C :   -0.265289
   8 N :    0.133602
   9 H :    0.151706
  10 H :    0.157492
  11 H :    0.141537
  12 H :    0.136886
  13 H :    0.158434
  14 H :    0.142190
  15 H :    0.141732
  16 H :    0.133502
  17 H :    0.128904

  Mayer bond orders larger than 0.1
B(  0-O ,  1-C ) :   2.0723 B(  1-C ,  2-C ) :   0.9284 B(  1-C ,  5-C ) :   0.8735
B(  2-C ,  3-C ) :   0.8999 B(  2-C ,  5-C ) :  -0.1202 B(  2-C ,  9-H ) :   0.9074
B(  2-C , 10-H ) :   0.8946 B(  3-C ,  4-C ) :   0.8925 B(  3-C ,  8-N ) :   0.9338
B(  3-C , 11-H ) :   0.9295 B(  4-C ,  5-C ) :   0.8711 B(  4-C ,  8-N ) :   0.9106
B(  4-C , 12-H ) :   0.8987 B(  5-C ,  6-C ) :   0.8613 B(  5-C , 13-H ) :   0.9079
B(  6-C ,  7-C ) :   0.9477 B(  6-C , 14-H ) :   0.9211 B(  6-C , 15-H ) :   0.9211
B(  7-C ,  8-N ) :   0.8967 B(  7-C , 16-H ) :   0.9302 B(  7-C , 17-H ) :   0.9297

MP2 TOTAL ENERGY:     -401.269701951 Eh
FINAL SINGLE POINT ENERGY      -401.269701950955

DIPOLE MOMENT
-------------
                                X             Y             Z
Electronic contribution:     -0.25889      -2.95575       1.98070
Nuclear contribution   :      0.33746       3.43860      -1.94336
                        -----------------------------------------
Total Dipole Moment    :      0.07857       0.48286       0.03734
                        -----------------------------------------
Magnitude (a.u.)       :      0.49063
Magnitude (Debye)      :      1.24708

                             ****ORCA TERMINATED NORMALLY****
TOTAL RUN TIME: 0 days 0 hours 19 minutes 45 seconds 930 msec
