                         Program Version 3.0.3 - RELEASE   -
|  1> ! RI-MP2 RIJK def2-TZVP def2-TZVP/C def2-TZVP/JK TIGHTSCF
|  2> % maxcore 2000
|  3> % mp2 density relaxed end
|  4> *xyz 0 1
|  5>  C        0.0512568733     1.5060869931    -0.0788659560
|  6>  C        0.0197275663    -0.0110016508     0.1031081100
|  7>  O        0.6712330259    -0.4114221989     1.3060256963
|  8>  C       -1.4045891692    -0.5621825278     0.0766114656
|  9>  C       -2.0926948555    -0.7851900359    -1.3024778101
| 10>  O       -1.1852073314    -1.9402314863    -1.5343217495
| 11>  C       -1.5568184308    -2.0988860051    -0.1003750931
| 12>  C       -3.0010568524    -1.8397986671    -0.6081995698
| 13>  O       -4.1054793063    -2.2680645607    -0.5866844517
| 14>  H        1.0812652534     1.8680462603    -0.0245161242
| 15>  H       -0.3687797673     1.8004697233    -1.0458371405
| 16>  H       -0.5309198212     2.0084759873     0.7044393015
| 17>  H        0.5889495754    -0.4903656701    -0.6968552311
| 18>  H        0.2776579944     0.0802030802     2.0358691075
| 19>  H       -2.0323246492    -0.1063448758     0.8532990989
| 20>  H       -2.2613581582    -0.0989344566    -2.1297460488
| 21>  H       -1.0982055673    -2.9121116891     0.4561561350
| 22> *
| 23>
| 24>                          ****END OF INPUT****

CARTESIAN COORDINATES (ANGSTROEM)
---------------------------------
  C      0.051257    1.506087   -0.078866
  C      0.019728   -0.011002    0.103108
  O      0.671233   -0.411422    1.306026
  C     -1.404589   -0.562183    0.076611
  C     -2.092695   -0.785190   -1.302478
  O     -1.185207   -1.940231   -1.534322
  C     -1.556818   -2.098886   -0.100375
  C     -3.001057   -1.839799   -0.608200
  O     -4.105479   -2.268065   -0.586684
  H      1.081265    1.868046   -0.024516
  H     -0.368780    1.800470   -1.045837
  H     -0.530920    2.008476    0.704439
  H      0.588950   -0.490366   -0.696855
  H      0.277658    0.080203    2.035869
  H     -2.032325   -0.106345    0.853299
  H     -2.261358   -0.098934   -2.129746
  H     -1.098206   -2.912112    0.456156

 Total Charge           Charge          ....    0
 Multiplicity           Mult            ....    1
 Number of Electrons    NEL             ....   68
 Basis Dimension        Dim             ....  327

ORBITAL ENERGIES
----------------

  NO   OCC          E(Eh)            E(eV)
   0   2.0000     -20.586563      -560.1889
   1   2.0000     -20.575225      -559.8803
   2   2.0000     -20.569691      -559.7298
   3   2.0000     -11.361779      -309.1697
   4   2.0000     -11.327227      -308.2295
   5   2.0000     -11.323739      -308.1346
   6   2.0000     -11.298608      -307.4508
   7   2.0000     -11.272502      -306.7404
   8   2.0000     -11.235970      -305.7463
   9   2.0000      -1.440974       -39.2109
  10   2.0000      -1.406755       -38.2798
  11   2.0000      -1.375379       -37.4260
  12   2.0000      -1.101269       -29.9670
  13   2.0000      -1.031428       -28.0666
  14   2.0000      -0.926557       -25.2129
  15   2.0000      -0.918807       -25.0020
  16   2.0000      -0.820855       -22.3366
  17   2.0000      -0.747748       -20.3473
  18   2.0000      -0.727879       -19.8066
  19   2.0000      -0.680610       -18.5203
  20   2.0000      -0.672658       -18.3039
  21   2.0000      -0.638965       -17.3871
  22   2.0000      -0.629153       -17.1201
  23   2.0000      -0.625042       -17.0083
  24   2.0000      -0.582901       -15.8615
  25   2.0000      -0.570705       -15.5297
  26   2.0000      -0.558284       -15.1917
  27   2.0000      -0.541382       -14.7317
  28   2.0000      -0.514193       -13.9919
  29   2.0000      -0.496188       -13.5020
  30   2.0000      -0.481011       -13.0890
  31   2.0000      -0.472329       -12.8527
  32   2.0000      -0.441990       -12.0272
  33   2.0000      -0.414192       -11.2707
  34   0.0000       0.118249         3.2177
  35   0.0000       0.135385         3.6840
  36   0.0000       0.148425         4.0389
  37   0.0000       0.168076         4.5736
  38   0.0000       0.172764         4.7011

MULLIKEN ATOMIC CHARGES
-----------------------
   0 C :   -0.401793
   1 C :    0.050104
   2 O :   -0.465385
   3 C :   -0.071686
   4 C :   -0.079417
   5 O :   -0.286265
   6 C :   -0.057414
   7 C :    0.240492
   8 O :   -0.225522
   9 H :    0.155856
  10 H :    0.131683
  11 H :    0.117012
  12 H :    0.132052
  13 H :    0.311458
  14 H :    0.121556
  15 H :    0.163549
  16 H :    0.163717
Sum of atomic charges:   -0.0000000

LOEWDIN ATOMIC CHARGES
----------------------
   0 C :   -0.298480
   1 C :   -0.355207
   2 O :   -0.016622
   3 C :   -0.183300
   4 C :   -0.174588
   5 O :    0.160205
   6 C :   -0.165834
   7 C :   -0.277014
   8 O :    0.184718
   9 H :    0.129886
  10 H :    0.128147
  11 H :    0.121832
  12 H :    0.155177
  13 H :    0.174064
  14 H :    0.152251
  15 H :    0.130245
  16 H :    0.134520

  Mayer bond orders larger than 0.1
B(  0-C ,  1-C ) :   0.9339 B(  0-C ,  9-H ) :   0.9417 B(  0-C , 10-H ) :   0.9346
B(  0-C , 11-H ) :   0.9184 B(  1-C ,  2-O ) :   0.9007 B(  1-C ,  3-C ) :   0.8856
B(  1-C , 12-H ) :   0.9234 B(  2-O , 13-H ) :   0.8431 B(  3-C ,  4-C ) :   0.9058
B(  3-C ,  6-C ) :   0.8992 B(  3-C , 14-H ) :   0.8911 B(  4-C ,  5-O ) :   0.8808
B(  4-C ,  7-C ) :   0.8737 B(  4-C , 15-H ) :   0.8720 B(  5-O ,  6-C ) :   0.8651
B(  6-C ,  7-C ) :   0.8791 B(  6-C , 16-H ) :   0.8853 B(  7-C ,  8-O ) :   2.0759

MP2 TOTAL ENERGY:     -458.160396183 Eh
FINAL SINGLE POINT ENERGY      -458.160396182537

DIPOLE MOMENT
-------------
                                X             Y             Z
Electronic contribution:     -5.86555      -7.66954      -1.77671
Nuclear contribution   :      6.12010       8.85872       2.24246
                        -----------------------------------------
Total Dipole Moment    :      0.25455       1.18918       0.46575
                        -----------------------------------------
Magnitude (a.u.)       :      1.30225
Magnitude (Debye)      :      3.31007

                             ****ORCA TERMINATED NORMALLY****
TOTAL RUN TIME: 0 days 0 hours 17 minutes 37 seconds 79 msec
