                         Program Version 3.0.3 - RELEASE   -
|  1> ! RI-MP2 RIJK def2-TZVP def2-TZVP/C def2-TZVP/JK TIGHTSCF
|  2> % maxcore 2000
|  3> % mp2 density relaxed end
|  4> *xyz 0 1
|  5>  C        0.0208968462     1.5785360312     0.1185378799
|  6>  C        0.0448434008     0.0706393545    -0.0064744725
|  7>  C        0.6594787959    -0.6406277047    -1.2063223171
|  8>  C        1.3113785876     0.0968821954    -2.3673142366
|  9>  C        2.7575348356    -0.3413772511    -2.6265935411
| 10>  O        3.6768909666     0.1780967913    -1.6743508296
| 11>  C        3.6084167041    -0.3767111045    -0.3950024042
| 12>  O        2.4973828234     0.0538684448     0.3601795041
| 13>  C        1.3314141319    -0.6926195559     0.1480227271
| 14>  H        0.9893130658     2.0163072237    -0.1290732782
| 15>  H       -0.7414781598     2.0199263596    -0.5325625555
| 16>  H       -0.2119463502     1.8683420293     1.1485081067
| 17>  H       -0.8294914920    -0.4211688629     0.4121603150
| 18>  H        0.1659328059    -1.5645930428    -1.4976736144
| 19>  H        0.7236384277    -0.0789842755    -3.2766947123
| 20>  H        1.3154077464     1.1784824148    -2.2054833561
| 21>  H        2.8258744451    -1.4415886505    -2.6546658111
| 22>  H        3.0997098255     0.0407222867    -3.5937642447
| 23>  H        3.6168939264    -1.4794892396    -0.4504927362
| 24>  H        4.4929875125    -0.0160271925     0.1353588111
| 25>  H        1.3166351146    -1.6354782514     0.6954211155
| 26> *
| 27>
| 28>                          ****END OF INPUT****

CARTESIAN COORDINATES (ANGSTROEM)
---------------------------------
  C      0.020897    1.578536    0.118538
  C      0.044843    0.070639   -0.006474
  C      0.659479   -0.640628   -1.206322
  C      1.311379    0.096882   -2.367314
  C      2.757535   -0.341377   -2.626594
  O      3.676891    0.178097   -1.674351
  C      3.608417   -0.376711   -0.395002
  O      2.497383    0.053868    0.360180
  C      1.331414   -0.692620    0.148023
  H      0.989313    2.016307   -0.129073
  H     -0.741478    2.019926   -0.532563
  H     -0.211946    1.868342    1.148508
  H     -0.829491   -0.421169    0.412160
  H      0.165933   -1.564593   -1.497674
  H      0.723638   -0.078984   -3.276695
  H      1.315408    1.178482   -2.205483
  H      2.825874   -1.441589   -2.654666
  H      3.099710    0.040722   -3.593764
  H      3.616894   -1.479489   -0.450493
  H      4.492988   -0.016027    0.135359
  H      1.316635   -1.635478    0.695421

 Total Charge           Charge          ....    0
 Multiplicity           Mult            ....    1
 Number of Electrons    NEL             ....   70
 Basis Dimension        Dim             ....  351

ORBITAL ENERGIES
----------------

  NO   OCC          E(Eh)            E(eV)
   0   2.0000     -20.560798      -559.4877
   1   2.0000     -20.557270      -559.3918
   2   2.0000     -11.325463      -308.1815
   3   2.0000     -11.277979      -306.8894
   4   2.0000     -11.276868      -306.8592
   5   2.0000     -11.231951      -305.6369
   6   2.0000     -11.230508      -305.5977
   7   2.0000     -11.226468      -305.4877
   8   2.0000     -11.211897      -305.0912
   9   2.0000      -1.415224       -38.5102
  10   2.0000      -1.350281       -36.7430
  11   2.0000      -1.146893       -31.2085
  12   2.0000      -1.024220       -27.8705
  13   2.0000      -0.957227       -26.0475
  14   2.0000      -0.940356       -25.5884
  15   2.0000      -0.832917       -22.6648
  16   2.0000      -0.784627       -21.3508
  17   2.0000      -0.759121       -20.6567
  18   2.0000      -0.701426       -19.0868
  19   2.0000      -0.681787       -18.5524
  20   2.0000      -0.678680       -18.4678
  21   2.0000      -0.661275       -17.9942
  22   2.0000      -0.595729       -16.2106
  23   2.0000      -0.581031       -15.8107
  24   2.0000      -0.570448       -15.5227
  25   2.0000      -0.558007       -15.1841
  26   2.0000      -0.542861       -14.7720
  27   2.0000      -0.526166       -14.3177
  28   2.0000      -0.501547       -13.6478
  29   2.0000      -0.493421       -13.4267
  30   2.0000      -0.475501       -12.9390
  31   2.0000      -0.467173       -12.7124
  32   2.0000      -0.445511       -12.1230
  33   2.0000      -0.395576       -10.7642
  34   2.0000      -0.378695       -10.3048
  35   0.0000       0.137493         3.7414
  36   0.0000       0.157792         4.2937
  37   0.0000       0.162536         4.4228
  38   0.0000       0.173634         4.7248
  39   0.0000       0.197969         5.3870

MULLIKEN ATOMIC CHARGES
-----------------------
   0 C :   -0.425155
   1 C :   -0.096097
   2 C :   -0.113090
   3 C :   -0.222164
   4 C :   -0.055128
   5 O :   -0.298303
   6 C :    0.046141
   7 O :   -0.309439
   8 C :    0.018464
   9 H :    0.154952
  10 H :    0.132220
  11 H :    0.135367
  12 H :    0.119409
  13 H :    0.119957
  14 H :    0.119389
  15 H :    0.121573
  16 H :    0.093978
  17 H :    0.130439
  18 H :    0.091237
  19 H :    0.124617
  20 H :    0.111634
Sum of atomic charges:    0.0000000

LOEWDIN ATOMIC CHARGES
----------------------
   0 C :   -0.293865
   1 C :   -0.212000
   2 C :   -0.197131
   3 C :   -0.248237
   4 C :   -0.312101
   5 O :    0.161441
   6 C :   -0.395446
   7 O :    0.192492
   8 C :   -0.281485
   9 H :    0.130012
  10 H :    0.124715
  11 H :    0.128198
  12 H :    0.148369
  13 H :    0.148390
  14 H :    0.145050
  15 H :    0.147890
  16 H :    0.121412
  17 H :    0.129683
  18 H :    0.107961
  19 H :    0.122653
  20 H :    0.132000

  Mayer bond orders larger than 0.1
B(  0-C ,  1-C ) :   0.9063 B(  0-C ,  9-H ) :   0.9331 B(  0-C , 10-H ) :   0.9382
B(  0-C , 11-H ) :   0.9343 B(  1-C ,  2-C ) :   0.8775 B(  1-C ,  8-C ) :   0.8863
B(  1-C , 12-H ) :   0.9226 B(  2-C ,  3-C ) :   0.9077 B(  2-C ,  8-C ) :   0.8697
B(  2-C , 13-H ) :   0.9230 B(  3-C ,  4-C ) :   0.9298 B(  3-C , 14-H ) :   0.9216
B(  3-C , 15-H ) :   0.9191 B(  4-C ,  5-O ) :   0.9112 B(  4-C , 16-H ) :   0.9380
B(  4-C , 17-H ) :   0.9318 B(  5-O ,  6-C ) :   0.9990 B(  6-C ,  7-O ) :   0.9514
B(  6-C , 18-H ) :   0.9426 B(  6-C , 19-H ) :   0.9318 B(  7-O ,  8-C ) :   0.9537
B(  8-C , 20-H ) :   0.9434

MP2 TOTAL ENERGY:     -423.505442909 Eh
FINAL SINGLE POINT ENERGY      -423.505442909084

DIPOLE MOMENT
-------------
                                X             Y             Z
Electronic contribution:      4.21393      -1.02737       1.33229
Nuclear contribution   :     -4.66559       0.41270      -1.61610
                        -----------------------------------------
Total Dipole Moment    :     -0.45166      -0.61466      -0.28381
                        -----------------------------------------
Magnitude (a.u.)       :      0.81385
Magnitude (Debye)      :      2.06864

                             ****ORCA TERMINATED NORMALLY****
TOTAL RUN TIME: 0 days 0 hours 18 minutes 15 seconds 257 msec
