                         Program Version 3.0.3 - RELEASE   -
|  1> ! RI-MP2 RIJK def2-TZVP def2-TZVP/C def2-TZVP/JK TIGHTSCF
|  2> % maxcore 2000
|  3> % mp2 density relaxed end
|  4> *xyz 0 1
|  5>  O       -0.0030302111     0.0482700664     0.4248366766
|  6>  C        0.0065759364     1.1877394804     0.0532439878
|  7>  O       -1.1665582913     1.8426534746    -0.2135712819
|  8>  C       -1.0105168375     3.2031471211    -0.6332855675
|  9>  C       -0.1536132382     3.2399991136    -1.9091994567
| 10>  C        1.2177699481     3.0515233617    -1.2889251164
| 11>  C        1.0602060248     3.5166960302     0.1207582423
| 12>  O       -0.2731439827     3.9159550562     0.3354387770
| 13>  C        1.2221234807     2.0253137331    -0.1434773842
| 14>  H       -2.0120208159     3.6225717075    -0.6972074315
| 15>  H       -0.4523000030     2.4584248916    -2.6101395881
| 16>  H       -0.2303929210     4.2161155198    -2.3969955411
| 17>  H        2.1242701778     3.1946214307    -1.8612413611
| 18>  H        1.7792241424     4.0760164889     0.7026929159
| 19>  H        2.1554187304     1.5422421541     0.1136199290
| 20> *
| 21>
| 22>                          ****END OF INPUT****

CARTESIAN COORDINATES (ANGSTROEM)
---------------------------------
  O     -0.003030    0.048270    0.424837
  C      0.006576    1.187739    0.053244
  O     -1.166558    1.842653   -0.213571
  C     -1.010517    3.203147   -0.633286
  C     -0.153613    3.239999   -1.909199
  C      1.217770    3.051523   -1.288925
  C      1.060206    3.516696    0.120758
  O     -0.273144    3.915955    0.335439
  C      1.222123    2.025314   -0.143477
  H     -2.012021    3.622572   -0.697207
  H     -0.452300    2.458425   -2.610140
  H     -0.230393    4.216116   -2.396996
  H      2.124270    3.194621   -1.861241
  H      1.779224    4.076016    0.702693
  H      2.155419    1.542242    0.113620

 Total Charge           Charge          ....    0
 Multiplicity           Mult            ....    1
 Number of Electrons    NEL             ....   66
 Basis Dimension        Dim             ....  315

ORBITAL ENERGIES
----------------

  NO   OCC          E(Eh)            E(eV)
   0   2.0000     -20.604446      -560.6755
   1   2.0000     -20.597259      -560.4799
   2   2.0000     -20.539745      -558.9149
   3   2.0000     -11.384897      -309.7988
   4   2.0000     -11.365808      -309.2794
   5   2.0000     -11.321159      -308.0644
   6   2.0000     -11.274132      -306.7847
   7   2.0000     -11.267654      -306.6085
   8   2.0000     -11.260060      -306.4018
   9   2.0000      -1.483593       -40.3706
  10   2.0000      -1.418693       -38.6046
  11   2.0000      -1.357633       -36.9431
  12   2.0000      -1.179298       -32.0903
  13   2.0000      -1.055833       -28.7307
  14   2.0000      -0.926861       -25.2212
  15   2.0000      -0.899015       -24.4634
  16   2.0000      -0.827853       -22.5270
  17   2.0000      -0.772293       -21.0152
  18   2.0000      -0.744262       -20.2524
  19   2.0000      -0.697490       -18.9797
  20   2.0000      -0.679191       -18.4817
  21   2.0000      -0.657571       -17.8934
  22   2.0000      -0.643976       -17.5235
  23   2.0000      -0.623161       -16.9571
  24   2.0000      -0.590869       -16.0784
  25   2.0000      -0.574854       -15.6426
  26   2.0000      -0.549031       -14.9399
  27   2.0000      -0.548416       -14.9232
  28   2.0000      -0.514116       -13.9898
  29   2.0000      -0.476687       -12.9713
  30   2.0000      -0.462025       -12.5723
  31   2.0000      -0.429333       -11.6827
  32   2.0000      -0.413771       -11.2593
  33   0.0000       0.129839         3.5331
  34   0.0000       0.152069         4.1380
  35   0.0000       0.153444         4.1754
  36   0.0000       0.177301         4.8246
  37   0.0000       0.178560         4.8589

MULLIKEN ATOMIC CHARGES
-----------------------
   0 O :   -0.278105
   1 C :    0.229892
   2 O :   -0.219639
   3 C :    0.195481
   4 C :   -0.240340
   5 C :   -0.142950
   6 C :    0.011046
   7 O :   -0.286280
   8 C :   -0.157738
   9 H :    0.145380
  10 H :    0.146018
  11 H :    0.135359
  12 H :    0.153502
  13 H :    0.155623
  14 H :    0.152750
Sum of atomic charges:    0.0000000

LOEWDIN ATOMIC CHARGES
----------------------
   0 O :    0.144181
   1 C :   -0.448168
   2 O :    0.269785
   3 C :   -0.343021
   4 C :   -0.206933
   5 C :   -0.172799
   6 C :   -0.232601
   7 O :    0.227228
   8 C :   -0.144662
   9 H :    0.143795
  10 H :    0.150712
  11 H :    0.150582
  12 H :    0.152335
  13 H :    0.146111
  14 H :    0.163454

  Mayer bond orders larger than 0.1
B(  0-O ,  1-C ) :   2.0270 B(  1-C ,  2-O ) :   1.0975 B(  1-C ,  8-C ) :   0.9846
B(  2-O ,  3-C ) :   0.8947 B(  3-C ,  4-C ) :   0.9623 B(  3-C ,  7-O ) :   0.9691
B(  3-C ,  9-H ) :   0.9265 B(  4-C ,  5-C ) :   0.9740 B(  4-C , 10-H ) :   0.9208
B(  4-C , 11-H ) :   0.9187 B(  5-C ,  6-C ) :   0.8906 B(  5-C ,  8-C ) :   0.7899
B(  5-C , 12-H ) :   0.9158 B(  6-C ,  7-O ) :   0.9658 B(  6-C ,  8-C ) :   0.8261
B(  6-C , 13-H ) :   0.9255 B(  8-C , 14-H ) :   0.9168

MP2 TOTAL ENERGY:     -457.070206784 Eh
FINAL SINGLE POINT ENERGY      -457.070206783754

DIPOLE MOMENT
-------------
                                X             Y             Z
Electronic contribution:     -1.96099      -2.80741       3.33879
Nuclear contribution   :      2.75495       4.20150      -4.35756
                        -----------------------------------------
Total Dipole Moment    :      0.79396       1.39410      -1.01877
                        -----------------------------------------
Magnitude (a.u.)       :      1.90047
Magnitude (Debye)      :      4.83060

                             ****ORCA TERMINATED NORMALLY****
TOTAL RUN TIME: 0 days 0 hours 15 minutes 58 seconds 84 msec
