                         Program Version 3.0.3 - RELEASE   -
|  1> ! RI-MP2 RIJK def2-TZVP def2-TZVP/C def2-TZVP/JK TIGHTSCF
|  2> % maxcore 2000
|  3> % mp2 density relaxed end
|  4> *xyz 0 1
|  5>  C       -0.1643310498     1.7423401349    -0.4490946624
|  6>  C       -0.2820110670     0.2144061422    -0.4124016043
|  7>  C        0.8936548175    -0.5003596652    -1.0985550732
|  8>  C        2.2210988461    -0.4102535655    -0.3746708772
|  9>  C        2.9343688495    -1.5272052164    -0.4998911628
| 10>  C        2.2069945822    -2.5591229654    -1.3250996399
| 11>  C        0.7325712663    -2.0466400879    -1.3425963653
| 12>  C       -0.0307893484    -2.7248606847    -0.1897848533
| 13>  C        0.0265514608    -2.3440852722    -2.6701485800
| 14>  H        0.7336269424     2.0931058840     0.0701786333
| 15>  H       -0.1131047514     2.1100359608    -1.4801658443
| 16>  H       -1.0266895033     2.2158664745     0.0307113428
| 17>  H       -0.3663445784    -0.1189831450     0.6283404853
| 18>  H       -1.2170890763    -0.0784025134    -0.9071170520
| 19>  H        1.0137316285    -0.0225397516    -2.0861219881
| 20>  H        2.5477286707     0.4846842319     0.1440130835
| 21>  H        3.9315158848    -1.6849556186    -0.1032413269
| 22>  H        2.6253264679    -2.6023242830    -2.3418317912
| 23>  H        2.2849137770    -3.5748379926    -0.9187712826
| 24>  H        0.4563743792    -2.5401106709     0.7728253306
| 25>  H       -1.0645805929    -2.3739305978    -0.1204561274
| 26>  H       -0.0614354564    -3.8086164887    -0.3469142720
| 27>  H       -0.0466923052    -3.4232989458    -2.8464349405
| 28>  H       -0.9931706604    -1.9418471714    -2.6779176770
| 29>  H        0.5659782369    -1.9034505523    -3.5155265352
| 30> *
| 31>
| 32>                          ****END OF INPUT****

CARTESIAN COORDINATES (ANGSTROEM)
---------------------------------
  C     -0.164331    1.742340   -0.449095
  C     -0.282011    0.214406   -0.412402
  C      0.893655   -0.500360   -1.098555
  C      2.221099   -0.410254   -0.374671
  C      2.934369   -1.527205   -0.499891
  C      2.206995   -2.559123   -1.325100
  C      0.732571   -2.046640   -1.342596
  C     -0.030789   -2.724861   -0.189785
  C      0.026551   -2.344085   -2.670149
  H      0.733627    2.093106    0.070179
  H     -0.113105    2.110036   -1.480166
  H     -1.026690    2.215866    0.030711
  H     -0.366345   -0.118983    0.628340
  H     -1.217089   -0.078403   -0.907117
  H      1.013732   -0.022540   -2.086122
  H      2.547729    0.484684    0.144013
  H      3.931516   -1.684956   -0.103241
  H      2.625326   -2.602324   -2.341832
  H      2.284914   -3.574838   -0.918771
  H      0.456374   -2.540111    0.772825
  H     -1.064581   -2.373931   -0.120456
  H     -0.061435   -3.808616   -0.346914
  H     -0.046692   -3.423299   -2.846435
  H     -0.993171   -1.941847   -2.677918
  H      0.565978   -1.903451   -3.515527

 Total Charge           Charge          ....    0
 Multiplicity           Mult            ....    1
 Number of Electrons    NEL             ....   70
 Basis Dimension        Dim             ....  375

ORBITAL ENERGIES
----------------

  NO   OCC          E(Eh)            E(eV)
   0   2.0000     -11.231600      -305.6274
   1   2.0000     -11.222369      -305.3762
   2   2.0000     -11.217402      -305.2410
   3   2.0000     -11.216721      -305.2225
   4   2.0000     -11.216550      -305.2178
   5   2.0000     -11.214512      -305.1624
   6   2.0000     -11.211600      -305.0832
   7   2.0000     -11.208907      -305.0099
   8   2.0000     -11.205428      -304.9152
   9   2.0000      -1.144417       -31.1412
  10   2.0000      -1.039021       -28.2732
  11   2.0000      -1.027283       -27.9538
  12   2.0000      -0.937560       -25.5123
  13   2.0000      -0.926218       -25.2037
  14   2.0000      -0.884758       -24.0755
  15   2.0000      -0.819267       -22.2934
  16   2.0000      -0.732204       -19.9243
  17   2.0000      -0.714872       -19.4527
  18   2.0000      -0.656081       -17.8529
  19   2.0000      -0.622727       -16.9453
  20   2.0000      -0.603144       -16.4124
  21   2.0000      -0.589440       -16.0395
  22   2.0000      -0.578971       -15.7546
  23   2.0000      -0.559841       -15.2341
  24   2.0000      -0.543746       -14.7961
  25   2.0000      -0.522145       -14.2083
  26   2.0000      -0.514169       -13.9912
  27   2.0000      -0.507690       -13.8149
  28   2.0000      -0.501646       -13.6505
  29   2.0000      -0.481976       -13.1152
  30   2.0000      -0.461735       -12.5644
  31   2.0000      -0.453703       -12.3459
  32   2.0000      -0.447595       -12.1797
  33   2.0000      -0.424802       -11.5594
  34   2.0000      -0.337866        -9.1938
  35   0.0000       0.132596         3.6081
  36   0.0000       0.151982         4.1356
  37   0.0000       0.162528         4.4226
  38   0.0000       0.171299         4.6613
  39   0.0000       0.172361         4.6902

MULLIKEN ATOMIC CHARGES
-----------------------
   0 C :   -0.400476
   1 C :   -0.232208
   2 C :    0.018833
   3 C :   -0.246909
   4 C :   -0.185964
   5 C :   -0.179292
   6 C :    0.162873
   7 C :   -0.480903
   8 C :   -0.430110
   9 H :    0.124292
  10 H :    0.125293
  11 H :    0.134289
  12 H :    0.121433
  13 H :    0.111915
  14 H :    0.081696
  15 H :    0.118520
  16 H :    0.122366
  17 H :    0.111603
  18 H :    0.117516
  19 H :    0.149288
  20 H :    0.134031
  21 H :    0.132942
  22 H :    0.131938
  23 H :    0.127969
  24 H :    0.129064
Sum of atomic charges:    0.0000000

LOEWDIN ATOMIC CHARGES
----------------------
   0 C :   -0.317258
   1 C :   -0.270674
   2 C :   -0.194787
   3 C :   -0.141917
   4 C :   -0.159810
   5 C :   -0.199897
   6 C :   -0.270754
   7 C :   -0.270703
   8 C :   -0.276773
   9 H :    0.119126
  10 H :    0.120758
  11 H :    0.120707
  12 H :    0.139469
  13 H :    0.137026
  14 H :    0.161452
  15 H :    0.136350
  16 H :    0.134388
  17 H :    0.143550
  18 H :    0.138823
  19 H :    0.130054
  20 H :    0.123812
  21 H :    0.124575
  22 H :    0.125342
  23 H :    0.124146
  24 H :    0.122994

  Mayer bond orders larger than 0.1
B(  0-C ,  1-C ) :   0.9170 B(  0-C ,  9-H ) :   0.9412 B(  0-C , 10-H ) :   0.9403
B(  0-C , 11-H ) :   0.9430 B(  1-C ,  2-C ) :   0.8922 B(  1-C , 12-H ) :   0.9279
B(  1-C , 13-H ) :   0.9403 B(  2-C ,  3-C ) :   0.9157 B(  2-C ,  6-C ) :   0.8946
B(  2-C , 14-H ) :   0.9110 B(  3-C ,  4-C ) :   1.7833 B(  3-C , 15-H ) :   0.9301
B(  4-C ,  5-C ) :   0.9512 B(  4-C , 16-H ) :   0.9326 B(  5-C ,  6-C ) :   0.9052
B(  5-C , 17-H ) :   0.9017 B(  5-C , 18-H ) :   0.9256 B(  6-C ,  7-C ) :   0.8914
B(  6-C ,  8-C ) :   0.8997 B(  7-C , 19-H ) :   0.9376 B(  7-C , 20-H ) :   0.9369
B(  7-C , 21-H ) :   0.9340 B(  8-C , 22-H ) :   0.9399 B(  8-C , 23-H ) :   0.9371
B(  8-C , 24-H ) :   0.9356

MP2 TOTAL ENERGY:     -351.730521926 Eh
FINAL SINGLE POINT ENERGY      -351.730521926283

DIPOLE MOMENT
-------------
                                X             Y             Z
Electronic contribution:      4.76379      -0.73408       0.62975
Nuclear contribution   :     -4.82378       0.72259      -0.67940
                        -----------------------------------------
Total Dipole Moment    :     -0.05999      -0.01149      -0.04965
                        -----------------------------------------
Magnitude (a.u.)       :      0.07871
Magnitude (Debye)      :      0.20007

                             ****ORCA TERMINATED NORMALLY****
TOTAL RUN TIME: 0 days 0 hours 37 minutes 55 seconds 318 msec
