                         Program Version 3.0.3 - RELEASE   -
|  1> ! RI-MP2 RIJK def2-TZVP def2-TZVP/C def2-TZVP/JK TIGHTSCF
|  2> % maxcore 2000
|  3> % mp2 density relaxed end
|  4> *xyz 0 1
|  5>  C       -0.0078069055     1.4837382620     0.0685909120
|  6>  C        0.0062147067    -0.0440162684    -0.0634034589
|  7>  C        0.6986011648    -0.5309225236    -1.2994065815
|  8>  C        0.6735723712    -0.0146748020    -2.7358952776
|  9>  C        0.9064846742    -1.4545462114    -3.2766025694
| 10>  C        2.2419638190    -1.5208297066    -2.5159168972
| 11>  C        1.9937222189    -0.0838522175    -1.9741211096
| 12>  C        0.9453473938    -1.9848277332    -1.8645457186
| 13>  O        0.5368854105    -3.2210816096    -1.4359698279
| 14>  H        1.0087508643     1.8888371141     0.1064181123
| 15>  H       -0.5236871726     1.9497166825    -0.7771933818
| 16>  H       -0.5232128600     1.7899855340     0.9835323956
| 17>  H        0.4913369722    -0.4792681242     0.8217062966
| 18>  H       -1.0255843522    -0.4204263260    -0.0576487244
| 19>  H        0.1567950291     0.8416306369    -3.1508831125
| 20>  H        0.6199692571    -1.9559268107    -4.1909161155
| 21>  H        3.1382611448    -2.0716140057    -2.7689148577
| 22>  H        2.6728390315     0.7114584499    -1.6932360499
| 23>  H        1.1083003322    -3.4976512805    -0.7101244139
| 24> *
| 25>
| 26>                          ****END OF INPUT****

CARTESIAN COORDINATES (ANGSTROEM)
---------------------------------
  C     -0.007807    1.483738    0.068591
  C      0.006215   -0.044016   -0.063403
  C      0.698601   -0.530923   -1.299407
  C      0.673572   -0.014675   -2.735895
  C      0.906485   -1.454546   -3.276603
  C      2.241964   -1.520830   -2.515917
  C      1.993722   -0.083852   -1.974121
  C      0.945347   -1.984828   -1.864546
  O      0.536885   -3.221082   -1.435970
  H      1.008751    1.888837    0.106418
  H     -0.523687    1.949717   -0.777193
  H     -0.523213    1.789986    0.983532
  H      0.491337   -0.479268    0.821706
  H     -1.025584   -0.420426   -0.057649
  H      0.156795    0.841631   -3.150883
  H      0.619969   -1.955927   -4.190916
  H      3.138261   -2.071614   -2.768915
  H      2.672839    0.711458   -1.693236
  H      1.108300   -3.497651   -0.710124

 Total Charge           Charge          ....    0
 Multiplicity           Mult            ....    1
 Number of Electrons    NEL             ....   66
 Basis Dimension        Dim             ....  339

ORBITAL ENERGIES
----------------

  NO   OCC          E(Eh)            E(eV)
   0   2.0000     -20.573115      -559.8229
   1   2.0000     -11.286868      -307.1313
   2   2.0000     -11.235248      -305.7266
   3   2.0000     -11.231871      -305.6347
   4   2.0000     -11.231032      -305.6119
   5   2.0000     -11.230446      -305.5960
   6   2.0000     -11.228641      -305.5469
   7   2.0000     -11.227205      -305.5078
   8   2.0000     -11.216951      -305.2288
   9   2.0000      -1.383912       -37.6581
  10   2.0000      -1.257219       -34.2107
  11   2.0000      -1.051971       -28.6256
  12   2.0000      -0.982531       -26.7360
  13   2.0000      -0.890719       -24.2377
  14   2.0000      -0.877910       -23.8892
  15   2.0000      -0.819983       -22.3129
  16   2.0000      -0.747009       -20.3272
  17   2.0000      -0.715663       -19.4742
  18   2.0000      -0.680180       -18.5086
  19   2.0000      -0.638456       -17.3733
  20   2.0000      -0.623189       -16.9578
  21   2.0000      -0.609495       -16.5852
  22   2.0000      -0.589392       -16.0382
  23   2.0000      -0.572148       -15.5689
  24   2.0000      -0.544927       -14.8282
  25   2.0000      -0.521870       -14.2008
  26   2.0000      -0.510209       -13.8835
  27   2.0000      -0.501576       -13.6486
  28   2.0000      -0.494228       -13.4486
  29   2.0000      -0.403504       -10.9799
  30   2.0000      -0.390204       -10.6180
  31   2.0000      -0.344411        -9.3719
  32   2.0000      -0.333310        -9.0698
  33   0.0000       0.133008         3.6193
  34   0.0000       0.143951         3.9171
  35   0.0000       0.171230         4.6594
  36   0.0000       0.175786         4.7834
  37   0.0000       0.187375         5.0987

MULLIKEN ATOMIC CHARGES
-----------------------
   0 C :   -0.404082
   1 C :   -0.180185
   2 C :   -0.046245
   3 C :   -0.126285
   4 C :   -0.177063
   5 C :   -0.204477
   6 C :   -0.134850
   7 C :    0.194619
   8 O :   -0.439962
   9 H :    0.126316
  10 H :    0.128528
  11 H :    0.138639
  12 H :    0.102911
  13 H :    0.122009
  14 H :    0.137996
  15 H :    0.146865
  16 H :    0.145008
  17 H :    0.138911
  18 H :    0.331347
Sum of atomic charges:   -0.0000000

LOEWDIN ATOMIC CHARGES
----------------------
   0 C :   -0.306913
   1 C :   -0.259393
   2 C :   -0.133300
   3 C :   -0.109675
   4 C :   -0.107220
   5 C :   -0.120899
   6 C :   -0.113475
   7 C :   -0.268359
   8 O :    0.042601
   9 H :    0.121860
  10 H :    0.122580
  11 H :    0.122371
  12 H :    0.141236
  13 H :    0.145768
  14 H :    0.132639
  15 H :    0.136514
  16 H :    0.133172
  17 H :    0.132141
  18 H :    0.188352

  Mayer bond orders larger than 0.1
B(  0-C ,  1-C ) :   0.9290 B(  0-C ,  9-H ) :   0.9377 B(  0-C , 10-H ) :   0.9385
B(  0-C , 11-H ) :   0.9409 B(  1-C ,  2-C ) :   0.9001 B(  1-C , 12-H ) :   0.9280
B(  1-C , 13-H ) :   0.9334 B(  2-C ,  3-C ) :   0.8861 B(  2-C ,  6-C ) :   0.8513
B(  2-C ,  7-C ) :   0.8788 B(  3-C ,  4-C ) :   0.9079 B(  3-C ,  6-C ) :   0.8319
B(  3-C , 14-H ) :   0.9249 B(  4-C ,  5-C ) :   0.8561 B(  4-C ,  7-C ) :   0.9461
B(  4-C , 15-H ) :   0.9204 B(  5-C ,  6-C ) :   0.8650 B(  5-C ,  7-C ) :   0.8671
B(  5-C , 16-H ) :   0.9208 B(  6-C , 17-H ) :   0.9109 B(  7-C ,  8-O ) :   1.0813
B(  8-O , 18-H ) :   0.8316

MP2 TOTAL ENERGY:     -385.093913788 Eh
FINAL SINGLE POINT ENERGY      -385.093913787572

DIPOLE MOMENT
-------------
                                X             Y             Z
Electronic contribution:      1.77349      -6.46711      -4.11251
Nuclear contribution   :     -1.41174       6.67998       4.52317
                        -----------------------------------------
Total Dipole Moment    :      0.36175       0.21287       0.41067
                        -----------------------------------------
Magnitude (a.u.)       :      0.58722
Magnitude (Debye)      :      1.49259

                             ****ORCA TERMINATED NORMALLY****
TOTAL RUN TIME: 0 days 0 hours 17 minutes 2 seconds 758 msec
