                         Program Version 3.0.3 - RELEASE   -
|  1> ! RI-MP2 RIJK def2-TZVP def2-TZVP/C def2-TZVP/JK TIGHTSCF
|  2> % maxcore 2000
|  3> % mp2 density relaxed end
|  4> *xyz 0 1
|  5>  C        0.0032484596     1.5815176677    -0.0200703651
|  6>  C        0.1332554585     0.0580946906     0.0151424510
|  7>  C        0.7868252994    -0.5119690798    -1.2528230459
|  8>  O        2.0644457399     0.1047514193    -1.3863606811
|  9>  C        0.9157576724    -2.0332218908    -1.1220284640
| 10>  C        1.7335664641    -2.3597428600     0.1193179828
| 11>  O        1.1969192727    -1.7594632400     1.3049459226
| 12>  C        0.8206759356    -0.4417939641     1.2782956466
| 13>  N        0.9217842087     0.2827391072     2.3103759581
| 14>  H        0.9881638036     2.0479562489    -0.0751981655
| 15>  H       -0.5749541396     1.8874578804    -0.8986235724
| 16>  H       -0.4958979757     1.9441094074     0.8787606270
| 17>  H       -0.8749023028    -0.3819153273     0.0463721423
| 18>  H        0.1512155711    -0.2579106806    -2.1143266262
| 19>  H        2.4476271315    -0.1697635585    -2.2252942684
| 20>  H       -0.0814230224    -2.4835760652    -1.0545508532
| 21>  H        1.4070171293    -2.4602534743    -2.0053168222
| 22>  H        1.7522878119    -3.4332452938     0.3213331129
| 23>  H        2.7647112068    -2.0120611283    -0.0152271307
| 24>  H        1.3673970354    -0.2494759888     3.0609077014
| 25> *
| 26>
| 27>                          ****END OF INPUT****

CARTESIAN COORDINATES (ANGSTROEM)
---------------------------------
  C      0.003248    1.581518   -0.020070
  C      0.133255    0.058095    0.015142
  C      0.786825   -0.511969   -1.252823
  O      2.064446    0.104751   -1.386361
  C      0.915758   -2.033222   -1.122028
  C      1.733566   -2.359743    0.119318
  O      1.196919   -1.759463    1.304946
  C      0.820676   -0.441794    1.278296
  N      0.921784    0.282739    2.310376
  H      0.988164    2.047956   -0.075198
  H     -0.574954    1.887458   -0.898624
  H     -0.495898    1.944109    0.878761
  H     -0.874902   -0.381915    0.046372
  H      0.151216   -0.257911   -2.114327
  H      2.447627   -0.169764   -2.225294
  H     -0.081423   -2.483576   -1.054551
  H      1.407017   -2.460253   -2.005317
  H      1.752288   -3.433245    0.321333
  H      2.764711   -2.012061   -0.015227
  H      1.367397   -0.249476    3.060908

 Total Charge           Charge          ....    0
 Multiplicity           Mult            ....    1
 Number of Electrons    NEL             ....   70
 Basis Dimension        Dim             ....  345

ORBITAL ENERGIES
----------------

  NO   OCC          E(Eh)            E(eV)
   0   2.0000     -20.580958      -560.0363
   1   2.0000     -20.568004      -559.6838
   2   2.0000     -15.522347      -422.3845
   3   2.0000     -11.326712      -308.2155
   4   2.0000     -11.296154      -307.3840
   5   2.0000     -11.291376      -307.2540
   6   2.0000     -11.243287      -305.9454
   7   2.0000     -11.241092      -305.8857
   8   2.0000     -11.204829      -304.8989
   9   2.0000      -1.413581       -38.4655
  10   2.0000      -1.375200       -37.4211
  11   2.0000      -1.188615       -32.3439
  12   2.0000      -1.090612       -29.6771
  13   2.0000      -1.030887       -28.0519
  14   2.0000      -0.936145       -25.4738
  15   2.0000      -0.857181       -23.3251
  16   2.0000      -0.842927       -22.9372
  17   2.0000      -0.747906       -20.3516
  18   2.0000      -0.700016       -19.0484
  19   2.0000      -0.692117       -18.8335
  20   2.0000      -0.674343       -18.3498
  21   2.0000      -0.640502       -17.4289
  22   2.0000      -0.626437       -17.0462
  23   2.0000      -0.600354       -16.3364
  24   2.0000      -0.578283       -15.7359
  25   2.0000      -0.565201       -15.3799
  26   2.0000      -0.545077       -14.8323
  27   2.0000      -0.532329       -14.4854
  28   2.0000      -0.508409       -13.8345
  29   2.0000      -0.492692       -13.4068
  30   2.0000      -0.484905       -13.1949
  31   2.0000      -0.457709       -12.4549
  32   2.0000      -0.442459       -12.0399
  33   2.0000      -0.423721       -11.5300
  34   2.0000      -0.391699       -10.6587
  35   0.0000       0.112823         3.0701
  36   0.0000       0.148570         4.0428
  37   0.0000       0.162600         4.4246
  38   0.0000       0.168282         4.5792
  39   0.0000       0.185862         5.0576

MULLIKEN ATOMIC CHARGES
-----------------------
   0 C :   -0.392376
   1 C :    0.010108
   2 C :    0.082612
   3 O :   -0.472285
   4 C :   -0.293843
   5 C :   -0.009164
   6 O :   -0.273076
   7 C :    0.078153
   8 N :   -0.370314
   9 H :    0.147632
  10 H :    0.115464
  11 H :    0.155804
  12 H :    0.109761
  13 H :    0.103598
  14 H :    0.313663
  15 H :    0.117223
  16 H :    0.126424
  17 H :    0.135619
  18 H :    0.099192
  19 H :    0.215804
Sum of atomic charges:    0.0000000

LOEWDIN ATOMIC CHARGES
----------------------
   0 C :   -0.278805
   1 C :   -0.227912
   2 C :   -0.327181
   3 O :   -0.004814
   4 C :   -0.260108
   5 C :   -0.288276
   6 O :    0.225009
   7 C :   -0.377251
   8 N :   -0.044227
   9 H :    0.132046
  10 H :    0.121065
  11 H :    0.131298
  12 H :    0.172981
  13 H :    0.137722
  14 H :    0.175668
  15 H :    0.145471
  16 H :    0.141392
  17 H :    0.131050
  18 H :    0.128862
  19 H :    0.166012

  Mayer bond orders larger than 0.1
B(  0-C ,  1-C ) :   0.9070 B(  0-C ,  9-H ) :   0.9346 B(  0-C , 10-H ) :   0.9310
B(  0-C , 11-H ) :   0.9333 B(  1-C ,  2-C ) :   0.8930 B(  1-C ,  7-C ) :   0.9109
B(  1-C , 12-H ) :   0.9127 B(  2-C ,  3-O ) :   0.9734 B(  2-C ,  4-C ) :   0.9210
B(  2-C , 13-H ) :   0.9300 B(  3-O , 14-H ) :   0.8442 B(  4-C ,  5-C ) :   0.9558
B(  4-C , 15-H ) :   0.9217 B(  4-C , 16-H ) :   0.9229 B(  5-C ,  6-O ) :   0.8715
B(  5-C , 17-H ) :   0.9326 B(  5-C , 18-H ) :   0.9198 B(  6-O ,  7-C ) :   1.0817
B(  7-C ,  8-N ) :   2.0250 B(  8-N , 19-H ) :   0.8546

MP2 TOTAL ENERGY:     -439.590587667 Eh
FINAL SINGLE POINT ENERGY      -439.590587667167

DIPOLE MOMENT
-------------
                                X             Y             Z
Electronic contribution:      1.82739      -1.59554       3.63380
Nuclear contribution   :     -1.80699       0.57745      -5.03181
                        -----------------------------------------
Total Dipole Moment    :      0.02041      -1.01809      -1.39801
                        -----------------------------------------
Magnitude (a.u.)       :      1.72955
Magnitude (Debye)      :      4.39617

                             ****ORCA TERMINATED NORMALLY****
TOTAL RUN TIME: 0 days 0 hours 18 minutes 54 seconds 738 msec
