                         Program Version 3.0.3 - RELEASE   -
|  1> ! RI-MP2 RIJK def2-TZVP def2-TZVP/C def2-TZVP/JK TIGHTSCF
|  2> % maxcore 2000
|  3> % mp2 density relaxed end
|  4> *xyz 0 1
|  5>  C       -0.0650278777     1.3681194673     0.0257218578
|  6>  O       -0.0242032544    -0.0550187341     0.0226799622
|  7>  C       -1.2216348636    -0.6694222576     0.0398619978
|  8>  N       -2.3730600293    -0.0223960359     0.0469429805
|  9>  N       -3.3067043984    -1.0343381761     0.0264866879
| 10>  C       -2.7428768975    -2.2648664944     0.0316004231
| 11>  N       -3.4710420686    -3.4479432623     0.0997534597
| 12>  C       -1.3717714592    -2.0833674943     0.0249694688
| 13>  N       -0.4208730119    -3.1394746563    -0.0208161124
| 14>  H        0.9742296796     1.7002210954     0.0050131394
| 15>  H       -0.6018029510     1.7470241049    -0.8503704650
| 16>  H       -0.5642580687     1.7445571597     0.9249019427
| 17>  H       -4.2681095268    -0.8038594975     0.2026005558
| 18>  H       -4.2145188779    -3.5071810133    -0.5862819068
| 19>  H       -2.8353824024    -4.2309206801    -0.0143870494
| 20>  H        0.1413805104    -3.1676605465     0.8251887876
| 21>  H        0.2318063476    -3.0089895987    -0.7882870797
| 22> *
| 23>
| 24>                          ****END OF INPUT****

CARTESIAN COORDINATES (ANGSTROEM)
---------------------------------
  C     -0.065028    1.368119    0.025722
  O     -0.024203   -0.055019    0.022680
  C     -1.221635   -0.669422    0.039862
  N     -2.373060   -0.022396    0.046943
  N     -3.306704   -1.034338    0.026487
  C     -2.742877   -2.264866    0.031600
  N     -3.471042   -3.447943    0.099753
  C     -1.371771   -2.083367    0.024969
  N     -0.420873   -3.139475   -0.020816
  H      0.974230    1.700221    0.005013
  H     -0.601803    1.747024   -0.850370
  H     -0.564258    1.744557    0.924902
  H     -4.268110   -0.803859    0.202601
  H     -4.214519   -3.507181   -0.586282
  H     -2.835382   -4.230921   -0.014387
  H      0.141381   -3.167661    0.825189
  H      0.231806   -3.008990   -0.788287

 Total Charge           Charge          ....    0
 Multiplicity           Mult            ....    1
 Number of Electrons    NEL             ....   68
 Basis Dimension        Dim             ....  327

ORBITAL ENERGIES
----------------

  NO   OCC          E(Eh)            E(eV)
   0   2.0000     -20.580983      -560.0370
   1   2.0000     -15.612113      -424.8272
   2   2.0000     -15.576165      -423.8490
   3   2.0000     -15.557262      -423.3346
   4   2.0000     -15.552113      -423.1945
   5   2.0000     -11.307640      -307.6965
   6   2.0000     -11.306121      -307.6552
   7   2.0000     -11.270724      -306.6920
   8   2.0000     -11.229089      -305.5591
   9   2.0000      -1.416777       -38.5525
  10   2.0000      -1.348264       -36.6881
  11   2.0000      -1.221359       -33.2349
  12   2.0000      -1.181810       -32.1587
  13   2.0000      -1.070011       -29.1165
  14   2.0000      -1.002876       -27.2896
  15   2.0000      -0.943786       -25.6817
  16   2.0000      -0.793573       -21.5942
  17   2.0000      -0.782055       -21.2808
  18   2.0000      -0.741648       -20.1813
  19   2.0000      -0.674420       -18.3519
  20   2.0000      -0.666366       -18.1327
  21   2.0000      -0.658072       -17.9071
  22   2.0000      -0.645579       -17.5671
  23   2.0000      -0.641635       -17.4598
  24   2.0000      -0.595330       -16.1997
  25   2.0000      -0.589662       -16.0455
  26   2.0000      -0.568195       -15.4614
  27   2.0000      -0.513332       -13.9685
  28   2.0000      -0.497002       -13.5241
  29   2.0000      -0.469915       -12.7870
  30   2.0000      -0.464289       -12.6339
  31   2.0000      -0.407636       -11.0923
  32   2.0000      -0.332535        -9.0487
  33   2.0000      -0.310262        -8.4427
  34   0.0000       0.127663         3.4739
  35   0.0000       0.143608         3.9078
  36   0.0000       0.163758         4.4561
  37   0.0000       0.171202         4.6586
  38   0.0000       0.192451         5.2369

MULLIKEN ATOMIC CHARGES
-----------------------
   0 C :   -0.209748
   1 O :   -0.291561
   2 C :    0.181664
   3 N :   -0.263884
   4 N :   -0.170230
   5 C :    0.143621
   6 N :   -0.528071
   7 C :    0.054582
   8 N :   -0.586567
   9 H :    0.138229
  10 H :    0.130278
  11 H :    0.130281
  12 H :    0.253452
  13 H :    0.249388
  14 H :    0.270607
  15 H :    0.248988
  16 H :    0.248972
Sum of atomic charges:    0.0000000

LOEWDIN ATOMIC CHARGES
----------------------
   0 C :   -0.323874
   1 O :    0.219280
   2 C :   -0.402186
   3 N :    0.010018
   4 N :    0.121224
   5 C :   -0.329850
   6 N :   -0.084661
   7 C :   -0.279401
   8 N :   -0.125534
   9 H :    0.111459
  10 H :    0.110188
  11 H :    0.110185
  12 H :    0.183778
  13 H :    0.168122
  14 H :    0.180882
  15 H :    0.165181
  16 H :    0.165190

  Mayer bond orders larger than 0.1
B(  0-C ,  1-O ) :   0.8575 B(  0-C ,  9-H ) :   0.9361 B(  0-C , 10-H ) :   0.9374
B(  0-C , 11-H ) :   0.9391 B(  1-O ,  2-C ) :   1.1306 B(  2-C ,  3-N ) :   1.5707
B(  2-C ,  7-C ) :   1.2322 B(  3-N ,  4-N ) :   0.9531 B(  3-N ,  5-C ) :   0.1216
B(  4-N ,  5-C ) :   1.2270 B(  4-N , 12-H ) :   0.8685 B(  5-C ,  6-N ) :   1.0715
B(  5-C ,  7-C ) :   1.4287 B(  6-N , 13-H ) :   0.8714 B(  6-N , 14-H ) :   0.8632
B(  7-C ,  8-N ) :   0.9697 B(  8-N , 15-H ) :   0.8911 B(  8-N , 16-H ) :   0.8918

MP2 TOTAL ENERGY:     -450.594235832 Eh
FINAL SINGLE POINT ENERGY      -450.594235831754

DIPOLE MOMENT
-------------
                                X             Y             Z
Electronic contribution:     -2.15353      -0.81228       0.16649
Nuclear contribution   :      1.89260       0.51890      -0.47967
                        -----------------------------------------
Total Dipole Moment    :     -0.26093      -0.29338      -0.31317
                        -----------------------------------------
Magnitude (a.u.)       :      0.50223
Magnitude (Debye)      :      1.27657

                             ****ORCA TERMINATED NORMALLY****
TOTAL RUN TIME: 0 days 0 hours 16 minutes 37 seconds 655 msec
