                         Program Version 3.0.3 - RELEASE   -
|  1> ! RI-MP2 RIJK def2-TZVP def2-TZVP/C def2-TZVP/JK TIGHTSCF
|  2> % maxcore 2000
|  3> % mp2 density relaxed end
|  4> *xyz 0 1
|  5>  C        0.5274971048     1.0767209373     0.9248045972
|  6>  N        0.3127221280    -0.3516963661     0.7337327088
|  7>  C        1.5014517059    -1.1420188390     0.9840420364
|  8>  C       -0.9376315843    -0.7700086551     0.3267633101
|  9>  O       -1.8265858944     0.0517370304     0.1548063074
| 10>  C       -1.2460220867    -2.2777005291     0.0809295818
| 11>  C       -2.7172191937    -2.3616513660    -0.3762478379
| 12>  C       -0.3794742894    -2.8626283249    -1.0576927949
| 13>  C       -1.1235816756    -3.1037610041     1.3822115807
| 14>  H        1.3200026188     1.4375639455     0.2561235637
| 15>  H       -0.4001185067     1.6010166061     0.7091574868
| 16>  H        0.8369230714     1.2818216898     1.9578086450
| 17>  H        1.8767100457    -0.9475970940     1.9979124770
| 18>  H        1.3152360929    -2.2049205151     0.8952646306
| 19>  H        2.3015156314    -0.8738354876     0.2796606654
| 20>  H       -2.8795740706    -1.7931955788    -1.2938196041
| 21>  H       -2.9803359244    -3.4088356772    -0.5598487977
| 22>  H       -3.3915013405    -1.9573056220     0.3806534032
| 23>  H        0.6851121607    -2.9272808368    -0.8255734774
| 24>  H       -0.7227990227    -3.8763114094    -1.2908766190
| 25>  H       -0.4849647695    -2.2617170000    -1.9667307677
| 26>  H       -1.7492997054    -2.6719834845     2.1698822341
| 27>  H       -1.4786600735    -4.1238301596     1.1999616403
| 28>  H       -0.1070986321    -3.1803382197     1.7727949904
| 29> *
| 30>
| 31>                          ****END OF INPUT****

CARTESIAN COORDINATES (ANGSTROEM)
---------------------------------
  C      0.527497    1.076721    0.924805
  N      0.312722   -0.351696    0.733733
  C      1.501452   -1.142019    0.984042
  C     -0.937632   -0.770009    0.326763
  O     -1.826586    0.051737    0.154806
  C     -1.246022   -2.277701    0.080930
  C     -2.717219   -2.361651   -0.376248
  C     -0.379474   -2.862628   -1.057693
  C     -1.123582   -3.103761    1.382212
  H      1.320003    1.437564    0.256124
  H     -0.400119    1.601017    0.709157
  H      0.836923    1.281822    1.957809
  H      1.876710   -0.947597    1.997912
  H      1.315236   -2.204921    0.895265
  H      2.301516   -0.873835    0.279661
  H     -2.879574   -1.793196   -1.293820
  H     -2.980336   -3.408836   -0.559849
  H     -3.391501   -1.957306    0.380653
  H      0.685112   -2.927281   -0.825573
  H     -0.722799   -3.876311   -1.290877
  H     -0.484965   -2.261717   -1.966731
  H     -1.749300   -2.671983    2.169882
  H     -1.478660   -4.123830    1.199962
  H     -0.107099   -3.180338    1.772795

 Total Charge           Charge          ....    0
 Multiplicity           Mult            ....    1
 Number of Electrons    NEL             ....   72
 Basis Dimension        Dim             ....  369

ORBITAL ENERGIES
----------------

  NO   OCC          E(Eh)            E(eV)
   0   2.0000     -20.503470      -557.9278
   1   2.0000     -15.581259      -423.9876
   2   2.0000     -11.340386      -308.5876
   3   2.0000     -11.266229      -306.5697
   4   2.0000     -11.252668      -306.2007
   5   2.0000     -11.246595      -306.0354
   6   2.0000     -11.224335      -305.4297
   7   2.0000     -11.224130      -305.4241
   8   2.0000     -11.204253      -304.8832
   9   2.0000      -1.373138       -37.3650
  10   2.0000      -1.235249       -33.6128
  11   2.0000      -1.098540       -29.8928
  12   2.0000      -0.969231       -26.3741
  13   2.0000      -0.943918       -25.6853
  14   2.0000      -0.938795       -25.5459
  15   2.0000      -0.924102       -25.1461
  16   2.0000      -0.811535       -22.0830
  17   2.0000      -0.725889       -19.7524
  18   2.0000      -0.669062       -18.2061
  19   2.0000      -0.652301       -17.7500
  20   2.0000      -0.651291       -17.7225
  21   2.0000      -0.608517       -16.5586
  22   2.0000      -0.599268       -16.3069
  23   2.0000      -0.593957       -16.1624
  24   2.0000      -0.563550       -15.3350
  25   2.0000      -0.555909       -15.1271
  26   2.0000      -0.549529       -14.9534
  27   2.0000      -0.540450       -14.7064
  28   2.0000      -0.525034       -14.2869
  29   2.0000      -0.520160       -14.1543
  30   2.0000      -0.509376       -13.8608
  31   2.0000      -0.501973       -13.6594
  32   2.0000      -0.470863       -12.8128
  33   2.0000      -0.462979       -12.5983
  34   2.0000      -0.404389       -11.0040
  35   2.0000      -0.367159        -9.9909
  36   0.0000       0.126190         3.4338
  37   0.0000       0.152247         4.1429
  38   0.0000       0.164128         4.4662
  39   0.0000       0.173855         4.7308
  40   0.0000       0.189610         5.1596

MULLIKEN ATOMIC CHARGES
-----------------------
   0 C :   -0.326763
   1 N :   -0.110005
   2 C :   -0.315556
   3 C :    0.198349
   4 O :   -0.382394
   5 C :    0.083860
   6 C :   -0.383420
   7 C :   -0.414113
   8 C :   -0.413390
   9 H :    0.128254
  10 H :    0.186130
  11 H :    0.129243
  12 H :    0.140693
  13 H :    0.138260
  14 H :    0.141528
  15 H :    0.136514
  16 H :    0.121426
  17 H :    0.137930
  18 H :    0.121073
  19 H :    0.134807
  20 H :    0.146421
  21 H :    0.146890
  22 H :    0.134699
  23 H :    0.119563
Sum of atomic charges:    0.0000000

LOEWDIN ATOMIC CHARGES
----------------------
   0 C :   -0.290816
   1 N :    0.145178
   2 C :   -0.301651
   3 C :   -0.381880
   4 O :    0.082384
   5 C :   -0.305515
   6 C :   -0.267774
   7 C :   -0.269320
   8 C :   -0.269123
   9 H :    0.115843
  10 H :    0.134539
  11 H :    0.115826
  12 H :    0.119586
  13 H :    0.117700
  14 H :    0.118227
  15 H :    0.129004
  16 H :    0.121272
  17 H :    0.129181
  18 H :    0.118424
  19 H :    0.128795
  20 H :    0.131769
  21 H :    0.131966
  22 H :    0.128752
  23 H :    0.117632

  Mayer bond orders larger than 0.1
B(  0-C ,  1-N ) :   0.8710 B(  0-C ,  9-H ) :   0.9327 B(  0-C , 10-H ) :   0.9209
B(  0-C , 11-H ) :   0.9339 B(  1-N ,  2-C ) :   0.8813 B(  1-N ,  3-C ) :   1.2047
B(  2-C , 12-H ) :   0.9303 B(  2-C , 13-H ) :   0.9343 B(  2-C , 14-H ) :   0.9317
B(  3-C ,  4-O ) :   1.8929 B(  3-C ,  5-C ) :   0.8695 B(  5-C ,  6-C ) :   0.9335
B(  5-C ,  7-C ) :   0.8987 B(  5-C ,  8-C ) :   0.8977 B(  6-C , 15-H ) :   0.9294
B(  6-C , 16-H ) :   0.9372 B(  6-C , 17-H ) :   0.9296 B(  7-C , 18-H ) :   0.9296
B(  7-C , 19-H ) :   0.9327 B(  7-C , 20-H ) :   0.9365 B(  8-C , 21-H ) :   0.9362
B(  8-C , 22-H ) :   0.9326 B(  8-C , 23-H ) :   0.9297

MP2 TOTAL ENERGY:     -404.886338962 Eh
FINAL SINGLE POINT ENERGY      -404.886338962323

DIPOLE MOMENT
-------------
                                X             Y             Z
Electronic contribution:     -2.40004       5.43820      -0.08281
Nuclear contribution   :      3.56376      -6.02177       0.35430
                        -----------------------------------------
Total Dipole Moment    :      1.16371      -0.58357       0.27150
                        -----------------------------------------
Magnitude (a.u.)       :      1.32985
Magnitude (Debye)      :      3.38021

                             ****ORCA TERMINATED NORMALLY****
TOTAL RUN TIME: 0 days 0 hours 25 minutes 6 seconds 295 msec
