                         Program Version 3.0.3 - RELEASE   -
|  1> ! RI-MP2 RIJK def2-TZVP def2-TZVP/C def2-TZVP/JK TIGHTSCF
|  2> % maxcore 2000
|  3> % mp2 density relaxed end
|  4> *xyz 0 1
|  5>  C       -0.3558986166     1.5021524749    -0.1181740592
|  6>  C       -0.0260475438     0.0052096642    -0.0640417815
|  7>  C        0.8893982317    -0.4431202419    -1.1817114865
|  8>  C        0.3393004484    -0.8728855166    -2.4968406534
|  9>  N        0.8702148088    -1.8776318905    -1.5518408386
| 10>  C        2.2586649325    -2.2736053112    -1.8289603263
| 11>  C        3.1270427686    -1.0000240505    -1.9756279695
| 12>  O        3.2450456274    -0.5471879080    -3.3256662432
| 13>  C        2.3335525028     0.0563275938    -1.1880151107
| 14>  H        0.5445383569     2.1171519943    -0.0163954488
| 15>  H       -0.8309814612     1.7663881260    -1.0689120075
| 16>  H       -1.0398129339     1.7818095551     0.6888068382
| 17>  H        0.4408259078    -0.2358653800     0.9007373129
| 18>  H       -0.9477781478    -0.5838031671    -0.1170068203
| 19>  H       -0.7386354412    -0.9227661183    -2.6310319412
| 20>  H        0.9110130699    -0.6502077989    -3.3917144741
| 21>  H        2.6105084830    -2.8683517735    -0.9772878094
| 22>  H        2.3122499340    -2.9093565915    -2.7206902555
| 23>  H        4.1293065547    -1.1512631765    -1.5511683156
| 24>  H        3.6628657820    -1.2482714812    -3.8362216864
| 25>  H        2.4596399782     1.0414444664    -1.6441222523
| 26>  H        2.7018380279     0.1146905711    -0.1571942314
| 27> *
| 28>
| 29>                          ****END OF INPUT****

CARTESIAN COORDINATES (ANGSTROEM)
---------------------------------
  C     -0.355899    1.502152   -0.118174
  C     -0.026048    0.005210   -0.064042
  C      0.889398   -0.443120   -1.181711
  C      0.339300   -0.872886   -2.496841
  N      0.870215   -1.877632   -1.551841
  C      2.258665   -2.273605   -1.828960
  C      3.127043   -1.000024   -1.975628
  O      3.245046   -0.547188   -3.325666
  C      2.333553    0.056328   -1.188015
  H      0.544538    2.117152   -0.016395
  H     -0.830981    1.766388   -1.068912
  H     -1.039813    1.781810    0.688807
  H      0.440826   -0.235865    0.900737
  H     -0.947778   -0.583803   -0.117007
  H     -0.738635   -0.922766   -2.631032
  H      0.911013   -0.650208   -3.391714
  H      2.610508   -2.868352   -0.977288
  H      2.312250   -2.909357   -2.720690
  H      4.129307   -1.151263   -1.551168
  H      3.662866   -1.248271   -3.836222
  H      2.459640    1.041444   -1.644122
  H      2.701838    0.114691   -0.157194

 Total Charge           Charge          ....    0
 Multiplicity           Mult            ....    1
 Number of Electrons    NEL             ....   70
 Basis Dimension        Dim             ....  357

ORBITAL ENERGIES
----------------

  NO   OCC          E(Eh)            E(eV)
   0   2.0000     -20.559146      -559.4428
   1   2.0000     -15.549107      -423.1127
   2   2.0000     -11.283449      -307.0383
   3   2.0000     -11.254445      -306.2490
   4   2.0000     -11.249242      -306.1074
   5   2.0000     -11.238288      -305.8094
   6   2.0000     -11.224198      -305.4260
   7   2.0000     -11.218722      -305.2770
   8   2.0000     -11.212675      -305.1124
   9   2.0000      -1.366103       -37.1735
  10   2.0000      -1.271969       -34.6120
  11   2.0000      -1.047934       -28.5157
  12   2.0000      -1.034322       -28.1453
  13   2.0000      -0.974834       -26.5266
  14   2.0000      -0.870161       -23.6783
  15   2.0000      -0.843503       -22.9529
  16   2.0000      -0.790518       -21.5111
  17   2.0000      -0.739280       -20.1168
  18   2.0000      -0.705857       -19.2074
  19   2.0000      -0.665954       -18.1215
  20   2.0000      -0.624475       -16.9928
  21   2.0000      -0.618849       -16.8397
  22   2.0000      -0.591796       -16.1036
  23   2.0000      -0.589211       -16.0333
  24   2.0000      -0.556095       -15.1321
  25   2.0000      -0.551751       -15.0139
  26   2.0000      -0.528166       -14.3721
  27   2.0000      -0.514582       -14.0025
  28   2.0000      -0.497968       -13.5504
  29   2.0000      -0.491081       -13.3630
  30   2.0000      -0.471093       -12.8191
  31   2.0000      -0.451518       -12.2864
  32   2.0000      -0.434879       -11.8336
  33   2.0000      -0.422852       -11.5064
  34   2.0000      -0.359170        -9.7735
  35   0.0000       0.129694         3.5292
  36   0.0000       0.146316         3.9815
  37   0.0000       0.164255         4.4696
  38   0.0000       0.179370         4.8809
  39   0.0000       0.184868         5.0305

MULLIKEN ATOMIC CHARGES
-----------------------
   0 C :   -0.415150
   1 C :   -0.248337
   2 C :    0.155928
   3 C :   -0.212512
   4 N :   -0.234747
   5 C :   -0.178307
   6 C :    0.072540
   7 O :   -0.471831
   8 C :   -0.244441
   9 H :    0.127149
  10 H :    0.130457
  11 H :    0.135415
  12 H :    0.105638
  13 H :    0.126521
  14 H :    0.118548
  15 H :    0.138797
  16 H :    0.119408
  17 H :    0.111295
  18 H :    0.097663
  19 H :    0.312982
  20 H :    0.133372
  21 H :    0.119610
Sum of atomic charges:    0.0000000

LOEWDIN ATOMIC CHARGES
----------------------
   0 C :   -0.311880
   1 C :   -0.252168
   2 C :   -0.280430
   3 C :   -0.221204
   4 N :    0.121429
   5 C :   -0.269966
   6 C :   -0.332262
   7 O :   -0.029295
   8 C :   -0.195798
   9 H :    0.120381
  10 H :    0.122953
  11 H :    0.121066
  12 H :    0.139227
  13 H :    0.145401
  14 H :    0.126192
  15 H :    0.131601
  16 H :    0.135690
  17 H :    0.130191
  18 H :    0.130974
  19 H :    0.171535
  20 H :    0.149667
  21 H :    0.146696

  Mayer bond orders larger than 0.1
B(  0-C ,  1-C ) :   0.9146 B(  0-C ,  9-H ) :   0.9366 B(  0-C , 10-H ) :   0.9380
B(  0-C , 11-H ) :   0.9399 B(  1-C ,  2-C ) :   0.8886 B(  1-C , 12-H ) :   0.9315
B(  1-C , 13-H ) :   0.9408 B(  2-C ,  3-C ) :   0.9292 B(  2-C ,  4-N ) :   0.8331
B(  2-C ,  8-C ) :   0.9641 B(  3-C ,  4-N ) :   0.9122 B(  3-C , 14-H ) :   0.9159
B(  3-C , 15-H ) :   0.8978 B(  4-N ,  5-C ) :   0.9394 B(  5-C ,  6-C ) :   0.9428
B(  5-C , 16-H ) :   0.9247 B(  5-C , 17-H ) :   0.9310 B(  6-C ,  7-O ) :   0.9793
B(  6-C ,  8-C ) :   0.8953 B(  6-C , 18-H ) :   0.9331 B(  7-O , 19-H ) :   0.8456
B(  8-C , 20-H ) :   0.9128 B(  8-C , 21-H ) :   0.9174

MP2 TOTAL ENERGY:     -403.653023660 Eh
FINAL SINGLE POINT ENERGY      -403.653023660032

DIPOLE MOMENT
-------------
                                X             Y             Z
Electronic contribution:      2.89411      -3.76786      -3.46452
Nuclear contribution   :     -2.34418       3.68587       3.45373
                        -----------------------------------------
Total Dipole Moment    :      0.54993      -0.08199      -0.01079
                        -----------------------------------------
Magnitude (a.u.)       :      0.55611
Magnitude (Debye)      :      1.41352

                             ****ORCA TERMINATED NORMALLY****
TOTAL RUN TIME: 0 days 0 hours 19 minutes 8 seconds 640 msec
