                         Program Version 3.0.3 - RELEASE   -
|  1> ! RI-MP2 RIJK def2-TZVP def2-TZVP/C def2-TZVP/JK TIGHTSCF
|  2> % maxcore 2000
|  3> % mp2 density relaxed end
|  4> *xyz 0 1
|  5>  C       -0.0410348443     1.5990615749    -0.0090279349
|  6>  C        0.0898199825     0.0921396568     0.0726666469
|  7>  N        1.1924377404    -0.6016609012    -0.7656245382
|  8>  C        2.1683402626    -0.1808398117     0.3517082143
|  9>  C        0.9455006992    -0.6565536995     1.1616054693
| 10>  N        0.8466268109    -0.7933226649     2.5750746510
| 11>  C        0.9504012145    -1.8298747572     0.1394139658
| 12>  C       -0.2604346880    -2.6044312329    -0.0957169742
| 13>  N       -1.2082882479    -3.2494371930    -0.2465862405
| 14>  H        0.8587651503     2.1480336081     0.2772515396
| 15>  H       -0.3042640488     1.8940003264    -1.0298799877
| 16>  H       -0.8535254117     1.9271029666     0.6480750067
| 17>  H       -0.8838176523    -0.3632973657    -0.1326318149
| 18>  H        3.0734477605    -0.7917128660     0.3926075275
| 19>  H        2.4163543439     0.8787619751     0.3409858322
| 20>  H        0.9667126162     0.1019959041     3.0388647990
| 21>  H       -0.0617533423    -1.1596143632     2.8453587683
| 22>  H        1.8134327642    -2.4989588166     0.1741197499
| 23> *
| 24>
| 25>                          ****END OF INPUT****

CARTESIAN COORDINATES (ANGSTROEM)
---------------------------------
  C     -0.041035    1.599062   -0.009028
  C      0.089820    0.092140    0.072667
  N      1.192438   -0.601661   -0.765625
  C      2.168340   -0.180840    0.351708
  C      0.945501   -0.656554    1.161605
  N      0.846627   -0.793323    2.575075
  C      0.950401   -1.829875    0.139414
  C     -0.260435   -2.604431   -0.095717
  N     -1.208288   -3.249437   -0.246586
  H      0.858765    2.148034    0.277252
  H     -0.304264    1.894000   -1.029880
  H     -0.853525    1.927103    0.648075
  H     -0.883818   -0.363297   -0.132632
  H      3.073448   -0.791713    0.392608
  H      2.416354    0.878762    0.340986
  H      0.966713    0.101996    3.038865
  H     -0.061753   -1.159614    2.845359
  H      1.813433   -2.498959    0.174120

 Total Charge           Charge          ....    0
 Multiplicity           Mult            ....    1
 Number of Electrons    NEL             ....   66
 Basis Dimension        Dim             ....  333

ORBITAL ENERGIES
----------------

  NO   OCC          E(Eh)            E(eV)
   0   2.0000     -15.597642      -424.4334
   1   2.0000     -15.576257      -423.8515
   2   2.0000     -15.570643      -423.6987
   3   2.0000     -11.313139      -307.8462
   4   2.0000     -11.310312      -307.7692
   5   2.0000     -11.282571      -307.0144
   6   2.0000     -11.278861      -306.9134
   7   2.0000     -11.276070      -306.8375
   8   2.0000     -11.235650      -305.7376
   9   2.0000      -1.327861       -36.1329
  10   2.0000      -1.220641       -33.2153
  11   2.0000      -1.198672       -32.6175
  12   2.0000      -1.033390       -28.1200
  13   2.0000      -0.983650       -26.7665
  14   2.0000      -0.929119       -25.2826
  15   2.0000      -0.890201       -24.2236
  16   2.0000      -0.782306       -21.2876
  17   2.0000      -0.707997       -19.2656
  18   2.0000      -0.685802       -18.6616
  19   2.0000      -0.682070       -18.5601
  20   2.0000      -0.652669       -17.7600
  21   2.0000      -0.600629       -16.3439
  22   2.0000      -0.585215       -15.9245
  23   2.0000      -0.560003       -15.2385
  24   2.0000      -0.543699       -14.7948
  25   2.0000      -0.536325       -14.5941
  26   2.0000      -0.530479       -14.4351
  27   2.0000      -0.503660       -13.7053
  28   2.0000      -0.483648       -13.1607
  29   2.0000      -0.461589       -12.5605
  30   2.0000      -0.456816       -12.4306
  31   2.0000      -0.413445       -11.2504
  32   2.0000      -0.397032       -10.8038
  33   0.0000       0.113860         3.0983
  34   0.0000       0.142505         3.8778
  35   0.0000       0.146557         3.9880
  36   0.0000       0.157901         4.2967
  37   0.0000       0.167032         4.5452

MULLIKEN ATOMIC CHARGES
-----------------------
   0 C :   -0.426034
   1 C :   -0.026771
   2 N :   -0.194676
   3 C :   -0.160665
   4 C :    0.058014
   5 N :   -0.504892
   6 C :    0.086012
   7 C :   -0.234658
   8 N :   -0.036696
   9 H :    0.122240
  10 H :    0.157185
  11 H :    0.139994
  12 H :    0.134496
  13 H :    0.121660
  14 H :    0.132641
  15 H :    0.243357
  16 H :    0.251356
  17 H :    0.137437
Sum of atomic charges:   -0.0000000

LOEWDIN ATOMIC CHARGES
----------------------
   0 C :   -0.295878
   1 C :   -0.227528
   2 N :    0.141249
   3 C :   -0.195978
   4 C :   -0.297453
   5 N :   -0.116765
   6 C :   -0.200133
   7 C :   -0.176036
   8 N :    0.072887
   9 H :    0.121985
  10 H :    0.136771
  11 H :    0.132208
  12 H :    0.152532
  13 H :    0.129283
  14 H :    0.124756
  15 H :    0.164475
  16 H :    0.166790
  17 H :    0.166833

  Mayer bond orders larger than 0.1
B(  0-C ,  1-C ) :   0.9093 B(  0-C ,  9-H ) :   0.9331 B(  0-C , 10-H ) :   0.9341
B(  0-C , 11-H ) :   0.9341 B(  1-C ,  2-N ) :   0.8941 B(  1-C ,  4-C ) :   0.9027
B(  1-C , 12-H ) :   0.9120 B(  2-N ,  3-C ) :   0.9003 B(  2-N ,  6-C ) :   0.9416
B(  3-C ,  4-C ) :   0.9300 B(  3-C , 13-H ) :   0.9242 B(  3-C , 14-H ) :   0.9249
B(  4-C ,  5-N ) :   0.9838 B(  4-C ,  6-C ) :   0.9121 B(  5-N , 15-H ) :   0.8771
B(  5-N , 16-H ) :   0.8765 B(  6-C ,  7-C ) :   0.9381 B(  6-C , 17-H ) :   0.9023
B(  7-C ,  8-N ) :   2.8641

MP2 TOTAL ENERGY:     -397.379749179 Eh
FINAL SINGLE POINT ENERGY      -397.379749179335

DIPOLE MOMENT
-------------
                                X             Y             Z
Electronic contribution:     -1.51769      -7.85151      -1.88147
Nuclear contribution   :      2.13115       9.25364       2.86336
                        -----------------------------------------
Total Dipole Moment    :      0.61345       1.40213       0.98189
                        -----------------------------------------
Magnitude (a.u.)       :      1.81836
Magnitude (Debye)      :      4.62189

                             ****ORCA TERMINATED NORMALLY****
TOTAL RUN TIME: 0 days 0 hours 18 minutes 31 seconds 759 msec
