                         Program Version 3.0.3 - RELEASE   -
|  1> ! RI-MP2 RIJK def2-TZVP def2-TZVP/C def2-TZVP/JK TIGHTSCF
|  2> % maxcore 2000
|  3> % mp2 density relaxed end
|  4> *xyz 0 1
|  5>  O       -0.0501203822     1.3977186602     0.5496379196
|  6>  C        0.0303920331     0.0542751154     0.0686673795
|  7>  C        0.7434075439    -0.8847744855     1.0633840707
|  8>  C       -0.3194296083    -1.2733338611     2.1048764771
|  9>  C       -0.6732328151    -0.2173679941     3.1939297742
| 10>  C       -2.0472218131     0.0391614907     2.5113991055
| 11>  C       -1.7106172669    -1.0199868494     1.4192722633
| 12>  C       -1.4024100542    -0.4969708242     0.0059755681
| 13>  H        0.8470364227     1.7096905890     0.7041549251
| 14>  H        0.5148206190     0.0435101921    -0.9186913041
| 15>  H        1.0858036755    -1.7767760887     0.5239781887
| 16>  H        1.6325890560    -0.4177589071     1.5046175159
| 17>  H       -0.1488504105    -2.2770635524     2.5003424941
| 18>  H       -0.7401711687    -0.6286586117     4.2045735807
| 19>  H       -0.0088620495     0.6489815997     3.2181716511
| 20>  H       -2.9124550742    -0.2162349436     3.1286078307
| 21>  H       -2.1781404762     1.0518917967     2.1268894920
| 22>  H       -2.3989527814    -1.8676742369     1.3965677382
| 23>  H       -2.1025050469     0.2700330671    -0.3381141914
| 24>  H       -1.4317264628    -1.3220560461    -0.7149804188
| 25> *
| 26>
| 27>                          ****END OF INPUT****

CARTESIAN COORDINATES (ANGSTROEM)
---------------------------------
  O     -0.050120    1.397719    0.549638
  C      0.030392    0.054275    0.068667
  C      0.743408   -0.884774    1.063384
  C     -0.319430   -1.273334    2.104876
  C     -0.673233   -0.217368    3.193930
  C     -2.047222    0.039161    2.511399
  C     -1.710617   -1.019987    1.419272
  C     -1.402410   -0.496971    0.005976
  H      0.847036    1.709691    0.704155
  H      0.514821    0.043510   -0.918691
  H      1.085804   -1.776776    0.523978
  H      1.632589   -0.417759    1.504618
  H     -0.148850   -2.277064    2.500342
  H     -0.740171   -0.628659    4.204574
  H     -0.008862    0.648982    3.218172
  H     -2.912455   -0.216235    3.128608
  H     -2.178140    1.051892    2.126889
  H     -2.398953   -1.867674    1.396568
  H     -2.102505    0.270033   -0.338114
  H     -1.431726   -1.322056   -0.714980

 Total Charge           Charge          ....    0
 Multiplicity           Mult            ....    1
 Number of Electrons    NEL             ....   62
 Basis Dimension        Dim             ....  320

ORBITAL ENERGIES
----------------

  NO   OCC          E(Eh)            E(eV)
   0   2.0000     -20.549957      -559.1927
   1   2.0000     -11.273734      -306.7739
   2   2.0000     -11.218071      -305.2592
   3   2.0000     -11.216664      -305.2209
   4   2.0000     -11.214859      -305.1718
   5   2.0000     -11.211803      -305.0887
   6   2.0000     -11.207062      -304.9597
   7   2.0000     -11.203983      -304.8759
   8   2.0000      -1.356143       -36.9025
   9   2.0000      -1.138456       -30.9789
  10   2.0000      -1.025631       -27.9088
  11   2.0000      -0.970914       -26.4199
  12   2.0000      -0.879865       -23.9424
  13   2.0000      -0.844279       -22.9740
  14   2.0000      -0.771552       -20.9950
  15   2.0000      -0.716061       -19.4850
  16   2.0000      -0.693693       -18.8764
  17   2.0000      -0.660995       -17.9866
  18   2.0000      -0.617353       -16.7990
  19   2.0000      -0.599616       -16.3164
  20   2.0000      -0.585287       -15.9265
  21   2.0000      -0.551799       -15.0152
  22   2.0000      -0.527629       -14.3575
  23   2.0000      -0.524589       -14.2748
  24   2.0000      -0.506748       -13.7893
  25   2.0000      -0.467804       -12.7296
  26   2.0000      -0.456021       -12.4090
  27   2.0000      -0.437801       -11.9132
  28   2.0000      -0.425875       -11.5886
  29   2.0000      -0.408821       -11.1246
  30   2.0000      -0.407602       -11.0914
  31   0.0000       0.130387         3.5480
  32   0.0000       0.154703         4.2097
  33   0.0000       0.168245         4.5782
  34   0.0000       0.172827         4.7029
  35   0.0000       0.188782         5.1370

MULLIKEN ATOMIC CHARGES
-----------------------
   0 O :   -0.476563
   1 C :    0.107246
   2 C :   -0.359852
   3 C :    0.029585
   4 C :   -0.255129
   5 C :   -0.203957
   6 C :   -0.082236
   7 C :   -0.251745
   8 H :    0.309945
   9 H :    0.090785
  10 H :    0.111349
  11 H :    0.126569
  12 H :    0.101395
  13 H :    0.109201
  14 H :    0.090540
  15 H :    0.108458
  16 H :    0.108859
  17 H :    0.098750
  18 H :    0.124341
  19 H :    0.112458
Sum of atomic charges:    0.0000000

LOEWDIN ATOMIC CHARGES
----------------------
   0 O :   -0.021336
   1 C :   -0.332120
   2 C :   -0.232840
   3 C :   -0.195195
   4 C :   -0.223722
   5 C :   -0.221312
   6 C :   -0.193899
   7 C :   -0.220614
   8 H :    0.170270
   9 H :    0.127834
  10 H :    0.142081
  11 H :    0.134217
  12 H :    0.137609
  13 H :    0.124965
  14 H :    0.125327
  15 H :    0.124482
  16 H :    0.132034
  17 H :    0.137513
  18 H :    0.142932
  19 H :    0.141773

  Mayer bond orders larger than 0.1
B(  0-O ,  1-C ) :   0.9736 B(  0-O ,  3-C ) :  -0.1022 B(  0-O ,  8-H ) :   0.8471
B(  1-C ,  2-C ) :   0.9392 B(  1-C ,  7-C ) :   0.9048 B(  1-C ,  9-H ) :   0.9379
B(  2-C ,  3-C ) :   0.8950 B(  2-C , 10-H ) :   0.9217 B(  2-C , 11-H ) :   0.9333
B(  3-C ,  4-C ) :   0.9487 B(  3-C ,  6-C ) :   0.9123 B(  3-C , 12-H ) :   0.9211
B(  4-C ,  5-C ) :   0.9863 B(  4-C , 13-H ) :   0.9227 B(  4-C , 14-H ) :   0.9051
B(  5-C ,  6-C ) :   0.9554 B(  5-C , 15-H ) :   0.9236 B(  5-C , 16-H ) :   0.8958
B(  6-C ,  7-C ) :   0.9518 B(  6-C , 17-H ) :   0.9188 B(  7-C , 18-H ) :   0.9206
B(  7-C , 19-H ) :   0.9229

MP2 TOTAL ENERGY:     -348.407580359 Eh
FINAL SINGLE POINT ENERGY      -348.407580358857

DIPOLE MOMENT
-------------
                                X             Y             Z
Electronic contribution:      0.48926       1.31793      -1.21476
Nuclear contribution   :      0.01049      -1.64304       1.11832
                        -----------------------------------------
Total Dipole Moment    :      0.49975      -0.32511      -0.09644
                        -----------------------------------------
Magnitude (a.u.)       :      0.60394
Magnitude (Debye)      :      1.53510

                             ****ORCA TERMINATED NORMALLY****
TOTAL RUN TIME: 0 days 0 hours 14 minutes 48 seconds 409 msec
