                         Program Version 3.0.3 - RELEASE   -
|  1> ! RI-MP2 RIJK def2-TZVP def2-TZVP/C def2-TZVP/JK TIGHTSCF
|  2> % maxcore 2000
|  3> % mp2 density relaxed end
|  4> *xyz 0 1
|  5>  N       -0.1355655862     1.3195404763    -0.2270521510
|  6>  C       -0.0760902385     0.0961659102     0.0551277828
|  7>  C       -1.2162365542    -0.8645492190    -0.0853976088
|  8>  C       -1.1634476744    -1.8354070679     1.0816646591
|  9>  O        0.1144039960    -2.4934555437     1.1086586324
| 10>  C        1.2374660467    -1.7881121290     0.9079071346
| 11>  O        2.3213488040    -2.2555531248     1.0501824405
| 12>  O        1.0989256081    -0.4687690402     0.5382531052
| 13>  H        0.7627538685     1.7772378471    -0.0600177188
| 14>  H       -2.1522067215    -0.3059463459    -0.1164094124
| 15>  H       -1.1155535982    -1.4211217082    -1.0249578060
| 16>  H       -1.3216144361    -1.3223095494     2.0375609118
| 17>  H       -1.8972422444    -2.6367192756     0.9891101606
| 18> *
| 19>
| 20>                          ****END OF INPUT****

CARTESIAN COORDINATES (ANGSTROEM)
---------------------------------
  N     -0.135566    1.319540   -0.227052
  C     -0.076090    0.096166    0.055128
  C     -1.216237   -0.864549   -0.085398
  C     -1.163448   -1.835407    1.081665
  O      0.114404   -2.493456    1.108659
  C      1.237466   -1.788112    0.907907
  O      2.321349   -2.255553    1.050182
  O      1.098926   -0.468769    0.538253
  H      0.762754    1.777238   -0.060018
  H     -2.152207   -0.305946   -0.116409
  H     -1.115554   -1.421122   -1.024958
  H     -1.321614   -1.322310    2.037561
  H     -1.897242   -2.636719    0.989110

 Total Charge           Charge          ....    0
 Multiplicity           Mult            ....    1
 Number of Electrons    NEL             ....   60
 Basis Dimension        Dim             ....  278

ORBITAL ENERGIES
----------------

  NO   OCC          E(Eh)            E(eV)
   0   2.0000     -20.646456      -561.8186
   1   2.0000     -20.635769      -561.5278
   2   2.0000     -20.556010      -559.3575
   3   2.0000     -15.568225      -423.6329
   4   2.0000     -11.454897      -311.7036
   5   2.0000     -11.375526      -309.5438
   6   2.0000     -11.334095      -308.4164
   7   2.0000     -11.278535      -306.9045
   8   2.0000      -1.531291       -41.6685
   9   2.0000      -1.434686       -39.0398
  10   2.0000      -1.395422       -37.9714
  11   2.0000      -1.235075       -33.6081
  12   2.0000      -1.095566       -29.8119
  13   2.0000      -0.957352       -26.0509
  14   2.0000      -0.905074       -24.6283
  15   2.0000      -0.784039       -21.3348
  16   2.0000      -0.770186       -20.9578
  17   2.0000      -0.737942       -20.0804
  18   2.0000      -0.714457       -19.4414
  19   2.0000      -0.666772       -18.1438
  20   2.0000      -0.652022       -17.7424
  21   2.0000      -0.632688       -17.2163
  22   2.0000      -0.628779       -17.1099
  23   2.0000      -0.576785       -15.6951
  24   2.0000      -0.544129       -14.8065
  25   2.0000      -0.533606       -14.5202
  26   2.0000      -0.502181       -13.6650
  27   2.0000      -0.486862       -13.2482
  28   2.0000      -0.465905       -12.6779
  29   2.0000      -0.437104       -11.8942
  30   0.0000       0.114594         3.1183
  31   0.0000       0.137888         3.7521
  32   0.0000       0.154179         4.1954
  33   0.0000       0.164194         4.4679
  34   0.0000       0.182939         4.9780

MULLIKEN ATOMIC CHARGES
-----------------------
   0 N :   -0.336581
   1 C :    0.131098
   2 C :   -0.207512
   3 C :   -0.073824
   4 O :   -0.223492
   5 C :    0.352112
   6 O :   -0.265500
   7 O :   -0.215926
   8 H :    0.238000
   9 H :    0.157994
  10 H :    0.154475
  11 H :    0.138346
  12 H :    0.150811
Sum of atomic charges:    0.0000000

LOEWDIN ATOMIC CHARGES
----------------------
   0 N :   -0.021044
   1 C :   -0.384692
   2 C :   -0.226956
   3 C :   -0.261837
   4 O :    0.265523
   5 C :   -0.598327
   6 O :    0.151947
   7 O :    0.297386
   8 H :    0.176459
   9 H :    0.164335
  10 H :    0.161960
  11 H :    0.136166
  12 H :    0.139079

  Mayer bond orders larger than 0.1
B(  0-N ,  1-C ) :   2.0766 B(  0-N ,  8-H ) :   0.8507 B(  1-C ,  2-C ) :   0.9270
B(  1-C ,  7-O ) :   0.9815 B(  2-C ,  3-C ) :   0.9267 B(  2-C ,  9-H ) :   0.9106
B(  2-C , 10-H ) :   0.9140 B(  3-C ,  4-O ) :   0.8386 B(  3-C , 11-H ) :   0.9276
B(  3-C , 12-H ) :   0.9291 B(  4-O ,  5-C ) :   1.1310 B(  5-C ,  6-O ) :   2.0702
B(  5-C ,  7-O ) :   1.0218

MP2 TOTAL ENERGY:     -435.107341309 Eh
FINAL SINGLE POINT ENERGY      -435.107341309228

DIPOLE MOMENT
-------------
                                X             Y             Z
Electronic contribution:      5.26990      -1.19652       0.91574
Nuclear contribution   :     -6.72929       1.27551      -0.94058
                        -----------------------------------------
Total Dipole Moment    :     -1.45940       0.07900      -0.02484
                        -----------------------------------------
Magnitude (a.u.)       :      1.46175
Magnitude (Debye)      :      3.71546

                             ****ORCA TERMINATED NORMALLY****
TOTAL RUN TIME: 0 days 0 hours 9 minutes 1 seconds 597 msec
