                         Program Version 3.0.3 - RELEASE   -
|  1> ! RI-MP2 RIJK def2-TZVP def2-TZVP/C def2-TZVP/JK TIGHTSCF
|  2> % maxcore 2000
|  3> % mp2 density relaxed end
|  4> *xyz 0 1
|  5>  C       -0.2155026953     1.6136278209    -0.0704260786
|  6>  C       -0.0397402359     0.1060011320    -0.0117316899
|  7>  C        1.2057895116    -0.5465756967    -0.6261148140
|  8>  C        2.1434286610    -0.1888033357     0.5677620339
|  9>  C        2.5412895395    -1.6619245851     0.6600527545
| 10>  C        2.9635403488    -2.2916669480     1.9723043725
| 11>  N        1.0590210426    -1.7896147309     0.2926826041
| 12>  C        0.7351602917    -0.5314253318     1.1509718670
| 13>  H        0.7136480677     2.1401360428     0.1717778130
| 14>  H       -0.5293999341     1.9331625494    -1.0699937395
| 15>  H       -0.9823418132     1.9468395951     0.6371631539
| 16>  H       -0.9661987934    -0.4283303774    -0.2520352873
| 17>  H        1.4907683130    -0.6738398578    -1.6732739368
| 18>  H        2.7413265588     0.7169822423     0.7172106673
| 19>  H        3.1752077178    -2.0231366835    -0.1607891644
| 20>  H        2.3592748580    -1.9362400686     2.8124053787
| 21>  H        2.8641931384    -3.3809622527     1.9215124834
| 22>  H        4.0117128656    -2.0592652737     2.1901763224
| 23>  H        0.4441247876    -0.6291222406     2.1980885701
| 24> *
| 25>
| 26>                          ****END OF INPUT****

CARTESIAN COORDINATES (ANGSTROEM)
---------------------------------
  C     -0.215503    1.613628   -0.070426
  C     -0.039740    0.106001   -0.011732
  C      1.205790   -0.546576   -0.626115
  C      2.143429   -0.188803    0.567762
  C      2.541290   -1.661925    0.660053
  C      2.963540   -2.291667    1.972304
  N      1.059021   -1.789615    0.292683
  C      0.735160   -0.531425    1.150972
  H      0.713648    2.140136    0.171778
  H     -0.529400    1.933163   -1.069994
  H     -0.982342    1.946840    0.637163
  H     -0.966199   -0.428330   -0.252035
  H      1.490768   -0.673840   -1.673274
  H      2.741327    0.716982    0.717211
  H      3.175208   -2.023137   -0.160789
  H      2.359275   -1.936240    2.812405
  H      2.864193   -3.380962    1.921512
  H      4.011713   -2.059265    2.190176
  H      0.444125   -0.629122    2.198089

 Total Charge           Charge          ....    0
 Multiplicity           Mult            ....    1
 Number of Electrons    NEL             ....   60
 Basis Dimension        Dim             ....  314

ORBITAL ENERGIES
----------------

  NO   OCC          E(Eh)            E(eV)
   0   2.0000     -15.557464      -423.3401
   1   2.0000     -11.266608      -306.5800
   2   2.0000     -11.266511      -306.5773
   3   2.0000     -11.254261      -306.2440
   4   2.0000     -11.242020      -305.9109
   5   2.0000     -11.232360      -305.6481
   6   2.0000     -11.218469      -305.2701
   7   2.0000     -11.213186      -305.1263
   8   2.0000      -1.310866       -35.6705
   9   2.0000      -1.064714       -28.9724
  10   2.0000      -0.991142       -26.9703
  11   2.0000      -0.923816       -25.1383
  12   2.0000      -0.904585       -24.6150
  13   2.0000      -0.871836       -23.7239
  14   2.0000      -0.773854       -21.0576
  15   2.0000      -0.694266       -18.8919
  16   2.0000      -0.669056       -18.2059
  17   2.0000      -0.635646       -17.2968
  18   2.0000      -0.607443       -16.5294
  19   2.0000      -0.591897       -16.1063
  20   2.0000      -0.564977       -15.3738
  21   2.0000      -0.554649       -15.0928
  22   2.0000      -0.532081       -14.4787
  23   2.0000      -0.514504       -14.0004
  24   2.0000      -0.458541       -12.4775
  25   2.0000      -0.451544       -12.2871
  26   2.0000      -0.443028       -12.0554
  27   2.0000      -0.428014       -11.6469
  28   2.0000      -0.420633       -11.4460
  29   2.0000      -0.366809        -9.9814
  30   0.0000       0.140241         3.8161
  31   0.0000       0.148362         4.0371
  32   0.0000       0.166748         4.5374
  33   0.0000       0.172428         4.6920
  34   0.0000       0.196274         5.3409

MULLIKEN ATOMIC CHARGES
-----------------------
   0 C :   -0.416244
   1 C :   -0.007048
   2 C :   -0.095980
   3 C :   -0.108897
   4 C :    0.010612
   5 C :   -0.410460
   6 N :   -0.206268
   7 C :   -0.119281
   8 H :    0.129704
   9 H :    0.133500
  10 H :    0.133191
  11 H :    0.103713
  12 H :    0.123555
  13 H :    0.108956
  14 H :    0.096811
  15 H :    0.126843
  16 H :    0.139154
  17 H :    0.129651
  18 H :    0.128489
Sum of atomic charges:   -0.0000000

LOEWDIN ATOMIC CHARGES
----------------------
   0 C :   -0.293142
   1 C :   -0.226270
   2 C :   -0.160722
   3 C :   -0.156478
   4 C :   -0.268053
   5 C :   -0.296773
   6 N :    0.145880
   7 C :   -0.159648
   8 H :    0.126245
   9 H :    0.126052
  10 H :    0.125989
  11 H :    0.148146
  12 H :    0.125197
  13 H :    0.120572
  14 H :    0.138168
  15 H :    0.124783
  16 H :    0.129428
  17 H :    0.127065
  18 H :    0.123562

  Mayer bond orders larger than 0.1
B(  0-C ,  1-C ) :   0.9082 B(  0-C ,  8-H ) :   0.9358 B(  0-C ,  9-H ) :   0.9360
B(  0-C , 10-H ) :   0.9361 B(  1-C ,  2-C ) :   0.9227 B(  1-C ,  7-C ) :   0.9240
B(  1-C , 11-H ) :   0.9028 B(  2-C ,  3-C ) :   0.8945 B(  2-C ,  6-N ) :   0.9092
B(  2-C , 12-H ) :   0.8887 B(  3-C ,  4-C ) :   0.9278 B(  3-C ,  7-C ) :   0.9015
B(  3-C , 13-H ) :   0.9130 B(  4-C ,  5-C ) :   0.9205 B(  4-C ,  6-N ) :   0.9049
B(  4-C , 14-H ) :   0.9207 B(  5-C , 15-H ) :   0.9339 B(  5-C , 16-H ) :   0.9348
B(  5-C , 17-H ) :   0.9362 B(  6-N ,  7-C ) :   0.9106 B(  7-C , 18-H ) :   0.8872

MP2 TOTAL ENERGY:     -327.244246693 Eh
FINAL SINGLE POINT ENERGY      -327.244246692843

DIPOLE MOMENT
-------------
                                X             Y             Z
Electronic contribution:     -0.58904      -2.01222      -1.68501
Nuclear contribution   :      0.91378       2.63459       1.79041
                        -----------------------------------------
Total Dipole Moment    :      0.32474       0.62238       0.10540
                        -----------------------------------------
Magnitude (a.u.)       :      0.70987
Magnitude (Debye)      :      1.80435

                             ****ORCA TERMINATED NORMALLY****
TOTAL RUN TIME: 0 days 0 hours 14 minutes 28 seconds 315 msec
