                         Program Version 3.0.3 - RELEASE   -
|  1> ! RI-MP2 RIJK def2-TZVP def2-TZVP/C def2-TZVP/JK TIGHTSCF
|  2> % maxcore 2000
|  3> % mp2 density relaxed end
|  4> *xyz 0 1
|  5>  C       -0.3552416837     1.3463429870    -0.1193842926
|  6>  O        0.9877136200     0.8668617981    -0.0764568497
|  7>  C       -0.0757007590    -0.0940136324    -0.0406701174
|  8>  C       -0.2130348104    -0.8052442508     1.2660400145
|  9>  O       -1.3069569708    -1.7241656852     1.3995798371
| 10>  C        0.0153398458    -2.2498839593     1.4604249649
| 11>  C        0.4279045504    -3.2223048224     0.3971522415
| 12>  C       -0.5575387728    -4.1148494416    -0.2319335435
| 13>  O       -0.0077036864    -3.0005105875    -0.9394216439
| 14>  H       -0.6908169007     1.8803451692     0.7691654281
| 15>  H       -0.6706369019     1.7768347463    -1.0684240091
| 16>  H       -0.1850190450    -0.7063580708    -0.9297168227
| 17>  H       -0.0608594172    -0.1579630663     2.1321530930
| 18>  H        0.3294454554    -2.5676048746     2.4582345327
| 19>  H        1.4594983511    -3.5658235172     0.4874015063
| 20>  H       -0.2484146217    -5.0940215944    -0.5924558577
| 21>  H       -1.6043201731    -4.0102791379     0.0435639886
| 22> *
| 23>
| 24>                          ****END OF INPUT****

CARTESIAN COORDINATES (ANGSTROEM)
---------------------------------
  C     -0.355242    1.346343   -0.119384
  O      0.987714    0.866862   -0.076457
  C     -0.075701   -0.094014   -0.040670
  C     -0.213035   -0.805244    1.266040
  O     -1.306957   -1.724166    1.399580
  C      0.015340   -2.249884    1.460425
  C      0.427905   -3.222305    0.397152
  C     -0.557539   -4.114849   -0.231934
  O     -0.007704   -3.000511   -0.939422
  H     -0.690817    1.880345    0.769165
  H     -0.670637    1.776835   -1.068424
  H     -0.185019   -0.706358   -0.929717
  H     -0.060859   -0.157963    2.132153
  H      0.329445   -2.567605    2.458235
  H      1.459498   -3.565824    0.487402
  H     -0.248415   -5.094022   -0.592456
  H     -1.604320   -4.010279    0.043564

 Total Charge           Charge          ....    0
 Multiplicity           Mult            ....    1
 Number of Electrons    NEL             ....   68
 Basis Dimension        Dim             ....  327

ORBITAL ENERGIES
----------------

  NO   OCC          E(Eh)            E(eV)
   0   2.0000     -20.581462      -560.0501
   1   2.0000     -20.580518      -560.0244
   2   2.0000     -20.572544      -559.8074
   3   2.0000     -11.304373      -307.6076
   4   2.0000     -11.303435      -307.5821
   5   2.0000     -11.301485      -307.5290
   6   2.0000     -11.292109      -307.2739
   7   2.0000     -11.288736      -307.1821
   8   2.0000     -11.285883      -307.1045
   9   2.0000      -1.437701       -39.1218
  10   2.0000      -1.418205       -38.5913
  11   2.0000      -1.410414       -38.3793
  12   2.0000      -1.000335       -27.2205
  13   2.0000      -0.985161       -26.8076
  14   2.0000      -0.919790       -25.0288
  15   2.0000      -0.897456       -24.4210
  16   2.0000      -0.840627       -22.8746
  17   2.0000      -0.796962       -21.6865
  18   2.0000      -0.728829       -19.8325
  19   2.0000      -0.714329       -19.4379
  20   2.0000      -0.684919       -18.6376
  21   2.0000      -0.662856       -18.0372
  22   2.0000      -0.638410       -17.3720
  23   2.0000      -0.588059       -16.0019
  24   2.0000      -0.576448       -15.6860
  25   2.0000      -0.556410       -15.1407
  26   2.0000      -0.535098       -14.5607
  27   2.0000      -0.528205       -14.3732
  28   2.0000      -0.508884       -13.8474
  29   2.0000      -0.478787       -13.0285
  30   2.0000      -0.462129       -12.5752
  31   2.0000      -0.453457       -12.3392
  32   2.0000      -0.448226       -12.1969
  33   2.0000      -0.405846       -11.0436
  34   0.0000       0.150059         4.0833
  35   0.0000       0.163624         4.4524
  36   0.0000       0.168055         4.5730
  37   0.0000       0.176469         4.8020
  38   0.0000       0.193935         5.2772

MULLIKEN ATOMIC CHARGES
-----------------------
   0 C :   -0.081838
   1 O :   -0.332587
   2 C :    0.043898
   3 C :   -0.019061
   4 O :   -0.335533
   5 C :    0.057436
   6 C :    0.031331
   7 C :   -0.091215
   8 O :   -0.336043
   9 H :    0.117545
  10 H :    0.121948
  11 H :    0.171371
  12 H :    0.123126
  13 H :    0.130214
  14 H :    0.140822
  15 H :    0.121011
  16 H :    0.137577
Sum of atomic charges:    0.0000000

LOEWDIN ATOMIC CHARGES
----------------------
   0 C :   -0.261534
   1 O :    0.148542
   2 C :   -0.270230
   3 C :   -0.238118
   4 O :    0.179807
   5 C :   -0.257179
   6 C :   -0.283498
   7 C :   -0.250040
   8 O :    0.154903
   9 H :    0.120739
  10 H :    0.121507
  11 H :    0.149350
  12 H :    0.146513
  13 H :    0.146604
  14 H :    0.144692
  15 H :    0.120643
  16 H :    0.127300

  Mayer bond orders larger than 0.1
B(  0-C ,  1-O ) :   0.8999 B(  0-C ,  2-C ) :   0.9530 B(  0-C ,  9-H ) :   0.9128
B(  0-C , 10-H ) :   0.9177 B(  1-O ,  2-C ) :   0.8864 B(  2-C ,  3-C ) :   0.8822
B(  2-C , 11-H ) :   0.9130 B(  3-C ,  4-O ) :   0.9095 B(  3-C ,  5-C ) :   0.9924
B(  3-C , 12-H ) :   0.9251 B(  4-O ,  5-C ) :   0.8755 B(  5-C ,  6-C ) :   0.9412
B(  5-C , 13-H ) :   0.9032 B(  6-C ,  7-C ) :   0.9808 B(  6-C ,  8-O ) :   0.8671
B(  6-C , 14-H ) :   0.9132 B(  7-C ,  8-O ) :   0.9077 B(  7-C , 15-H ) :   0.9255
B(  7-C , 16-H ) :   0.8996

MP2 TOTAL ENERGY:     -458.142739162 Eh
FINAL SINGLE POINT ENERGY      -458.142739161760

DIPOLE MOMENT
-------------
                                X             Y             Z
Electronic contribution:      0.52023       0.40237      -0.12536
Nuclear contribution   :     -0.62851      -0.88780       0.61058
                        -----------------------------------------
Total Dipole Moment    :     -0.10828      -0.48544       0.48522
                        -----------------------------------------
Magnitude (a.u.)       :      0.69484
Magnitude (Debye)      :      1.76615

                             ****ORCA TERMINATED NORMALLY****
TOTAL RUN TIME: 0 days 0 hours 14 minutes 5 seconds 956 msec
