                         Program Version 3.0.3 - RELEASE   -
|  1> ! RI-MP2 RIJK def2-TZVP def2-TZVP/C def2-TZVP/JK TIGHTSCF
|  2> % maxcore 2000
|  3> % mp2 density relaxed end
|  4> *xyz 0 1
|  5>  C       -0.1800943636     1.5696091137     0.0118647829
|  6>  C        0.0063369461     0.0526937773    -0.0507730584
|  7>  C        0.7714573229    -0.4073340884    -1.3003523904
|  8>  O        2.1769745301    -0.3012685543    -1.1036375778
|  9>  C        2.5619730802    -0.7300359924     0.1704643846
| 10>  C        1.5891263169    -1.6328559078     1.0048148609
| 11>  C        2.3261368681    -1.1553771110     2.2711471182
| 12>  C        2.0920746099     0.0954614835     1.3998891009
| 13>  N        0.6664338588    -0.4240452442     1.1884977630
| 14>  H        0.7729387455     2.0910917933    -0.1227859300
| 15>  H       -0.8587924553     1.9055697611    -0.7779606553
| 16>  H       -0.6013019242     1.8631848725     0.9775412768
| 17>  H       -0.9848141707    -0.4194285486    -0.0690474983
| 18>  H        0.5171042926    -1.4535754511    -1.5278229424
| 19>  H        0.5281183065     0.1966524619    -2.1794125622
| 20>  H        3.6182669417    -1.0126089547     0.1199340090
| 21>  H        1.2009566696    -2.6294258707     0.7877618134
| 22>  H        1.7350161039    -1.1963207530     3.1854356046
| 23>  H        3.3579945398    -1.4854020047     2.4050242277
| 24>  H        2.2935045911     1.1386744775     1.6448494926
| 25> *
| 26>
| 27>                          ****END OF INPUT****

CARTESIAN COORDINATES (ANGSTROEM)
---------------------------------
  C     -0.180094    1.569609    0.011865
  C      0.006337    0.052694   -0.050773
  C      0.771457   -0.407334   -1.300352
  O      2.176975   -0.301269   -1.103638
  C      2.561973   -0.730036    0.170464
  C      1.589126   -1.632856    1.004815
  C      2.326137   -1.155377    2.271147
  C      2.092075    0.095461    1.399889
  N      0.666434   -0.424045    1.188498
  H      0.772939    2.091092   -0.122786
  H     -0.858792    1.905570   -0.777961
  H     -0.601302    1.863185    0.977541
  H     -0.984814   -0.419429   -0.069047
  H      0.517104   -1.453575   -1.527823
  H      0.528118    0.196652   -2.179413
  H      3.618267   -1.012609    0.119934
  H      1.200957   -2.629426    0.787762
  H      1.735016   -1.196321    3.185436
  H      3.357995   -1.485402    2.405024
  H      2.293505    1.138674    1.644849

 Total Charge           Charge          ....    0
 Multiplicity           Mult            ....    1
 Number of Electrons    NEL             ....   68
 Basis Dimension        Dim             ....  345

ORBITAL ENERGIES
----------------

  NO   OCC          E(Eh)            E(eV)
   0   2.0000     -20.557048      -559.3857
   1   2.0000     -15.555269      -423.2804
   2   2.0000     -11.288761      -307.1828
   3   2.0000     -11.272794      -306.7483
   4   2.0000     -11.272511      -306.7406
   5   2.0000     -11.267478      -306.6037
   6   2.0000     -11.251822      -306.1776
   7   2.0000     -11.231970      -305.6375
   8   2.0000     -11.213236      -305.1277
   9   2.0000      -1.389839       -37.8194
  10   2.0000      -1.273288       -34.6479
  11   2.0000      -1.097059       -29.8525
  12   2.0000      -0.964051       -26.2332
  13   2.0000      -0.943928       -25.6856
  14   2.0000      -0.885385       -24.0926
  15   2.0000      -0.868438       -23.6314
  16   2.0000      -0.816966       -22.2308
  17   2.0000      -0.696989       -18.9660
  18   2.0000      -0.690393       -18.7865
  19   2.0000      -0.668919       -18.2022
  20   2.0000      -0.660584       -17.9754
  21   2.0000      -0.642137       -17.4734
  22   2.0000      -0.578566       -15.7436
  23   2.0000      -0.559167       -15.2157
  24   2.0000      -0.551600       -15.0098
  25   2.0000      -0.545106       -14.8331
  26   2.0000      -0.510798       -13.8995
  27   2.0000      -0.495131       -13.4732
  28   2.0000      -0.488718       -13.2987
  29   2.0000      -0.465225       -12.6594
  30   2.0000      -0.459910       -12.5148
  31   2.0000      -0.449991       -12.2449
  32   2.0000      -0.401319       -10.9205
  33   2.0000      -0.354618        -9.6496
  34   0.0000       0.142305         3.8723
  35   0.0000       0.155931         4.2431
  36   0.0000       0.159882         4.3506
  37   0.0000       0.185065         5.0359
  38   0.0000       0.186009         5.0616

MULLIKEN ATOMIC CHARGES
-----------------------
   0 C :   -0.443597
   1 C :   -0.011365
   2 C :   -0.056679
   3 O :   -0.315886
   4 C :    0.056968
   5 C :   -0.102380
   6 C :   -0.182481
   7 C :   -0.091691
   8 N :   -0.208641
   9 H :    0.137177
  10 H :    0.132827
  11 H :    0.144126
  12 H :    0.097947
  13 H :    0.097366
  14 H :    0.122122
  15 H :    0.107481
  16 H :    0.136278
  17 H :    0.116516
  18 H :    0.121906
  19 H :    0.142006
Sum of atomic charges:   -0.0000000

LOEWDIN ATOMIC CHARGES
----------------------
   0 C :   -0.294040
   1 C :   -0.321286
   2 C :   -0.289463
   3 O :    0.179651
   4 C :   -0.270100
   5 C :   -0.189232
   6 C :   -0.202465
   7 C :   -0.190824
   8 N :    0.141836
   9 H :    0.126273
  10 H :    0.124648
  11 H :    0.128532
  12 H :    0.148758
  13 H :    0.122771
  14 H :    0.132007
  15 H :    0.137028
  16 H :    0.123951
  17 H :    0.135652
  18 H :    0.131340
  19 H :    0.124963

  Mayer bond orders larger than 0.1
B(  0-C ,  1-C ) :   0.9167 B(  0-C ,  9-H ) :   0.9293 B(  0-C , 10-H ) :   0.9365
B(  0-C , 11-H ) :   0.9387 B(  1-C ,  2-C ) :   0.9175 B(  1-C ,  8-N ) :   0.9557
B(  1-C , 12-H ) :   0.9227 B(  2-C ,  3-O ) :   0.9091 B(  2-C , 13-H ) :   0.9224
B(  2-C , 14-H ) :   0.9259 B(  3-O ,  4-C ) :   0.9929 B(  4-C ,  5-C ) :   0.8774
B(  4-C ,  7-C ) :   0.8526 B(  4-C , 15-H ) :   0.9538 B(  5-C ,  6-C ) :   0.9268
B(  5-C ,  8-N ) :   0.8497 B(  5-C , 16-H ) :   0.8962 B(  6-C ,  7-C ) :   0.9110
B(  6-C , 17-H ) :   0.9047 B(  6-C , 18-H ) :   0.9267 B(  7-C ,  8-N ) :   0.8401
B(  7-C , 19-H ) :   0.8894

MP2 TOTAL ENERGY:     -402.392549927 Eh
FINAL SINGLE POINT ENERGY      -402.392549926836

DIPOLE MOMENT
-------------
                                X             Y             Z
Electronic contribution:      2.76806      -2.36068      -0.41223
Nuclear contribution   :     -2.80918       2.21643       0.39268
                        -----------------------------------------
Total Dipole Moment    :     -0.04111      -0.14424      -0.01955
                        -----------------------------------------
Magnitude (a.u.)       :      0.15126
Magnitude (Debye)      :      0.38446

                             ****ORCA TERMINATED NORMALLY****
TOTAL RUN TIME: 0 days 0 hours 20 minutes 48 seconds 871 msec
