                         Program Version 3.0.3 - RELEASE   -
|  1> ! RI-MP2 RIJK def2-TZVP def2-TZVP/C def2-TZVP/JK TIGHTSCF
|  2> % maxcore 2000
|  3> % mp2 density relaxed end
|  4> *xyz 0 1
|  5>  C       -0.3869419155     1.5803242962     0.0117604225
|  6>  C        0.0184554107     0.1048749244     0.0600009238
|  7>  N        0.9864123182    -0.2335615908    -0.9883374912
|  8>  C        1.5153582234    -1.5773195090    -0.6933411316
|  9>  C        1.4459849485    -1.6778634341     0.8542905807
| 10>  C        0.8214177159    -0.3339701175     1.3237733815
| 11>  N        1.7735282438     0.7153769504     1.6786784884
| 12>  C       -1.2084699295    -0.7335603977    -0.0396374395
| 13>  N       -2.1429888776    -1.4045617018    -0.1616047291
| 14>  H        0.5002828954     2.2050194387     0.1032026229
| 15>  H       -0.8972055801     1.8040258405    -0.9299003050
| 16>  H       -1.0685038885     1.8166001441     0.8328332722
| 17>  H        0.5920376433    -0.1621739618    -1.9195680249
| 18>  H        0.9170530722    -2.3764293217    -1.1519516390
| 19>  H        2.5349566604    -1.6639274881    -1.0808658559
| 20>  H        0.8195638070    -2.5220045113     1.1529909050
| 21>  H        2.4285631976    -1.8204084841     1.3101132208
| 22>  H        0.1509475957    -0.4784880188     2.1745312704
| 23>  H        2.2964762707     0.4341126860     2.5020160922
| 24>  H        2.4462632584     0.8241095463     0.9242970460
| 25> *
| 26>
| 27>                          ****END OF INPUT****

CARTESIAN COORDINATES (ANGSTROEM)
---------------------------------
  C     -0.386942    1.580324    0.011760
  C      0.018455    0.104875    0.060001
  N      0.986412   -0.233562   -0.988337
  C      1.515358   -1.577320   -0.693341
  C      1.445985   -1.677863    0.854291
  C      0.821418   -0.333970    1.323773
  N      1.773528    0.715377    1.678678
  C     -1.208470   -0.733560   -0.039637
  N     -2.142989   -1.404562   -0.161605
  H      0.500283    2.205019    0.103203
  H     -0.897206    1.804026   -0.929900
  H     -1.068504    1.816600    0.832833
  H      0.592038   -0.162174   -1.919568
  H      0.917053   -2.376429   -1.151952
  H      2.534957   -1.663927   -1.080866
  H      0.819564   -2.522005    1.152991
  H      2.428563   -1.820408    1.310113
  H      0.150948   -0.478488    2.174531
  H      2.296476    0.434113    2.502016
  H      2.446263    0.824110    0.924297

 Total Charge           Charge          ....    0
 Multiplicity           Mult            ....    1
 Number of Electrons    NEL             ....   68
 Basis Dimension        Dim             ....  345

ORBITAL ENERGIES
----------------

  NO   OCC          E(Eh)            E(eV)
   0   2.0000     -15.567708      -423.6189
   1   2.0000     -15.566010      -423.5727
   2   2.0000     -15.550499      -423.1506
   3   2.0000     -11.310708      -307.7800
   4   2.0000     -11.277668      -306.8810
   5   2.0000     -11.265692      -306.5551
   6   2.0000     -11.263364      -306.4917
   7   2.0000     -11.234747      -305.7130
   8   2.0000     -11.229133      -305.5603
   9   2.0000      -1.267199       -34.4822
  10   2.0000      -1.209652       -32.9163
  11   2.0000      -1.182553       -32.1789
  12   2.0000      -1.050009       -28.5722
  13   2.0000      -1.020119       -27.7589
  14   2.0000      -0.923571       -25.1316
  15   2.0000      -0.838250       -22.8099
  16   2.0000      -0.808938       -22.0123
  17   2.0000      -0.749788       -20.4028
  18   2.0000      -0.667048       -18.1513
  19   2.0000      -0.649383       -17.6706
  20   2.0000      -0.646113       -17.5816
  21   2.0000      -0.608050       -16.5459
  22   2.0000      -0.581595       -15.8260
  23   2.0000      -0.571877       -15.5616
  24   2.0000      -0.553207       -15.0535
  25   2.0000      -0.542424       -14.7601
  26   2.0000      -0.524693       -14.2776
  27   2.0000      -0.523610       -14.2482
  28   2.0000      -0.500892       -13.6300
  29   2.0000      -0.497781       -13.5453
  30   2.0000      -0.462906       -12.5963
  31   2.0000      -0.454616       -12.3707
  32   2.0000      -0.409176       -11.1342
  33   2.0000      -0.390138       -10.6162
  34   0.0000       0.118459         3.2234
  35   0.0000       0.144064         3.9202
  36   0.0000       0.154435         4.2024
  37   0.0000       0.161457         4.3935
  38   0.0000       0.177668         4.8346

MULLIKEN ATOMIC CHARGES
-----------------------
   0 C :   -0.349544
   1 C :    0.364131
   2 N :   -0.401073
   3 C :   -0.156643
   4 C :   -0.247022
   5 C :   -0.050985
   6 N :   -0.550292
   7 C :   -0.296503
   8 N :   -0.044596
   9 H :    0.146141
  10 H :    0.137687
  11 H :    0.134452
  12 H :    0.213916
  13 H :    0.127712
  14 H :    0.122864
  15 H :    0.138285
  16 H :    0.117808
  17 H :    0.124967
  18 H :    0.227533
  19 H :    0.241161
Sum of atomic charges:   -0.0000000

LOEWDIN ATOMIC CHARGES
----------------------
   0 C :   -0.245663
   1 C :   -0.332880
   2 N :    0.038575
   3 C :   -0.284360
   4 C :   -0.237762
   5 C :   -0.270117
   6 N :   -0.138137
   7 C :   -0.154154
   8 N :    0.058626
   9 H :    0.132756
  10 H :    0.129417
  11 H :    0.135765
  12 H :    0.172874
  13 H :    0.124874
  14 H :    0.126538
  15 H :    0.142554
  16 H :    0.133727
  17 H :    0.152187
  18 H :    0.154861
  19 H :    0.160317

  Mayer bond orders larger than 0.1
B(  0-C ,  1-C ) :   0.9160 B(  0-C ,  9-H ) :   0.9273 B(  0-C , 10-H ) :   0.9239
B(  0-C , 11-H ) :   0.9299 B(  1-C ,  2-N ) :   0.8922 B(  1-C ,  5-C ) :   0.8274
B(  1-C ,  7-C ) :   0.9101 B(  2-N ,  3-C ) :   0.9542 B(  2-N ,  5-C ) :   0.1051
B(  2-N , 12-H ) :   0.8795 B(  3-C ,  4-C ) :   0.9400 B(  3-C , 13-H ) :   0.9386
B(  3-C , 14-H ) :   0.9223 B(  4-C ,  5-C ) :   0.9419 B(  4-C , 15-H ) :   0.9177
B(  4-C , 16-H ) :   0.9339 B(  5-C ,  6-N ) :   0.9547 B(  5-C , 17-H ) :   0.9245
B(  6-N , 18-H ) :   0.8920 B(  6-N , 19-H ) :   0.8871 B(  7-C ,  8-N ) :   2.8803

MP2 TOTAL ENERGY:     -398.664014885 Eh
FINAL SINGLE POINT ENERGY      -398.664014884618

DIPOLE MOMENT
-------------
                                X             Y             Z
Electronic contribution:     -4.93346      -1.90381      -1.17078
Nuclear contribution   :      6.26737       2.01994       1.23631
                        -----------------------------------------
Total Dipole Moment    :      1.33391       0.11613       0.06553
                        -----------------------------------------
Magnitude (a.u.)       :      1.34056
Magnitude (Debye)      :      3.40743

                             ****ORCA TERMINATED NORMALLY****
TOTAL RUN TIME: 0 days 0 hours 21 minutes 45 seconds 807 msec
