                         Program Version 3.0.3 - RELEASE   -
|  1> ! RI-MP2 RIJK def2-TZVP def2-TZVP/C def2-TZVP/JK TIGHTSCF
|  2> % maxcore 2000
|  3> % mp2 density relaxed end
|  4> *xyz 0 1
|  5>  C       -0.2109431561     1.1949573107    -1.3253491187
|  6>  C        0.3067789080    -0.1223427445    -0.7870370464
|  7>  O        1.6748672073    -0.3801489485    -1.1628093755
|  8>  C        2.1152536857    -0.5246072153     0.2159060786
|  9>  C        2.5903272976    -1.9476831259     0.4821277630
| 10>  C        3.1796773692     0.5073608519     0.5523558216
| 11>  C        0.6573388142    -0.2372458623     0.7318795538
| 12>  C        0.4289105725     0.9088089384     1.5841989814
| 13>  C        0.2349257980     1.8593440323     2.2957840802
| 14>  H        0.3873146521     2.0341449644    -0.9623319020
| 15>  H       -0.1708998279     1.1835496827    -2.4190376738
| 16>  H       -1.2501704552     1.3532101528    -1.0189182512
| 17>  H       -0.3435969202    -0.9434168182    -1.1180888513
| 18>  H        3.4887152558    -2.1608462073    -0.1058388522
| 19>  H        2.8319717283    -2.0859757273     1.5415383882
| 20>  H        1.8217259670    -2.6744208905     0.2030258980
| 21>  H        2.8195497018     1.5207404541     0.3646169080
| 22>  H        3.4736513280     0.4366113765     1.6043478947
| 23>  H        4.0646630762     0.3324838206    -0.0677985892
| 24>  H        0.2120400602    -1.1248849786     1.1900125111
| 25>  H        0.0630659175     2.6965653940     2.9259989616
| 26> *
| 27>
| 28>                          ****END OF INPUT****

CARTESIAN COORDINATES (ANGSTROEM)
---------------------------------
  C     -0.210943    1.194957   -1.325349
  C      0.306779   -0.122343   -0.787037
  O      1.674867   -0.380149   -1.162809
  C      2.115254   -0.524607    0.215906
  C      2.590327   -1.947683    0.482128
  C      3.179677    0.507361    0.552356
  C      0.657339   -0.237246    0.731880
  C      0.428911    0.908809    1.584199
  C      0.234926    1.859344    2.295784
  H      0.387315    2.034145   -0.962332
  H     -0.170900    1.183550   -2.419038
  H     -1.250170    1.353210   -1.018918
  H     -0.343597   -0.943417   -1.118089
  H      3.488715   -2.160846   -0.105839
  H      2.831972   -2.085976    1.541538
  H      1.821726   -2.674421    0.203026
  H      2.819550    1.520740    0.364617
  H      3.473651    0.436611    1.604348
  H      4.064663    0.332484   -0.067799
  H      0.212040   -1.124885    1.190013
  H      0.063066    2.696565    2.925999

 Total Charge           Charge          ....    0
 Multiplicity           Mult            ....    1
 Number of Electrons    NEL             ....   68
 Basis Dimension        Dim             ....  351

ORBITAL ENERGIES
----------------

  NO   OCC          E(Eh)            E(eV)
   0   2.0000     -20.543457      -559.0159
   1   2.0000     -11.296529      -307.3942
   2   2.0000     -11.289313      -307.1978
   3   2.0000     -11.257367      -306.3285
   4   2.0000     -11.237271      -305.7817
   5   2.0000     -11.225689      -305.4665
   6   2.0000     -11.219134      -305.2882
   7   2.0000     -11.214437      -305.1603
   8   2.0000     -11.213368      -305.1312
   9   2.0000      -1.379623       -37.5415
  10   2.0000      -1.083060       -29.4716
  11   2.0000      -1.050513       -28.5859
  12   2.0000      -1.004960       -27.3464
  13   2.0000      -0.953055       -25.9339
  14   2.0000      -0.941265       -25.6131
  15   2.0000      -0.817264       -22.2389
  16   2.0000      -0.771824       -21.0024
  17   2.0000      -0.705942       -19.2097
  18   2.0000      -0.681766       -18.5518
  19   2.0000      -0.652668       -17.7600
  20   2.0000      -0.644074       -17.5262
  21   2.0000      -0.590614       -16.0714
  22   2.0000      -0.580743       -15.8028
  23   2.0000      -0.567252       -15.4357
  24   2.0000      -0.557356       -15.1664
  25   2.0000      -0.537483       -14.6257
  26   2.0000      -0.529311       -14.4033
  27   2.0000      -0.511894       -13.9294
  28   2.0000      -0.499647       -13.5961
  29   2.0000      -0.473676       -12.8894
  30   2.0000      -0.462774       -12.5927
  31   2.0000      -0.413085       -11.2406
  32   2.0000      -0.385405       -10.4874
  33   2.0000      -0.379655       -10.3309
  34   0.0000       0.131558         3.5799
  35   0.0000       0.150950         4.1076
  36   0.0000       0.157871         4.2959
  37   0.0000       0.167268         4.5516
  38   0.0000       0.170123         4.6293

MULLIKEN ATOMIC CHARGES
-----------------------
   0 C :   -0.395010
   1 C :    0.095409
   2 O :   -0.331831
   3 C :    0.201067
   4 C :   -0.411941
   5 C :   -0.383821
   6 C :   -0.174915
   7 C :   -0.071715
   8 C :   -0.150303
   9 H :    0.135574
  10 H :    0.140490
  11 H :    0.128255
  12 H :    0.084051
  13 H :    0.136249
  14 H :    0.131634
  15 H :    0.133003
  16 H :    0.139365
  17 H :    0.129257
  18 H :    0.137183
  19 H :    0.137629
  20 H :    0.190373
Sum of atomic charges:    0.0000000

LOEWDIN ATOMIC CHARGES
----------------------
   0 C :   -0.290376
   1 C :   -0.272493
   2 O :    0.177745
   3 C :   -0.328730
   4 C :   -0.269814
   5 C :   -0.264490
   6 C :   -0.165147
   7 C :   -0.092221
   8 C :   -0.095917
   9 H :    0.128862
  10 H :    0.129900
  11 H :    0.130137
  12 H :    0.134915
  13 H :    0.130873
  14 H :    0.129547
  15 H :    0.127656
  16 H :    0.131093
  17 H :    0.131607
  18 H :    0.131561
  19 H :    0.168271
  20 H :    0.127020

  Mayer bond orders larger than 0.1
B(  0-C ,  1-C ) :   0.9176 B(  0-C ,  9-H ) :   0.9346 B(  0-C , 10-H ) :   0.9351
B(  0-C , 11-H ) :   0.9255 B(  1-C ,  2-O ) :   0.9482 B(  1-C ,  6-C ) :   0.9123
B(  1-C , 12-H ) :   0.9172 B(  2-O ,  3-C ) :   0.9225 B(  3-C ,  4-C ) :   0.9160
B(  3-C ,  5-C ) :   0.9235 B(  3-C ,  6-C ) :   0.8510 B(  4-C , 13-H ) :   0.9330
B(  4-C , 14-H ) :   0.9307 B(  4-C , 15-H ) :   0.9343 B(  5-C , 16-H ) :   0.9344
B(  5-C , 17-H ) :   0.9236 B(  5-C , 18-H ) :   0.9342 B(  6-C ,  7-C ) :   1.1457
B(  6-C , 19-H ) :   0.9356 B(  7-C ,  8-C ) :   2.5838 B(  8-C , 20-H ) :   0.8961

MP2 TOTAL ENERGY:     -386.373475027 Eh
FINAL SINGLE POINT ENERGY      -386.373475027473

DIPOLE MOMENT
-------------
                                X             Y             Z
Electronic contribution:     -2.37607       0.71039       1.05045
Nuclear contribution   :      2.18033      -0.75940      -0.60717
                        -----------------------------------------
Total Dipole Moment    :     -0.19573      -0.04901       0.44328
                        -----------------------------------------
Magnitude (a.u.)       :      0.48705
Magnitude (Debye)      :      1.23797

                             ****ORCA TERMINATED NORMALLY****
TOTAL RUN TIME: 0 days 0 hours 21 minutes 53 seconds 698 msec
