                         Program Version 3.0.3 - RELEASE   -
|  1> ! RI-MP2 RIJK def2-TZVP def2-TZVP/C def2-TZVP/JK TIGHTSCF
|  2> % maxcore 2000
|  3> % mp2 density relaxed end
|  4> *xyz 0 1
|  5>  O        0.0536263735    -0.0940598109     0.0033085970
|  6>  C       -0.0270460266     1.1191690194     0.0073544581
|  7>  C        1.1601146543     1.9672290574     0.0012514632
|  8>  C        2.1358814215     2.6726473504    -0.0037214604
|  9>  C       -1.3069973094     1.8307638455     0.0185859004
| 10>  C       -2.6089503400     1.3483344852     0.0266126253
| 11>  C       -3.4122670266     2.4969850296     0.0354974338
| 12>  N       -2.6778900302     3.6175723335     0.0335617088
| 13>  N       -1.4159546941     3.1907705766     0.0232995652
| 14>  H        3.0155235716     3.2704153427    -0.0081739629
| 15>  H       -2.9015831039     0.3118500635     0.0257866544
| 16>  H       -4.4894819121     2.5679606361     0.0433571947
| 17>  H       -0.6579610178     3.8555528010     0.0197932024
| 18> *
| 19>
| 20>                          ****END OF INPUT****

CARTESIAN COORDINATES (ANGSTROEM)
---------------------------------
  O      0.053626   -0.094060    0.003309
  C     -0.027046    1.119169    0.007354
  C      1.160115    1.967229    0.001251
  C      2.135881    2.672647   -0.003721
  C     -1.306997    1.830764    0.018586
  C     -2.608950    1.348334    0.026613
  C     -3.412267    2.496985    0.035497
  N     -2.677890    3.617572    0.033562
  N     -1.415955    3.190771    0.023300
  H      3.015524    3.270415   -0.008174
  H     -2.901583    0.311850    0.025787
  H     -4.489482    2.567961    0.043357
  H     -0.657961    3.855553    0.019793

 Total Charge           Charge          ....    0
 Multiplicity           Mult            ....    1
 Number of Electrons    NEL             ....   62
 Basis Dimension        Dim             ....  303

ORBITAL ENERGIES
----------------

  NO   OCC          E(Eh)            E(eV)
   0   2.0000     -20.574930      -559.8723
   1   2.0000     -15.664044      -426.2403
   2   2.0000     -15.615123      -424.9091
   3   2.0000     -11.384216      -309.7803
   4   2.0000     -11.296350      -307.3893
   5   2.0000     -11.281310      -306.9801
   6   2.0000     -11.271946      -306.7252
   7   2.0000     -11.269016      -306.6455
   8   2.0000     -11.248173      -306.0783
   9   2.0000      -1.417833       -38.5812
  10   2.0000      -1.399604       -38.0852
  11   2.0000      -1.131360       -30.7859
  12   2.0000      -1.086231       -29.5578
  13   2.0000      -1.071736       -29.1634
  14   2.0000      -0.940078       -25.5808
  15   2.0000      -0.845167       -22.9982
  16   2.0000      -0.815236       -22.1837
  17   2.0000      -0.794977       -21.6324
  18   2.0000      -0.740598       -20.1527
  19   2.0000      -0.674230       -18.3467
  20   2.0000      -0.644002       -17.5242
  21   2.0000      -0.640474       -17.4282
  22   2.0000      -0.620130       -16.8746
  23   2.0000      -0.591828       -16.1045
  24   2.0000      -0.569928       -15.5085
  25   2.0000      -0.490890       -13.3578
  26   2.0000      -0.467552       -12.7227
  27   2.0000      -0.442084       -12.0297
  28   2.0000      -0.436337       -11.8733
  29   2.0000      -0.382607       -10.4113
  30   2.0000      -0.364225        -9.9111
  31   0.0000       0.041055         1.1172
  32   0.0000       0.132409         3.6030
  33   0.0000       0.143891         3.9155
  34   0.0000       0.144258         3.9255
  35   0.0000       0.155973         4.2443

MULLIKEN ATOMIC CHARGES
-----------------------
   0 O :   -0.265269
   1 C :    0.064397
   2 C :    0.001530
   3 C :   -0.100919
   4 C :    0.059514
   5 C :   -0.155808
   6 C :   -0.089184
   7 N :   -0.218419
   8 N :   -0.085642
   9 H :    0.208123
  10 H :    0.165183
  11 H :    0.145875
  12 H :    0.270618
Sum of atomic charges:   -0.0000000

LOEWDIN ATOMIC CHARGES
----------------------
   0 O :    0.181091
   1 C :   -0.311913
   2 C :   -0.057160
   3 C :   -0.043038
   4 C :   -0.211108
   5 C :   -0.137186
   6 C :   -0.250997
   7 N :    0.036511
   8 N :    0.169824
   9 H :    0.134801
  10 H :    0.152641
  11 H :    0.137510
  12 H :    0.199025

  Mayer bond orders larger than 0.1
B(  0-O ,  1-C ) :   2.0401 B(  0-O ,  4-C ) :  -0.1022 B(  1-C ,  2-C ) :   1.0400
B(  1-C ,  4-C ) :   0.9911 B(  2-C ,  3-C ) :   2.6253 B(  2-C ,  4-C ) :  -0.1497
B(  3-C ,  9-H ) :   0.8915 B(  4-C ,  5-C ) :   1.3348 B(  4-C ,  7-N ) :   0.1082
B(  4-C ,  8-N ) :   1.1636 B(  5-C ,  6-C ) :   1.3413 B(  5-C , 10-H ) :   0.9175
B(  6-C ,  7-N ) :   1.4538 B(  6-C , 11-H ) :   0.9364 B(  7-N ,  8-N ) :   1.0896
B(  8-N , 12-H ) :   0.8551

MP2 TOTAL ENERGY:     -414.886038748 Eh
FINAL SINGLE POINT ENERGY      -414.886038748492

DIPOLE MOMENT
-------------
                                X             Y             Z
Electronic contribution:      1.74609      -1.02963      -0.01555
Nuclear contribution   :     -1.27375       1.83259       0.01451
                        -----------------------------------------
Total Dipole Moment    :      0.47234       0.80296      -0.00104
                        -----------------------------------------
Magnitude (a.u.)       :      0.93158
Magnitude (Debye)      :      2.36789

                             ****ORCA TERMINATED NORMALLY****
TOTAL RUN TIME: 0 days 0 hours 15 minutes 31 seconds 147 msec
