                         Program Version 3.0.3 - RELEASE   -
|  1> ! RI-MP2 RIJK def2-TZVP def2-TZVP/C def2-TZVP/JK TIGHTSCF
|  2> % maxcore 2000
|  3> % mp2 density relaxed end
|  4> *xyz 0 1
|  5>  C        0.0116854526     1.4640799420     0.0834866235
|  6>  N        0.0961282483     0.0143307861     0.0978171887
|  7>  C        0.5420291397    -0.5884807692    -0.9369614145
|  8>  C        0.9750803400     0.0783323224    -2.2421855039
|  9>  O        1.5034732945    -0.8182467977    -3.2053552709
| 10>  N        0.6971712851    -1.9512447768    -0.9367107348
| 11>  C        0.1578393868    -2.7326566318     0.1665894847
| 12>  C        0.4218716804    -4.1537265931    -0.0222812261
| 13>  C        0.6294658188    -5.3249555445    -0.1906338176
| 14>  H        0.9953353618     1.9512932138    -0.0081490649
| 15>  H       -0.6203781505     1.8558453132    -0.7288024291
| 16>  H       -0.4277193091     1.8035901572     1.0255126695
| 17>  H        0.1004217910     0.5468665807    -2.7068179237
| 18>  H        1.6803128976     0.8890251693    -2.0118253960
| 19>  H        2.3702363946    -1.1030018661    -2.8969794696
| 20>  H        0.7275514409    -2.3874445242    -1.8456581135
| 21>  H        0.6119205134    -2.3733637091     1.0969584086
| 22>  H       -0.9225889560    -2.5579124936     0.2844341422
| 23>  H        0.8116014498    -6.3623693086    -0.3255087826
| 24> *
| 25>
| 26>                          ****END OF INPUT****

CARTESIAN COORDINATES (ANGSTROEM)
---------------------------------
  C      0.011685    1.464080    0.083487
  N      0.096128    0.014331    0.097817
  C      0.542029   -0.588481   -0.936961
  C      0.975080    0.078332   -2.242186
  O      1.503473   -0.818247   -3.205355
  N      0.697171   -1.951245   -0.936711
  C      0.157839   -2.732657    0.166589
  C      0.421872   -4.153727   -0.022281
  C      0.629466   -5.324956   -0.190634
  H      0.995335    1.951293   -0.008149
  H     -0.620378    1.855845   -0.728802
  H     -0.427719    1.803590    1.025513
  H      0.100422    0.546867   -2.706818
  H      1.680313    0.889025   -2.011825
  H      2.370236   -1.103002   -2.896979
  H      0.727551   -2.387445   -1.845658
  H      0.611921   -2.373364    1.096958
  H     -0.922589   -2.557912    0.284434
  H      0.811601   -6.362369   -0.325509

 Total Charge           Charge          ....    0
 Multiplicity           Mult            ....    1
 Number of Electrons    NEL             ....   68
 Basis Dimension        Dim             ....  339

ORBITAL ENERGIES
----------------

  NO   OCC          E(Eh)            E(eV)
   0   2.0000     -20.581825      -560.0599
   1   2.0000     -15.574869      -423.8137
   2   2.0000     -15.524121      -422.4328
   3   2.0000     -11.312056      -307.8167
   4   2.0000     -11.302323      -307.5518
   5   2.0000     -11.284179      -307.0581
   6   2.0000     -11.241543      -305.8979
   7   2.0000     -11.238744      -305.8218
   8   2.0000     -11.228186      -305.5345
   9   2.0000      -1.388928       -37.7946
  10   2.0000      -1.277202       -34.7544
  11   2.0000      -1.178240       -32.0615
  12   2.0000      -1.052586       -28.6423
  13   2.0000      -0.987126       -26.8611
  14   2.0000      -0.937074       -25.4991
  15   2.0000      -0.921804       -25.0836
  16   2.0000      -0.762003       -20.7352
  17   2.0000      -0.746765       -20.3205
  18   2.0000      -0.719998       -19.5921
  19   2.0000      -0.696849       -18.9622
  20   2.0000      -0.656156       -17.8549
  21   2.0000      -0.637872       -17.3574
  22   2.0000      -0.618846       -16.8397
  23   2.0000      -0.601113       -16.3571
  24   2.0000      -0.588777       -16.0214
  25   2.0000      -0.577769       -15.7219
  26   2.0000      -0.551274       -15.0009
  27   2.0000      -0.530952       -14.4479
  28   2.0000      -0.499558       -13.5937
  29   2.0000      -0.471450       -12.8288
  30   2.0000      -0.406732       -11.0678
  31   2.0000      -0.390750       -10.6328
  32   2.0000      -0.382796       -10.4164
  33   2.0000      -0.346189        -9.4203
  34   0.0000       0.123965         3.3733
  35   0.0000       0.147567         4.0155
  36   0.0000       0.161315         4.3896
  37   0.0000       0.165877         4.5137
  38   0.0000       0.171986         4.6800

MULLIKEN ATOMIC CHARGES
-----------------------
   0 C :   -0.333213
   1 N :   -0.288749
   2 C :    0.131688
   3 C :   -0.045790
   4 O :   -0.486435
   5 N :   -0.336959
   6 C :   -0.252680
   7 C :   -0.030176
   8 C :   -0.101668
   9 H :    0.123531
  10 H :    0.118235
  11 H :    0.145337
  12 H :    0.142132
  13 H :    0.132200
  14 H :    0.330305
  15 H :    0.258140
  16 H :    0.156915
  17 H :    0.143707
  18 H :    0.193481
Sum of atomic charges:    0.0000000

LOEWDIN ATOMIC CHARGES
----------------------
   0 C :   -0.347948
   1 N :    0.042310
   2 C :   -0.371650
   3 C :   -0.308093
   4 O :   -0.040970
   5 N :    0.090203
   6 C :   -0.263938
   7 C :   -0.112221
   8 C :   -0.097655
   9 H :    0.108757
  10 H :    0.108842
  11 H :    0.115445
  12 H :    0.142800
  13 H :    0.130987
  14 H :    0.178854
  15 H :    0.189720
  16 H :    0.157660
  17 H :    0.149388
  18 H :    0.127508

  Mayer bond orders larger than 0.1
B(  0-C ,  1-N ) :   0.9005 B(  0-C ,  9-H ) :   0.9302 B(  0-C , 10-H ) :   0.9278
B(  0-C , 11-H ) :   0.9491 B(  1-N ,  2-C ) :   1.7793 B(  2-C ,  3-C ) :   0.8908
B(  2-C ,  5-N ) :   1.1080 B(  3-C ,  4-O ) :   0.9250 B(  3-C , 12-H ) :   0.9249
B(  3-C , 13-H ) :   0.9421 B(  4-O , 14-H ) :   0.8372 B(  5-N ,  6-C ) :   0.9041
B(  5-N , 15-H ) :   0.8554 B(  6-C ,  7-C ) :   1.0265 B(  6-C ,  8-C ) :  -0.1167
B(  6-C , 16-H ) :   0.9251 B(  6-C , 17-H ) :   0.9496 B(  7-C ,  8-C ) :   2.6311
B(  8-C , 18-H ) :   0.8947

MP2 TOTAL ENERGY:     -418.446132658 Eh
FINAL SINGLE POINT ENERGY      -418.446132657766

DIPOLE MOMENT
-------------
                                X             Y             Z
Electronic contribution:      0.86929      -6.26643      -0.79720
Nuclear contribution   :     -0.45095       6.38169       0.45748
                        -----------------------------------------
Total Dipole Moment    :      0.41834       0.11526      -0.33972
                        -----------------------------------------
Magnitude (a.u.)       :      0.55109
Magnitude (Debye)      :      1.40076

                             ****ORCA TERMINATED NORMALLY****
TOTAL RUN TIME: 0 days 0 hours 16 minutes 34 seconds 180 msec
