                         Program Version 3.0.3 - RELEASE   -
|  1> ! RI-MP2 RIJK def2-TZVP def2-TZVP/C def2-TZVP/JK TIGHTSCF
|  2> % maxcore 2000
|  3> % mp2 density relaxed end
|  4> *xyz 0 1
|  5>  C        0.2692720115     1.1636792709    -0.6220307439
|  6>  C       -0.0272938907     0.0246360324     0.3611034151
|  7>  O        0.1875019126     0.4466715375     1.6882099239
|  8>  C       -1.4343311076    -0.4858774624     0.2064943425
|  9>  N       -2.2949810818    -0.4776335235     1.1406858268
| 10>  C       -3.5257474482    -1.0600586377     0.5867116934
| 11>  C       -3.1633629717    -1.3938461123    -0.8857325667
| 12>  O       -1.7792377383    -0.9800449779    -1.0053667788
| 13>  H        1.2955958683     1.5070395468    -0.4717712328
| 14>  H        0.1528494360     0.8280903421    -1.6559263659
| 15>  H       -0.4059999419     2.0046978941    -0.4393681451
| 16>  H        0.6457802805    -0.8170567865     0.1280210663
| 17>  H       -0.6470249017     0.3016919417     2.1578962845
| 18>  H       -3.8121047311    -1.9479519021     1.1596512670
| 19>  H       -4.3490803322    -0.3426392458     0.6631386159
| 20>  H       -3.2208759065    -2.4594328240    -1.1221786606
| 21>  H       -3.7498619970    -0.8345464134    -1.6192976716
| 22> *
| 23>
| 24>                          ****END OF INPUT****

CARTESIAN COORDINATES (ANGSTROEM)
---------------------------------
  C      0.269272    1.163679   -0.622031
  C     -0.027294    0.024636    0.361103
  O      0.187502    0.446672    1.688210
  C     -1.434331   -0.485877    0.206494
  N     -2.294981   -0.477634    1.140686
  C     -3.525747   -1.060059    0.586712
  C     -3.163363   -1.393846   -0.885733
  O     -1.779238   -0.980045   -1.005367
  H      1.295596    1.507040   -0.471771
  H      0.152849    0.828090   -1.655926
  H     -0.406000    2.004698   -0.439368
  H      0.645780   -0.817057    0.128021
  H     -0.647025    0.301692    2.157896
  H     -3.812105   -1.947952    1.159651
  H     -4.349080   -0.342639    0.663139
  H     -3.220876   -2.459433   -1.122179
  H     -3.749862   -0.834546   -1.619298

 Total Charge           Charge          ....    0
 Multiplicity           Mult            ....    1
 Number of Electrons    NEL             ....   62
 Basis Dimension        Dim             ....  302

ORBITAL ENERGIES
----------------

  NO   OCC          E(Eh)            E(eV)
   0   2.0000     -20.603934      -560.6615
   1   2.0000     -20.546525      -559.0994
   2   2.0000     -15.552686      -423.2101
   3   2.0000     -11.339255      -308.5568
   4   2.0000     -11.301351      -307.5254
   5   2.0000     -11.295668      -307.3707
   6   2.0000     -11.270276      -306.6798
   7   2.0000     -11.219995      -305.3116
   8   2.0000      -1.448398       -39.4129
   9   2.0000      -1.362121       -37.0652
  10   2.0000      -1.219268       -33.1780
  11   2.0000      -1.060303       -28.8523
  12   2.0000      -1.001559       -27.2538
  13   2.0000      -0.874914       -23.8076
  14   2.0000      -0.868909       -23.6442
  15   2.0000      -0.766554       -20.8590
  16   2.0000      -0.728812       -19.8320
  17   2.0000      -0.699153       -19.0249
  18   2.0000      -0.654273       -17.8037
  19   2.0000      -0.634182       -17.2570
  20   2.0000      -0.611187       -16.6312
  21   2.0000      -0.578952       -15.7541
  22   2.0000      -0.571327       -15.5466
  23   2.0000      -0.557838       -15.1795
  24   2.0000      -0.536644       -14.6028
  25   2.0000      -0.528723       -14.3873
  26   2.0000      -0.520674       -14.1683
  27   2.0000      -0.493198       -13.4206
  28   2.0000      -0.447924       -12.1886
  29   2.0000      -0.440914       -11.9979
  30   2.0000      -0.388318       -10.5667
  31   0.0000       0.133183         3.6241
  32   0.0000       0.149535         4.0691
  33   0.0000       0.170533         4.6404
  34   0.0000       0.180301         4.9063
  35   0.0000       0.187270         5.0959

MULLIKEN ATOMIC CHARGES
-----------------------
   0 C :   -0.364444
   1 C :    0.135965
   2 O :   -0.480936
   3 C :    0.205499
   4 N :   -0.330861
   5 C :   -0.151240
   6 C :   -0.062918
   7 O :   -0.275455
   8 H :    0.141741
   9 H :    0.132762
  10 H :    0.119038
  11 H :    0.095798
  12 H :    0.338224
  13 H :    0.127651
  14 H :    0.127285
  15 H :    0.121775
  16 H :    0.120117
Sum of atomic charges:    0.0000000

LOEWDIN ATOMIC CHARGES
----------------------
   0 C :   -0.284167
   1 C :   -0.342059
   2 O :   -0.009114
   3 C :   -0.369869
   4 N :    0.067511
   5 C :   -0.275633
   6 C :   -0.252528
   7 O :    0.239466
   8 H :    0.128706
   9 H :    0.127141
  10 H :    0.126052
  11 H :    0.150542
  12 H :    0.179947
  13 H :    0.131770
  14 H :    0.131813
  15 H :    0.125312
  16 H :    0.125113

  Mayer bond orders larger than 0.1
B(  0-C ,  1-C ) :   0.8885 B(  0-C ,  8-H ) :   0.9351 B(  0-C ,  9-H ) :   0.9243
B(  0-C , 10-H ) :   0.9306 B(  1-C ,  2-O ) :   1.0649 B(  1-C ,  3-C ) :   0.9294
B(  1-C , 11-H ) :   0.9200 B(  2-O , 12-H ) :   0.8070 B(  3-C ,  4-N ) :   1.7433
B(  3-C ,  7-O ) :   1.0960 B(  4-N ,  5-C ) :   0.9375 B(  5-C ,  6-C ) :   0.9445
B(  5-C , 13-H ) :   0.9280 B(  5-C , 14-H ) :   0.9250 B(  6-C ,  7-O ) :   0.8695
B(  6-C , 15-H ) :   0.9294 B(  6-C , 16-H ) :   0.9244

MP2 TOTAL ENERGY:     -400.371225131 Eh
FINAL SINGLE POINT ENERGY      -400.371225130629

DIPOLE MOMENT
-------------
                                X             Y             Z
Electronic contribution:     -0.00463      -1.64079       1.93170
Nuclear contribution   :     -0.99569       1.13918      -2.68875
                        -----------------------------------------
Total Dipole Moment    :     -1.00032      -0.50161      -0.75705
                        -----------------------------------------
Magnitude (a.u.)       :      1.35106
Magnitude (Debye)      :      3.43412

                             ****ORCA TERMINATED NORMALLY****
TOTAL RUN TIME: 0 days 0 hours 11 minutes 25 seconds 699 msec
