                         Program Version 3.0.3 - RELEASE   -
|  1> ! RI-MP2 RIJK def2-TZVP def2-TZVP/C def2-TZVP/JK TIGHTSCF
|  2> % maxcore 2000
|  3> % mp2 density relaxed end
|  4> *xyz 0 1
|  5>  N       -0.2005016944     1.3904463726    -0.1070161555
|  6>  C       -0.0275695970     0.1744369610     0.1773075947
|  7>  C       -1.1200667676    -0.8495100977    -0.0447324448
|  8>  C       -1.2229520093    -1.8193932975     1.1198153281
|  9>  O       -2.2421239429    -2.1522766589     1.6594775991
| 10>  C        0.1545285026    -2.3941050450     1.5417123241
| 11>  O        0.2655079290    -3.3435172422     2.2688644385
| 12>  C        1.3421327496    -1.6869465965     0.8961455754
| 13>  O        1.1350658876    -0.2815032852     0.7401669547
| 14>  H        0.6396531827     1.9334747346     0.1021433023
| 15>  H       -2.0674775385    -0.3448316286    -0.2254580158
| 16>  H       -0.8725428995    -1.4424764667    -0.9394049477
| 17>  H        2.2231207696    -1.8049974881     1.5282567747
| 18>  H        1.5532684081    -2.1588039517    -0.0758781677
| 19> *
| 20>
| 21>                          ****END OF INPUT****

CARTESIAN COORDINATES (ANGSTROEM)
---------------------------------
  N     -0.200502    1.390446   -0.107016
  C     -0.027570    0.174437    0.177308
  C     -1.120067   -0.849510   -0.044732
  C     -1.222952   -1.819393    1.119815
  O     -2.242124   -2.152277    1.659478
  C      0.154529   -2.394105    1.541712
  O      0.265508   -3.343517    2.268864
  C      1.342133   -1.686947    0.896146
  O      1.135066   -0.281503    0.740167
  H      0.639653    1.933475    0.102143
  H     -2.067478   -0.344832   -0.225458
  H     -0.872543   -1.442476   -0.939405
  H      2.223121   -1.804997    1.528257
  H      1.553268   -2.158804   -0.075878

 Total Charge           Charge          ....    0
 Multiplicity           Mult            ....    1
 Number of Electrons    NEL             ....   66
 Basis Dimension        Dim             ....  309

ORBITAL ENERGIES
----------------

  NO   OCC          E(Eh)            E(eV)
   0   2.0000     -20.631129      -561.4016
   1   2.0000     -20.602143      -560.6128
   2   2.0000     -20.596981      -560.4723
   3   2.0000     -15.559849      -423.4050
   4   2.0000     -11.373625      -309.4921
   5   2.0000     -11.372870      -309.4715
   6   2.0000     -11.372214      -309.4537
   7   2.0000     -11.339347      -308.5593
   8   2.0000     -11.284413      -307.0645
   9   2.0000      -1.465762       -39.8854
  10   2.0000      -1.447257       -39.3819
  11   2.0000      -1.423638       -38.7392
  12   2.0000      -1.228389       -33.4262
  13   2.0000      -1.092600       -29.7312
  14   2.0000      -1.034019       -28.1371
  15   2.0000      -0.909967       -24.7615
  16   2.0000      -0.834047       -22.6956
  17   2.0000      -0.755723       -20.5643
  18   2.0000      -0.738658       -20.0999
  19   2.0000      -0.726102       -19.7582
  20   2.0000      -0.716702       -19.5025
  21   2.0000      -0.669691       -18.2232
  22   2.0000      -0.652597       -17.7581
  23   2.0000      -0.643661       -17.5149
  24   2.0000      -0.620852       -16.8942
  25   2.0000      -0.599645       -16.3172
  26   2.0000      -0.573184       -15.5971
  27   2.0000      -0.550184       -14.9713
  28   2.0000      -0.523506       -14.2453
  29   2.0000      -0.512766       -13.9531
  30   2.0000      -0.466886       -12.7046
  31   2.0000      -0.426983       -11.6188
  32   2.0000      -0.425439       -11.5768
  33   0.0000       0.038464         1.0466
  34   0.0000       0.110540         3.0079
  35   0.0000       0.141804         3.8587
  36   0.0000       0.159285         4.3344
  37   0.0000       0.169490         4.6121

MULLIKEN ATOMIC CHARGES
-----------------------
   0 N :   -0.353236
   1 C :    0.110146
   2 C :   -0.156449
   3 C :    0.147125
   4 O :   -0.214090
   5 C :    0.135931
   6 O :   -0.217370
   7 C :   -0.071478
   8 O :   -0.249697
   9 H :    0.228835
  10 H :    0.173295
  11 H :    0.158722
  12 H :    0.165529
  13 H :    0.142737
Sum of atomic charges:    0.0000000

LOEWDIN ATOMIC CHARGES
----------------------
   0 N :   -0.038194
   1 C :   -0.408784
   2 C :   -0.184632
   3 C :   -0.292531
   4 O :    0.212911
   5 C :   -0.294602
   6 O :    0.213213
   7 C :   -0.252733
   8 O :    0.238587
   9 H :    0.172100
  10 H :    0.168769
  11 H :    0.172729
  12 H :    0.149758
  13 H :    0.143409

  Mayer bond orders larger than 0.1
B(  0-N ,  1-C ) :   2.0671 B(  0-N ,  9-H ) :   0.8544 B(  1-C ,  2-C ) :   0.8789
B(  1-C ,  8-O ) :   1.0648 B(  2-C ,  3-C ) :   0.8680 B(  2-C , 10-H ) :   0.8959
B(  2-C , 11-H ) :   0.8972 B(  3-C ,  4-O ) :   2.0146 B(  3-C ,  5-C ) :   0.8494
B(  5-C ,  6-O ) :   1.9901 B(  5-C ,  7-C ) :   0.8722 B(  7-C ,  8-O ) :   0.8766
B(  7-C , 12-H ) :   0.9179 B(  7-C , 13-H ) :   0.9120

MP2 TOTAL ENERGY:     -473.089350560 Eh
FINAL SINGLE POINT ENERGY      -473.089350559843

DIPOLE MOMENT
-------------
                                X             Y             Z
Electronic contribution:     -1.28247      -2.19558       3.12732
Nuclear contribution   :      2.31420       2.15121      -3.96394
                        -----------------------------------------
Total Dipole Moment    :      1.03174      -0.04437      -0.83662
                        -----------------------------------------
Magnitude (a.u.)       :      1.32905
Magnitude (Debye)      :      3.37818

                             ****ORCA TERMINATED NORMALLY****
TOTAL RUN TIME: 0 days 0 hours 14 minutes 50 seconds 175 msec
