                         Program Version 3.0.3 - RELEASE   -
|  1> ! RI-MP2 RIJK def2-TZVP def2-TZVP/C def2-TZVP/JK TIGHTSCF
|  2> % maxcore 2000
|  3> % mp2 density relaxed end
|  4> *xyz 0 1
|  5>  C       -0.1210571751     1.5622257764     0.0267979065
|  6>  C        0.0430454888     0.0587598313     0.0600419112
|  7>  C        1.3154752316    -0.6720568152    -0.3262575196
|  8>  C        2.6345135305     0.0969680936    -0.3649070542
|  9>  C        3.1233188687     0.1490512681     1.1070469693
| 10>  C        4.0330825383     1.3309776954     1.4368369630
| 11>  C        1.8296943517     0.0698580612     1.9590781413
| 12>  C        0.8155440154    -0.7114858264     1.1118852821
| 13>  C        0.1998631288    -1.9519783401     1.7190711144
| 14>  H        0.7820273036     2.0992293483     0.3266283632
| 15>  H       -0.3791489790     1.9010718004    -0.9831087277
| 16>  H       -0.9270119594     1.8813658456     0.6975723621
| 17>  H       -0.8582728119    -0.4601247533    -0.2634777415
| 18>  H        1.2139821645    -1.5456488128    -0.9629215060
| 19>  H        3.3651528186    -0.3996104598    -1.0106930368
| 20>  H        2.5081986174     1.1103794182    -0.7668370564
| 21>  H        3.6817744527    -0.7790709839     1.2892792771
| 22>  H        3.5142410219     2.2830307611     1.2712462848
| 23>  H        4.3569775409     1.3082990327     2.4830770348
| 24>  H        4.9325479779     1.3308810238     0.8114473940
| 25>  H        2.0123814294    -0.4366796715     2.9123781296
| 26>  H        1.4701901145     1.0754964995     2.2106260881
| 27>  H       -0.4434279301    -1.7051367271     2.5727791079
| 28>  H       -0.4151217182    -2.4887635147     0.9889942565
| 29>  H        0.9703188987    -2.6455269808     2.0779962866
| 30> *
| 31>
| 32>                          ****END OF INPUT****

CARTESIAN COORDINATES (ANGSTROEM)
---------------------------------
  C     -0.121057    1.562226    0.026798
  C      0.043045    0.058760    0.060042
  C      1.315475   -0.672057   -0.326258
  C      2.634514    0.096968   -0.364907
  C      3.123319    0.149051    1.107047
  C      4.033083    1.330978    1.436837
  C      1.829694    0.069858    1.959078
  C      0.815544   -0.711486    1.111885
  C      0.199863   -1.951978    1.719071
  H      0.782027    2.099229    0.326628
  H     -0.379149    1.901072   -0.983109
  H     -0.927012    1.881366    0.697572
  H     -0.858273   -0.460125   -0.263478
  H      1.213982   -1.545649   -0.962922
  H      3.365153   -0.399610   -1.010693
  H      2.508199    1.110379   -0.766837
  H      3.681774   -0.779071    1.289279
  H      3.514241    2.283031    1.271246
  H      4.356978    1.308299    2.483077
  H      4.932548    1.330881    0.811447
  H      2.012381   -0.436680    2.912378
  H      1.470190    1.075496    2.210626
  H     -0.443428   -1.705137    2.572779
  H     -0.415122   -2.488764    0.988994
  H      0.970319   -2.645527    2.077996

 Total Charge           Charge          ....    0
 Multiplicity           Mult            ....    1
 Number of Electrons    NEL             ....   70
 Basis Dimension        Dim             ....  375

ORBITAL ENERGIES
----------------

  NO   OCC          E(Eh)            E(eV)
   0   2.0000     -11.223203      -305.3989
   1   2.0000     -11.221433      -305.3507
   2   2.0000     -11.219987      -305.3114
   3   2.0000     -11.214229      -305.1547
   4   2.0000     -11.212064      -305.0958
   5   2.0000     -11.211705      -305.0860
   6   2.0000     -11.211515      -305.0808
   7   2.0000     -11.211300      -305.0750
   8   2.0000     -11.209006      -305.0126
   9   2.0000      -1.169705       -31.8293
  10   2.0000      -1.056622       -28.7521
  11   2.0000      -0.989276       -26.9196
  12   2.0000      -0.962066       -26.1791
  13   2.0000      -0.924492       -25.1567
  14   2.0000      -0.903112       -24.5749
  15   2.0000      -0.776424       -21.1276
  16   2.0000      -0.740215       -20.1423
  17   2.0000      -0.721795       -19.6411
  18   2.0000      -0.660301       -17.9677
  19   2.0000      -0.614993       -16.7348
  20   2.0000      -0.595843       -16.2137
  21   2.0000      -0.581359       -15.8196
  22   2.0000      -0.564514       -15.3612
  23   2.0000      -0.556173       -15.1342
  24   2.0000      -0.548017       -14.9123
  25   2.0000      -0.533843       -14.5266
  26   2.0000      -0.526661       -14.3312
  27   2.0000      -0.525215       -14.2918
  28   2.0000      -0.504875       -13.7383
  29   2.0000      -0.475425       -12.9370
  30   2.0000      -0.453724       -12.3465
  31   2.0000      -0.445754       -12.1296
  32   2.0000      -0.440399       -11.9839
  33   2.0000      -0.381084       -10.3698
  34   2.0000      -0.366703        -9.9785
  35   0.0000       0.131606         3.5812
  36   0.0000       0.151333         4.1180
  37   0.0000       0.157273         4.2796
  38   0.0000       0.174300         4.7429
  39   0.0000       0.186895         5.0857

MULLIKEN ATOMIC CHARGES
-----------------------
   0 C :   -0.408793
   1 C :   -0.211651
   2 C :   -0.047375
   3 C :   -0.341470
   4 C :    0.009043
   5 C :   -0.418367
   6 C :   -0.345285
   7 C :    0.205022
   8 C :   -0.419135
   9 H :    0.127954
  10 H :    0.135711
  11 H :    0.135481
  12 H :    0.105332
  13 H :    0.121456
  14 H :    0.119968
  15 H :    0.123927
  16 H :    0.091499
  17 H :    0.119454
  18 H :    0.131211
  19 H :    0.131632
  20 H :    0.122073
  21 H :    0.128283
  22 H :    0.132457
  23 H :    0.124771
  24 H :    0.126801
Sum of atomic charges:    0.0000000

LOEWDIN ATOMIC CHARGES
----------------------
   0 C :   -0.296024
   1 C :   -0.198459
   2 C :   -0.162388
   3 C :   -0.213704
   4 C :   -0.259768
   5 C :   -0.301634
   6 C :   -0.186707
   7 C :   -0.222785
   8 C :   -0.273845
   9 H :    0.121763
  10 H :    0.126605
  11 H :    0.126377
  12 H :    0.151567
  13 H :    0.141631
  14 H :    0.136966
  15 H :    0.137151
  16 H :    0.151173
  17 H :    0.120836
  18 H :    0.123042
  19 H :    0.123078
  20 H :    0.139571
  21 H :    0.138711
  22 H :    0.125637
  23 H :    0.126428
  24 H :    0.124779

  Mayer bond orders larger than 0.1
B(  0-C ,  1-C ) :   0.9003 B(  0-C ,  9-H ) :   0.9393 B(  0-C , 10-H ) :   0.9380
B(  0-C , 11-H ) :   0.9388 B(  1-C ,  2-C ) :   0.8856 B(  1-C ,  7-C ) :   0.8842
B(  1-C , 12-H ) :   0.9333 B(  2-C ,  3-C ) :   0.8932 B(  2-C ,  7-C ) :   0.8065
B(  2-C , 13-H ) :   0.9210 B(  3-C ,  4-C ) :   0.9525 B(  3-C , 14-H ) :   0.9254
B(  3-C , 15-H ) :   0.9245 B(  4-C ,  5-C ) :   0.8912 B(  4-C ,  6-C ) :   0.9474
B(  4-C , 16-H ) :   0.9285 B(  5-C , 17-H ) :   0.9366 B(  5-C , 18-H ) :   0.9412
B(  5-C , 19-H ) :   0.9414 B(  6-C ,  7-C ) :   0.8626 B(  6-C , 20-H ) :   0.9311
B(  6-C , 21-H ) :   0.9289 B(  7-C ,  8-C ) :   0.8751 B(  8-C , 22-H ) :   0.9417
B(  8-C , 23-H ) :   0.9385 B(  8-C , 24-H ) :   0.9413

MP2 TOTAL ENERGY:     -351.721958891 Eh
FINAL SINGLE POINT ENERGY      -351.721958890681

DIPOLE MOMENT
-------------
                                X             Y             Z
Electronic contribution:     -0.89624      -2.21416      -1.35318
Nuclear contribution   :      0.91503       2.16300       1.38071
                        -----------------------------------------
Total Dipole Moment    :      0.01879      -0.05116       0.02753
                        -----------------------------------------
Magnitude (a.u.)       :      0.06106
Magnitude (Debye)      :      0.15520

                             ****ORCA TERMINATED NORMALLY****
TOTAL RUN TIME: 0 days 0 hours 23 minutes 28 seconds 695 msec
