                         Program Version 3.0.3 - RELEASE   -
|  1> ! RI-MP2 RIJK def2-TZVP def2-TZVP/C def2-TZVP/JK TIGHTSCF
|  2> % maxcore 2000
|  3> % mp2 density relaxed end
|  4> *xyz 0 1
|  5>  C        0.0178121631     1.4772175076    -0.0043572695
|  6>  N        0.0802215643     0.0204952492     0.0019319318
|  7>  C        0.0525738388    -0.6486758238    -1.2283676336
|  8>  C        0.0030381255    -1.9773087824    -1.3612149924
|  9>  C        0.0651439454    -2.8574071518    -0.1781900175
| 10>  C        1.3127065663    -2.8269051886     0.6720948217
| 11>  C        0.0613600528    -2.1351146617     1.1674385578
| 12>  C       -0.0288048827    -0.6454395405     1.2162900242
| 13>  O       -0.2035964830    -0.0519213264     2.2663133796
| 14>  H        0.8560966526     1.8903400364    -0.5743061032
| 15>  H       -0.9197400030     1.8292971730    -0.4500837608
| 16>  H        0.0692593949     1.8182081444     1.0278117460
| 17>  H        0.0615026299     0.0145674039    -2.0855034294
| 18>  H       -0.0478711164    -2.4125492891    -2.3515804869
| 19>  H       -0.4654499067    -3.8024751773    -0.2359890257
| 20>  H        1.5984793031    -3.7312846547     1.1965713734
| 21>  H        2.1392900439    -2.2159239132     0.3276744918
| 22>  H       -0.4428815290    -2.5911755849     2.0106287127
| 23> *
| 24>
| 25>                          ****END OF INPUT****

CARTESIAN COORDINATES (ANGSTROEM)
---------------------------------
  C      0.017812    1.477218   -0.004357
  N      0.080222    0.020495    0.001932
  C      0.052574   -0.648676   -1.228368
  C      0.003038   -1.977309   -1.361215
  C      0.065144   -2.857407   -0.178190
  C      1.312707   -2.826905    0.672095
  C      0.061360   -2.135115    1.167439
  C     -0.028805   -0.645440    1.216290
  O     -0.203596   -0.051921    2.266313
  H      0.856097    1.890340   -0.574306
  H     -0.919740    1.829297   -0.450084
  H      0.069259    1.818208    1.027812
  H      0.061503    0.014567   -2.085503
  H     -0.047871   -2.412549   -2.351580
  H     -0.465450   -3.802475   -0.235989
  H      1.598479   -3.731285    1.196571
  H      2.139290   -2.215924    0.327674
  H     -0.442882   -2.591176    2.010629

 Total Charge           Charge          ....    0
 Multiplicity           Mult            ....    1
 Number of Electrons    NEL             ....   66
 Basis Dimension        Dim             ....  333

ORBITAL ENERGIES
----------------

  NO   OCC          E(Eh)            E(eV)
   0   2.0000     -20.517466      -558.3086
   1   2.0000     -15.598577      -424.4588
   2   2.0000     -11.352259      -308.9107
   3   2.0000     -11.278806      -306.9119
   4   2.0000     -11.259629      -306.3901
   5   2.0000     -11.254450      -306.2492
   6   2.0000     -11.248749      -306.0940
   7   2.0000     -11.245573      -306.0076
   8   2.0000     -11.231392      -305.6217
   9   2.0000      -1.384583       -37.6764
  10   2.0000      -1.264972       -34.4216
  11   2.0000      -1.167407       -31.7668
  12   2.0000      -1.041576       -28.3427
  13   2.0000      -0.967934       -26.3388
  14   2.0000      -0.884447       -24.0670
  15   2.0000      -0.867395       -23.6030
  16   2.0000      -0.809296       -22.0221
  17   2.0000      -0.711423       -19.3588
  18   2.0000      -0.696811       -18.9612
  19   2.0000      -0.669951       -18.2303
  20   2.0000      -0.654937       -17.8217
  21   2.0000      -0.631338       -17.1796
  22   2.0000      -0.613068       -16.6824
  23   2.0000      -0.584095       -15.8940
  24   2.0000      -0.551975       -15.0200
  25   2.0000      -0.548958       -14.9379
  26   2.0000      -0.536518       -14.5994
  27   2.0000      -0.522964       -14.2306
  28   2.0000      -0.495552       -13.4847
  29   2.0000      -0.443713       -12.0741
  30   2.0000      -0.426006       -11.5922
  31   2.0000      -0.415464       -11.3053
  32   2.0000      -0.313790        -8.5387
  33   0.0000       0.131990         3.5916
  34   0.0000       0.142075         3.8661
  35   0.0000       0.151593         4.1250
  36   0.0000       0.168542         4.5863
  37   0.0000       0.173939         4.7331

MULLIKEN ATOMIC CHARGES
-----------------------
   0 C :   -0.349539
   1 N :   -0.070703
   2 C :   -0.072842
   3 C :   -0.243829
   4 C :   -0.024046
   5 C :   -0.274944
   6 C :   -0.116518
   7 C :    0.205098
   8 O :   -0.362640
   9 H :    0.141196
  10 H :    0.143412
  11 H :    0.186049
  12 H :    0.139180
  13 H :    0.133141
  14 H :    0.133491
  15 H :    0.141791
  16 H :    0.146719
  17 H :    0.144984
Sum of atomic charges:   -0.0000000

LOEWDIN ATOMIC CHARGES
----------------------
   0 C :   -0.278713
   1 N :    0.197516
   2 C :   -0.194917
   3 C :   -0.176721
   4 C :   -0.184562
   5 C :   -0.179090
   6 C :   -0.148193
   7 C :   -0.392369
   8 O :    0.090944
   9 H :    0.119421
  10 H :    0.119469
  11 H :    0.136557
  12 H :    0.148067
  13 H :    0.149792
  14 H :    0.152174
  15 H :    0.137875
  16 H :    0.141705
  17 H :    0.161048

  Mayer bond orders larger than 0.1
B(  0-C ,  1-N ) :   0.8579 B(  0-C ,  9-H ) :   0.9305 B(  0-C , 10-H ) :   0.9350
B(  0-C , 11-H ) :   0.9212 B(  1-N ,  2-C ) :   1.0161 B(  1-N ,  7-C ) :   1.1131
B(  2-C ,  3-C ) :   1.7309 B(  2-C , 12-H ) :   0.9204 B(  3-C ,  4-C ) :   0.9564
B(  3-C , 13-H ) :   0.9261 B(  4-C ,  5-C ) :   0.8617 B(  4-C ,  6-C ) :   0.8071
B(  4-C , 14-H ) :   0.9219 B(  5-C ,  6-C ) :   0.8480 B(  5-C , 15-H ) :   0.9257
B(  5-C , 16-H ) :   0.9238 B(  6-C ,  7-C ) :   0.9808 B(  6-C , 17-H ) :   0.9297
B(  7-C ,  8-O ) :   1.9060

MP2 TOTAL ENERGY:     -401.283748677 Eh
FINAL SINGLE POINT ENERGY      -401.283748677281

DIPOLE MOMENT
-------------
                                X             Y             Z
Electronic contribution:     -1.19387      -0.28932       2.55078
Nuclear contribution   :      1.39445      -0.02237      -3.68042
                        -----------------------------------------
Total Dipole Moment    :      0.20058      -0.31169      -1.12964
                        -----------------------------------------
Magnitude (a.u.)       :      1.18889
Magnitude (Debye)      :      3.02193

                             ****ORCA TERMINATED NORMALLY****
TOTAL RUN TIME: 0 days 0 hours 17 minutes 36 seconds 67 msec
