                         Program Version 3.0.3 - RELEASE   -
|  1> ! RI-MP2 RIJK def2-TZVP def2-TZVP/C def2-TZVP/JK TIGHTSCF
|  2> % maxcore 2000
|  3> % mp2 density relaxed end
|  4> *xyz 0 1
|  5>  C       -0.1672216485     1.5410705728    -0.0593841981
|  6>  C        0.0358534920     0.0375502094     0.0363704351
|  7>  O        0.6922278330    -0.4526766944    -1.1642120413
|  8>  C        1.7903786262    -1.2243694983    -0.7097628341
|  9>  C        1.2606790226    -1.9006093312     0.5569462961
| 10>  C        0.9449947887    -0.5145696805     1.1616212527
| 11>  C        2.3390460462     0.1250878642     1.0369633834
| 12>  O        2.8209044628    -0.3731014756    -0.2304409291
| 13>  H        0.7777238707     2.0683785017    -0.2093305652
| 14>  H       -0.8134715027     1.7711486766    -0.9111634388
| 15>  H       -0.6496317331     1.9246997695     0.8461649000
| 16>  H       -0.9499386574    -0.4462257339     0.1088595977
| 17>  H        2.1784041886    -1.8179612184    -1.5355629991
| 18>  H        0.3793844694    -2.5201045596     0.3796771692
| 19>  H        2.0235453831    -2.4624935198     1.0994637177
| 20>  H        0.5070675980    -0.4814526094     2.1591563513
| 21>  H        2.3282890330     1.2186938180     1.0207130500
| 22>  H        3.0101429475    -0.2014074712     1.8422243626
| 23> *
| 24>
| 25>                          ****END OF INPUT****

CARTESIAN COORDINATES (ANGSTROEM)
---------------------------------
  C     -0.167222    1.541071   -0.059384
  C      0.035853    0.037550    0.036370
  O      0.692228   -0.452677   -1.164212
  C      1.790379   -1.224369   -0.709763
  C      1.260679   -1.900609    0.556946
  C      0.944995   -0.514570    1.161621
  C      2.339046    0.125088    1.036963
  O      2.820904   -0.373101   -0.230441
  H      0.777724    2.068379   -0.209331
  H     -0.813472    1.771149   -0.911163
  H     -0.649632    1.924700    0.846165
  H     -0.949939   -0.446226    0.108860
  H      2.178404   -1.817961   -1.535563
  H      0.379384   -2.520105    0.379677
  H      2.023545   -2.462494    1.099464
  H      0.507068   -0.481453    2.159156
  H      2.328289    1.218694    1.020713
  H      3.010143   -0.201407    1.842224

 Total Charge           Charge          ....    0
 Multiplicity           Mult            ....    1
 Number of Electrons    NEL             ....   62
 Basis Dimension        Dim             ....  308

ORBITAL ENERGIES
----------------

  NO   OCC          E(Eh)            E(eV)
   0   2.0000     -20.552976      -559.2749
   1   2.0000     -20.551067      -559.2230
   2   2.0000     -11.327575      -308.2390
   3   2.0000     -11.284892      -307.0775
   4   2.0000     -11.277988      -306.8897
   5   2.0000     -11.243855      -305.9608
   6   2.0000     -11.230360      -305.5936
   7   2.0000     -11.217437      -305.2420
   8   2.0000      -1.421348       -38.6768
   9   2.0000      -1.333250       -36.2796
  10   2.0000      -1.087843       -29.6017
  11   2.0000      -1.027176       -27.9509
  12   2.0000      -0.958582       -26.0843
  13   2.0000      -0.865621       -23.5547
  14   2.0000      -0.820569       -22.3288
  15   2.0000      -0.745875       -20.2963
  16   2.0000      -0.725388       -19.7388
  17   2.0000      -0.691123       -18.8064
  18   2.0000      -0.656863       -17.8742
  19   2.0000      -0.602793       -16.4028
  20   2.0000      -0.586116       -15.9490
  21   2.0000      -0.574139       -15.6231
  22   2.0000      -0.557643       -15.1742
  23   2.0000      -0.531030       -14.4500
  24   2.0000      -0.522695       -14.2232
  25   2.0000      -0.520590       -14.1660
  26   2.0000      -0.494654       -13.4602
  27   2.0000      -0.486863       -13.2482
  28   2.0000      -0.474797       -12.9199
  29   2.0000      -0.418239       -11.3809
  30   2.0000      -0.411530       -11.1983
  31   0.0000       0.134075         3.6484
  32   0.0000       0.158929         4.3247
  33   0.0000       0.170437         4.6378
  34   0.0000       0.176716         4.8087
  35   0.0000       0.195468         5.3189

MULLIKEN ATOMIC CHARGES
-----------------------
   0 C :   -0.426891
   1 C :    0.076792
   2 O :   -0.315588
   3 C :    0.176917
   4 C :   -0.275311
   5 C :   -0.067783
   6 C :   -0.090102
   7 O :   -0.314599
   8 H :    0.138951
   9 H :    0.144922
  10 H :    0.124580
  11 H :    0.087642
  12 H :    0.123131
  13 H :    0.128875
  14 H :    0.129959
  15 H :    0.137051
  16 H :    0.114330
  17 H :    0.107124
Sum of atomic charges:    0.0000000

LOEWDIN ATOMIC CHARGES
----------------------
   0 C :   -0.293389
   1 C :   -0.289827
   2 O :    0.180578
   3 C :   -0.388948
   4 C :   -0.214662
   5 C :   -0.230743
   6 C :   -0.259922
   7 O :    0.158527
   8 H :    0.126520
   9 H :    0.129941
  10 H :    0.126422
  11 H :    0.140080
  12 H :    0.136022
  13 H :    0.141932
  14 H :    0.141496
  15 H :    0.149528
  16 H :    0.123180
  17 H :    0.123264

  Mayer bond orders larger than 0.1
B(  0-C ,  1-C ) :   0.8948 B(  0-C ,  8-H ) :   0.9434 B(  0-C ,  9-H ) :   0.9384
B(  0-C , 10-H ) :   0.9314 B(  1-C ,  2-O ) :   0.8937 B(  1-C ,  5-C ) :   0.9235
B(  1-C , 11-H ) :   0.9176 B(  2-O ,  3-C ) :   0.9991 B(  3-C ,  4-C ) :   0.9697
B(  3-C ,  7-O ) :   0.9809 B(  3-C , 12-H ) :   0.9250 B(  4-C ,  5-C ) :   0.9030
B(  4-C , 13-H ) :   0.9231 B(  4-C , 14-H ) :   0.9230 B(  5-C ,  6-C ) :   0.9383
B(  5-C , 15-H ) :   0.9077 B(  6-C ,  7-O ) :   0.9249 B(  6-C , 16-H ) :   0.9266
B(  6-C , 17-H ) :   0.9244

MP2 TOTAL ENERGY:     -384.325423051 Eh
FINAL SINGLE POINT ENERGY      -384.325423051361

DIPOLE MOMENT
-------------
                                X             Y             Z
Electronic contribution:      2.75157      -2.37524      -2.99355
Nuclear contribution   :     -3.20875       2.18470       3.92042
                        -----------------------------------------
Total Dipole Moment    :     -0.45718      -0.19054       0.92688
                        -----------------------------------------
Magnitude (a.u.)       :      1.05091
Magnitude (Debye)      :      2.67121

                             ****ORCA TERMINATED NORMALLY****
TOTAL RUN TIME: 0 days 0 hours 12 minutes 58 seconds 367 msec
