                         Program Version 3.0.3 - RELEASE   -
|  1> ! RI-MP2 RIJK def2-TZVP def2-TZVP/C def2-TZVP/JK TIGHTSCF
|  2> % maxcore 2000
|  3> % mp2 density relaxed end
|  4> *xyz 0 1
|  5>  C        0.5219879376     1.1751986948     0.2611677036
|  6>  C        0.1978484593    -0.2935073863     0.1461634631
|  7>  C        0.3734235985    -1.2437633578    -1.0680841706
|  8>  N       -0.2134506620    -2.1951029892    -0.0124773011
|  9>  C        0.7689115669    -1.4941452136     0.9421103994
| 10>  C       -1.1751865347    -1.0169350628     0.2858706820
| 11>  C       -1.9938871684    -1.1574010959     1.5569916316
| 12>  O       -2.7926279762    -2.3269579071     1.4758347801
| 13>  H        1.5863617402     1.3572348610     0.0770882384
| 14>  H       -0.0497920973     1.7616369343    -0.4661700718
| 15>  H        0.2852448304     1.5562455998     1.2604338089
| 16>  H       -0.2756239908    -1.0990868238    -1.9365947719
| 17>  H        1.3912230432    -1.5081567264    -1.3689349679
| 18>  H        1.8111218692    -1.7712475012     0.7590390612
| 19>  H        0.5286692073    -1.5980402396     2.0006036060
| 20>  H       -1.8662235489    -0.8688288506    -0.5525302693
| 21>  H       -1.3732540193    -1.1619019802     2.4643121739
| 22>  H       -2.6815469602    -0.3083750964     1.6451888316
| 23>  H       -2.2162744849    -3.0206637292     1.1306380127
| 24> *
| 25>
| 26>                          ****END OF INPUT****

CARTESIAN COORDINATES (ANGSTROEM)
---------------------------------
  C      0.521988    1.175199    0.261168
  C      0.197848   -0.293507    0.146163
  C      0.373424   -1.243763   -1.068084
  N     -0.213451   -2.195103   -0.012477
  C      0.768912   -1.494145    0.942110
  C     -1.175187   -1.016935    0.285871
  C     -1.993887   -1.157401    1.556992
  O     -2.792628   -2.326958    1.475835
  H      1.586362    1.357235    0.077088
  H     -0.049792    1.761637   -0.466170
  H      0.285245    1.556246    1.260434
  H     -0.275624   -1.099087   -1.936595
  H      1.391223   -1.508157   -1.368935
  H      1.811122   -1.771248    0.759039
  H      0.528669   -1.598040    2.000604
  H     -1.866224   -0.868829   -0.552530
  H     -1.373254   -1.161902    2.464312
  H     -2.681547   -0.308375    1.645189
  H     -2.216274   -3.020664    1.130638

 Total Charge           Charge          ....    0
 Multiplicity           Mult            ....    1
 Number of Electrons    NEL             ....   62
 Basis Dimension        Dim             ....  314

ORBITAL ENERGIES
----------------

  NO   OCC          E(Eh)            E(eV)
   0   2.0000     -20.547647      -559.1299
   1   2.0000     -15.572800      -423.7574
   2   2.0000     -11.274007      -306.7813
   3   2.0000     -11.264833      -306.5317
   4   2.0000     -11.263531      -306.4963
   5   2.0000     -11.262109      -306.4576
   6   2.0000     -11.261322      -306.4361
   7   2.0000     -11.228677      -305.5478
   8   2.0000      -1.355284       -36.8792
   9   2.0000      -1.296273       -35.2734
  10   2.0000      -1.017004       -27.6741
  11   2.0000      -0.987716       -26.8771
  12   2.0000      -0.928268       -25.2595
  13   2.0000      -0.880751       -23.9664
  14   2.0000      -0.850456       -23.1421
  15   2.0000      -0.745042       -20.2736
  16   2.0000      -0.687321       -18.7030
  17   2.0000      -0.657230       -17.8841
  18   2.0000      -0.612439       -16.6653
  19   2.0000      -0.607882       -16.5413
  20   2.0000      -0.603788       -16.4299
  21   2.0000      -0.581587       -15.8258
  22   2.0000      -0.574986       -15.6462
  23   2.0000      -0.549164       -14.9435
  24   2.0000      -0.503413       -13.6986
  25   2.0000      -0.490441       -13.3456
  26   2.0000      -0.474907       -12.9229
  27   2.0000      -0.462567       -12.5871
  28   2.0000      -0.449280       -12.2255
  29   2.0000      -0.426186       -11.5971
  30   2.0000      -0.378778       -10.3071
  31   0.0000       0.126246         3.4353
  32   0.0000       0.157419         4.2836
  33   0.0000       0.166061         4.5188
  34   0.0000       0.170590         4.6420
  35   0.0000       0.190824         5.1926

MULLIKEN ATOMIC CHARGES
-----------------------
   0 C :   -0.373344
   1 C :    0.011985
   2 C :   -0.150151
   3 N :   -0.240225
   4 C :   -0.170950
   5 C :   -0.114805
   6 C :    0.006568
   7 O :   -0.476284
   8 H :    0.134998
   9 H :    0.135996
  10 H :    0.135671
  11 H :    0.116588
  12 H :    0.118327
  13 H :    0.115655
  14 H :    0.120942
  15 H :    0.102930
  16 H :    0.085933
  17 H :    0.110235
  18 H :    0.329933
Sum of atomic charges:   -0.0000000

LOEWDIN ATOMIC CHARGES
----------------------
   0 C :   -0.283738
   1 C :   -0.249189
   2 C :   -0.206971
   3 N :    0.088337
   4 C :   -0.207144
   5 C :   -0.222460
   6 C :   -0.330653
   7 O :   -0.045704
   8 H :    0.129936
   9 H :    0.130161
  10 H :    0.129516
  11 H :    0.125191
  12 H :    0.124790
  13 H :    0.125214
  14 H :    0.121156
  15 H :    0.146185
  16 H :    0.115466
  17 H :    0.131086
  18 H :    0.178821

  Mayer bond orders larger than 0.1
B(  0-C ,  1-C ) :   0.8422 B(  0-C ,  8-H ) :   0.9337 B(  0-C ,  9-H ) :   0.9370
B(  0-C , 10-H ) :   0.9364 B(  1-C ,  2-C ) :   0.9179 B(  1-C ,  4-C ) :   0.9262
B(  1-C ,  5-C ) :   0.8805 B(  2-C ,  3-N ) :   0.9304 B(  2-C , 11-H ) :   0.9248
B(  2-C , 12-H ) :   0.9272 B(  3-N ,  4-C ) :   0.9042 B(  3-N ,  5-C ) :   0.8954
B(  4-C , 13-H ) :   0.9267 B(  4-C , 14-H ) :   0.9280 B(  5-C ,  6-C ) :   0.9749
B(  5-C , 15-H ) :   0.9294 B(  6-C ,  7-O ) :   0.9322 B(  6-C , 16-H ) :   0.9136
B(  6-C , 17-H ) :   0.9252 B(  7-O , 18-H ) :   0.8292

MP2 TOTAL ENERGY:     -364.369725185 Eh
FINAL SINGLE POINT ENERGY      -364.369725185416

DIPOLE MOMENT
-------------
                                X             Y             Z
Electronic contribution:     -2.45855      -4.06347       0.04453
Nuclear contribution   :      3.32792       4.95277      -0.20985
                        -----------------------------------------
Total Dipole Moment    :      0.86936       0.88931      -0.16533
                        -----------------------------------------
Magnitude (a.u.)       :      1.25459
Magnitude (Debye)      :      3.18891

                             ****ORCA TERMINATED NORMALLY****
TOTAL RUN TIME: 0 days 0 hours 12 minutes 43 seconds 300 msec
