                         Program Version 3.0.3 - RELEASE   -
|  1> ! RI-MP2 RIJK def2-TZVP def2-TZVP/C def2-TZVP/JK TIGHTSCF
|  2> % maxcore 2000
|  3> % mp2 density relaxed end
|  4> *xyz 0 1
|  5>  C       -0.0219289296     1.5283227940     0.0443936210
|  6>  C        1.4078990992     2.0854253253    -0.0142873274
|  7>  C        2.1641232938     1.5644540431    -1.2454269394
|  8>  C        2.1568342392     0.0295174709    -1.3015917820
|  9>  C        0.7270053072    -0.5275859521    -1.2429114035
| 10>  C       -0.0292185328    -0.0066166388    -0.0117729922
| 11>  H       -0.5294077315     1.8780328268     0.9505636980
| 12>  H       -0.5975353245     1.9226118166    -0.8050583731
| 13>  H        1.3889537624     3.1811348794    -0.0147735462
| 14>  H        1.9487510146     1.7848224481     0.8942177587
| 15>  H        1.6886260888     1.9602405623    -2.1540163951
| 16>  H        3.1934974459     1.9404479693    -1.2464209565
| 17>  H        2.6643128268    -0.3202010834    -2.2077592668
| 18>  H        2.7324383605    -0.3647719280    -0.4521376345
| 19>  H        0.1861546946    -0.2269832513    -2.1514169166
| 20>  H        0.7459513455    -1.6232953665    -1.2424255580
| 21>  H        0.4462760281    -0.4024023226     0.8968173806
| 22>  H       -1.0585950982    -0.3826035931    -0.0107827772
| 23> *
| 24>
| 25>                          ****END OF INPUT****

CARTESIAN COORDINATES (ANGSTROEM)
---------------------------------
  C     -0.021929    1.528323    0.044394
  C      1.407899    2.085425   -0.014287
  C      2.164123    1.564454   -1.245427
  C      2.156834    0.029517   -1.301592
  C      0.727005   -0.527586   -1.242911
  C     -0.029219   -0.006617   -0.011773
  H     -0.529408    1.878033    0.950564
  H     -0.597535    1.922612   -0.805058
  H      1.388954    3.181135   -0.014774
  H      1.948751    1.784822    0.894218
  H      1.688626    1.960241   -2.154016
  H      3.193497    1.940448   -1.246421
  H      2.664313   -0.320201   -2.207759
  H      2.732438   -0.364772   -0.452138
  H      0.186155   -0.226983   -2.151417
  H      0.745951   -1.623295   -1.242426
  H      0.446276   -0.402402    0.896817
  H     -1.058595   -0.382604   -0.010783

 Total Charge           Charge          ....    0
 Multiplicity           Mult            ....    1
 Number of Electrons    NEL             ....   48
 Basis Dimension        Dim             ....  258

ORBITAL ENERGIES
----------------

  NO   OCC          E(Eh)            E(eV)
   0   2.0000     -11.212626      -305.1111
   1   2.0000     -11.212354      -305.1037
   2   2.0000     -11.212341      -305.1033
   3   2.0000     -11.211754      -305.0873
   4   2.0000     -11.211740      -305.0870
   5   2.0000     -11.211437      -305.0787
   6   2.0000      -1.106907       -30.1205
   7   2.0000      -0.996148       -27.1066
   8   2.0000      -0.996036       -27.1035
   9   2.0000      -0.824252       -22.4290
  10   2.0000      -0.824171       -22.4268
  11   2.0000      -0.746480       -20.3127
  12   2.0000      -0.643784       -17.5182
  13   2.0000      -0.603539       -16.4231
  14   2.0000      -0.591946       -16.1077
  15   2.0000      -0.591893       -16.1062
  16   2.0000      -0.522189       -14.2095
  17   2.0000      -0.522109       -14.2073
  18   2.0000      -0.509865       -13.8741
  19   2.0000      -0.477747       -13.0002
  20   2.0000      -0.477685       -12.9985
  21   2.0000      -0.447487       -12.1767
  22   2.0000      -0.424663       -11.5557
  23   2.0000      -0.424611       -11.5542
  24   0.0000       0.135402         3.6845
  25   0.0000       0.158605         4.3159
  26   0.0000       0.168263         4.5787
  27   0.0000       0.168284         4.5792
  28   0.0000       0.204672         5.5694

MULLIKEN ATOMIC CHARGES
-----------------------
   0 C :   -0.217614
   1 C :   -0.217349
   2 C :   -0.217525
   3 C :   -0.217614
   4 C :   -0.217349
   5 C :   -0.217525
   6 H :    0.117489
   7 H :    0.100022
   8 H :    0.117498
   9 H :    0.099967
  10 H :    0.099997
  11 H :    0.117515
  12 H :    0.117489
  13 H :    0.100022
  14 H :    0.099967
  15 H :    0.117498
  16 H :    0.099997
  17 H :    0.117514
Sum of atomic charges:   -0.0000000

LOEWDIN ATOMIC CHARGES
----------------------
   0 C :   -0.269772
   1 C :   -0.269784
   2 C :   -0.269674
   3 C :   -0.269772
   4 C :   -0.269784
   5 C :   -0.269674
   6 H :    0.133765
   7 H :    0.135973
   8 H :    0.133762
   9 H :    0.136006
  10 H :    0.135983
  11 H :    0.133741
  12 H :    0.133765
  13 H :    0.135974
  14 H :    0.136006
  15 H :    0.133762
  16 H :    0.135983
  17 H :    0.133741

  Mayer bond orders larger than 0.1
B(  0-C ,  1-C ) :   0.9308 B(  0-C ,  5-C ) :   0.9307 B(  0-C ,  6-H ) :   0.9320
B(  0-C ,  7-H ) :   0.9316 B(  1-C ,  2-C ) :   0.9306 B(  1-C ,  8-H ) :   0.9319
B(  1-C ,  9-H ) :   0.9316 B(  2-C ,  3-C ) :   0.9307 B(  2-C , 10-H ) :   0.9316
B(  2-C , 11-H ) :   0.9320 B(  3-C ,  4-C ) :   0.9308 B(  3-C , 12-H ) :   0.9320
B(  3-C , 13-H ) :   0.9316 B(  4-C ,  5-C ) :   0.9306 B(  4-C , 14-H ) :   0.9316
B(  4-C , 15-H ) :   0.9319 B(  5-C , 16-H ) :   0.9316 B(  5-C , 17-H ) :   0.9320

MP2 TOTAL ENERGY:     -235.295147163 Eh
FINAL SINGLE POINT ENERGY      -235.295147162573

DIPOLE MOMENT
-------------
                                X             Y             Z
Electronic contribution:      0.00000       0.00000      -0.00000
Nuclear contribution   :     -0.00000      -0.00000       0.00000
                        -----------------------------------------
Total Dipole Moment    :     -0.00000      -0.00000      -0.00000
                        -----------------------------------------
Magnitude (a.u.)       :      0.00000
Magnitude (Debye)      :      0.00000

                             ****ORCA TERMINATED NORMALLY****
TOTAL RUN TIME: 0 days 0 hours 5 minutes 35 seconds 617 msec
