                         Program Version 3.0.3 - RELEASE   -
|  1> ! RI-MP2 RIJK def2-TZVP def2-TZVP/C def2-TZVP/JK TIGHTSCF
|  2> % maxcore 2000
|  3> % mp2 density relaxed end
|  4> *xyz 0 1
|  5>  C        0.3848050210     1.4439699163    -0.0877334329
|  6>  N        0.6248903267     0.0179452856     0.0128666819
|  7>  C        0.2810346880    -0.7064505570     1.1001756488
|  8>  O       -0.2589843714    -0.2480546500     2.0972828747
|  9>  C        0.6134834247    -2.1920414834     1.0353578417
| 10>  C        1.1683387946    -2.7485834251     2.3203291814
| 11>  N       -0.2025541063    -3.0386645574     1.9353780596
| 12>  C        0.9971651069    -2.7542839076    -0.2317832550
| 13>  C        1.3399639099    -3.1812310958    -1.3033472407
| 14>  H        1.3226142348     1.9942806281    -0.2201076644
| 15>  H       -0.2784694701     1.6743329039    -0.9284410830
| 16>  H       -0.0898250606     1.7650489245     0.8398714417
| 17>  H        1.0399524736    -0.4747224698    -0.7629848214
| 18>  H        1.8580861042    -3.5844733603     2.2582666000
| 19>  H        1.3458287317    -2.0282365669     3.1132114773
| 20>  H       -0.8143996421    -2.3898941243     2.4347633916
| 21>  H        1.6300206345    -3.5857686009    -2.2416971712
| 22> *
| 23>
| 24>                          ****END OF INPUT****

CARTESIAN COORDINATES (ANGSTROEM)
---------------------------------
  C      0.384805    1.443970   -0.087733
  N      0.624890    0.017945    0.012867
  C      0.281035   -0.706451    1.100176
  O     -0.258984   -0.248055    2.097283
  C      0.613483   -2.192041    1.035358
  C      1.168339   -2.748583    2.320329
  N     -0.202554   -3.038665    1.935378
  C      0.997165   -2.754284   -0.231783
  C      1.339964   -3.181231   -1.303347
  H      1.322614    1.994281   -0.220108
  H     -0.278469    1.674333   -0.928441
  H     -0.089825    1.765049    0.839871
  H      1.039952   -0.474722   -0.762985
  H      1.858086   -3.584473    2.258267
  H      1.345829   -2.028237    3.113211
  H     -0.814400   -2.389894    2.434763
  H      1.630021   -3.585769   -2.241697

 Total Charge           Charge          ....    0
 Multiplicity           Mult            ....    1
 Number of Electrons    NEL             ....   66
 Basis Dimension        Dim             ....  327

ORBITAL ENERGIES
----------------

  NO   OCC          E(Eh)            E(eV)
   0   2.0000     -20.525085      -558.5160
   1   2.0000     -15.594399      -424.3452
   2   2.0000     -15.577594      -423.8879
   3   2.0000     -11.363971      -309.2294
   4   2.0000     -11.305341      -307.6340
   5   2.0000     -11.278217      -306.8959
   6   2.0000     -11.265938      -306.5618
   7   2.0000     -11.253648      -306.2273
   8   2.0000     -11.243746      -305.9579
   9   2.0000      -1.395305       -37.9682
  10   2.0000      -1.284895       -34.9638
  11   2.0000      -1.243097       -33.8264
  12   2.0000      -1.059514       -28.8308
  13   2.0000      -0.985664       -26.8213
  14   2.0000      -0.919628       -25.0244
  15   2.0000      -0.882894       -24.0248
  16   2.0000      -0.806222       -21.9384
  17   2.0000      -0.772925       -21.0324
  18   2.0000      -0.727612       -19.7993
  19   2.0000      -0.684194       -18.6179
  20   2.0000      -0.648739       -17.6531
  21   2.0000      -0.641988       -17.4694
  22   2.0000      -0.629354       -17.1256
  23   2.0000      -0.578435       -15.7400
  24   2.0000      -0.555997       -15.1294
  25   2.0000      -0.553805       -15.0698
  26   2.0000      -0.517431       -14.0800
  27   2.0000      -0.516006       -14.0412
  28   2.0000      -0.457863       -12.4591
  29   2.0000      -0.434222       -11.8158
  30   2.0000      -0.404614       -11.0101
  31   2.0000      -0.402274       -10.9464
  32   2.0000      -0.379564       -10.3285
  33   0.0000       0.133380         3.6295
  34   0.0000       0.145631         3.9628
  35   0.0000       0.154160         4.1949
  36   0.0000       0.158500         4.3130
  37   0.0000       0.176047         4.7905

MULLIKEN ATOMIC CHARGES
-----------------------
   0 C :   -0.293574
   1 N :   -0.301970
   2 C :    0.265059
   3 O :   -0.416482
   4 C :   -0.098779
   5 C :   -0.157131
   6 N :   -0.354463
   7 C :    0.014532
   8 C :   -0.096864
   9 H :    0.139679
  10 H :    0.140438
  11 H :    0.178366
  12 H :    0.254165
  13 H :    0.135397
  14 H :    0.149821
  15 H :    0.243886
  16 H :    0.197920
Sum of atomic charges:   -0.0000000

LOEWDIN ATOMIC CHARGES
----------------------
   0 C :   -0.304894
   1 N :    0.107570
   2 C :   -0.424762
   3 O :    0.066916
   4 C :   -0.262100
   5 C :   -0.211270
   6 N :    0.042183
   7 C :   -0.073864
   8 C :   -0.083526
   9 H :    0.117386
  10 H :    0.117864
  11 H :    0.135431
  12 H :    0.196490
  13 H :    0.131948
  14 H :    0.133210
  15 H :    0.181658
  16 H :    0.129760

  Mayer bond orders larger than 0.1
B(  0-C ,  1-N ) :   0.8428 B(  0-C ,  9-H ) :   0.9346 B(  0-C , 10-H ) :   0.9348
B(  0-C , 11-H ) :   0.9267 B(  1-N ,  2-C ) :   1.2433 B(  1-N , 12-H ) :   0.8567
B(  2-C ,  3-O ) :   1.7987 B(  2-C ,  4-C ) :   0.9490 B(  4-C ,  5-C ) :   0.8902
B(  4-C ,  6-N ) :   0.9235 B(  4-C ,  7-C ) :   1.1105 B(  4-C ,  8-C ) :  -0.1579
B(  5-C ,  6-N ) :   0.9419 B(  5-C , 13-H ) :   0.9233 B(  5-C , 14-H ) :   0.9019
B(  6-N , 15-H ) :   0.8525 B(  7-C ,  8-C ) :   2.6271 B(  8-C , 16-H ) :   0.8760

MP2 TOTAL ENERGY:     -417.265796695 Eh
FINAL SINGLE POINT ENERGY      -417.265796694807

DIPOLE MOMENT
-------------
                                X             Y             Z
Electronic contribution:     -0.86548      -3.83060       0.77872
Nuclear contribution   :      1.67879       4.36067      -1.77327
                        -----------------------------------------
Total Dipole Moment    :      0.81330       0.53007      -0.99455
                        -----------------------------------------
Magnitude (a.u.)       :      1.38981
Magnitude (Debye)      :      3.53261

                             ****ORCA TERMINATED NORMALLY****
TOTAL RUN TIME: 0 days 0 hours 16 minutes 0 seconds 566 msec
