                         Program Version 3.0.3 - RELEASE   -
|  1> ! RI-MP2 RIJK def2-TZVP def2-TZVP/C def2-TZVP/JK TIGHTSCF
|  2> % maxcore 2000
|  3> % mp2 density relaxed end
|  4> *xyz 0 1
|  5>  C       -0.1271686100     1.6040732912     0.0045151240
|  6>  C        0.0456518523     0.0941879249     0.0126712117
|  7>  O       -1.2170353548    -0.5554243139    -0.1283971795
|  8>  C        1.0648262263    -0.5909087258    -0.9499330203
|  9>  C        2.5106347075    -0.0678650611    -0.8359246700
| 10>  N        2.7563762513    -0.8204913347     0.4396684441
| 11>  C        2.1062518125    -0.1010110953     1.5870304367
| 12>  C        0.7054627468    -0.6260869398     1.2199882969
| 13>  C        1.4381162070    -1.5644805076     0.2116533724
| 14>  H        0.8150813341     2.1342680215     0.1651533242
| 15>  H       -0.5323117647     1.9375761771    -0.9592770085
| 16>  H       -0.8310540998     1.9034225293     0.7873183514
| 17>  H       -1.5576006233    -0.3458835851    -1.0057912532
| 18>  H        0.6790755527    -0.8821058057    -1.9299079688
| 19>  H        3.1548828995    -0.4718951441    -1.6236246167
| 20>  H        2.6786103329     1.0134485928    -0.7762076993
| 21>  H        2.4654528614    -0.5261112610     2.5295809187
| 22>  H        2.2754763242     0.9813186142     1.6119169057
| 23>  H        0.0184795166    -0.9411462036     2.0054225030
| 24>  H        1.4272065676    -2.6524757533     0.1923800373
| 25> *
| 26>
| 27>                          ****END OF INPUT****

CARTESIAN COORDINATES (ANGSTROEM)
---------------------------------
  C     -0.127169    1.604073    0.004515
  C      0.045652    0.094188    0.012671
  O     -1.217035   -0.555424   -0.128397
  C      1.064826   -0.590909   -0.949933
  C      2.510635   -0.067865   -0.835925
  N      2.756376   -0.820491    0.439668
  C      2.106252   -0.101011    1.587030
  C      0.705463   -0.626087    1.219988
  C      1.438116   -1.564481    0.211653
  H      0.815081    2.134268    0.165153
  H     -0.532312    1.937576   -0.959277
  H     -0.831054    1.903423    0.787318
  H     -1.557601   -0.345884   -1.005791
  H      0.679076   -0.882106   -1.929908
  H      3.154883   -0.471895   -1.623625
  H      2.678610    1.013449   -0.776208
  H      2.465453   -0.526111    2.529581
  H      2.275476    0.981319    1.611917
  H      0.018480   -0.941146    2.005423
  H      1.427207   -2.652476    0.192380

 Total Charge           Charge          ....    0
 Multiplicity           Mult            ....    1
 Number of Electrons    NEL             ....   68
 Basis Dimension        Dim             ....  345

ORBITAL ENERGIES
----------------

  NO   OCC          E(Eh)            E(eV)
   0   2.0000     -20.558555      -559.4267
   1   2.0000     -15.542481      -422.9324
   2   2.0000     -11.290870      -307.2402
   3   2.0000     -11.257601      -306.3349
   4   2.0000     -11.251848      -306.1783
   5   2.0000     -11.249847      -306.1239
   6   2.0000     -11.231358      -305.6208
   7   2.0000     -11.227459      -305.5147
   8   2.0000     -11.221117      -305.3421
   9   2.0000      -1.369093       -37.2549
  10   2.0000      -1.270465       -34.5711
  11   2.0000      -1.057889       -28.7866
  12   2.0000      -1.015999       -27.6467
  13   2.0000      -0.974417       -26.5152
  14   2.0000      -0.879827       -23.9413
  15   2.0000      -0.823749       -22.4154
  16   2.0000      -0.801085       -21.7986
  17   2.0000      -0.715382       -19.4665
  18   2.0000      -0.676634       -18.4122
  19   2.0000      -0.660817       -17.9818
  20   2.0000      -0.637683       -17.3522
  21   2.0000      -0.620752       -16.8915
  22   2.0000      -0.592432       -16.1209
  23   2.0000      -0.577108       -15.7039
  24   2.0000      -0.573193       -15.5974
  25   2.0000      -0.552725       -15.0404
  26   2.0000      -0.533740       -14.5238
  27   2.0000      -0.495117       -13.4728
  28   2.0000      -0.477548       -12.9947
  29   2.0000      -0.453756       -12.3473
  30   2.0000      -0.438289       -11.9265
  31   2.0000      -0.431285       -11.7359
  32   2.0000      -0.405154       -11.0248
  33   2.0000      -0.349475        -9.5097
  34   0.0000       0.129500         3.5239
  35   0.0000       0.155653         4.2355
  36   0.0000       0.165051         4.4913
  37   0.0000       0.171619         4.6700
  38   0.0000       0.178608         4.8602

MULLIKEN ATOMIC CHARGES
-----------------------
   0 C :   -0.408699
   1 C :    0.171915
   2 O :   -0.457331
   3 C :   -0.116831
   4 C :   -0.200647
   5 N :   -0.197181
   6 C :   -0.205721
   7 C :   -0.045827
   8 C :   -0.088024
   9 H :    0.118647
  10 H :    0.120299
  11 H :    0.146517
  12 H :    0.310873
  13 H :    0.117518
  14 H :    0.123293
  15 H :    0.115756
  16 H :    0.125397
  17 H :    0.116389
  18 H :    0.128738
  19 H :    0.124920
Sum of atomic charges:    0.0000000

LOEWDIN ATOMIC CHARGES
----------------------
   0 C :   -0.280349
   1 C :   -0.353022
   2 O :    0.018409
   3 C :   -0.169573
   4 C :   -0.235564
   5 N :    0.083132
   6 C :   -0.232799
   7 C :   -0.156201
   8 C :   -0.132543
   9 H :    0.124000
  10 H :    0.125916
  11 H :    0.132354
  12 H :    0.174194
  13 H :    0.131798
  14 H :    0.132101
  15 H :    0.119949
  16 H :    0.132776
  17 H :    0.120230
  18 H :    0.139291
  19 H :    0.125901

  Mayer bond orders larger than 0.1
B(  0-C ,  1-C ) :   0.9127 B(  0-C ,  9-H ) :   0.9284 B(  0-C , 10-H ) :   0.9238
B(  0-C , 11-H ) :   0.9405 B(  1-C ,  2-O ) :   0.9323 B(  1-C ,  3-C ) :   0.9154
B(  1-C ,  7-C ) :   0.8964 B(  2-O , 12-H ) :   0.8411 B(  3-C ,  4-C ) :   0.8824
B(  3-C ,  8-C ) :   0.8868 B(  3-C , 13-H ) :   0.9052 B(  4-C ,  5-N ) :   0.9105
B(  4-C , 14-H ) :   0.9173 B(  4-C , 15-H ) :   0.9337 B(  5-N ,  6-C ) :   0.9103
B(  5-N ,  8-C ) :   0.9172 B(  6-C ,  7-C ) :   0.9018 B(  6-C , 16-H ) :   0.9242
B(  6-C , 17-H ) :   0.9329 B(  7-C ,  8-C ) :   0.9163 B(  7-C , 18-H ) :   0.9052
B(  8-C , 19-H ) :   0.8925

MP2 TOTAL ENERGY:     -402.397641880 Eh
FINAL SINGLE POINT ENERGY      -402.397641880180

DIPOLE MOMENT
-------------
                                X             Y             Z
Electronic contribution:     -0.14246      -4.18411       0.23024
Nuclear contribution   :     -0.21093       4.75149      -0.72648
                        -----------------------------------------
Total Dipole Moment    :     -0.35340       0.56739      -0.49624
                        -----------------------------------------
Magnitude (a.u.)       :      0.83251
Magnitude (Debye)      :      2.11607

                             ****ORCA TERMINATED NORMALLY****
TOTAL RUN TIME: 0 days 0 hours 21 minutes 11 seconds 517 msec
