                         Program Version 3.0.3 - RELEASE   -
|  1> ! RI-MP2 RIJK def2-TZVP def2-TZVP/C def2-TZVP/JK TIGHTSCF
|  2> % maxcore 2000
|  3> % mp2 density relaxed end
|  4> *xyz 0 1
|  5>  O        0.0291010670     1.3707986627    -0.2203495297
|  6>  C        1.2975251972     0.7766682936     0.0367045697
|  7>  C        0.0519946922    -0.0284092672     0.0396680833
|  8>  C        0.4552120057    -0.7397347106    -1.2816825079
|  9>  N       -0.2643994349    -0.3267024809    -2.4787321701
| 10>  C        0.4488804060     0.5893572629    -2.9942220316
| 11>  O        1.6598307864     0.9186295440    -2.4553613170
| 12>  C        1.7667222474     0.1145452806    -1.2748432740
| 13>  H        1.8894581261     1.1848579219     0.8475455508
| 14>  H       -0.5547709657    -0.3958444924     0.8586387244
| 15>  H        0.5513620246    -1.8232249921    -1.1925576984
| 16>  H        0.2005368039     1.1530250128    -3.8863068028
| 17>  H        2.7370821840    -0.3812623354    -1.2442688268
| 18> *
| 19>
| 20>                          ****END OF INPUT****

CARTESIAN COORDINATES (ANGSTROEM)
---------------------------------
  O      0.029101    1.370799   -0.220350
  C      1.297525    0.776668    0.036705
  C      0.051995   -0.028409    0.039668
  C      0.455212   -0.739735   -1.281683
  N     -0.264399   -0.326702   -2.478732
  C      0.448880    0.589357   -2.994222
  O      1.659831    0.918630   -2.455361
  C      1.766722    0.114545   -1.274843
  H      1.889458    1.184858    0.847546
  H     -0.554771   -0.395844    0.858639
  H      0.551362   -1.823225   -1.192558
  H      0.200537    1.153025   -3.886307
  H      2.737082   -0.381262   -1.244269

 Total Charge           Charge          ....    0
 Multiplicity           Mult            ....    1
 Number of Electrons    NEL             ....   58
 Basis Dimension        Dim             ....  278

ORBITAL ENERGIES
----------------

  NO   OCC          E(Eh)            E(eV)
   0   2.0000     -20.601332      -560.5907
   1   2.0000     -20.586111      -560.1766
   2   2.0000     -15.550148      -423.1411
   3   2.0000     -11.337386      -308.5060
   4   2.0000     -11.308060      -307.7079
   5   2.0000     -11.303384      -307.5807
   6   2.0000     -11.302650      -307.5607
   7   2.0000     -11.280062      -306.9461
   8   2.0000      -1.457977       -39.6736
   9   2.0000      -1.424071       -38.7510
  10   2.0000      -1.220983       -33.2246
  11   2.0000      -1.084823       -29.5195
  12   2.0000      -0.917249       -24.9596
  13   2.0000      -0.903517       -24.5860
  14   2.0000      -0.801806       -21.8183
  15   2.0000      -0.789864       -21.4933
  16   2.0000      -0.750032       -20.4094
  17   2.0000      -0.704179       -19.1617
  18   2.0000      -0.666640       -18.1402
  19   2.0000      -0.628570       -17.1043
  20   2.0000      -0.588389       -16.0109
  21   2.0000      -0.572694       -15.5838
  22   2.0000      -0.554181       -15.0800
  23   2.0000      -0.533662       -14.5217
  24   2.0000      -0.525007       -14.2862
  25   2.0000      -0.481527       -13.1030
  26   2.0000      -0.432970       -11.7817
  27   2.0000      -0.409348       -11.1389
  28   2.0000      -0.387755       -10.5513
  29   0.0000       0.145132         3.9492
  30   0.0000       0.160994         4.3809
  31   0.0000       0.170768         4.6468
  32   0.0000       0.175913         4.7868
  33   0.0000       0.187326         5.0974

MULLIKEN ATOMIC CHARGES
-----------------------
   0 O :   -0.304056
   1 C :   -0.053401
   2 C :   -0.038810
   3 C :    0.061642
   4 N :   -0.295805
   5 C :    0.120248
   6 O :   -0.281445
   7 C :    0.092663
   8 H :    0.147358
   9 H :    0.145710
  10 H :    0.127815
  11 H :    0.149184
  12 H :    0.128896
Sum of atomic charges:    0.0000000

LOEWDIN ATOMIC CHARGES
----------------------
   0 O :    0.207481
   1 C :   -0.225374
   2 C :   -0.214393
   3 C :   -0.227976
   4 N :    0.087387
   5 C :   -0.322760
   6 O :    0.236952
   7 C :   -0.224698
   8 H :    0.131442
   9 H :    0.131929
  10 H :    0.145211
  11 H :    0.134472
  12 H :    0.140326

  Mayer bond orders larger than 0.1
B(  0-O ,  1-C ) :   0.9209 B(  0-O ,  2-C ) :   0.9119 B(  1-C ,  2-C ) :   0.8956
B(  1-C ,  7-C ) :   0.8774 B(  1-C ,  8-H ) :   0.9204 B(  2-C ,  3-C ) :   0.8669
B(  2-C ,  9-H ) :   0.9224 B(  3-C ,  4-N ) :   0.9182 B(  3-C ,  7-C ) :   0.9407
B(  3-C , 10-H ) :   0.9174 B(  4-N ,  5-C ) :   1.8132 B(  5-C ,  6-O ) :   1.0536
B(  5-C , 11-H ) :   0.9209 B(  6-O ,  7-C ) :   0.8590 B(  7-C , 12-H ) :   0.9117

MP2 TOTAL ENERGY:     -397.906664906 Eh
FINAL SINGLE POINT ENERGY      -397.906664905938

DIPOLE MOMENT
-------------
                                X             Y             Z
Electronic contribution:     -0.52079       1.44467      -1.26971
Nuclear contribution   :      1.29617      -1.93035       1.90811
                        -----------------------------------------
Total Dipole Moment    :      0.77538      -0.48568       0.63840
                        -----------------------------------------
Magnitude (a.u.)       :      1.11564
Magnitude (Debye)      :      2.83572

                             ****ORCA TERMINATED NORMALLY****
TOTAL RUN TIME: 0 days 0 hours 10 minutes 31 seconds 62 msec
