                         Program Version 3.0.3 - RELEASE   -
|  1> ! RI-MP2 RIJK def2-TZVP def2-TZVP/C def2-TZVP/JK TIGHTSCF
|  2> % maxcore 2000
|  3> % mp2 density relaxed end
|  4> *xyz 0 1
|  5>  C       -0.0118939248    -3.8476366895    -0.1246913348
|  6>  C       -0.0024641666    -2.6407865024    -0.0796361080
|  7>  C        0.0075567191    -1.2818784273    -0.0277577494
|  8>  C        0.0159793020    -0.0712019543     0.0206635331
|  9>  C        0.0245801249     1.3729271153     0.0874648642
| 10>  C       -0.2457329486     2.0637621955     1.4664747956
| 11>  C        1.1469982091     2.6666640607     1.3324257427
| 12>  C        2.1698158194     1.6247610009     1.1335961510
| 13>  N        1.3840131423     2.0530058538    -0.0407717073
| 14>  H       -0.0194017110    -4.9085347535    -0.1656186396
| 15>  H       -0.6191482910     1.7824972373    -0.6956917439
| 16>  H       -1.0541729765     2.7931287967     1.4016136073
| 17>  H       -0.4169414751     1.4111366543     2.3257469834
| 18>  H        1.3999660292     3.7022992828     1.5330930475
| 19>  H        3.2057609709     1.9419320550     1.0692797839
| 20>  H        2.0235090966     0.6237452048     1.5323845644
| 21> *
| 22>
| 23>                          ****END OF INPUT****

CARTESIAN COORDINATES (ANGSTROEM)
---------------------------------
  C     -0.011894   -3.847637   -0.124691
  C     -0.002464   -2.640787   -0.079636
  C      0.007557   -1.281878   -0.027758
  C      0.015979   -0.071202    0.020664
  C      0.024580    1.372927    0.087465
  C     -0.245733    2.063762    1.466475
  C      1.146998    2.666664    1.332426
  C      2.169816    1.624761    1.133596
  N      1.384013    2.053006   -0.040772
  H     -0.019402   -4.908535   -0.165619
  H     -0.619148    1.782497   -0.695692
  H     -1.054173    2.793129    1.401614
  H     -0.416941    1.411137    2.325747
  H      1.399966    3.702299    1.533093
  H      3.205761    1.941932    1.069280
  H      2.023509    0.623745    1.532385

 Total Charge           Charge          ....    0
 Multiplicity           Mult            ....    1
 Number of Electrons    NEL             ....   62
 Basis Dimension        Dim             ....  321

ORBITAL ENERGIES
----------------

  NO   OCC          E(Eh)            E(eV)
   0   2.0000     -15.573335      -423.7720
   1   2.0000     -11.295863      -307.3761
   2   2.0000     -11.272069      -306.7286
   3   2.0000     -11.261604      -306.4438
   4   2.0000     -11.260401      -306.4111
   5   2.0000     -11.256621      -306.3082
   6   2.0000     -11.252753      -306.2030
   7   2.0000     -11.250428      -306.1397
   8   2.0000     -11.249002      -306.1009
   9   2.0000      -1.299869       -35.3712
  10   2.0000      -1.094737       -29.7893
  11   2.0000      -1.048212       -28.5233
  12   2.0000      -1.002528       -27.2802
  13   2.0000      -0.952616       -25.9220
  14   2.0000      -0.866299       -23.5732
  15   2.0000      -0.820371       -22.3234
  16   2.0000      -0.775121       -21.0921
  17   2.0000      -0.712953       -19.4004
  18   2.0000      -0.700827       -19.0705
  19   2.0000      -0.670813       -18.2538
  20   2.0000      -0.629496       -17.1295
  21   2.0000      -0.572582       -15.5807
  22   2.0000      -0.562280       -15.3004
  23   2.0000      -0.519552       -14.1377
  24   2.0000      -0.493307       -13.4236
  25   2.0000      -0.475636       -12.9427
  26   2.0000      -0.463360       -12.6087
  27   2.0000      -0.447915       -12.1884
  28   2.0000      -0.387089       -10.5332
  29   2.0000      -0.356372        -9.6974
  30   2.0000      -0.350496        -9.5375
  31   0.0000       0.104030         2.8308
  32   0.0000       0.111022         3.0211
  33   0.0000       0.145635         3.9629
  34   0.0000       0.156079         4.2471
  35   0.0000       0.164434         4.4745

MULLIKEN ATOMIC CHARGES
-----------------------
   0 C :   -0.144402
   1 C :   -0.002441
   2 C :    0.037966
   3 C :   -0.173136
   4 C :   -0.015162
   5 C :   -0.226192
   6 C :   -0.069406
   7 C :   -0.171356
   8 N :   -0.241537
   9 H :    0.195235
  10 H :    0.140222
  11 H :    0.132229
  12 H :    0.132321
  13 H :    0.131228
  14 H :    0.134873
  15 H :    0.139558
Sum of atomic charges:   -0.0000000

LOEWDIN ATOMIC CHARGES
----------------------
   0 C :   -0.043855
   1 C :   -0.098098
   2 C :   -0.050891
   3 C :   -0.007770
   4 C :   -0.230708
   5 C :   -0.193127
   6 C :   -0.220625
   7 C :   -0.246620
   8 N :    0.121737
   9 H :    0.130644
  10 H :    0.164980
  11 H :    0.138694
  12 H :    0.135694
  13 H :    0.132349
  14 H :    0.134934
  15 H :    0.132662

  Mayer bond orders larger than 0.1
B(  0-C ,  1-C ) :   2.5423 B(  0-C ,  3-C ) :   0.1208 B(  0-C ,  9-H ) :   0.8857
B(  1-C ,  2-C ) :   1.2969 B(  2-C ,  3-C ) :   2.5175 B(  3-C ,  4-C ) :   1.0824
B(  4-C ,  5-C ) :   0.9419 B(  4-C ,  8-N ) :   0.8879 B(  4-C , 10-H ) :   0.8971
B(  5-C ,  6-C ) :   0.9516 B(  5-C , 11-H ) :   0.9350 B(  5-C , 12-H ) :   0.9188
B(  6-C ,  7-C ) :   0.9439 B(  6-C ,  8-N ) :   0.8717 B(  6-C , 13-H ) :   0.9069
B(  7-C ,  8-N ) :   0.8877 B(  7-C , 14-H ) :   0.9304 B(  7-C , 15-H ) :   0.9071

MP2 TOTAL ENERGY:     -362.821232173 Eh
FINAL SINGLE POINT ENERGY      -362.821232173304

DIPOLE MOMENT
-------------
                                X             Y             Z
Electronic contribution:     -1.04918      -4.88391      -2.97183
Nuclear contribution   :      0.81226       4.95092       3.63741
                        -----------------------------------------
Total Dipole Moment    :     -0.23692       0.06701       0.66558
                        -----------------------------------------
Magnitude (a.u.)       :      0.70966
Magnitude (Debye)      :      1.80382

                             ****ORCA TERMINATED NORMALLY****
TOTAL RUN TIME: 0 days 0 hours 15 minutes 9 seconds 469 msec
