                         Program Version 3.0.3 - RELEASE   -
|  1> ! RI-MP2 RIJK def2-TZVP def2-TZVP/C def2-TZVP/JK TIGHTSCF
|  2> % maxcore 2000
|  3> % mp2 density relaxed end
|  4> *xyz 0 1
|  5>  C       -0.0872392008     1.5661398626    -0.0557232129
|  6>  C        0.0158424655     0.0390129110     0.0729693110
|  7>  C        0.7809388522    -0.5636311222    -1.1194299369
|  8>  O        0.5778445452    -0.3929053296    -2.3012057608
|  9>  N        1.7756819726    -1.3359338631    -0.5627516585
| 10>  C        1.7733198646    -1.2685746891     0.8508290210
| 11>  C        2.8093032113    -2.0427511222     1.5944728312
| 12>  C        0.7719302009    -0.4827949390     1.2797470179
| 13>  C        0.3830615472    -0.1560537839     2.6848811048
| 14>  H        0.9009239086     2.0315881779     0.0153163487
| 15>  H       -0.5171100917     1.8225223826    -1.0275477286
| 16>  H       -0.7204575004     1.9873790810     0.7302063456
| 17>  H       -1.0015888545    -0.3785834023     0.0469851881
| 18>  H        2.4641757880    -1.8165516113    -1.1185418184
| 19>  H        3.8206028973    -1.7233579577     1.3127443794
| 20>  H        2.7035637326    -1.9116807981     2.6722773714
| 21>  H        2.7362557301    -3.1149789907     1.3738912228
| 22>  H        1.0351042899    -0.6419313743     3.4155001994
| 23>  H        0.4227321577     0.9239419365     2.8763144189
| 24>  H       -0.6464109763    -0.4723936680     2.9005063260
| 25> *
| 26>
| 27>                          ****END OF INPUT****

CARTESIAN COORDINATES (ANGSTROEM)
---------------------------------
  C     -0.087239    1.566140   -0.055723
  C      0.015842    0.039013    0.072969
  C      0.780939   -0.563631   -1.119430
  O      0.577845   -0.392905   -2.301206
  N      1.775682   -1.335934   -0.562752
  C      1.773320   -1.268575    0.850829
  C      2.809303   -2.042751    1.594473
  C      0.771930   -0.482795    1.279747
  C      0.383062   -0.156054    2.684881
  H      0.900924    2.031588    0.015316
  H     -0.517110    1.822522   -1.027548
  H     -0.720458    1.987379    0.730206
  H     -1.001589   -0.378583    0.046985
  H      2.464176   -1.816552   -1.118542
  H      3.820603   -1.723358    1.312744
  H      2.703564   -1.911681    2.672277
  H      2.736256   -3.114979    1.373891
  H      1.035104   -0.641931    3.415500
  H      0.422732    0.923942    2.876314
  H     -0.646411   -0.472394    2.900506

 Total Charge           Charge          ....    0
 Multiplicity           Mult            ....    1
 Number of Electrons    NEL             ....   68
 Basis Dimension        Dim             ....  345

ORBITAL ENERGIES
----------------

  NO   OCC          E(Eh)            E(eV)
   0   2.0000     -20.517772      -558.3169
   1   2.0000     -15.587820      -424.1662
   2   2.0000     -11.344202      -308.6914
   3   2.0000     -11.279609      -306.9338
   4   2.0000     -11.243957      -305.9636
   5   2.0000     -11.243702      -305.9567
   6   2.0000     -11.230653      -305.6016
   7   2.0000     -11.226497      -305.4885
   8   2.0000     -11.221842      -305.3618
   9   2.0000      -1.380861       -37.5751
  10   2.0000      -1.265098       -34.4251
  11   2.0000      -1.091517       -29.7017
  12   2.0000      -1.043010       -28.3817
  13   2.0000      -0.985119       -26.8064
  14   2.0000      -0.927708       -25.2442
  15   2.0000      -0.872539       -23.7430
  16   2.0000      -0.782259       -21.2863
  17   2.0000      -0.747080       -20.3291
  18   2.0000      -0.679929       -18.5018
  19   2.0000      -0.645855       -17.5746
  20   2.0000      -0.624824       -17.0023
  21   2.0000      -0.607873       -16.5411
  22   2.0000      -0.584411       -15.9026
  23   2.0000      -0.575344       -15.6559
  24   2.0000      -0.567014       -15.4292
  25   2.0000      -0.562542       -15.3075
  26   2.0000      -0.551255       -15.0004
  27   2.0000      -0.546330       -14.8664
  28   2.0000      -0.527827       -14.3629
  29   2.0000      -0.504909       -13.7393
  30   2.0000      -0.480290       -13.0693
  31   2.0000      -0.455625       -12.3982
  32   2.0000      -0.409142       -11.1333
  33   2.0000      -0.309116        -8.4115
  34   0.0000       0.120511         3.2793
  35   0.0000       0.136312         3.7092
  36   0.0000       0.154592         4.2067
  37   0.0000       0.172280         4.6880
  38   0.0000       0.176228         4.7954

MULLIKEN ATOMIC CHARGES
-----------------------
   0 C :   -0.427468
   1 C :    0.043658
   2 C :    0.164387
   3 O :   -0.332872
   4 N :   -0.282029
   5 C :    0.136658
   6 C :   -0.443876
   7 C :   -0.076782
   8 C :   -0.416079
   9 H :    0.132045
  10 H :    0.157190
  11 H :    0.134860
  12 H :    0.118586
  13 H :    0.239628
  14 H :    0.148573
  15 H :    0.139877
  16 H :    0.150376
  17 H :    0.125887
  18 H :    0.146689
  19 H :    0.140693
Sum of atomic charges:    0.0000000

LOEWDIN ATOMIC CHARGES
----------------------
   0 C :   -0.274818
   1 C :   -0.194938
   2 C :   -0.395981
   3 O :    0.090056
   4 N :    0.169690
   5 C :   -0.216308
   6 C :   -0.270015
   7 C :   -0.168865
   8 C :   -0.275229
   9 H :    0.127903
  10 H :    0.133679
  11 H :    0.123116
  12 H :    0.172167
  13 H :    0.187831
  14 H :    0.133604
  15 H :    0.134433
  16 H :    0.133977
  17 H :    0.127939
  18 H :    0.130638
  19 H :    0.131120

  Mayer bond orders larger than 0.1
B(  0-C ,  1-C ) :   0.8767 B(  0-C ,  9-H ) :   0.9331 B(  0-C , 10-H ) :   0.9294
B(  0-C , 11-H ) :   0.9383 B(  1-C ,  2-C ) :   0.8868 B(  1-C ,  7-C ) :   0.9190
B(  1-C , 12-H ) :   0.8917 B(  2-C ,  3-O ) :   2.0311 B(  2-C ,  4-N ) :   1.1241
B(  4-N ,  5-C ) :   0.9922 B(  4-N , 13-H ) :   0.8644 B(  5-C ,  6-C ) :   0.8476
B(  5-C ,  7-C ) :   1.7110 B(  6-C , 14-H ) :   0.9320 B(  6-C , 15-H ) :   0.9548
B(  6-C , 16-H ) :   0.9326 B(  7-C ,  8-C ) :   0.8683 B(  8-C , 17-H ) :   0.9504
B(  8-C , 18-H ) :   0.9360 B(  8-C , 19-H ) :   0.9338

MP2 TOTAL ENERGY:     -402.516465814 Eh
FINAL SINGLE POINT ENERGY      -402.516465814305

DIPOLE MOMENT
-------------
                                X             Y             Z
Electronic contribution:      0.17550      -2.49723      -8.34283
Nuclear contribution   :      0.37606       2.12184       9.67177
                        -----------------------------------------
Total Dipole Moment    :      0.55156      -0.37539       1.32894
                        -----------------------------------------
Magnitude (a.u.)       :      1.48701
Magnitude (Debye)      :      3.77969

                             ****ORCA TERMINATED NORMALLY****
TOTAL RUN TIME: 0 days 0 hours 19 minutes 33 seconds 246 msec
