                         Program Version 3.0.3 - RELEASE   -
|  1> ! RI-MP2 RIJK def2-TZVP def2-TZVP/C def2-TZVP/JK TIGHTSCF
|  2> % maxcore 2000
|  3> % mp2 density relaxed end
|  4> *xyz 0 1
|  5>  O       -0.0960757296     1.4386863688    -0.0590196062
|  6>  C       -0.0116889695     0.0384352308     0.0420693218
|  7>  C        0.2704863864    -0.6026400595     1.4386956454
|  8>  C       -1.0999339282    -1.3504437176     1.3633584022
|  9>  C       -1.4064812653    -0.6366868945     0.0026691213
| 10>  N       -2.4652423649     0.0956843570     0.6930780777
| 11>  C       -2.2157532520    -0.4564684890     1.9410424304
| 12>  O       -2.6714448441    -0.2361445402     3.0292954538
| 13>  H        0.7828945336     1.8100442156     0.0665099881
| 14>  H        0.6482027474    -0.3839648800    -0.7290041960
| 15>  H        1.1383811294    -1.2648694246     1.4496252781
| 16>  H        0.3513281841     0.1047144661     2.2671062753
| 17>  H       -1.1309172485    -2.4248142753     1.5255819361
| 18>  H       -1.7165984576    -1.1389898813    -0.9138912010
| 19>  H       -2.8046818212     1.0266448639     0.4907683530
| 20> *
| 21>
| 22>                          ****END OF INPUT****

CARTESIAN COORDINATES (ANGSTROEM)
---------------------------------
  O     -0.096076    1.438686   -0.059020
  C     -0.011689    0.038435    0.042069
  C      0.270486   -0.602640    1.438696
  C     -1.099934   -1.350444    1.363358
  C     -1.406481   -0.636687    0.002669
  N     -2.465242    0.095684    0.693078
  C     -2.215753   -0.456468    1.941042
  O     -2.671445   -0.236145    3.029295
  H      0.782895    1.810044    0.066510
  H      0.648203   -0.383965   -0.729004
  H      1.138381   -1.264869    1.449625
  H      0.351328    0.104714    2.267106
  H     -1.130917   -2.424814    1.525582
  H     -1.716598   -1.138990   -0.913891
  H     -2.804682    1.026645    0.490768

 Total Charge           Charge          ....    0
 Multiplicity           Mult            ....    1
 Number of Electrons    NEL             ....   60
 Basis Dimension        Dim             ....  290

ORBITAL ENERGIES
----------------

  NO   OCC          E(Eh)            E(eV)
   0   2.0000     -20.575630      -559.8913
   1   2.0000     -20.525891      -558.5379
   2   2.0000     -15.580864      -423.9769
   3   2.0000     -11.349152      -308.8261
   4   2.0000     -11.300273      -307.4961
   5   2.0000     -11.280923      -306.9695
   6   2.0000     -11.255060      -306.2658
   7   2.0000     -11.246006      -306.0194
   8   2.0000      -1.390621       -37.8407
   9   2.0000      -1.381761       -37.5996
  10   2.0000      -1.272712       -34.6322
  11   2.0000      -1.097576       -29.8666
  12   2.0000      -0.945771       -25.7357
  13   2.0000      -0.909438       -24.7471
  14   2.0000      -0.812764       -22.1164
  15   2.0000      -0.751603       -20.4522
  16   2.0000      -0.727356       -19.7924
  17   2.0000      -0.692673       -18.8486
  18   2.0000      -0.667001       -18.1500
  19   2.0000      -0.650325       -17.6962
  20   2.0000      -0.611461       -16.6387
  21   2.0000      -0.588020       -16.0008
  22   2.0000      -0.559574       -15.2268
  23   2.0000      -0.535958       -14.5842
  24   2.0000      -0.522066       -14.2061
  25   2.0000      -0.492719       -13.4076
  26   2.0000      -0.474531       -12.9126
  27   2.0000      -0.441573       -12.0158
  28   2.0000      -0.415838       -11.3155
  29   2.0000      -0.389522       -10.5994
  30   0.0000       0.122752         3.3402
  31   0.0000       0.145069         3.9475
  32   0.0000       0.159254         4.3335
  33   0.0000       0.165766         4.5107
  34   0.0000       0.187923         5.1137

MULLIKEN ATOMIC CHARGES
-----------------------
   0 O :   -0.458062
   1 C :   -0.027287
   2 C :   -0.233778
   3 C :   -0.107968
   4 C :    0.087688
   5 N :   -0.326141
   6 C :    0.177904
   7 O :   -0.307420
   8 H :    0.324433
   9 H :    0.083502
  10 H :    0.132012
  11 H :    0.128491
  12 H :    0.144388
  13 H :    0.136557
  14 H :    0.245682
Sum of atomic charges:    0.0000000

LOEWDIN ATOMIC CHARGES
----------------------
   0 O :   -0.015818
   1 C :   -0.318806
   2 C :   -0.199277
   3 C :   -0.141257
   4 C :   -0.196820
   5 N :    0.148469
   6 C :   -0.420666
   7 O :    0.110722
   8 H :    0.179872
   9 H :    0.131166
  10 H :    0.133545
  11 H :    0.139505
  12 H :    0.141070
  13 H :    0.131980
  14 H :    0.176317

  Mayer bond orders larger than 0.1
B(  0-O ,  1-C ) :   1.1216 B(  0-O ,  4-C ) :  -0.1160 B(  0-O ,  8-H ) :   0.8400
B(  1-C ,  2-C ) :   0.9197 B(  1-C ,  4-C ) :   0.8612 B(  1-C ,  9-H ) :   0.9535
B(  2-C ,  3-C ) :   0.8982 B(  2-C , 10-H ) :   0.9150 B(  2-C , 11-H ) :   0.9039
B(  3-C ,  4-C ) :   0.8665 B(  3-C ,  6-C ) :   0.8725 B(  3-C , 12-H ) :   0.9011
B(  4-C ,  5-N ) :   0.9335 B(  4-C , 13-H ) :   0.9215 B(  5-N ,  6-C ) :   1.1511
B(  5-N , 14-H ) :   0.8510 B(  6-C ,  7-O ) :   2.0289

MP2 TOTAL ENERGY:     -399.150381993 Eh
FINAL SINGLE POINT ENERGY      -399.150381992933

DIPOLE MOMENT
-------------
                                X             Y             Z
Electronic contribution:     -3.97932       0.94010       1.80762
Nuclear contribution   :      5.27259      -1.07144      -2.99398
                        -----------------------------------------
Total Dipole Moment    :      1.29327      -0.13134      -1.18636
                        -----------------------------------------
Magnitude (a.u.)       :      1.75990
Magnitude (Debye)      :      4.47330

                             ****ORCA TERMINATED NORMALLY****
TOTAL RUN TIME: 0 days 0 hours 12 minutes 7 seconds 310 msec
