                         Program Version 3.0.3 - RELEASE   -
|  1> ! RI-MP2 RIJK def2-TZVP def2-TZVP/C def2-TZVP/JK TIGHTSCF
|  2> % maxcore 2000
|  3> % mp2 density relaxed end
|  4> *xyz 0 1
|  5>  C       -0.3871376679     1.3602166046     0.0620903686
|  6>  C        0.0418977266    -0.0954970310    -0.0186093195
|  7>  O        0.3557300296    -0.7004701769     0.9804717495
|  8>  C        0.0947870223    -0.7670300831    -1.4118825958
|  9>  C        1.4069613236    -0.3474825003    -2.0945252126
| 10>  C       -0.0601169400    -2.2964597967    -1.2648795723
| 11>  C       -1.5900591159    -2.5165435543    -1.3370144027
| 12>  O       -2.1780015048    -1.2526717123    -1.6715442130
| 13>  C       -1.1628834729    -0.4475554455    -2.2386870284
| 14>  H       -0.0586709695     1.7769858554     1.0149366319
| 15>  H       -0.0016961311     1.9609495434    -0.7662469414
| 16>  H       -1.4813979368     1.4094991833     0.0201333316
| 17>  H        2.2717493507    -0.6781165784    -1.5117534318
| 18>  H        1.4755108234    -0.7980507166    -3.0898971184
| 19>  H        1.4791226312     0.7385134655    -2.2144927277
| 20>  H        0.4480192317    -2.8041197678    -2.0896503060
| 21>  H        0.3712515560    -2.6412843073    -0.3251432031
| 22>  H       -1.8528864922    -3.2653796606    -2.0967301893
| 23>  H       -2.0196901071    -2.8337355373    -0.3823958758
| 24>  H       -1.4937426749     0.5927930526    -2.1970870652
| 25>  H       -0.9830163218    -0.7033224466    -3.2977768685
| 26> *
| 27>
| 28>                          ****END OF INPUT****

CARTESIAN COORDINATES (ANGSTROEM)
---------------------------------
  C     -0.387138    1.360217    0.062090
  C      0.041898   -0.095497   -0.018609
  O      0.355730   -0.700470    0.980472
  C      0.094787   -0.767030   -1.411883
  C      1.406961   -0.347483   -2.094525
  C     -0.060117   -2.296460   -1.264880
  C     -1.590059   -2.516544   -1.337014
  O     -2.178002   -1.252672   -1.671544
  C     -1.162883   -0.447555   -2.238687
  H     -0.058671    1.776986    1.014937
  H     -0.001696    1.960950   -0.766247
  H     -1.481398    1.409499    0.020133
  H      2.271749   -0.678117   -1.511753
  H      1.475511   -0.798051   -3.089897
  H      1.479123    0.738513   -2.214493
  H      0.448019   -2.804120   -2.089650
  H      0.371252   -2.641284   -0.325143
  H     -1.852886   -3.265380   -2.096730
  H     -2.019690   -2.833736   -0.382396
  H     -1.493743    0.592793   -2.197087
  H     -0.983016   -0.703322   -3.297777

 Total Charge           Charge          ....    0
 Multiplicity           Mult            ....    1
 Number of Electrons    NEL             ....   70
 Basis Dimension        Dim             ....  351

ORBITAL ENERGIES
----------------

  NO   OCC          E(Eh)            E(eV)
   0   2.0000     -20.556372      -559.3673
   1   2.0000     -20.544515      -559.0447
   2   2.0000     -11.330678      -308.3234
   3   2.0000     -11.282265      -307.0061
   4   2.0000     -11.273797      -306.7756
   5   2.0000     -11.252495      -306.1960
   6   2.0000     -11.236197      -305.7525
   7   2.0000     -11.234460      -305.7052
   8   2.0000     -11.224479      -305.4336
   9   2.0000      -1.391972       -37.8775
  10   2.0000      -1.379875       -37.5483
  11   2.0000      -1.104752       -30.0618
  12   2.0000      -1.017595       -27.6902
  13   2.0000      -0.991216       -26.9724
  14   2.0000      -0.940077       -25.5808
  15   2.0000      -0.842607       -22.9285
  16   2.0000      -0.818479       -22.2720
  17   2.0000      -0.722509       -19.6605
  18   2.0000      -0.695037       -18.9129
  19   2.0000      -0.667566       -18.1654
  20   2.0000      -0.638864       -17.3844
  21   2.0000      -0.631492       -17.1838
  22   2.0000      -0.604308       -16.4441
  23   2.0000      -0.597694       -16.2641
  24   2.0000      -0.587825       -15.9955
  25   2.0000      -0.567250       -15.4357
  26   2.0000      -0.560640       -15.2558
  27   2.0000      -0.537203       -14.6180
  28   2.0000      -0.511511       -13.9189
  29   2.0000      -0.504903       -13.7391
  30   2.0000      -0.495054       -13.4711
  31   2.0000      -0.477880       -13.0038
  32   2.0000      -0.460448       -12.5294
  33   2.0000      -0.422578       -11.4989
  34   2.0000      -0.402776       -10.9601
  35   0.0000       0.126451         3.4409
  36   0.0000       0.144490         3.9318
  37   0.0000       0.154702         4.2097
  38   0.0000       0.159715         4.3461
  39   0.0000       0.185481         5.0472

MULLIKEN ATOMIC CHARGES
-----------------------
   0 C :   -0.462905
   1 C :    0.177731
   2 O :   -0.286033
   3 C :    0.123618
   4 C :   -0.428159
   5 C :   -0.320504
   6 C :   -0.019636
   7 O :   -0.327247
   8 C :   -0.059289
   9 H :    0.157840
  10 H :    0.143973
  11 H :    0.167426
  12 H :    0.156819
  13 H :    0.138036
  14 H :    0.133784
  15 H :    0.121580
  16 H :    0.155474
  17 H :    0.092467
  18 H :    0.114112
  19 H :    0.127750
  20 H :    0.093162
Sum of atomic charges:   -0.0000000

LOEWDIN ATOMIC CHARGES
----------------------
   0 C :   -0.278235
   1 C :   -0.297411
   2 O :    0.157028
   3 C :   -0.275235
   4 C :   -0.259107
   5 C :   -0.215645
   6 C :   -0.286787
   7 O :    0.145555
   8 C :   -0.276968
   9 H :    0.135086
  10 H :    0.129750
  11 H :    0.144704
  12 H :    0.134591
  13 H :    0.129518
  14 H :    0.126163
  15 H :    0.138696
  16 H :    0.147597
  17 H :    0.118644
  18 H :    0.126422
  19 H :    0.130743
  20 H :    0.124891

  Mayer bond orders larger than 0.1
B(  0-C ,  1-C ) :   0.9016 B(  0-C ,  9-H ) :   0.9340 B(  0-C , 10-H ) :   0.9226
B(  0-C , 11-H ) :   0.9121 B(  1-C ,  2-O ) :   1.9895 B(  1-C ,  3-C ) :   0.8419
B(  3-C ,  4-C ) :   0.8852 B(  3-C ,  5-C ) :   0.8880 B(  3-C ,  8-C ) :   0.9072
B(  4-C , 12-H ) :   0.9381 B(  4-C , 13-H ) :   0.9282 B(  4-C , 14-H ) :   0.9287
B(  5-C ,  6-C ) :   0.9679 B(  5-C , 15-H ) :   0.9307 B(  5-C , 16-H ) :   0.9100
B(  6-C ,  7-O ) :   0.9218 B(  6-C , 17-H ) :   0.9257 B(  6-C , 18-H ) :   0.9232
B(  7-O ,  8-C ) :   0.9531 B(  8-C , 19-H ) :   0.9160 B(  8-C , 20-H ) :   0.9267

MP2 TOTAL ENERGY:     -423.547777399 Eh
FINAL SINGLE POINT ENERGY      -423.547777399422

DIPOLE MOMENT
-------------
                                X             Y             Z
Electronic contribution:     -2.34275      -1.63106       3.79191
Nuclear contribution   :      2.72535       1.97453      -4.63884
                        -----------------------------------------
Total Dipole Moment    :      0.38260       0.34347      -0.84692
                        -----------------------------------------
Magnitude (a.u.)       :      0.99077
Magnitude (Debye)      :      2.51835

                             ****ORCA TERMINATED NORMALLY****
TOTAL RUN TIME: 0 days 0 hours 22 minutes 18 seconds 259 msec
