                         Program Version 3.0.3 - RELEASE   -
|  1> ! RI-MP2 RIJK def2-TZVP def2-TZVP/C def2-TZVP/JK TIGHTSCF
|  2> % maxcore 2000
|  3> % mp2 density relaxed end
|  4> *xyz 0 1
|  5>  N       -0.0107508776     1.4124474830     0.1422145884
|  6>  C       -0.0061946830     0.0252115425     0.0444212135
|  7>  C       -1.1882225442    -0.7166849649     0.0395262409
|  8>  C       -1.1250493427    -2.1131488450     0.0028195875
|  9>  C        0.1424564901    -2.7180319819    -0.0290753181
| 10>  N        1.2754648517    -2.0202236969    -0.0283620780
| 11>  C        1.2011615443    -0.6933161924     0.0066436228
| 12>  C       -2.3079498343    -2.9047197353    -0.0042715445
| 13>  C       -3.3045928121    -3.5806354758    -0.0111827355
| 14>  H        0.8253052446     1.8684506340    -0.1928776905
| 15>  H       -0.8462631829     1.8675441384    -0.1948948582
| 16>  H       -2.1526570592    -0.2200516363     0.0670156596
| 17>  H        0.2250995505    -3.7999244921    -0.0586020443
| 18>  H        2.1464345177    -0.1518297185     0.0072512196
| 19>  H       -4.1820787329    -4.1781614489    -0.0162391331
| 20> *
| 21>
| 22>                          ****END OF INPUT****

CARTESIAN COORDINATES (ANGSTROEM)
---------------------------------
  N     -0.010751    1.412447    0.142215
  C     -0.006195    0.025212    0.044421
  C     -1.188223   -0.716685    0.039526
  C     -1.125049   -2.113149    0.002820
  C      0.142456   -2.718032   -0.029075
  N      1.275465   -2.020224   -0.028362
  C      1.201162   -0.693316    0.006644
  C     -2.307950   -2.904720   -0.004272
  C     -3.304593   -3.580635   -0.011183
  H      0.825305    1.868451   -0.192878
  H     -0.846263    1.867544   -0.194895
  H     -2.152657   -0.220052    0.067016
  H      0.225100   -3.799924   -0.058602
  H      2.146435   -0.151830    0.007251
  H     -4.182079   -4.178161   -0.016239

 Total Charge           Charge          ....    0
 Multiplicity           Mult            ....    1
 Number of Electrons    NEL             ....   62
 Basis Dimension        Dim             ....  315

ORBITAL ENERGIES
----------------

  NO   OCC          E(Eh)            E(eV)
   0   2.0000     -15.577648      -423.8894
   1   2.0000     -15.571875      -423.7323
   2   2.0000     -11.291624      -307.2607
   3   2.0000     -11.271943      -306.7252
   4   2.0000     -11.270522      -306.6865
   5   2.0000     -11.268704      -306.6370
   6   2.0000     -11.256758      -306.3120
   7   2.0000     -11.243975      -305.9641
   8   2.0000     -11.234483      -305.7058
   9   2.0000      -1.271548       -34.6006
  10   2.0000      -1.224128       -33.3102
  11   2.0000      -1.109368       -30.1874
  12   2.0000      -1.035078       -28.1659
  13   2.0000      -1.003827       -27.3155
  14   2.0000      -0.884786       -24.0762
  15   2.0000      -0.859693       -23.3934
  16   2.0000      -0.754744       -20.5376
  17   2.0000      -0.718529       -19.5522
  18   2.0000      -0.711651       -19.3650
  19   2.0000      -0.688664       -18.7395
  20   2.0000      -0.643439       -17.5089
  21   2.0000      -0.629262       -17.1231
  22   2.0000      -0.578978       -15.7548
  23   2.0000      -0.570943       -15.5361
  24   2.0000      -0.547434       -14.8964
  25   2.0000      -0.494012       -13.4428
  26   2.0000      -0.446942       -12.1619
  27   2.0000      -0.430938       -11.7264
  28   2.0000      -0.399042       -10.8585
  29   2.0000      -0.354226        -9.6390
  30   2.0000      -0.307294        -8.3619
  31   0.0000       0.081164         2.2086
  32   0.0000       0.117427         3.1954
  33   0.0000       0.127396         3.4666
  34   0.0000       0.160415         4.3651
  35   0.0000       0.164555         4.4778

MULLIKEN ATOMIC CHARGES
-----------------------
   0 N :   -0.507393
   1 C :    0.246222
   2 C :   -0.277637
   3 C :   -0.008765
   4 C :   -0.098909
   5 N :   -0.244399
   6 C :   -0.089328
   7 C :    0.016840
   8 C :   -0.125020
   9 H :    0.251542
  10 H :    0.251185
  11 H :    0.133270
  12 H :    0.138145
  13 H :    0.119223
  14 H :    0.195025
Sum of atomic charges:   -0.0000000

LOEWDIN ATOMIC CHARGES
----------------------
   0 N :   -0.059903
   1 C :   -0.244628
   2 C :   -0.071029
   3 C :   -0.151340
   4 C :   -0.179446
   5 N :    0.135933
   6 C :   -0.200018
   7 C :   -0.063264
   8 C :   -0.072908
   9 H :    0.170726
  10 H :    0.169457
  11 H :    0.154690
  12 H :    0.144883
  13 H :    0.138180
  14 H :    0.128665

  Mayer bond orders larger than 0.1
B(  0-N ,  1-C ) :   1.0478 B(  0-N ,  9-H ) :   0.8749 B(  0-N , 10-H ) :   0.8735
B(  1-C ,  2-C ) :   1.3075 B(  1-C ,  6-C ) :   1.2276 B(  2-C ,  3-C ) :   1.3475
B(  2-C , 11-H ) :   0.9286 B(  3-C ,  4-C ) :   1.2662 B(  3-C ,  7-C ) :   1.1268
B(  3-C ,  8-C ) :  -0.1558 B(  4-C ,  5-N ) :   1.3996 B(  4-C , 12-H ) :   0.9412
B(  5-N ,  6-C ) :   1.4285 B(  6-C , 13-H ) :   0.9576 B(  7-C ,  8-C ) :   2.5879
B(  8-C , 14-H ) :   0.8761

MP2 TOTAL ENERGY:     -379.002565161 Eh
FINAL SINGLE POINT ENERGY      -379.002565160572

DIPOLE MOMENT
-------------
                                X             Y             Z
Electronic contribution:     -0.00587      -2.52723       0.09203
Nuclear contribution   :     -0.60698       3.57955      -0.44919
                        -----------------------------------------
Total Dipole Moment    :     -0.61285       1.05232      -0.35716
                        -----------------------------------------
Magnitude (a.u.)       :      1.26907
Magnitude (Debye)      :      3.22571

                             ****ORCA TERMINATED NORMALLY****
TOTAL RUN TIME: 0 days 0 hours 15 minutes 24 seconds 307 msec
