                         Program Version 3.0.3 - RELEASE   -
|  1> ! RI-MP2 RIJK def2-TZVP def2-TZVP/C def2-TZVP/JK TIGHTSCF
|  2> % maxcore 2000
|  3> % mp2 density relaxed end
|  4> *xyz 0 1
|  5>  C        0.0934840125     1.3160876518    -0.2580806576
|  6>  C        0.2038366930    -0.1363651270     0.1176018048
|  7>  O        1.5216994587    -0.6828592011     0.2356147714
|  8>  C        0.7110673033    -0.6200478878     1.4259835263
|  9>  C        1.1395735316     0.3328355011     2.4258065369
| 10>  C        1.4699023816     1.0958024302     3.2943203318
| 11>  C        0.2702198361    -1.9502137985     1.9783798647
| 12>  C        0.2923637984    -3.1785860410     1.1089891102
| 13>  C        1.2966729031    -3.0270154147     2.2239042251
| 14>  H        0.7699341232     1.9280306814     0.3414996133
| 15>  H        0.3405450682     1.4514646051    -1.3161577079
| 16>  H       -0.9316786263     1.6692083185    -0.1039033744
| 17>  H       -0.4964358990    -0.8075329722    -0.3829605429
| 18>  H        1.7720800691     1.7738056451     4.0539707436
| 19>  H       -0.5313841696    -1.8662918464     2.7059993548
| 20>  H       -0.5117912252    -3.8965330574     1.2238327331
| 21>  H        0.6657566716    -3.0626342823     0.0983994241
| 22>  H        2.3199914611    -2.8099840399     1.9388465075
| 23>  H        1.1924870584    -3.6400910550     3.1117122752
| 24> *
| 25>
| 26>                          ****END OF INPUT****

CARTESIAN COORDINATES (ANGSTROEM)
---------------------------------
  C      0.093484    1.316088   -0.258081
  C      0.203837   -0.136365    0.117602
  O      1.521699   -0.682859    0.235615
  C      0.711067   -0.620048    1.425984
  C      1.139574    0.332836    2.425807
  C      1.469902    1.095802    3.294320
  C      0.270220   -1.950214    1.978380
  C      0.292364   -3.178586    1.108989
  C      1.296673   -3.027015    2.223904
  H      0.769934    1.928031    0.341500
  H      0.340545    1.451465   -1.316158
  H     -0.931679    1.669208   -0.103903
  H     -0.496436   -0.807533   -0.382961
  H      1.772080    1.773806    4.053971
  H     -0.531384   -1.866292    2.705999
  H     -0.511791   -3.896533    1.223833
  H      0.665757   -3.062634    0.098399
  H      2.319991   -2.809984    1.938847
  H      1.192487   -3.640091    3.111712

 Total Charge           Charge          ....    0
 Multiplicity           Mult            ....    1
 Number of Electrons    NEL             ....   66
 Basis Dimension        Dim             ....  339

ORBITAL ENERGIES
----------------

  NO   OCC          E(Eh)            E(eV)
   0   2.0000     -20.573378      -559.8301
   1   2.0000     -11.316552      -307.9390
   2   2.0000     -11.295269      -307.3599
   3   2.0000     -11.241433      -305.8949
   4   2.0000     -11.239267      -305.8360
   5   2.0000     -11.232443      -305.6503
   6   2.0000     -11.227186      -305.5073
   7   2.0000     -11.226167      -305.4795
   8   2.0000     -11.225161      -305.4522
   9   2.0000      -1.419055       -38.6144
  10   2.0000      -1.147278       -31.2190
  11   2.0000      -1.051508       -28.6130
  12   2.0000      -1.013151       -27.5692
  13   2.0000      -0.947683       -25.7878
  14   2.0000      -0.843746       -22.9595
  15   2.0000      -0.818502       -22.2726
  16   2.0000      -0.804784       -21.8993
  17   2.0000      -0.724536       -19.7156
  18   2.0000      -0.706601       -19.2276
  19   2.0000      -0.672421       -18.2975
  20   2.0000      -0.645305       -17.5596
  21   2.0000      -0.610012       -16.5993
  22   2.0000      -0.582472       -15.8499
  23   2.0000      -0.557657       -15.1746
  24   2.0000      -0.537821       -14.6349
  25   2.0000      -0.516634       -14.0583
  26   2.0000      -0.514083       -13.9889
  27   2.0000      -0.489165       -13.3109
  28   2.0000      -0.459560       -12.5053
  29   2.0000      -0.432537       -11.7699
  30   2.0000      -0.413922       -11.2634
  31   2.0000      -0.395272       -10.7559
  32   2.0000      -0.375677       -10.2227
  33   0.0000       0.146366         3.9828
  34   0.0000       0.153434         4.1752
  35   0.0000       0.156739         4.2651
  36   0.0000       0.164487         4.4759
  37   0.0000       0.168185         4.5765

MULLIKEN ATOMIC CHARGES
-----------------------
   0 C :   -0.393395
   1 C :    0.064094
   2 O :   -0.336019
   3 C :   -0.038034
   4 C :    0.022015
   5 C :   -0.091750
   6 C :   -0.110181
   7 C :   -0.258027
   8 C :   -0.280314
   9 H :    0.153568
  10 H :    0.140473
  11 H :    0.129215
  12 H :    0.119881
  13 H :    0.193510
  14 H :    0.129262
  15 H :    0.131519
  16 H :    0.148136
  17 H :    0.143746
  18 H :    0.132300
Sum of atomic charges:   -0.0000000

LOEWDIN ATOMIC CHARGES
----------------------
   0 C :   -0.287016
   1 C :   -0.251586
   2 O :    0.199162
   3 C :   -0.281481
   4 C :   -0.055421
   5 C :   -0.075442
   6 C :   -0.183930
   7 C :   -0.220324
   8 C :   -0.212369
   9 H :    0.136486
  10 H :    0.130954
  11 H :    0.132069
  12 H :    0.141447
  13 H :    0.128598
  14 H :    0.156947
  15 H :    0.130756
  16 H :    0.139549
  17 H :    0.140406
  18 H :    0.131196

  Mayer bond orders larger than 0.1
B(  0-C ,  1-C ) :   0.8879 B(  0-C ,  9-H ) :   0.9383 B(  0-C , 10-H ) :   0.9362
B(  0-C , 11-H ) :   0.9241 B(  1-C ,  2-O ) :   0.8805 B(  1-C ,  3-C ) :   0.9712
B(  1-C , 12-H ) :   0.9034 B(  2-O ,  3-C ) :   0.8470 B(  3-C ,  4-C ) :   1.2059
B(  3-C ,  5-C ) :  -0.1608 B(  3-C ,  6-C ) :   0.9263 B(  4-C ,  5-C ) :   2.5980
B(  5-C , 13-H ) :   0.8759 B(  6-C ,  7-C ) :   0.8862 B(  6-C ,  8-C ) :   0.8828
B(  6-C , 14-H ) :   0.9230 B(  7-C ,  8-C ) :   0.9095 B(  7-C , 15-H ) :   0.9284
B(  7-C , 16-H ) :   0.9187 B(  8-C , 17-H ) :   0.9228 B(  8-C , 18-H ) :   0.9303

MP2 TOTAL ENERGY:     -385.138321173 Eh
FINAL SINGLE POINT ENERGY      -385.138321172820

DIPOLE MOMENT
-------------
                                X             Y             Z
Electronic contribution:      2.31877       1.57667       1.80891
Nuclear contribution   :     -2.96007      -1.44210      -1.62043
                        -----------------------------------------
Total Dipole Moment    :     -0.64130       0.13457       0.18848
                        -----------------------------------------
Magnitude (a.u.)       :      0.68183
Magnitude (Debye)      :      1.73309

                             ****ORCA TERMINATED NORMALLY****
TOTAL RUN TIME: 0 days 0 hours 19 minutes 11 seconds 626 msec
