                         Program Version 3.0.3 - RELEASE   -
|  1> ! RI-MP2 RIJK def2-TZVP def2-TZVP/C def2-TZVP/JK TIGHTSCF
|  2> % maxcore 2000
|  3> % mp2 density relaxed end
|  4> *xyz 0 1
|  5>  C       -0.1684706763     1.4968703533    -0.0377689450
|  6>  C        0.1122906317     0.0309086436     0.0327517472
|  7>  C        0.7711819956    -0.8466279117    -0.9354484756
|  8>  C        1.6809107925    -1.8715207154    -0.2650794319
|  9>  C        1.4369591622    -1.6516497659     1.2511611564
| 10>  C        0.1006649114    -0.8858143715     1.2877421303
| 11>  C       -0.9449592546    -1.6807079654     0.5008345963
| 12>  O       -1.7757963827    -2.4943938860     0.7670512776
| 13>  N       -0.7309514429    -1.0004762288    -0.7600013022
| 14>  H        0.6550864052     2.0708875659     0.4016181452
| 15>  H       -0.2911180423     1.8151657006    -1.0765680500
| 16>  H       -1.0843329926     1.7503118442     0.5058837717
| 17>  H        0.9999549024    -0.4974525808    -1.9371308540
| 18>  H        1.4256599966    -2.8876224637    -0.5826583633
| 19>  H        2.7235534394    -1.6964264145    -0.5454417415
| 20>  H        1.3859420416    -2.5871735065     1.8139751583
| 21>  H        2.2292999597    -1.0369225727     1.6907676601
| 22>  H       -0.1970995070    -0.4863974247     2.2566273303
| 23> *
| 24>
| 25>                          ****END OF INPUT****

CARTESIAN COORDINATES (ANGSTROEM)
---------------------------------
  C     -0.168471    1.496870   -0.037769
  C      0.112291    0.030909    0.032752
  C      0.771182   -0.846628   -0.935448
  C      1.680911   -1.871521   -0.265079
  C      1.436959   -1.651650    1.251161
  C      0.100665   -0.885814    1.287742
  C     -0.944959   -1.680708    0.500835
  O     -1.775796   -2.494394    0.767051
  N     -0.730951   -1.000476   -0.760001
  H      0.655086    2.070888    0.401618
  H     -0.291118    1.815166   -1.076568
  H     -1.084333    1.750312    0.505884
  H      0.999955   -0.497453   -1.937131
  H      1.425660   -2.887622   -0.582658
  H      2.723553   -1.696426   -0.545442
  H      1.385942   -2.587174    1.813975
  H      2.229300   -1.036923    1.690768
  H     -0.197100   -0.486397    2.256627

 Total Charge           Charge          ....    0
 Multiplicity           Mult            ....    1
 Number of Electrons    NEL             ....   66
 Basis Dimension        Dim             ....  333

ORBITAL ENERGIES
----------------

  NO   OCC          E(Eh)            E(eV)
   0   2.0000     -20.543944      -559.0291
   1   2.0000     -15.576386      -423.8550
   2   2.0000     -11.351130      -308.8800
   3   2.0000     -11.290096      -307.2191
   4   2.0000     -11.286738      -307.1278
   5   2.0000     -11.258932      -306.3711
   6   2.0000     -11.249217      -306.1068
   7   2.0000     -11.246857      -306.0425
   8   2.0000     -11.242235      -305.9168
   9   2.0000      -1.402628       -38.1675
  10   2.0000      -1.310731       -35.6668
  11   2.0000      -1.085360       -29.5342
  12   2.0000      -1.021812       -27.8049
  13   2.0000      -1.014443       -27.6044
  14   2.0000      -0.894180       -24.3319
  15   2.0000      -0.853461       -23.2238
  16   2.0000      -0.763219       -20.7683
  17   2.0000      -0.712049       -19.3759
  18   2.0000      -0.686470       -18.6798
  19   2.0000      -0.677893       -18.4464
  20   2.0000      -0.628262       -17.0959
  21   2.0000      -0.616672       -16.7805
  22   2.0000      -0.591002       -16.0820
  23   2.0000      -0.583065       -15.8660
  24   2.0000      -0.557017       -15.1572
  25   2.0000      -0.544784       -14.8243
  26   2.0000      -0.533957       -14.5297
  27   2.0000      -0.526647       -14.3308
  28   2.0000      -0.499181       -13.5834
  29   2.0000      -0.466426       -12.6921
  30   2.0000      -0.436163       -11.8686
  31   2.0000      -0.421283       -11.4637
  32   2.0000      -0.380760       -10.3610
  33   0.0000       0.117700         3.2028
  34   0.0000       0.147988         4.0270
  35   0.0000       0.156989         4.2719
  36   0.0000       0.166320         4.5258
  37   0.0000       0.175989         4.7889

MULLIKEN ATOMIC CHARGES
-----------------------
   0 C :   -0.423653
   1 C :    0.126308
   2 C :   -0.122718
   3 C :   -0.206723
   4 C :   -0.283784
   5 C :   -0.017078
   6 C :    0.126639
   7 O :   -0.241299
   8 N :   -0.202147
   9 H :    0.139798
  10 H :    0.150386
  11 H :    0.145443
  12 H :    0.136063
  13 H :    0.137492
  14 H :    0.131196
  15 H :    0.139444
  16 H :    0.123640
  17 H :    0.140993
Sum of atomic charges:    0.0000000

LOEWDIN ATOMIC CHARGES
----------------------
   0 C :   -0.265664
   1 C :   -0.200550
   2 C :   -0.183020
   3 C :   -0.226450
   4 C :   -0.215734
   5 C :   -0.153264
   6 C :   -0.376125
   7 O :    0.164705
   8 N :    0.176563
   9 H :    0.133851
  10 H :    0.138119
  11 H :    0.135142
  12 H :    0.149755
  13 H :    0.145639
  14 H :    0.142450
  15 H :    0.141943
  16 H :    0.140073
  17 H :    0.152565

  Mayer bond orders larger than 0.1
B(  0-C ,  1-C ) :   0.8505 B(  0-C ,  9-H ) :   0.9360 B(  0-C , 10-H ) :   0.9424
B(  0-C , 11-H ) :   0.9352 B(  1-C ,  2-C ) :   0.9480 B(  1-C ,  5-C ) :   0.8185
B(  1-C ,  8-N ) :   0.7449 B(  2-C ,  3-C ) :   0.9091 B(  2-C ,  8-N ) :   0.8789
B(  2-C , 12-H ) :   0.9251 B(  3-C ,  4-C ) :   0.9849 B(  3-C , 13-H ) :   0.9129
B(  3-C , 14-H ) :   0.9213 B(  4-C ,  5-C ) :   0.8987 B(  4-C , 15-H ) :   0.9279
B(  4-C , 16-H ) :   0.9225 B(  5-C ,  6-C ) :   0.9062 B(  5-C , 17-H ) :   0.8997
B(  6-C ,  7-O ) :   2.0779 B(  6-C ,  8-N ) :   1.0127

MP2 TOTAL ENERGY:     -401.261723420 Eh
FINAL SINGLE POINT ENERGY      -401.261723420086

DIPOLE MOMENT
-------------
                                X             Y             Z
Electronic contribution:     -5.43304      -4.06294      -0.34249
Nuclear contribution   :      6.97718       5.03843       0.57708
                        -----------------------------------------
Total Dipole Moment    :      1.54414       0.97549       0.23460
                        -----------------------------------------
Magnitude (a.u.)       :      1.84146
Magnitude (Debye)      :      4.68062

                             ****ORCA TERMINATED NORMALLY****
TOTAL RUN TIME: 0 days 0 hours 19 minutes 38 seconds 992 msec
