                         Program Version 3.0.3 - RELEASE   -
|  1> ! RI-MP2 RIJK def2-TZVP def2-TZVP/C def2-TZVP/JK TIGHTSCF
|  2> % maxcore 2000
|  3> % mp2 density relaxed end
|  4> *xyz 0 1
|  5>  N       -0.3996323831     1.6033060396    -0.2177791618
|  6>  C        0.0108952945     0.1968933901    -0.0844904632
|  7>  C       -1.1158860618    -0.6389379160     0.3369370945
|  8>  C       -2.0375769467    -1.3442081723     0.6479585840
|  9>  C        0.6574745195    -0.3646345184    -1.3351527333
| 10>  N        1.6363547333     0.2196297967    -2.0062671219
| 11>  C        1.8601358084    -0.6469750014    -3.0322558027
| 12>  N        1.0891827899    -1.7225719702    -3.0411533253
| 13>  N        0.3244724024    -1.5195807142    -1.9419205352
| 14>  H        0.3974616526     2.1162230672    -0.5886658475
| 15>  H       -1.1275416087     1.6667266089    -0.9254557378
| 16>  H        0.7715147068     0.1700306590     0.7080448700
| 17>  H       -2.8558787635    -1.9500038545     0.9523125158
| 18>  H        2.6095391421    -0.4813015014    -3.7917313757
| 19>  H       -0.3858683459    -2.1815493931    -1.6721051398
| 20> *
| 21>
| 22>                          ****END OF INPUT****

CARTESIAN COORDINATES (ANGSTROEM)
---------------------------------
  N     -0.399632    1.603306   -0.217779
  C      0.010895    0.196893   -0.084490
  C     -1.115886   -0.638938    0.336937
  C     -2.037577   -1.344208    0.647959
  C      0.657475   -0.364635   -1.335153
  N      1.636355    0.219630   -2.006267
  C      1.860136   -0.646975   -3.032256
  N      1.089183   -1.722572   -3.041153
  N      0.324472   -1.519581   -1.941921
  H      0.397462    2.116223   -0.588666
  H     -1.127542    1.666727   -0.925456
  H      0.771515    0.170031    0.708045
  H     -2.855879   -1.950004    0.952313
  H      2.609539   -0.481302   -3.791731
  H     -0.385868   -2.181549   -1.672105

 Total Charge           Charge          ....    0
 Multiplicity           Mult            ....    1
 Number of Electrons    NEL             ....   64
 Basis Dimension        Dim             ....  315

ORBITAL ENERGIES
----------------

  NO   OCC          E(Eh)            E(eV)
   0   2.0000     -15.653577      -425.9555
   1   2.0000     -15.597166      -424.4205
   2   2.0000     -15.566967      -423.5987
   3   2.0000     -15.560739      -423.4292
   4   2.0000     -11.327946      -308.2491
   5   2.0000     -11.321863      -308.0836
   6   2.0000     -11.291315      -307.2523
   7   2.0000     -11.259565      -306.3883
   8   2.0000     -11.251501      -306.1689
   9   2.0000      -1.417955       -38.5845
  10   2.0000      -1.227656       -33.4062
  11   2.0000      -1.196484       -32.5580
  12   2.0000      -1.122416       -30.5425
  13   2.0000      -1.059546       -28.8317
  14   2.0000      -0.965426       -26.2706
  15   2.0000      -0.855547       -23.2806
  16   2.0000      -0.832222       -22.6459
  17   2.0000      -0.773526       -21.0487
  18   2.0000      -0.734092       -19.9757
  19   2.0000      -0.702775       -19.1235
  20   2.0000      -0.649581       -17.6760
  21   2.0000      -0.641810       -17.4645
  22   2.0000      -0.623309       -16.9611
  23   2.0000      -0.596339       -16.2272
  24   2.0000      -0.584000       -15.8915
  25   2.0000      -0.513128       -13.9629
  26   2.0000      -0.457077       -12.4377
  27   2.0000      -0.441761       -12.0209
  28   2.0000      -0.424016       -11.5380
  29   2.0000      -0.418311       -11.3828
  30   2.0000      -0.412556       -11.2262
  31   2.0000      -0.371998       -10.1226
  32   0.0000       0.118750         3.2314
  33   0.0000       0.140659         3.8275
  34   0.0000       0.150670         4.1000
  35   0.0000       0.155976         4.2443
  36   0.0000       0.160927         4.3790

MULLIKEN ATOMIC CHARGES
-----------------------
   0 N :   -0.509030
   1 C :    0.036992
   2 C :   -0.097438
   3 C :   -0.108592
   4 C :    0.060461
   5 N :   -0.320939
   6 C :    0.037839
   7 N :   -0.231457
   8 N :   -0.102166
   9 H :    0.248590
  10 H :    0.228713
  11 H :    0.136909
  12 H :    0.201600
  13 H :    0.145028
  14 H :    0.273488
Sum of atomic charges:   -0.0000000

LOEWDIN ATOMIC CHARGES
----------------------
   0 N :   -0.123594
   1 C :   -0.286642
   2 C :   -0.084549
   3 C :   -0.084083
   4 C :   -0.316667
   5 N :    0.093333
   6 C :   -0.340588
   7 N :    0.019906
   8 N :    0.155946
   9 H :    0.164218
  10 H :    0.160924
  11 H :    0.180008
  12 H :    0.131351
  13 H :    0.131331
  14 H :    0.199106

  Mayer bond orders larger than 0.1
B(  0-N ,  1-C ) :   0.9158 B(  0-N ,  9-H ) :   0.8858 B(  0-N , 10-H ) :   0.8871
B(  1-C ,  2-C ) :   1.1882 B(  1-C ,  3-C ) :  -0.1016 B(  1-C ,  4-C ) :   0.9447
B(  1-C , 11-H ) :   0.8800 B(  2-C ,  3-C ) :   2.5679 B(  3-C , 12-H ) :   0.8918
B(  4-C ,  5-N ) :   1.5129 B(  4-C ,  8-N ) :   1.2427 B(  5-N ,  6-C ) :   1.2975
B(  6-C ,  7-N ) :   1.5117 B(  6-C , 13-H ) :   0.9359 B(  7-N ,  8-N ) :   1.0500
B(  8-N , 14-H ) :   0.8516

MP2 TOTAL ENERGY:     -412.261398993 Eh
FINAL SINGLE POINT ENERGY      -412.261398992857

DIPOLE MOMENT
-------------
                                X             Y             Z
Electronic contribution:      1.23138      -2.32594      -1.61460
Nuclear contribution   :     -1.88252       1.87863       1.81733
                        -----------------------------------------
Total Dipole Moment    :     -0.65114      -0.44731       0.20273
                        -----------------------------------------
Magnitude (a.u.)       :      0.81558
Magnitude (Debye)      :      2.07303

                             ****ORCA TERMINATED NORMALLY****
TOTAL RUN TIME: 0 days 0 hours 15 minutes 6 seconds 715 msec
