                         Program Version 3.0.3 - RELEASE   -
|  1> ! RI-MP2 RIJK def2-TZVP def2-TZVP/C def2-TZVP/JK TIGHTSCF
|  2> % maxcore 2000
|  3> % mp2 density relaxed end
|  4> *xyz 0 1
|  5>  O        0.1505190319     1.4014068050    -0.2686007055
|  6>  C        0.0397561233     0.0173601839    -0.1021335429
|  7>  C        0.0769116558    -0.6070293180     1.3063212016
|  8>  C       -1.4539813300    -0.3555370084     1.5497188074
|  9>  O       -1.7352471082    -1.7418490069     1.9048207053
| 10>  C       -0.7609720148    -1.8334567411     0.8361979407
| 11>  C       -1.3709042682    -0.6321326666     0.0104510274
| 12>  C       -2.4856173757    -0.6765869688    -0.9715076474
| 13>  O       -3.5921796543    -0.2479562496    -0.7548104707
| 14>  H       -0.4105085329     1.8465320605     0.3759523185
| 15>  H        0.7081787853    -0.4330436233    -0.8404676849
| 16>  H        0.8648048080    -0.6080881817     2.0583096688
| 17>  H       -1.9753690279     0.4303646862     2.0928224621
| 18>  H       -0.4367005318    -2.8121856797     0.4860865762
| 19>  H       -2.2240395805    -1.1352574114    -1.9520073565
| 20> *
| 21>
| 22>                          ****END OF INPUT****

CARTESIAN COORDINATES (ANGSTROEM)
---------------------------------
  O      0.150519    1.401407   -0.268601
  C      0.039756    0.017360   -0.102134
  C      0.076912   -0.607029    1.306321
  C     -1.453981   -0.355537    1.549719
  O     -1.735247   -1.741849    1.904821
  C     -0.760972   -1.833457    0.836198
  C     -1.370904   -0.632133    0.010451
  C     -2.485617   -0.676587   -0.971508
  O     -3.592180   -0.247956   -0.754810
  H     -0.410509    1.846532    0.375952
  H      0.708179   -0.433044   -0.840468
  H      0.864805   -0.608088    2.058310
  H     -1.975369    0.430365    2.092822
  H     -0.436701   -2.812186    0.486087
  H     -2.224040   -1.135257   -1.952007

 Total Charge           Charge          ....    0
 Multiplicity           Mult            ....    1
 Number of Electrons    NEL             ....   66
 Basis Dimension        Dim             ....  315

ORBITAL ENERGIES
----------------

  NO   OCC          E(Eh)            E(eV)
   0   2.0000     -20.582622      -560.0816
   1   2.0000     -20.570465      -559.7508
   2   2.0000     -20.569711      -559.7303
   3   2.0000     -11.345218      -308.7191
   4   2.0000     -11.332703      -308.3785
   5   2.0000     -11.326491      -308.2095
   6   2.0000     -11.319849      -308.0288
   7   2.0000     -11.275468      -306.8211
   8   2.0000     -11.271122      -306.7028
   9   2.0000      -1.431748       -38.9598
  10   2.0000      -1.404927       -38.2300
  11   2.0000      -1.391624       -37.8680
  12   2.0000      -1.181273       -32.1441
  13   2.0000      -0.967882       -26.3374
  14   2.0000      -0.920425       -25.0460
  15   2.0000      -0.901846       -24.5405
  16   2.0000      -0.829206       -22.5638
  17   2.0000      -0.752640       -20.4804
  18   2.0000      -0.727677       -19.8011
  19   2.0000      -0.713698       -19.4207
  20   2.0000      -0.669712       -18.2238
  21   2.0000      -0.657465       -17.8905
  22   2.0000      -0.643601       -17.5133
  23   2.0000      -0.593574       -16.1520
  24   2.0000      -0.585129       -15.9222
  25   2.0000      -0.575312       -15.6550
  26   2.0000      -0.542251       -14.7554
  27   2.0000      -0.494332       -13.4515
  28   2.0000      -0.481078       -13.0908
  29   2.0000      -0.468836       -12.7577
  30   2.0000      -0.458835       -12.4855
  31   2.0000      -0.423321       -11.5191
  32   2.0000      -0.410518       -11.1708
  33   0.0000       0.104692         2.8488
  34   0.0000       0.129442         3.5223
  35   0.0000       0.139517         3.7964
  36   0.0000       0.160632         4.3710
  37   0.0000       0.169816         4.6209

MULLIKEN ATOMIC CHARGES
-----------------------
   0 O :   -0.447190
   1 C :    0.050248
   2 C :   -0.087495
   3 C :   -0.022762
   4 O :   -0.321925
   5 C :    0.002773
   6 C :    0.073688
   7 C :    0.028624
   8 O :   -0.249863
   9 H :    0.321672
  10 H :    0.119627
  11 H :    0.151297
  12 H :    0.148468
  13 H :    0.146488
  14 H :    0.086349
Sum of atomic charges:    0.0000000

LOEWDIN ATOMIC CHARGES
----------------------
   0 O :    0.002964
   1 C :   -0.272388
   2 C :   -0.123301
   3 C :   -0.164458
   4 O :    0.145256
   5 C :   -0.162360
   6 C :   -0.156999
   7 C :   -0.261433
   8 O :    0.149863
   9 H :    0.181962
  10 H :    0.143349
  11 H :    0.133749
  12 H :    0.132908
  13 H :    0.133410
  14 H :    0.117478

  Mayer bond orders larger than 0.1
B(  0-O ,  1-C ) :   0.9895 B(  0-O ,  9-H ) :   0.8349 B(  1-C ,  2-C ) :   0.8721
B(  1-C ,  6-C ) :   0.8568 B(  1-C , 10-H ) :   0.9485 B(  2-C ,  3-C ) :   0.8363
B(  2-C ,  5-C ) :   0.8572 B(  2-C , 11-H ) :   0.9043 B(  3-C ,  4-O ) :   0.9133
B(  3-C ,  6-C ) :   0.8069 B(  3-C , 12-H ) :   0.9067 B(  4-O ,  5-C ) :   0.9308
B(  5-C ,  6-C ) :   0.8514 B(  5-C , 13-H ) :   0.8910 B(  6-C ,  7-C ) :   0.7726
B(  7-C ,  8-O ) :   2.0167 B(  7-C , 14-H ) :   0.9677

MP2 TOTAL ENERGY:     -456.925418903 Eh
FINAL SINGLE POINT ENERGY      -456.925418903445

DIPOLE MOMENT
-------------
                                X             Y             Z
Electronic contribution:     -2.71051      -0.30447       0.08430
Nuclear contribution   :      3.76584       0.20234      -0.05926
                        -----------------------------------------
Total Dipole Moment    :      1.05533      -0.10214       0.02505
                        -----------------------------------------
Magnitude (a.u.)       :      1.06056
Magnitude (Debye)      :      2.69572

                             ****ORCA TERMINATED NORMALLY****
TOTAL RUN TIME: 0 days 0 hours 14 minutes 24 seconds 995 msec
