                         Program Version 3.0.3 - RELEASE   -
|  1> ! RI-MP2 RIJK def2-TZVP def2-TZVP/C def2-TZVP/JK TIGHTSCF
|  2> % maxcore 2000
|  3> % mp2 density relaxed end
|  4> *xyz 0 1
|  5>  C        0.1365938589     1.7151630658     0.0246485764
|  6>  C        0.0901391328     0.1936220566    -0.0030584795
|  7>  C        0.6909129554    -0.6042965750    -1.2183970058
|  8>  O        1.5333298077     0.1264152881    -2.0787512951
|  9>  C        1.3959650295    -1.6064674859    -0.2204683619
| 10>  C        0.6000019979    -2.9092271918    -0.0530484592
| 11>  C        2.8815564790    -1.8861235960    -0.4265985344
| 12>  C        1.0582180734    -0.5929019428     0.8958681953
| 13>  O        1.4933204039    -0.4110759108     1.9983250591
| 14>  H        1.1382977043     2.0971892397    -0.1949464836
| 15>  H       -0.5511135193     2.1451891336    -0.7089484571
| 16>  H       -0.1407551345     2.0807381115     1.0173080660
| 17>  H       -0.9323843662    -0.1530782956     0.1919250145
| 18>  H       -0.0496465882    -1.0713803198    -1.8708156245
| 19>  H        2.2025827714     0.5838313154    -1.5592793216
| 20>  H        0.7164621694    -3.5388227503    -0.9419844050
| 21>  H        0.9566231024    -3.4721508033     0.8152030249
| 22>  H       -0.4697631529    -2.7216174372     0.0861599878
| 23>  H        3.4654086429    -0.9702302409    -0.5565284168
| 24>  H        3.2867503711    -2.4078337627     0.4456028889
| 25>  H        3.0414581213    -2.5111476984    -1.3108245686
| 26> *
| 27>
| 28>                          ****END OF INPUT****

CARTESIAN COORDINATES (ANGSTROEM)
---------------------------------
  C      0.136594    1.715163    0.024649
  C      0.090139    0.193622   -0.003058
  C      0.690913   -0.604297   -1.218397
  O      1.533330    0.126415   -2.078751
  C      1.395965   -1.606467   -0.220468
  C      0.600002   -2.909227   -0.053048
  C      2.881556   -1.886124   -0.426599
  C      1.058218   -0.592902    0.895868
  O      1.493320   -0.411076    1.998325
  H      1.138298    2.097189   -0.194946
  H     -0.551114    2.145189   -0.708948
  H     -0.140755    2.080738    1.017308
  H     -0.932384   -0.153078    0.191925
  H     -0.049647   -1.071380   -1.870816
  H      2.202583    0.583831   -1.559279
  H      0.716462   -3.538823   -0.941984
  H      0.956623   -3.472151    0.815203
  H     -0.469763   -2.721617    0.086160
  H      3.465409   -0.970230   -0.556528
  H      3.286750   -2.407834    0.445603
  H      3.041458   -2.511148   -1.310825

 Total Charge           Charge          ....    0
 Multiplicity           Mult            ....    1
 Number of Electrons    NEL             ....   70
 Basis Dimension        Dim             ....  351

ORBITAL ENERGIES
----------------

  NO   OCC          E(Eh)            E(eV)
   0   2.0000     -20.570318      -559.7468
   1   2.0000     -20.555041      -559.3311
   2   2.0000     -11.327153      -308.2275
   3   2.0000     -11.294637      -307.3427
   4   2.0000     -11.251274      -306.1627
   5   2.0000     -11.246126      -306.0226
   6   2.0000     -11.235354      -305.7295
   7   2.0000     -11.230644      -305.6013
   8   2.0000     -11.228093      -305.5320
   9   2.0000      -1.396981       -38.0138
  10   2.0000      -1.378140       -37.5011
  11   2.0000      -1.144742       -31.1500
  12   2.0000      -1.047562       -28.5056
  13   2.0000      -0.956596       -26.0303
  14   2.0000      -0.946049       -25.7433
  15   2.0000      -0.861674       -23.4473
  16   2.0000      -0.814850       -22.1732
  17   2.0000      -0.714683       -19.4475
  18   2.0000      -0.684757       -18.6332
  19   2.0000      -0.659695       -17.9512
  20   2.0000      -0.647875       -17.6296
  21   2.0000      -0.632845       -17.2206
  22   2.0000      -0.613837       -16.7034
  23   2.0000      -0.576176       -15.6785
  24   2.0000      -0.570589       -15.5265
  25   2.0000      -0.560373       -15.2485
  26   2.0000      -0.551710       -15.0128
  27   2.0000      -0.547198       -14.8900
  28   2.0000      -0.533141       -14.5075
  29   2.0000      -0.530070       -14.4239
  30   2.0000      -0.509806       -13.8725
  31   2.0000      -0.483891       -13.1673
  32   2.0000      -0.470228       -12.7955
  33   2.0000      -0.417464       -11.3598
  34   2.0000      -0.385656       -10.4942
  35   0.0000       0.107933         2.9370
  36   0.0000       0.135827         3.6960
  37   0.0000       0.142641         3.8815
  38   0.0000       0.162203         4.4138
  39   0.0000       0.182454         4.9648

MULLIKEN ATOMIC CHARGES
-----------------------
   0 C :   -0.395219
   1 C :    0.001007
   2 C :   -0.068423
   3 O :   -0.438082
   4 C :    0.202335
   5 C :   -0.437269
   6 C :   -0.371339
   7 C :   -0.022105
   8 O :   -0.252578
   9 H :    0.103383
  10 H :    0.144327
  11 H :    0.151076
  12 H :    0.129414
  13 H :    0.120784
  14 H :    0.313323
  15 H :    0.142740
  16 H :    0.146313
  17 H :    0.135717
  18 H :    0.103543
  19 H :    0.149275
  20 H :    0.141777
Sum of atomic charges:    0.0000000

LOEWDIN ATOMIC CHARGES
----------------------
   0 C :   -0.289262
   1 C :   -0.215236
   2 C :   -0.255981
   3 O :    0.005469
   4 C :   -0.262432
   5 C :   -0.258086
   6 C :   -0.264740
   7 C :   -0.267525
   8 O :    0.166004
   9 H :    0.120503
  10 H :    0.129667
  11 H :    0.133557
  12 H :    0.166045
  13 H :    0.138948
  14 H :    0.173288
  15 H :    0.130586
  16 H :    0.132405
  17 H :    0.128316
  18 H :    0.121431
  19 H :    0.135227
  20 H :    0.131815

  Mayer bond orders larger than 0.1
B(  0-C ,  1-C ) :   0.8896 B(  0-C ,  9-H ) :   0.9290 B(  0-C , 10-H ) :   0.9380
B(  0-C , 11-H ) :   0.9377 B(  1-C ,  2-C ) :   0.9093 B(  1-C ,  4-C ) :  -0.1272
B(  1-C ,  7-C ) :   0.8351 B(  1-C , 12-H ) :   0.8883 B(  2-C ,  3-O ) :   0.9995
B(  2-C ,  4-C ) :   0.8651 B(  2-C , 13-H ) :   0.9306 B(  3-O , 14-H ) :   0.8367
B(  4-C ,  5-C ) :   0.8888 B(  4-C ,  6-C ) :   0.9104 B(  4-C ,  7-C ) :   0.7660
B(  5-C , 15-H ) :   0.9381 B(  5-C , 16-H ) :   0.9346 B(  5-C , 17-H ) :   0.9252
B(  6-C , 18-H ) :   0.9199 B(  6-C , 19-H ) :   0.9359 B(  6-C , 20-H ) :   0.9362
B(  7-C ,  8-O ) :   2.0659

MP2 TOTAL ENERGY:     -423.534480085 Eh
FINAL SINGLE POINT ENERGY      -423.534480085397

DIPOLE MOMENT
-------------
                                X             Y             Z
Electronic contribution:      0.41446       1.82484       2.35332
Nuclear contribution   :     -0.71234      -2.02662      -2.72530
                        -----------------------------------------
Total Dipole Moment    :     -0.29788      -0.20178      -0.37198
                        -----------------------------------------
Magnitude (a.u.)       :      0.51751
Magnitude (Debye)      :      1.31540

                             ****ORCA TERMINATED NORMALLY****
TOTAL RUN TIME: 0 days 0 hours 20 minutes 13 seconds 432 msec
