                         Program Version 3.0.3 - RELEASE   -
|  1> ! RI-MP2 RIJK def2-TZVP def2-TZVP/C def2-TZVP/JK TIGHTSCF
|  2> % maxcore 2000
|  3> % mp2 density relaxed end
|  4> *xyz 0 1
|  5>  O        0.0365481932    -0.0328849811    -0.1465631837
|  6>  C        0.0048162735     1.1721973846    -0.0265475062
|  7>  N       -1.0623578355     2.0225775477     0.1608865407
|  8>  N       -0.7151031136     3.3524470690     0.2771449797
|  9>  C        0.5778005227     3.3618885816     0.1381120597
| 10>  N        1.0672912675     2.0875336241    -0.0441613460
| 11>  C        1.4293806283     4.5617096465     0.1293292824
| 12>  C        1.2540084876     5.5989017372    -0.9724641580
| 13>  C        0.8190324020     5.9084088106     0.4288229627
| 14>  H       -2.0200523817     1.7398737261     0.2677822282
| 15>  H        2.0231659332     1.8138783510    -0.1908866990
| 16>  H        2.4452961043     4.3889239177     0.4704825108
| 17>  H        2.1486908341     6.0725795017    -1.3609938974
| 18>  H        0.4831696350     5.4001876122    -1.7078707353
| 19>  H       -0.2436460544     5.9182170901     0.6384944403
| 20>  H        1.4107062538     6.6015649611     1.0152327710
| 21> *
| 22>
| 23>                          ****END OF INPUT****

CARTESIAN COORDINATES (ANGSTROEM)
---------------------------------
  O      0.036548   -0.032885   -0.146563
  C      0.004816    1.172197   -0.026548
  N     -1.062358    2.022578    0.160887
  N     -0.715103    3.352447    0.277145
  C      0.577801    3.361889    0.138112
  N      1.067291    2.087534   -0.044161
  C      1.429381    4.561710    0.129329
  C      1.254008    5.598902   -0.972464
  C      0.819032    5.908409    0.428823
  H     -2.020052    1.739874    0.267782
  H      2.023166    1.813878   -0.190887
  H      2.445296    4.388924    0.470483
  H      2.148691    6.072580   -1.360994
  H      0.483170    5.400188   -1.707871
  H     -0.243646    5.918217    0.638494
  H      1.410706    6.601565    1.015233

 Total Charge           Charge          ....    0
 Multiplicity           Mult            ....    1
 Number of Electrons    NEL             ....   66
 Basis Dimension        Dim             ....  321

ORBITAL ENERGIES
----------------

  NO   OCC          E(Eh)            E(eV)
   0   2.0000     -20.515903      -558.2661
   1   2.0000     -15.620166      -425.0463
   2   2.0000     -15.620114      -425.0449
   3   2.0000     -15.596181      -424.3937
   4   2.0000     -11.384094      -309.7769
   5   2.0000     -11.330424      -308.3165
   6   2.0000     -11.266238      -306.5699
   7   2.0000     -11.251954      -306.1812
   8   2.0000     -11.247203      -306.0519
   9   2.0000      -1.427767       -38.8515
  10   2.0000      -1.353116       -36.8202
  11   2.0000      -1.228924       -33.4407
  12   2.0000      -1.175167       -31.9779
  13   2.0000      -1.101379       -29.9701
  14   2.0000      -0.919213       -25.0130
  15   2.0000      -0.877184       -23.8694
  16   2.0000      -0.843665       -22.9573
  17   2.0000      -0.794235       -21.6122
  18   2.0000      -0.749726       -20.4011
  19   2.0000      -0.689109       -18.7516
  20   2.0000      -0.675573       -18.3833
  21   2.0000      -0.658960       -17.9312
  22   2.0000      -0.655205       -17.8290
  23   2.0000      -0.624706       -16.9991
  24   2.0000      -0.558879       -15.2079
  25   2.0000      -0.538875       -14.6635
  26   2.0000      -0.519376       -14.1329
  27   2.0000      -0.508048       -13.8247
  28   2.0000      -0.481788       -13.1101
  29   2.0000      -0.458365       -12.4728
  30   2.0000      -0.440141       -11.9769
  31   2.0000      -0.430634       -11.7181
  32   2.0000      -0.335208        -9.1215
  33   0.0000       0.125818         3.4237
  34   0.0000       0.146631         3.9900
  35   0.0000       0.155550         4.2327
  36   0.0000       0.158428         4.3111
  37   0.0000       0.171482         4.6663

MULLIKEN ATOMIC CHARGES
-----------------------
   0 O :   -0.367487
   1 C :    0.293006
   2 N :   -0.198354
   3 N :   -0.202760
   4 C :    0.211211
   5 N :   -0.321268
   6 C :   -0.156589
   7 C :   -0.256393
   8 C :   -0.244611
   9 H :    0.264543
  10 H :    0.260783
  11 H :    0.136208
  12 H :    0.135919
  13 H :    0.147882
  14 H :    0.157874
  15 H :    0.140036
Sum of atomic charges:   -0.0000000

LOEWDIN ATOMIC CHARGES
----------------------
   0 O :    0.048547
   1 C :   -0.532993
   2 N :    0.101133
   3 N :    0.050709
   4 C :   -0.322958
   5 N :    0.178671
   6 C :   -0.200568
   7 C :   -0.206503
   8 C :   -0.206807
   9 H :    0.188071
  10 H :    0.197775
  11 H :    0.155068
  12 H :    0.132505
  13 H :    0.139311
  14 H :    0.143365
  15 H :    0.134673

  Mayer bond orders larger than 0.1
B(  0-O ,  1-C ) :   2.0002 B(  1-C ,  2-N ) :   1.1220 B(  1-C ,  5-N ) :   1.0356
B(  2-N ,  3-N ) :   0.9323 B(  2-N ,  9-H ) :   0.8712 B(  3-N ,  4-C ) :   1.7130
B(  4-C ,  5-N ) :   1.0954 B(  4-C ,  6-C ) :   0.9490 B(  5-N , 10-H ) :   0.8622
B(  6-C ,  7-C ) :   0.8497 B(  6-C ,  8-C ) :   0.8877 B(  6-C , 11-H ) :   0.9182
B(  7-C ,  8-C ) :   0.9140 B(  7-C , 12-H ) :   0.9256 B(  7-C , 13-H ) :   0.9288
B(  8-C , 14-H ) :   0.9238 B(  8-C , 15-H ) :   0.9319

MP2 TOTAL ENERGY:     -433.377241889 Eh
FINAL SINGLE POINT ENERGY      -433.377241888999

DIPOLE MOMENT
-------------
                                X             Y             Z
Electronic contribution:     -2.73901      -8.50512       0.73901
Nuclear contribution   :      3.43200       9.77009      -0.74350
                        -----------------------------------------
Total Dipole Moment    :      0.69299       1.26497      -0.00450
                        -----------------------------------------
Magnitude (a.u.)       :      1.44236
Magnitude (Debye)      :      3.66620

                             ****ORCA TERMINATED NORMALLY****
TOTAL RUN TIME: 0 days 0 hours 15 minutes 42 seconds 964 msec
