                         Program Version 3.0.3 - RELEASE   -
|  1> ! RI-MP2 RIJK def2-TZVP def2-TZVP/C def2-TZVP/JK TIGHTSCF
|  2> % maxcore 2000
|  3> % mp2 density relaxed end
|  4> *xyz 0 1
|  5>  C       -0.0575576490     1.5545829893     0.1315383648
|  6>  C        0.0838423736     0.0673271380     0.0431508250
|  7>  N       -0.8509045861    -0.8692517993     0.7114749735
|  8>  C        0.6075280748    -0.9365208854     0.9973791124
|  9>  C        1.3097182268    -1.6978689859    -0.1661953244
| 10>  N        0.2809594798    -2.0967707648    -1.1641016654
| 11>  C        0.7984644930    -0.7077932576    -1.1413175366
| 12>  C        1.4292247080    -0.0580679057    -2.3328431659
| 13>  H        0.8658254799     2.0661050787    -0.1613328771
| 14>  H       -0.8612326151     1.9205334440    -0.5188930599
| 15>  H       -0.2928313153     1.8598298095     1.1571378853
| 16>  H       -1.2641508778    -0.3476579682     1.4867954996
| 17>  H        0.9971817862    -0.8129192128     2.0000495247
| 18>  H        2.2706962489    -2.1936985734    -0.1102714381
| 19>  H        0.7875087811    -2.5727169411    -1.9129920295
| 20>  H        0.6752947241     0.2540091458    -3.0656950146
| 21>  H        2.0058062703     0.8296421970    -2.0507260694
| 22>  H        2.1144195368    -0.7513171181    -2.8331390547
| 23> *
| 24>
| 25>                          ****END OF INPUT****

CARTESIAN COORDINATES (ANGSTROEM)
---------------------------------
  C     -0.057558    1.554583    0.131538
  C      0.083842    0.067327    0.043151
  N     -0.850905   -0.869252    0.711475
  C      0.607528   -0.936521    0.997379
  C      1.309718   -1.697869   -0.166195
  N      0.280959   -2.096771   -1.164102
  C      0.798464   -0.707793   -1.141318
  C      1.429225   -0.058068   -2.332843
  H      0.865825    2.066105   -0.161333
  H     -0.861233    1.920533   -0.518893
  H     -0.292831    1.859830    1.157138
  H     -1.264151   -0.347658    1.486795
  H      0.997182   -0.812919    2.000050
  H      2.270696   -2.193699   -0.110271
  H      0.787509   -2.572717   -1.912992
  H      0.675295    0.254009   -3.065695
  H      2.005806    0.829642   -2.050726
  H      2.114420   -0.751317   -2.833139

 Total Charge           Charge          ....    0
 Multiplicity           Mult            ....    1
 Number of Electrons    NEL             ....   60
 Basis Dimension        Dim             ....  308

ORBITAL ENERGIES
----------------

  NO   OCC          E(Eh)            E(eV)
   0   2.0000     -15.550621      -423.1539
   1   2.0000     -15.550611      -423.1536
   2   2.0000     -11.263365      -306.4917
   3   2.0000     -11.262900      -306.4791
   4   2.0000     -11.255394      -306.2748
   5   2.0000     -11.254880      -306.2608
   6   2.0000     -11.230275      -305.5913
   7   2.0000     -11.230271      -305.5912
   8   2.0000      -1.306299       -35.5462
   9   2.0000      -1.212089       -32.9826
  10   2.0000      -1.012584       -27.5538
  11   2.0000      -0.977961       -26.6117
  12   2.0000      -0.954323       -25.9685
  13   2.0000      -0.832880       -22.6638
  14   2.0000      -0.789983       -21.4965
  15   2.0000      -0.704555       -19.1719
  16   2.0000      -0.694879       -18.9086
  17   2.0000      -0.628801       -17.1106
  18   2.0000      -0.615339       -16.7442
  19   2.0000      -0.599088       -16.3020
  20   2.0000      -0.569596       -15.4995
  21   2.0000      -0.557728       -15.1766
  22   2.0000      -0.550851       -14.9894
  23   2.0000      -0.535024       -14.5587
  24   2.0000      -0.500555       -13.6208
  25   2.0000      -0.452987       -12.3264
  26   2.0000      -0.445042       -12.1102
  27   2.0000      -0.439100       -11.9485
  28   2.0000      -0.375333       -10.2133
  29   2.0000      -0.318798        -8.6749
  30   0.0000       0.129235         3.5167
  31   0.0000       0.147557         4.0152
  32   0.0000       0.162419         4.4196
  33   0.0000       0.186268         5.0686
  34   0.0000       0.192869         5.2482

MULLIKEN ATOMIC CHARGES
-----------------------
   0 C :   -0.393708
   1 C :    0.089756
   2 N :   -0.341802
   3 C :   -0.107238
   4 C :   -0.107103
   5 N :   -0.341776
   6 C :    0.089489
   7 C :   -0.393709
   8 H :    0.132622
   9 H :    0.147414
  10 H :    0.127654
  11 H :    0.207436
  12 H :    0.137920
  13 H :    0.137929
  14 H :    0.207435
  15 H :    0.147415
  16 H :    0.132623
  17 H :    0.127642
Sum of atomic charges:   -0.0000000

LOEWDIN ATOMIC CHARGES
----------------------
   0 C :   -0.279876
   1 C :   -0.244704
   2 N :    0.032560
   3 C :   -0.200604
   4 C :   -0.200611
   5 N :    0.032561
   6 C :   -0.244701
   7 C :   -0.279876
   8 H :    0.130362
   9 H :    0.132078
  10 H :    0.130397
  11 H :    0.170471
  12 H :    0.129319
  13 H :    0.129320
  14 H :    0.170470
  15 H :    0.132079
  16 H :    0.130361
  17 H :    0.130394

  Mayer bond orders larger than 0.1
B(  0-C ,  1-C ) :   0.8746 B(  0-C ,  8-H ) :   0.9326 B(  0-C ,  9-H ) :   0.9541
B(  0-C , 10-H ) :   0.9321 B(  1-C ,  2-N ) :   0.9721 B(  1-C ,  3-C ) :   0.9933
B(  1-C ,  6-C ) :   0.9093 B(  2-N ,  3-C ) :   1.0346 B(  2-N , 11-H ) :   0.8638
B(  3-C ,  4-C ) :   0.8475 B(  3-C , 12-H ) :   0.9229 B(  4-C ,  5-N ) :   1.0345
B(  4-C ,  6-C ) :   0.9934 B(  4-C , 13-H ) :   0.9228 B(  5-N ,  6-C ) :   0.9723
B(  5-N , 14-H ) :   0.8638 B(  6-C ,  7-C ) :   0.8746 B(  7-C , 15-H ) :   0.9541
B(  7-C , 16-H ) :   0.9326 B(  7-C , 17-H ) :   0.9321

MP2 TOTAL ENERGY:     -343.275705643 Eh
FINAL SINGLE POINT ENERGY      -343.275705642625

DIPOLE MOMENT
-------------
                                X             Y             Z
Electronic contribution:     -1.65020      -4.74953       2.11230
Nuclear contribution   :      2.62575       5.56183      -2.05521
                        -----------------------------------------
Total Dipole Moment    :      0.97555       0.81230       0.05709
                        -----------------------------------------
Magnitude (a.u.)       :      1.27074
Magnitude (Debye)      :      3.22997

                             ****ORCA TERMINATED NORMALLY****
TOTAL RUN TIME: 0 days 0 hours 13 minutes 36 seconds 955 msec
