                         Program Version 3.0.3 - RELEASE   -
|  1> ! RI-MP2 RIJK def2-TZVP def2-TZVP/C def2-TZVP/JK TIGHTSCF
|  2> % maxcore 2000
|  3> % mp2 density relaxed end
|  4> *xyz 0 1
|  5>  C        0.3002552216     1.7824508445    -0.6381993159
|  6>  O        0.6682874356     0.5506135819    -0.0385284511
|  7>  C        0.6517889401    -0.5225686017    -0.9274071585
|  8>  C        1.0183953734    -1.8975590178    -0.3084189556
|  9>  C       -0.1423893739    -2.5816610656    -1.0783072463
| 10>  O       -0.8909669435    -3.4921187891    -0.3348074465
| 11>  C       -1.9580408412    -4.0728397634    -1.0673305704
| 12>  C       -0.7197557964    -1.1551094470    -1.2916708642
| 13>  O       -1.8281249106    -0.7183002238    -1.4188580020
| 14>  H        0.9864898524     2.0465281428    -1.4580557274
| 15>  H       -0.7235536648     1.7502696895    -1.0282350098
| 16>  H        0.3680999806     2.5455819466     0.1400189484
| 17>  H        1.2388262849    -0.3081819071    -1.8372249206
| 18>  H        2.0247904995    -2.2724637889    -0.4893120190
| 19>  H        0.8009437797    -1.8921180928     0.7618097996
| 20>  H        0.1945968395    -3.0155942496    -2.0356398585
| 21>  H       -2.4558830858    -4.7762965374    -0.3965867041
| 22>  H       -2.6773066712    -3.3154563776    -1.3995599872
| 23>  H       -1.5850102799    -4.6209551535    -1.9466693308
| 24> *
| 25>
| 26>                          ****END OF INPUT****

CARTESIAN COORDINATES (ANGSTROEM)
---------------------------------
  C      0.300255    1.782451   -0.638199
  O      0.668287    0.550614   -0.038528
  C      0.651789   -0.522569   -0.927407
  C      1.018395   -1.897559   -0.308419
  C     -0.142389   -2.581661   -1.078307
  O     -0.890967   -3.492119   -0.334807
  C     -1.958041   -4.072840   -1.067331
  C     -0.719756   -1.155109   -1.291671
  O     -1.828125   -0.718300   -1.418858
  H      0.986490    2.046528   -1.458056
  H     -0.723554    1.750270   -1.028235
  H      0.368100    2.545582    0.140019
  H      1.238826   -0.308182   -1.837225
  H      2.024790   -2.272464   -0.489312
  H      0.800944   -1.892118    0.761810
  H      0.194597   -3.015594   -2.035640
  H     -2.455883   -4.776297   -0.396587
  H     -2.677307   -3.315456   -1.399560
  H     -1.585010   -4.620955   -1.946669

 Total Charge           Charge          ....    0
 Multiplicity           Mult            ....    1
 Number of Electrons    NEL             ....   70
 Basis Dimension        Dim             ....  339

ORBITAL ENERGIES
----------------

  NO   OCC          E(Eh)            E(eV)
   0   2.0000     -20.571145      -559.7693
   1   2.0000     -20.571145      -559.7693
   2   2.0000     -20.564683      -559.5935
   3   2.0000     -11.334866      -308.4374
   4   2.0000     -11.302125      -307.5464
   5   2.0000     -11.302105      -307.5459
   6   2.0000     -11.274596      -306.7974
   7   2.0000     -11.274595      -306.7973
   8   2.0000     -11.241646      -305.9007
   9   2.0000      -1.412497       -38.4360
  10   2.0000      -1.390248       -37.8306
  11   2.0000      -1.385617       -37.7046
  12   2.0000      -1.131830       -30.7987
  13   2.0000      -0.967424       -26.3249
  14   2.0000      -0.929311       -25.2878
  15   2.0000      -0.874044       -23.7839
  16   2.0000      -0.861628       -23.4461
  17   2.0000      -0.758516       -20.6403
  18   2.0000      -0.694904       -18.9093
  19   2.0000      -0.684322       -18.6214
  20   2.0000      -0.682468       -18.5709
  21   2.0000      -0.657761       -17.8986
  22   2.0000      -0.633719       -17.2444
  23   2.0000      -0.631231       -17.1767
  24   2.0000      -0.600511       -16.3407
  25   2.0000      -0.584483       -15.9046
  26   2.0000      -0.548440       -14.9238
  27   2.0000      -0.530757       -14.4426
  28   2.0000      -0.519672       -14.1410
  29   2.0000      -0.513569       -13.9749
  30   2.0000      -0.494083       -13.4447
  31   2.0000      -0.484229       -13.1765
  32   2.0000      -0.465338       -12.6625
  33   2.0000      -0.451014       -12.2727
  34   2.0000      -0.373706       -10.1691
  35   0.0000       0.111082         3.0227
  36   0.0000       0.145585         3.9616
  37   0.0000       0.157450         4.2844
  38   0.0000       0.166656         4.5349
  39   0.0000       0.184859         5.0303

MULLIKEN ATOMIC CHARGES
-----------------------
   0 C :   -0.230624
   1 O :   -0.302490
   2 C :    0.100712
   3 C :   -0.198590
   4 C :    0.100717
   5 O :   -0.302489
   6 C :   -0.230625
   7 C :    0.066939
   8 O :   -0.260020
   9 H :    0.109346
  10 H :    0.146845
  11 H :    0.142211
  12 H :    0.091926
  13 H :    0.137714
  14 H :    0.138101
  15 H :    0.091924
  16 H :    0.142212
  17 H :    0.146844
  18 H :    0.109347
Sum of atomic charges:    0.0000000

LOEWDIN ATOMIC CHARGES
----------------------
   0 C :   -0.340072
   1 O :    0.165641
   2 C :   -0.293529
   3 C :   -0.180557
   4 C :   -0.293531
   5 O :    0.165643
   6 C :   -0.340073
   7 C :   -0.277803
   8 O :    0.170704
   9 H :    0.101978
  10 H :    0.110502
  11 H :    0.114854
  12 H :    0.140996
  13 H :    0.132145
  14 H :    0.154772
  15 H :    0.140997
  16 H :    0.114854
  17 H :    0.110502
  18 H :    0.101978

  Mayer bond orders larger than 0.1
B(  0-C ,  1-O ) :   0.8885 B(  0-C ,  9-H ) :   0.9345 B(  0-C , 10-H ) :   0.9331
B(  0-C , 11-H ) :   0.9385 B(  1-O ,  2-C ) :   0.9985 B(  2-C ,  3-C ) :   0.9161
B(  2-C ,  7-C ) :   0.8613 B(  2-C , 12-H ) :   0.9081 B(  3-C ,  4-C ) :   0.9161
B(  3-C , 13-H ) :   0.9259 B(  3-C , 14-H ) :   0.9055 B(  4-C ,  5-O ) :   0.9985
B(  4-C ,  7-C ) :   0.8613 B(  4-C , 15-H ) :   0.9081 B(  5-O ,  6-C ) :   0.8885
B(  6-C , 16-H ) :   0.9385 B(  6-C , 17-H ) :   0.9331 B(  6-C , 18-H ) :   0.9345
B(  7-C ,  8-O ) :   1.9885

MP2 TOTAL ENERGY:     -459.392453463 Eh
FINAL SINGLE POINT ENERGY      -459.392453463323

DIPOLE MOMENT
-------------
                                X             Y             Z
Electronic contribution:     -0.94153       0.28929       1.00818
Nuclear contribution   :      1.50383      -0.45459      -1.71216
                        -----------------------------------------
Total Dipole Moment    :      0.56229      -0.16529      -0.70398
                        -----------------------------------------
Magnitude (a.u.)       :      0.91602
Magnitude (Debye)      :      2.32833

                             ****ORCA TERMINATED NORMALLY****
TOTAL RUN TIME: 0 days 0 hours 25 minutes 47 seconds 215 msec
