                         Program Version 3.0.3 - RELEASE   -
|  1> ! RI-MP2 RIJK def2-TZVP def2-TZVP/C def2-TZVP/JK TIGHTSCF
|  2> % maxcore 2000
|  3> % mp2 density relaxed end
|  4> *xyz 0 1
|  5>  N       -0.3745132583     1.4359436648    -0.0893137297
|  6>  C       -0.0733380243     0.0265980358    -0.0808743621
|  7>  C        1.0486541634    -0.4751016095    -0.9775768963
|  8>  C        2.3428508885     0.1246143113    -0.6418383533
|  9>  N        3.3494084263     0.6219550589    -0.3691743991
| 10>  C       -0.3331506484    -0.6865513357     1.2407406055
| 11>  O       -0.7450718663     0.0603558364     2.3345297421
| 12>  C       -1.3153335847    -0.8469799706     0.1008116869
| 13>  O       -2.5125051559    -0.1561563689     0.2601959674
| 14>  H        0.0339325817     1.9035177896     0.7135966661
| 15>  H       -0.0569051418     1.8925574646    -0.9357607406
| 16>  H        1.1345745893    -1.5650177135    -0.9015759916
| 17>  H        0.8262342230    -0.2575180499    -2.0308825020
| 18>  H        0.3286358461    -1.5095692539     1.4999941815
| 19>  H       -1.7017318255     0.1790578011     2.2232823736
| 20>  H       -1.4165691504    -1.7915882043    -0.4258068653
| 21>  H       -2.2864185126     0.7709385838     0.0447259868
| 22> *
| 23>
| 24>                          ****END OF INPUT****

CARTESIAN COORDINATES (ANGSTROEM)
---------------------------------
  N     -0.374513    1.435944   -0.089314
  C     -0.073338    0.026598   -0.080874
  C      1.048654   -0.475102   -0.977577
  C      2.342851    0.124614   -0.641838
  N      3.349408    0.621955   -0.369174
  C     -0.333151   -0.686551    1.240741
  O     -0.745072    0.060356    2.334530
  C     -1.315334   -0.846980    0.100812
  O     -2.512505   -0.156156    0.260196
  H      0.033933    1.903518    0.713597
  H     -0.056905    1.892557   -0.935761
  H      1.134575   -1.565018   -0.901576
  H      0.826234   -0.257518   -2.030883
  H      0.328636   -1.509569    1.499994
  H     -1.701732    0.179058    2.223282
  H     -1.416569   -1.791588   -0.425807
  H     -2.286419    0.770939    0.044726

 Total Charge           Charge          ....    0
 Multiplicity           Mult            ....    1
 Number of Electrons    NEL             ....   68
 Basis Dimension        Dim             ....  327

ORBITAL ENERGIES
----------------

  NO   OCC          E(Eh)            E(eV)
   0   2.0000     -20.576326      -559.9103
   1   2.0000     -20.574716      -559.8665
   2   2.0000     -15.580130      -423.9569
   3   2.0000     -15.579460      -423.9387
   4   2.0000     -11.301990      -307.5428
   5   2.0000     -11.301908      -307.5406
   6   2.0000     -11.301201      -307.5213
   7   2.0000     -11.298396      -307.4450
   8   2.0000     -11.283124      -307.0294
   9   2.0000      -1.410796       -38.3897
  10   2.0000      -1.370951       -37.3055
  11   2.0000      -1.240590       -33.7582
  12   2.0000      -1.221980       -33.2518
  13   2.0000      -1.111153       -30.2360
  14   2.0000      -1.041021       -28.3276
  15   2.0000      -0.844497       -22.9799
  16   2.0000      -0.822698       -22.3868
  17   2.0000      -0.744050       -20.2466
  18   2.0000      -0.723700       -19.6929
  19   2.0000      -0.697406       -18.9774
  20   2.0000      -0.691650       -18.8208
  21   2.0000      -0.674779       -18.3617
  22   2.0000      -0.634756       -17.2726
  23   2.0000      -0.616730       -16.7821
  24   2.0000      -0.594190       -16.1687
  25   2.0000      -0.588230       -16.0065
  26   2.0000      -0.565255       -15.3814
  27   2.0000      -0.541057       -14.7229
  28   2.0000      -0.525842       -14.3089
  29   2.0000      -0.476071       -12.9546
  30   2.0000      -0.471629       -12.8337
  31   2.0000      -0.468927       -12.7601
  32   2.0000      -0.403860       -10.9896
  33   2.0000      -0.396510       -10.7896
  34   0.0000       0.107051         2.9130
  35   0.0000       0.134262         3.6535
  36   0.0000       0.153326         4.1722
  37   0.0000       0.165029         4.4907
  38   0.0000       0.170259         4.6330

MULLIKEN ATOMIC CHARGES
-----------------------
   0 N :   -0.610869
   1 C :    0.128348
   2 C :   -0.178348
   3 C :   -0.185708
   4 N :   -0.048679
   5 C :    0.016350
   6 O :   -0.472120
   7 C :    0.038537
   8 O :   -0.499817
   9 H :    0.278395
  10 H :    0.247299
  11 H :    0.162124
  12 H :    0.170820
  13 H :    0.130426
  14 H :    0.341350
  15 H :    0.129246
  16 H :    0.352645
Sum of atomic charges:   -0.0000000

LOEWDIN ATOMIC CHARGES
----------------------
   0 N :   -0.095803
   1 C :   -0.313722
   2 C :   -0.214870
   3 C :   -0.189529
   4 N :    0.063277
   5 C :   -0.293028
   6 O :    0.010614
   7 C :   -0.297052
   8 O :   -0.003048
   9 H :    0.175197
  10 H :    0.165705
  11 H :    0.172606
  12 H :    0.168133
  13 H :    0.142492
  14 H :    0.188400
  15 H :    0.137168
  16 H :    0.183461

  Mayer bond orders larger than 0.1
B(  0-N ,  1-C ) :   0.9476 B(  0-N ,  9-H ) :   0.8695 B(  0-N , 10-H ) :   0.8855
B(  1-C ,  2-C ) :   0.8997 B(  1-C ,  5-C ) :   0.8273 B(  1-C ,  7-C ) :   0.8609
B(  2-C ,  3-C ) :   0.9298 B(  2-C , 11-H ) :   0.9024 B(  2-C , 12-H ) :   0.9120
B(  3-C ,  4-N ) :   2.8629 B(  5-C ,  6-O ) :   0.9976 B(  5-C ,  7-C ) :   0.8722
B(  5-C , 13-H ) :   0.9458 B(  6-O , 14-H ) :   0.8070 B(  7-C ,  8-O ) :   0.9765
B(  7-C , 15-H ) :   0.9415 B(  8-O , 16-H ) :   0.7812

MP2 TOTAL ENERGY:     -454.401847984 Eh
FINAL SINGLE POINT ENERGY      -454.401847983913

DIPOLE MOMENT
-------------
                                X             Y             Z
Electronic contribution:      2.64135       0.31941       0.69479
Nuclear contribution   :     -3.35545      -0.61539      -1.61216
                        -----------------------------------------
Total Dipole Moment    :     -0.71410      -0.29599      -0.91737
                        -----------------------------------------
Magnitude (a.u.)       :      1.19964
Magnitude (Debye)      :      3.04923

                             ****ORCA TERMINATED NORMALLY****
TOTAL RUN TIME: 0 days 0 hours 14 minutes 37 seconds 456 msec
