                         Program Version 3.0.3 - RELEASE   -
|  1> ! RI-MP2 RIJK def2-TZVP def2-TZVP/C def2-TZVP/JK TIGHTSCF
|  2> % maxcore 2000
|  3> % mp2 density relaxed end
|  4> *xyz 0 1
|  5>  C       -0.8468808252     0.9374455300    -0.6110734342
|  6>  C        0.0807886156     0.0550402276     0.2108489355
|  7>  O       -0.6389390175    -0.8603874577     1.0647450702
|  8>  C       -1.2142000200    -1.9158582812     0.4512131113
|  9>  C       -2.5129477504    -2.1915782185     0.0726183441
| 10>  N       -3.6694485573    -1.4325351340     0.2350509491
| 11>  N       -2.5474070390    -3.4452927462    -0.4535087284
| 12>  N       -1.3470624860    -3.9720520278    -0.4192542854
| 13>  N       -0.5362911582    -3.0566005545     0.1227868799
| 14>  H       -0.2612563555     1.6357357440    -1.2174880051
| 15>  H       -1.4606365788     0.3365675943    -1.2890386419
| 16>  H       -1.5031842055     1.5190063791     0.0433255592
| 17>  H        0.7606790214    -0.5102525448    -0.4394769806
| 18>  H        0.6848495346     0.6528559414     0.8979813618
| 19>  H       -3.5191038461    -0.4374640892     0.1431385875
| 20>  H       -4.4023293205    -1.7467073889    -0.3878285754
| 21>  H        0.4353214583    -3.2716089436     0.2808075424
| 22> *
| 23>
| 24>                          ****END OF INPUT****

CARTESIAN COORDINATES (ANGSTROEM)
---------------------------------
  C     -0.846881    0.937446   -0.611073
  C      0.080789    0.055040    0.210849
  O     -0.638939   -0.860387    1.064745
  C     -1.214200   -1.915858    0.451213
  C     -2.512948   -2.191578    0.072618
  N     -3.669449   -1.432535    0.235051
  N     -2.547407   -3.445293   -0.453509
  N     -1.347062   -3.972052   -0.419254
  N     -0.536291   -3.056601    0.122787
  H     -0.261256    1.635736   -1.217488
  H     -1.460637    0.336568   -1.289039
  H     -1.503184    1.519006    0.043326
  H      0.760679   -0.510253   -0.439477
  H      0.684850    0.652856    0.897981
  H     -3.519104   -0.437464    0.143139
  H     -4.402329   -1.746707   -0.387829
  H      0.435321   -3.271609    0.280808

 Total Charge           Charge          ....    0
 Multiplicity           Mult            ....    1
 Number of Electrons    NEL             ....   68
 Basis Dimension        Dim             ....  327

ORBITAL ENERGIES
----------------

  NO   OCC          E(Eh)            E(eV)
   0   2.0000     -20.601873      -560.6055
   1   2.0000     -15.651453      -425.8977
   2   2.0000     -15.633994      -425.4226
   3   2.0000     -15.586442      -424.1286
   4   2.0000     -15.563506      -423.5045
   5   2.0000     -11.324771      -308.1627
   6   2.0000     -11.307372      -307.6892
   7   2.0000     -11.285546      -307.0953
   8   2.0000     -11.240171      -305.8606
   9   2.0000      -1.447831       -39.3975
  10   2.0000      -1.408174       -38.3184
  11   2.0000      -1.227878       -33.4123
  12   2.0000      -1.173754       -31.9395
  13   2.0000      -1.062378       -28.9088
  14   2.0000      -1.026228       -27.9251
  15   2.0000      -0.896831       -24.4040
  16   2.0000      -0.859563       -23.3899
  17   2.0000      -0.815620       -22.1941
  18   2.0000      -0.750846       -20.4315
  19   2.0000      -0.707217       -19.2444
  20   2.0000      -0.689357       -18.7584
  21   2.0000      -0.659359       -17.9421
  22   2.0000      -0.645526       -17.5656
  23   2.0000      -0.628610       -17.1054
  24   2.0000      -0.606107       -16.4930
  25   2.0000      -0.577602       -15.7174
  26   2.0000      -0.555098       -15.1050
  27   2.0000      -0.524237       -14.2652
  28   2.0000      -0.508240       -13.8299
  29   2.0000      -0.495313       -13.4782
  30   2.0000      -0.489380       -13.3167
  31   2.0000      -0.426562       -11.6073
  32   2.0000      -0.398578       -10.8459
  33   2.0000      -0.308318        -8.3898
  34   0.0000       0.121009         3.2928
  35   0.0000       0.128384         3.4935
  36   0.0000       0.145025         3.9463
  37   0.0000       0.160080         4.3560
  38   0.0000       0.180623         4.9150

MULLIKEN ATOMIC CHARGES
-----------------------
   0 C :   -0.434066
   1 C :   -0.024981
   2 O :   -0.303889
   3 C :    0.092722
   4 C :    0.148325
   5 N :   -0.517438
   6 N :   -0.176180
   7 N :   -0.156147
   8 N :   -0.069844
   9 H :    0.141889
  10 H :    0.150249
  11 H :    0.138369
  12 H :    0.104752
  13 H :    0.135852
  14 H :    0.247553
  15 H :    0.259969
  16 H :    0.262867
Sum of atomic charges:    0.0000000

LOEWDIN ATOMIC CHARGES
----------------------
   0 C :   -0.322526
   1 C :   -0.310001
   2 O :    0.224892
   3 C :   -0.370616
   4 C :   -0.374363
   5 N :   -0.081832
   6 N :    0.004454
   7 N :   -0.066552
   8 N :    0.128297
   9 H :    0.131023
  10 H :    0.126791
  11 H :    0.125159
  12 H :    0.121190
  13 H :    0.131268
  14 H :    0.165552
  15 H :    0.175874
  16 H :    0.191390

  Mayer bond orders larger than 0.1
B(  0-C ,  1-C ) :   0.9250 B(  0-C ,  9-H ) :   0.9237 B(  0-C , 10-H ) :   0.9319
B(  0-C , 11-H ) :   0.9327 B(  1-C ,  2-O ) :   0.8450 B(  1-C , 12-H ) :   0.9383
B(  1-C , 13-H ) :   0.9304 B(  2-O ,  3-C ) :   1.0932 B(  3-C ,  4-C ) :   1.3962
B(  3-C ,  7-N ) :   0.1410 B(  3-C ,  8-N ) :   1.1435 B(  4-C ,  5-N ) :   1.0455
B(  4-C ,  6-N ) :   1.3893 B(  5-N , 14-H ) :   0.8783 B(  5-N , 15-H ) :   0.8686
B(  6-N ,  7-N ) :   1.2612 B(  7-N ,  8-N ) :   1.0699 B(  8-N , 16-H ) :   0.8561

MP2 TOTAL ENERGY:     -450.575087978 Eh
FINAL SINGLE POINT ENERGY      -450.575087978079

DIPOLE MOMENT
-------------
                                X             Y             Z
Electronic contribution:     -1.15575      -9.36668       2.15266
Nuclear contribution   :      2.25965      11.14963      -2.38271
                        -----------------------------------------
Total Dipole Moment    :      1.10390       1.78295      -0.23004
                        -----------------------------------------
Magnitude (a.u.)       :      2.10961
Magnitude (Debye)      :      5.36220

                             ****ORCA TERMINATED NORMALLY****
TOTAL RUN TIME: 0 days 0 hours 17 minutes 7 seconds 31 msec
