                         Program Version 3.0.3 - RELEASE   -
|  1> ! RI-MP2 RIJK def2-TZVP def2-TZVP/C def2-TZVP/JK TIGHTSCF
|  2> % maxcore 2000
|  3> % mp2 density relaxed end
|  4> *xyz 0 1
|  5>  O       -0.6555008460     0.7725168617     0.7880285625
|  6>  C        0.1568977980     1.0175029909    -0.0679175747
|  7>  C        1.2386931782     2.0298513007     0.0808779999
|  8>  O        2.3809627608     1.8382499150    -0.7812932044
|  9>  C        1.5520625060     2.9393036290    -1.0486451828
| 10>  C        0.8983181986     3.1467901702    -2.4312228802
| 11>  C        1.4005712285     4.6007309857    -2.3886625486
| 12>  C        0.8696536819     5.2972819095    -1.1726924977
| 13>  C        2.0465148137     4.3660659056    -1.0127404798
| 14>  H        0.1582649082     0.5048089913    -1.0553559764
| 15>  H        1.4555646945     2.3533455651     1.0974301521
| 16>  H        1.4097452829     2.5348445868    -3.1782094530
| 17>  H       -0.1827198111     3.0023988430    -2.5206473264
| 18>  H        1.8080559921     5.1398817686    -3.2336702968
| 19>  H        1.1100252279     6.3522691902    -1.0906100259
| 20>  H       -0.1014023783     5.0296948011    -0.7624718901
| 21>  H        3.0056292339     4.6839961756    -0.6246052276
| 22> *
| 23>
| 24>                          ****END OF INPUT****

CARTESIAN COORDINATES (ANGSTROEM)
---------------------------------
  O     -0.655501    0.772517    0.788029
  C      0.156898    1.017503   -0.067918
  C      1.238693    2.029851    0.080878
  O      2.380963    1.838250   -0.781293
  C      1.552063    2.939304   -1.048645
  C      0.898318    3.146790   -2.431223
  C      1.400571    4.600731   -2.388663
  C      0.869654    5.297282   -1.172692
  C      2.046515    4.366066   -1.012740
  H      0.158265    0.504809   -1.055356
  H      1.455565    2.353346    1.097430
  H      1.409745    2.534845   -3.178209
  H     -0.182720    3.002399   -2.520647
  H      1.808056    5.139882   -3.233670
  H      1.110025    6.352269   -1.090610
  H     -0.101402    5.029695   -0.762472
  H      3.005629    4.683996   -0.624605

 Total Charge           Charge          ....    0
 Multiplicity           Mult            ....    1
 Number of Electrons    NEL             ....   66
 Basis Dimension        Dim             ....  327

ORBITAL ENERGIES
----------------

  NO   OCC          E(Eh)            E(eV)
   0   2.0000     -20.592754      -560.3573
   1   2.0000     -20.565908      -559.6268
   2   2.0000     -11.340499      -308.5907
   3   2.0000     -11.320139      -308.0367
   4   2.0000     -11.301132      -307.5194
   5   2.0000     -11.255900      -306.2886
   6   2.0000     -11.253302      -306.2179
   7   2.0000     -11.250305      -306.1364
   8   2.0000     -11.248909      -306.0984
   9   2.0000      -1.441298       -39.2197
  10   2.0000      -1.401995       -38.1502
  11   2.0000      -1.208283       -32.8790
  12   2.0000      -0.997407       -27.1408
  13   2.0000      -0.981247       -26.7011
  14   2.0000      -0.902980       -24.5713
  15   2.0000      -0.823812       -22.4171
  16   2.0000      -0.808759       -22.0074
  17   2.0000      -0.753402       -20.5011
  18   2.0000      -0.717482       -19.5237
  19   2.0000      -0.686343       -18.6763
  20   2.0000      -0.679093       -18.4791
  21   2.0000      -0.639177       -17.3929
  22   2.0000      -0.611776       -16.6473
  23   2.0000      -0.589127       -16.0310
  24   2.0000      -0.567726       -15.4486
  25   2.0000      -0.550096       -14.9689
  26   2.0000      -0.539921       -14.6920
  27   2.0000      -0.524248       -14.2655
  28   2.0000      -0.469348       -12.7716
  29   2.0000      -0.448914       -12.2156
  30   2.0000      -0.439056       -11.9473
  31   2.0000      -0.430879       -11.7248
  32   2.0000      -0.390239       -10.6189
  33   0.0000       0.112311         3.0561
  34   0.0000       0.141641         3.8542
  35   0.0000       0.154924         4.2157
  36   0.0000       0.162587         4.4242
  37   0.0000       0.167655         4.5621

MULLIKEN ATOMIC CHARGES
-----------------------
   0 O :   -0.261535
   1 C :    0.061623
   2 C :    0.040783
   3 O :   -0.315200
   4 C :    0.107154
   5 C :   -0.207559
   6 C :   -0.109075
   7 C :   -0.269198
   8 C :   -0.126892
   9 H :    0.097808
  10 H :    0.141366
  11 H :    0.134555
  12 H :    0.134109
  13 H :    0.142028
  14 H :    0.137673
  15 H :    0.143081
  16 H :    0.149281
Sum of atomic charges:    0.0000000

LOEWDIN ATOMIC CHARGES
----------------------
   0 O :    0.138682
   1 C :   -0.284621
   2 C :   -0.229037
   3 O :    0.212276
   4 C :   -0.274213
   5 C :   -0.172851
   6 C :   -0.168337
   7 C :   -0.195222
   8 C :   -0.136941
   9 H :    0.119192
  10 H :    0.148299
  11 H :    0.148344
  12 H :    0.134625
  13 H :    0.137447
  14 H :    0.142992
  15 H :    0.135986
  16 H :    0.143380

  Mayer bond orders larger than 0.1
B(  0-O ,  1-C ) :   1.9758 B(  1-C ,  2-C ) :   0.8690 B(  1-C ,  9-H ) :   0.9446
B(  2-C ,  3-O ) :   0.8772 B(  2-C ,  4-C ) :   0.8896 B(  2-C , 10-H ) :   0.9006
B(  3-O ,  4-C ) :   0.9101 B(  4-C ,  5-C ) :   0.9478 B(  4-C ,  8-C ) :   0.8872
B(  5-C ,  6-C ) :   0.9368 B(  5-C , 11-H ) :   0.9177 B(  5-C , 12-H ) :   0.9119
B(  6-C ,  7-C ) :   0.8905 B(  6-C ,  8-C ) :   0.8582 B(  6-C , 13-H ) :   0.9230
B(  7-C ,  8-C ) :   0.8627 B(  7-C , 14-H ) :   0.9255 B(  7-C , 15-H ) :   0.9233
B(  8-C , 16-H ) :   0.9136

MP2 TOTAL ENERGY:     -421.064729160 Eh
FINAL SINGLE POINT ENERGY      -421.064729160321

DIPOLE MOMENT
-------------
                                X             Y             Z
Electronic contribution:      0.29672      -5.39710       3.40843
Nuclear contribution   :     -0.00353       6.40553      -4.11398
                        -----------------------------------------
Total Dipole Moment    :      0.29319       1.00843      -0.70555
                        -----------------------------------------
Magnitude (a.u.)       :      1.26518
Magnitude (Debye)      :      3.21583

                             ****ORCA TERMINATED NORMALLY****
TOTAL RUN TIME: 0 days 0 hours 15 minutes 6 seconds 931 msec
