                         Program Version 3.0.3 - RELEASE   -
|  1> ! RI-MP2 RIJK def2-TZVP def2-TZVP/C def2-TZVP/JK TIGHTSCF
|  2> % maxcore 2000
|  3> % mp2 density relaxed end
|  4> *xyz 0 1
|  5>  O        0.0210173370     1.4276191605    -0.0505225823
|  6>  C        0.0421929870     0.0118553726    -0.0016523011
|  7>  C        0.7287894471    -0.5411452703     1.2848853339
|  8>  C       -0.4564664390    -0.8904751621     2.1689236752
|  9>  O       -1.3093630424     0.3083562448     2.2978116355
| 10>  C       -2.1869141214    -0.2111308039     1.2898062584
| 11>  C       -1.3622877750    -0.6059401546     0.0592379337
| 12>  C       -1.5091829817    -1.5431555029     1.2262759712
| 13>  O       -1.9041040475    -2.8547130874     1.1359635901
| 14>  H       -0.4146614067     1.7102055160     0.7637904218
| 15>  H        0.5730594697    -0.3024346251    -0.9036727047
| 16>  H        1.3070245855    -1.4483981455     1.0735193134
| 17>  H        1.3976639759     0.2057812142     1.7204162052
| 18>  H       -0.2558734025    -1.3393250722     3.1438147374
| 19>  H       -3.2132347092     0.1341045395     1.2722608162
| 20>  H       -1.9300664153    -0.8067597588    -0.8421297076
| 21>  H       -2.3728527014    -3.0917494450     1.9445522636
| 22> *
| 23>
| 24>                          ****END OF INPUT****

CARTESIAN COORDINATES (ANGSTROEM)
---------------------------------
  O      0.021017    1.427619   -0.050523
  C      0.042193    0.011855   -0.001652
  C      0.728789   -0.541145    1.284885
  C     -0.456466   -0.890475    2.168924
  O     -1.309363    0.308356    2.297812
  C     -2.186914   -0.211131    1.289806
  C     -1.362288   -0.605940    0.059238
  C     -1.509183   -1.543156    1.226276
  O     -1.904104   -2.854713    1.135964
  H     -0.414661    1.710206    0.763790
  H      0.573059   -0.302435   -0.903673
  H      1.307025   -1.448398    1.073519
  H      1.397664    0.205781    1.720416
  H     -0.255873   -1.339325    3.143815
  H     -3.213235    0.134105    1.272261
  H     -1.930066   -0.806760   -0.842130
  H     -2.372853   -3.091749    1.944552

 Total Charge           Charge          ....    0
 Multiplicity           Mult            ....    1
 Number of Electrons    NEL             ....   68
 Basis Dimension        Dim             ....  327

ORBITAL ENERGIES
----------------

  NO   OCC          E(Eh)            E(eV)
   0   2.0000     -20.591068      -560.3115
   1   2.0000     -20.567824      -559.6789
   2   2.0000     -20.544259      -559.0377
   3   2.0000     -11.303275      -307.5778
   4   2.0000     -11.299441      -307.4734
   5   2.0000     -11.297887      -307.4311
   6   2.0000     -11.285597      -307.0967
   7   2.0000     -11.239722      -305.8484
   8   2.0000     -11.230313      -305.5924
   9   2.0000      -1.418819       -38.6080
  10   2.0000      -1.388495       -37.7829
  11   2.0000      -1.351586       -36.7785
  12   2.0000      -1.139322       -31.0025
  13   2.0000      -1.042366       -28.3642
  14   2.0000      -0.941063       -25.6076
  15   2.0000      -0.847718       -23.0676
  16   2.0000      -0.793570       -21.5941
  17   2.0000      -0.785942       -21.3866
  18   2.0000      -0.745485       -20.2857
  19   2.0000      -0.693317       -18.8661
  20   2.0000      -0.661489       -18.0000
  21   2.0000      -0.638867       -17.3845
  22   2.0000      -0.614821       -16.7301
  23   2.0000      -0.596233       -16.2243
  24   2.0000      -0.581872       -15.8335
  25   2.0000      -0.574911       -15.6441
  26   2.0000      -0.549773       -14.9601
  27   2.0000      -0.545531       -14.8446
  28   2.0000      -0.525450       -14.2982
  29   2.0000      -0.496255       -13.5038
  30   2.0000      -0.447843       -12.1864
  31   2.0000      -0.434786       -11.8311
  32   2.0000      -0.407318       -11.0837
  33   2.0000      -0.378633       -10.3031
  34   0.0000       0.127859         3.4792
  35   0.0000       0.153191         4.1685
  36   0.0000       0.167047         4.5456
  37   0.0000       0.175466         4.7747
  38   0.0000       0.184270         5.0142

MULLIKEN ATOMIC CHARGES
-----------------------
   0 O :   -0.468401
   1 C :    0.090815
   2 C :   -0.257014
   3 C :    0.095975
   4 O :   -0.350219
   5 C :   -0.035157
   6 C :   -0.135631
   7 C :    0.056063
   8 O :   -0.437310
   9 H :    0.327263
  10 H :    0.110640
  11 H :    0.119164
  12 H :    0.134381
  13 H :    0.129917
  14 H :    0.147853
  15 H :    0.135920
  16 H :    0.335740
Sum of atomic charges:   -0.0000000

LOEWDIN ATOMIC CHARGES
----------------------
   0 O :   -0.018907
   1 C :   -0.303531
   2 C :   -0.218501
   3 C :   -0.201974
   4 O :    0.146932
   5 C :   -0.219367
   6 C :   -0.143252
   7 C :   -0.312629
   8 O :    0.043512
   9 H :    0.176024
  10 H :    0.144158
  11 H :    0.147137
  12 H :    0.143527
  13 H :    0.136795
  14 H :    0.134261
  15 H :    0.155851
  16 H :    0.189964

  Mayer bond orders larger than 0.1
B(  0-O ,  1-C ) :   0.9526 B(  0-O ,  9-H ) :   0.8255 B(  1-C ,  2-C ) :   0.9653
B(  1-C ,  6-C ) :   0.8993 B(  1-C , 10-H ) :   0.9311 B(  2-C ,  3-C ) :   0.9325
B(  2-C , 11-H ) :   0.9074 B(  2-C , 12-H ) :   0.9101 B(  3-C ,  4-O ) :   0.8916
B(  3-C ,  7-C ) :   0.9256 B(  3-C , 13-H ) :   0.9059 B(  4-O ,  5-C ) :   0.9214
B(  5-C ,  6-C ) :   0.8604 B(  5-C ,  7-C ) :   0.8930 B(  5-C , 14-H ) :   0.9153
B(  6-C ,  7-C ) :   0.8739 B(  6-C , 15-H ) :   0.9138 B(  7-C ,  8-O ) :   1.0736
B(  8-O , 16-H ) :   0.8309

MP2 TOTAL ENERGY:     -458.191446546 Eh
FINAL SINGLE POINT ENERGY      -458.191446545682

DIPOLE MOMENT
-------------
                                X             Y             Z
Electronic contribution:     -2.39934      -0.16963       0.83406
Nuclear contribution   :      2.00593      -0.62656      -0.22345
                        -----------------------------------------
Total Dipole Moment    :     -0.39341      -0.79620       0.61062
                        -----------------------------------------
Magnitude (a.u.)       :      1.07775
Magnitude (Debye)      :      2.73943

                             ****ORCA TERMINATED NORMALLY****
TOTAL RUN TIME: 0 days 0 hours 16 minutes 10 seconds 508 msec
