                         Program Version 3.0.3 - RELEASE   -
|  1> ! RI-MP2 RIJK def2-TZVP def2-TZVP/C def2-TZVP/JK TIGHTSCF
|  2> % maxcore 2000
|  3> % mp2 density relaxed end
|  4> *xyz 0 1
|  5>  O       -0.6947386297    -2.7757544575    -0.6410576390
|  6>  C       -1.2784798936    -2.0028953654     0.3859674488
|  7>  C       -1.3574782985    -0.5160201122    -0.0179946553
|  8>  C        0.0592397903     0.0136590573    -0.2141746810
|  9>  O        0.7011517684     0.5293461865     0.6629303212
| 10>  N       -2.0994357748    -0.4210824879    -1.2634220580
| 11>  C       -2.3039727939     0.9096100060    -1.8895042387
| 12>  C       -3.7249037447     0.4612938350    -2.3027955384
| 13>  C       -3.5659297781    -0.6526232556    -1.2414944603
| 14>  H       -1.0794094661    -2.4417879841    -1.4632700751
| 15>  H       -2.2928597569    -2.3547457029     0.6374659678
| 16>  H       -0.6585604710    -2.1097602397     1.2810833426
| 17>  H       -1.8150782773     0.0578216268     0.8084399804
| 18>  H        0.4749293143    -0.1360887664    -1.2339269883
| 19>  H       -2.3255112743     1.7267777793    -1.1521228122
| 20>  H       -1.5891662400     1.1629176665    -2.6780624157
| 21>  H       -4.5347557906     1.1756463171    -2.1571152695
| 22>  H       -3.7628292768     0.0696195534    -3.3205686034
| 23>  H       -3.8797482947    -1.6675749752    -1.5028499131
| 24>  H       -4.0244095119    -0.3764702312    -0.2789546128
| 25> *
| 26>
| 27>                          ****END OF INPUT****

CARTESIAN COORDINATES (ANGSTROEM)
---------------------------------
  O     -0.694739   -2.775754   -0.641058
  C     -1.278480   -2.002895    0.385967
  C     -1.357478   -0.516020   -0.017995
  C      0.059240    0.013659   -0.214175
  O      0.701152    0.529346    0.662930
  N     -2.099436   -0.421082   -1.263422
  C     -2.303973    0.909610   -1.889504
  C     -3.724904    0.461294   -2.302796
  C     -3.565930   -0.652623   -1.241494
  H     -1.079409   -2.441788   -1.463270
  H     -2.292860   -2.354746    0.637466
  H     -0.658560   -2.109760    1.281083
  H     -1.815078    0.057822    0.808440
  H      0.474929   -0.136089   -1.233927
  H     -2.325511    1.726778   -1.152123
  H     -1.589166    1.162918   -2.678062
  H     -4.534756    1.175646   -2.157115
  H     -3.762829    0.069620   -3.320569
  H     -3.879748   -1.667575   -1.502850
  H     -4.024410   -0.376470   -0.278955

 Total Charge           Charge          ....    0
 Multiplicity           Mult            ....    1
 Number of Electrons    NEL             ....   70
 Basis Dimension        Dim             ....  345

ORBITAL ENERGIES
----------------

  NO   OCC          E(Eh)            E(eV)
   0   2.0000     -20.560027      -559.4668
   1   2.0000     -20.557596      -559.4006
   2   2.0000     -15.571811      -423.7305
   3   2.0000     -11.331897      -308.3566
   4   2.0000     -11.287416      -307.1462
   5   2.0000     -11.275204      -306.8139
   6   2.0000     -11.272949      -306.7525
   7   2.0000     -11.271638      -306.7169
   8   2.0000     -11.243570      -305.9531
   9   2.0000      -1.399798       -38.0905
  10   2.0000      -1.368066       -37.2270
  11   2.0000      -1.270633       -34.5757
  12   2.0000      -1.077626       -29.3237
  13   2.0000      -0.958968       -26.0948
  14   2.0000      -0.940970       -25.6051
  15   2.0000      -0.884120       -24.0581
  16   2.0000      -0.800734       -21.7891
  17   2.0000      -0.774531       -21.0761
  18   2.0000      -0.713936       -19.4272
  19   2.0000      -0.693445       -18.8696
  20   2.0000      -0.680719       -18.5233
  21   2.0000      -0.651882       -17.7386
  22   2.0000      -0.632134       -17.2012
  23   2.0000      -0.615103       -16.7378
  24   2.0000      -0.598052       -16.2738
  25   2.0000      -0.572600       -15.5812
  26   2.0000      -0.554363       -15.0850
  27   2.0000      -0.529301       -14.4030
  28   2.0000      -0.525532       -14.3004
  29   2.0000      -0.514151       -13.9908
  30   2.0000      -0.481370       -13.0988
  31   2.0000      -0.478391       -13.0177
  32   2.0000      -0.454265       -12.3612
  33   2.0000      -0.412153       -11.2153
  34   2.0000      -0.388647       -10.5756
  35   0.0000       0.119144         3.2421
  36   0.0000       0.132351         3.6015
  37   0.0000       0.145155         3.9499
  38   0.0000       0.153151         4.1674
  39   0.0000       0.162965         4.4345

MULLIKEN ATOMIC CHARGES
-----------------------
   0 O :   -0.482526
   1 C :    0.003702
   2 C :   -0.021023
   3 C :    0.083671
   4 O :   -0.252923
   5 N :   -0.207948
   6 C :   -0.201075
   7 C :   -0.206794
   8 C :   -0.179995
   9 H :    0.323551
  10 H :    0.107454
  11 H :    0.129946
  12 H :    0.091013
  13 H :    0.084949
  14 H :    0.114515
  15 H :    0.125589
  16 H :    0.130080
  17 H :    0.123630
  18 H :    0.128451
  19 H :    0.105733
Sum of atomic charges:    0.0000000

LOEWDIN ATOMIC CHARGES
----------------------
   0 O :   -0.039342
   1 C :   -0.320198
   2 C :   -0.318027
   3 C :   -0.265238
   4 O :    0.142268
   5 N :    0.092723
   6 C :   -0.249633
   7 C :   -0.239966
   8 C :   -0.250700
   9 H :    0.173590
  10 H :    0.120529
  11 H :    0.135766
  12 H :    0.147424
  13 H :    0.116482
  14 H :    0.125815
  15 H :    0.121262
  16 H :    0.127688
  17 H :    0.135368
  18 H :    0.120706
  19 H :    0.123482

  Mayer bond orders larger than 0.1
B(  0-O ,  1-C ) :   0.9174 B(  0-O ,  9-H ) :   0.8192 B(  1-C ,  2-C ) :   0.9196
B(  1-C , 10-H ) :   0.9203 B(  1-C , 11-H ) :   0.9296 B(  2-C ,  3-C ) :   0.8515
B(  2-C ,  5-N ) :   0.8823 B(  2-C , 12-H ) :   0.8931 B(  3-C ,  4-O ) :   2.0145
B(  3-C , 13-H ) :   0.9407 B(  5-N ,  6-C ) :   0.9089 B(  5-N ,  8-C ) :   0.8847
B(  6-C ,  7-C ) :   0.9412 B(  6-C , 14-H ) :   0.9214 B(  6-C , 15-H ) :   0.9278
B(  7-C ,  8-C ) :   0.9428 B(  7-C , 16-H ) :   0.9338 B(  7-C , 17-H ) :   0.9238
B(  8-C , 18-H ) :   0.9277 B(  8-C , 19-H ) :   0.9158

MP2 TOTAL ENERGY:     -439.538088505 Eh
FINAL SINGLE POINT ENERGY      -439.538088505263

DIPOLE MOMENT
-------------
                                X             Y             Z
Electronic contribution:      6.37371      -0.46164       2.37574
Nuclear contribution   :     -7.79338       0.84390      -3.01382
                        -----------------------------------------
Total Dipole Moment    :     -1.41967       0.38227      -0.63809
                        -----------------------------------------
Magnitude (a.u.)       :      1.60273
Magnitude (Debye)      :      4.07383

                             ****ORCA TERMINATED NORMALLY****
TOTAL RUN TIME: 0 days 0 hours 17 minutes 32 seconds 907 msec
