                         Program Version 3.0.3 - RELEASE   -
|  1> ! RI-MP2 RIJK def2-TZVP def2-TZVP/C def2-TZVP/JK TIGHTSCF
|  2> % maxcore 2000
|  3> % mp2 density relaxed end
|  4> *xyz 0 1
|  5>  C       -0.2651968702     1.4976737685    -0.0557115811
|  6>  C        0.1029137174     0.0119474340     0.0706405955
|  7>  C        0.8291769787    -0.5123233428    -1.1304391805
|  8>  N        0.1642869152    -0.8302248422    -2.4175480493
|  9>  C        0.9624541106    -1.8678399424    -1.7103715712
| 10>  C        2.4772258486    -1.6119331144    -1.9917562790
| 11>  N        2.6092713723    -0.4308961641    -2.8794497068
| 12>  C        2.3523719905    -0.2499758635    -1.4304775581
| 13>  H        0.6291128327     2.1135372915    -0.1959143380
| 14>  H       -0.9192678738     1.6679460517    -0.9161702710
| 15>  H       -0.7804122047     1.8525462371     0.8419346026
| 16>  H        0.7273452789    -0.1379005809     0.9617847071
| 17>  H       -0.8038264994    -0.5867739040     0.2287440486
| 18>  H       -0.8120887750    -1.0269922311    -2.1897609726
| 19>  H        0.5252630523    -2.8091025372    -1.4016284069
| 20>  H        3.2688244950    -2.3423510878    -1.8885958021
| 21>  H        3.6118338503    -0.2862831609    -3.0094008085
| 22>  H        3.0256553506     0.3095917187    -0.7932439588
| 23> *
| 24>
| 25>                          ****END OF INPUT****

CARTESIAN COORDINATES (ANGSTROEM)
---------------------------------
  C     -0.265197    1.497674   -0.055712
  C      0.102914    0.011947    0.070641
  C      0.829177   -0.512323   -1.130439
  N      0.164287   -0.830225   -2.417548
  C      0.962454   -1.867840   -1.710372
  C      2.477226   -1.611933   -1.991756
  N      2.609271   -0.430896   -2.879450
  C      2.352372   -0.249976   -1.430478
  H      0.629113    2.113537   -0.195914
  H     -0.919268    1.667946   -0.916170
  H     -0.780412    1.852546    0.841935
  H      0.727345   -0.137901    0.961785
  H     -0.803826   -0.586774    0.228744
  H     -0.812089   -1.026992   -2.189761
  H      0.525263   -2.809103   -1.401628
  H      3.268824   -2.342351   -1.888596
  H      3.611834   -0.286283   -3.009401
  H      3.025655    0.309592   -0.793244

 Total Charge           Charge          ....    0
 Multiplicity           Mult            ....    1
 Number of Electrons    NEL             ....   60
 Basis Dimension        Dim             ....  308

ORBITAL ENERGIES
----------------

  NO   OCC          E(Eh)            E(eV)
   0   2.0000     -15.556282      -423.3080
   1   2.0000     -15.552390      -423.2020
   2   2.0000     -11.263051      -306.4832
   3   2.0000     -11.260022      -306.4008
   4   2.0000     -11.258241      -306.3523
   5   2.0000     -11.257050      -306.3199
   6   2.0000     -11.234974      -305.7192
   7   2.0000     -11.217861      -305.2535
   8   2.0000      -1.307737       -35.5853
   9   2.0000      -1.212962       -33.0064
  10   2.0000      -1.044852       -28.4319
  11   2.0000      -0.965277       -26.2665
  12   2.0000      -0.890248       -24.2249
  13   2.0000      -0.846844       -23.0438
  14   2.0000      -0.790523       -21.5112
  15   2.0000      -0.740846       -20.1595
  16   2.0000      -0.700819       -19.0703
  17   2.0000      -0.635948       -17.3050
  18   2.0000      -0.628451       -17.1010
  19   2.0000      -0.594279       -16.1712
  20   2.0000      -0.572947       -15.5907
  21   2.0000      -0.539970       -14.6933
  22   2.0000      -0.524799       -14.2805
  23   2.0000      -0.505497       -13.7553
  24   2.0000      -0.497764       -13.5448
  25   2.0000      -0.456872       -12.4321
  26   2.0000      -0.451846       -12.2954
  27   2.0000      -0.442654       -12.0452
  28   2.0000      -0.381024       -10.3682
  29   2.0000      -0.323259        -8.7963
  30   0.0000       0.129915         3.5352
  31   0.0000       0.149831         4.0771
  32   0.0000       0.155566         4.2332
  33   0.0000       0.169049         4.6000
  34   0.0000       0.188462         5.1283

MULLIKEN ATOMIC CHARGES
-----------------------
   0 C :   -0.385620
   1 C :   -0.197726
   2 C :    0.206311
   3 N :   -0.358446
   4 C :   -0.150634
   5 C :   -0.052334
   6 N :   -0.343919
   7 C :   -0.178618
   8 H :    0.129375
   9 H :    0.135334
  10 H :    0.133396
  11 H :    0.113788
  12 H :    0.109662
  13 H :    0.209228
  14 H :    0.139913
  15 H :    0.139671
  16 H :    0.213466
  17 H :    0.137152
Sum of atomic charges:   -0.0000000

LOEWDIN ATOMIC CHARGES
----------------------
   0 C :   -0.307374
   1 C :   -0.265535
   2 C :   -0.248289
   3 N :    0.033603
   4 C :   -0.199461
   5 C :   -0.217795
   6 N :    0.012715
   7 C :   -0.197890
   8 H :    0.123433
   9 H :    0.124931
  10 H :    0.120397
  11 H :    0.144730
  12 H :    0.142239
  13 H :    0.172108
  14 H :    0.130086
  15 H :    0.128739
  16 H :    0.172804
  17 H :    0.130558

  Mayer bond orders larger than 0.1
B(  0-C ,  1-C ) :   0.9322 B(  0-C ,  8-H ) :   0.9361 B(  0-C ,  9-H ) :   0.9363
B(  0-C , 10-H ) :   0.9388 B(  1-C ,  2-C ) :   0.9276 B(  1-C , 11-H ) :   0.9162
B(  1-C , 12-H ) :   0.9315 B(  2-C ,  3-N ) :   0.9226 B(  2-C ,  4-C ) :   0.9517
B(  2-C ,  5-C ) :  -0.1227 B(  2-C ,  7-C ) :   0.8391 B(  3-N ,  4-C ) :   1.0385
B(  3-N , 13-H ) :   0.8619 B(  4-C ,  5-C ) :   0.8776 B(  4-C , 14-H ) :   0.9246
B(  5-C ,  6-N ) :   0.9706 B(  5-C ,  7-C ) :   1.0241 B(  5-C , 15-H ) :   0.9266
B(  6-N ,  7-C ) :   1.0095 B(  6-N , 16-H ) :   0.8636 B(  7-C , 17-H ) :   0.9319

MP2 TOTAL ENERGY:     -343.268148266 Eh
FINAL SINGLE POINT ENERGY      -343.268148266252

DIPOLE MOMENT
-------------
                                X             Y             Z
Electronic contribution:      2.92087      -3.57869      -4.43798
Nuclear contribution   :     -2.69145       3.23587       5.56930
                        -----------------------------------------
Total Dipole Moment    :      0.22941      -0.34281       1.13132
                        -----------------------------------------
Magnitude (a.u.)       :      1.20417
Magnitude (Debye)      :      3.06076

                             ****ORCA TERMINATED NORMALLY****
TOTAL RUN TIME: 0 days 0 hours 13 minutes 16 seconds 21 msec
