                         Program Version 3.0.3 - RELEASE   -
|  1> ! RI-MP2 RIJK def2-TZVP def2-TZVP/C def2-TZVP/JK TIGHTSCF
|  2> % maxcore 2000
|  3> % mp2 density relaxed end
|  4> *xyz 0 1
|  5>  C       -0.5954367786     1.2555501313    -1.7770739479
|  6>  C       -0.2575401002    -0.0421876612    -1.0728580342
|  7>  C        1.1452434020    -0.5424231857    -0.8522986108
|  8>  C        2.3888413829     0.1972338192    -1.2947450611
|  9>  O        3.5480368404    -0.2453250471    -0.6091270951
| 10>  C        0.3089015451    -0.0750351777     0.3512274953
| 11>  C        0.6255434137     1.2024925244     1.1186826851
| 12>  C       -0.1983290398    -1.1285971470     1.1971013828
| 13>  N       -0.6036333005    -1.9677781432     1.8836326679
| 14>  H        0.1271950753     2.0515043969    -1.5874563976
| 15>  H       -0.6289809101     1.0954462408    -2.8598223439
| 16>  H       -1.5806040238     1.6174758624    -1.4658618491
| 17>  H       -0.9810693647    -0.8287092208    -1.2675128464
| 18>  H        1.2713809140    -1.6196062618    -0.9144629205
| 19>  H        2.5743201852    -0.0175573598    -2.3529535172
| 20>  H        2.2653369772     1.2855343193    -1.2104343352
| 21>  H        3.4040307131    -0.1120595957     0.3333940378
| 22>  H        1.0346446714     1.9787627255     0.4712537465
| 23>  H       -0.2785439940     1.6006552169     1.5885176474
| 24>  H        1.3514647715     1.0067436233     1.9142466963
| 25> *
| 26>
| 27>                          ****END OF INPUT****

CARTESIAN COORDINATES (ANGSTROEM)
---------------------------------
  C     -0.595437    1.255550   -1.777074
  C     -0.257540   -0.042188   -1.072858
  C      1.145243   -0.542423   -0.852299
  C      2.388841    0.197234   -1.294745
  O      3.548037   -0.245325   -0.609127
  C      0.308902   -0.075035    0.351227
  C      0.625543    1.202493    1.118683
  C     -0.198329   -1.128597    1.197101
  N     -0.603633   -1.967778    1.883633
  H      0.127195    2.051504   -1.587456
  H     -0.628981    1.095446   -2.859822
  H     -1.580604    1.617476   -1.465862
  H     -0.981069   -0.828709   -1.267513
  H      1.271381   -1.619606   -0.914463
  H      2.574320   -0.017557   -2.352954
  H      2.265337    1.285534   -1.210434
  H      3.404031   -0.112060    0.333394
  H      1.034645    1.978763    0.471254
  H     -0.278544    1.600655    1.588518
  H      1.351465    1.006744    1.914247

 Total Charge           Charge          ....    0
 Multiplicity           Mult            ....    1
 Number of Electrons    NEL             ....   68
 Basis Dimension        Dim             ....  345

ORBITAL ENERGIES
----------------

  NO   OCC          E(Eh)            E(eV)
   0   2.0000     -20.568870      -559.7074
   1   2.0000     -15.565340      -423.5544
   2   2.0000     -11.296204      -307.3853
   3   2.0000     -11.292404      -307.2819
   4   2.0000     -11.270301      -306.6805
   5   2.0000     -11.269237      -306.6515
   6   2.0000     -11.262583      -306.4705
   7   2.0000     -11.252289      -306.1903
   8   2.0000     -11.244071      -305.9667
   9   2.0000      -1.374328       -37.3974
  10   2.0000      -1.225185       -33.3390
  11   2.0000      -1.184035       -32.2192
  12   2.0000      -1.023406       -27.8483
  13   2.0000      -0.997331       -27.1388
  14   2.0000      -0.954144       -25.9636
  15   2.0000      -0.848548       -23.0902
  16   2.0000      -0.794843       -21.6288
  17   2.0000      -0.738359       -20.0918
  18   2.0000      -0.693763       -18.8783
  19   2.0000      -0.646728       -17.5984
  20   2.0000      -0.631282       -17.1780
  21   2.0000      -0.615500       -16.7486
  22   2.0000      -0.591264       -16.0891
  23   2.0000      -0.584195       -15.8967
  24   2.0000      -0.571277       -15.5452
  25   2.0000      -0.562823       -15.3152
  26   2.0000      -0.556180       -15.1344
  27   2.0000      -0.533036       -14.5046
  28   2.0000      -0.518346       -14.1049
  29   2.0000      -0.496782       -13.5181
  30   2.0000      -0.479424       -13.0458
  31   2.0000      -0.462222       -12.5777
  32   2.0000      -0.426103       -11.5948
  33   2.0000      -0.400964       -10.9108
  34   0.0000       0.109977         2.9926
  35   0.0000       0.135198         3.6789
  36   0.0000       0.144713         3.9378
  37   0.0000       0.167900         4.5688
  38   0.0000       0.174630         4.7519

MULLIKEN ATOMIC CHARGES
-----------------------
   0 C :   -0.408799
   1 C :   -0.090734
   2 C :   -0.175560
   3 C :   -0.022202
   4 O :   -0.460259
   5 C :    0.100413
   6 C :   -0.401881
   7 C :   -0.191864
   8 N :   -0.057140
   9 H :    0.124217
  10 H :    0.148825
  11 H :    0.147255
  12 H :    0.148753
  13 H :    0.152193
  14 H :    0.128170
  15 H :    0.096408
  16 H :    0.317033
  17 H :    0.135654
  18 H :    0.158360
  19 H :    0.151158
Sum of atomic charges:    0.0000000

LOEWDIN ATOMIC CHARGES
----------------------
   0 C :   -0.282809
   1 C :   -0.169649
   2 C :   -0.164357
   3 C :   -0.321952
   4 O :   -0.038956
   5 C :   -0.222919
   6 C :   -0.245411
   7 C :   -0.157829
   8 N :    0.059456
   9 H :    0.123288
  10 H :    0.132916
  11 H :    0.131895
  12 H :    0.161492
  13 H :    0.163522
  14 H :    0.138241
  15 H :    0.117774
  16 H :    0.175095
  17 H :    0.128135
  18 H :    0.138323
  19 H :    0.133746

  Mayer bond orders larger than 0.1
B(  0-C ,  1-C ) :   0.8968 B(  0-C ,  9-H ) :   0.9392 B(  0-C , 10-H ) :   0.9353
B(  0-C , 11-H ) :   0.9355 B(  1-C ,  2-C ) :   0.8682 B(  1-C ,  5-C ) :   0.8182
B(  1-C , 12-H ) :   0.9229 B(  2-C ,  3-C ) :   0.9331 B(  2-C ,  5-C ) :   0.8304
B(  2-C , 13-H ) :   0.9251 B(  3-C ,  4-O ) :   0.9233 B(  3-C , 14-H ) :   0.9265
B(  3-C , 15-H ) :   0.9295 B(  4-O , 16-H ) :   0.8457 B(  5-C ,  6-C ) :   0.9250
B(  5-C ,  7-C ) :   0.9107 B(  6-C , 17-H ) :   0.9285 B(  6-C , 18-H ) :   0.9309
B(  6-C , 19-H ) :   0.9338 B(  7-C ,  8-N ) :   2.8730

MP2 TOTAL ENERGY:     -402.462529238 Eh
FINAL SINGLE POINT ENERGY      -402.462529238433

DIPOLE MOMENT
-------------
                                X             Y             Z
Electronic contribution:     -0.03148      -7.18917       4.50794
Nuclear contribution   :     -0.01501       8.61541      -5.34581
                        -----------------------------------------
Total Dipole Moment    :     -0.04649       1.42624      -0.83786
                        -----------------------------------------
Magnitude (a.u.)       :      1.65479
Magnitude (Debye)      :      4.20613

                             ****ORCA TERMINATED NORMALLY****
TOTAL RUN TIME: 0 days 0 hours 19 minutes 58 seconds 490 msec
