                         Program Version 3.0.3 - RELEASE   -
|  1> ! RI-MP2 RIJK def2-TZVP def2-TZVP/C def2-TZVP/JK TIGHTSCF
|  2> % maxcore 2000
|  3> % mp2 density relaxed end
|  4> *xyz 0 1
|  5>  O        0.0929030827     1.4673704449    -0.1104805856
|  6>  C        0.0637126419     0.0431361827    -0.0174782982
|  7>  C        0.6846351331    -0.4945339092     1.2635573516
|  8>  C       -0.1546674254    -1.2284056295     1.9967394088
|  9>  C       -1.5101180897    -1.3343865173     1.3571088624
| 10>  C       -2.6623170054    -0.4247260406     1.8610101757
| 11>  C       -2.2211205478     1.0054406203     1.9661050181
| 12>  C       -2.5170562920     0.4488003801     0.6054739689
| 13>  C       -1.3960184305    -0.4621039720     0.0676706439
| 14>  H        1.0137448580     1.7388583374    -0.1776768032
| 15>  H        0.5698115202    -0.3836057332    -0.8986938849
| 16>  H        1.7158805966    -0.2745694728     1.5270730876
| 17>  H        0.0899132076    -1.6823037758     2.9520674420
| 18>  H       -1.8362394653    -2.3641701085     1.1884251232
| 19>  H       -3.5649993081    -0.7872345527     2.3376798367
| 20>  H       -2.9804776505     1.6832316653     2.3441426577
| 21>  H       -1.2085246005     1.2686590031     2.2506821765
| 22>  H       -3.2969974743     0.8703226502    -0.0164426863
| 23>  H       -1.7040587605    -0.9811657322    -0.8405660049
| 24> *
| 25>
| 26>                          ****END OF INPUT****

CARTESIAN COORDINATES (ANGSTROEM)
---------------------------------
  O      0.092903    1.467370   -0.110481
  C      0.063713    0.043136   -0.017478
  C      0.684635   -0.494534    1.263557
  C     -0.154667   -1.228406    1.996739
  C     -1.510118   -1.334387    1.357109
  C     -2.662317   -0.424726    1.861010
  C     -2.221121    1.005441    1.966105
  C     -2.517056    0.448800    0.605474
  C     -1.396018   -0.462104    0.067671
  H      1.013745    1.738858   -0.177677
  H      0.569812   -0.383606   -0.898694
  H      1.715881   -0.274569    1.527073
  H      0.089913   -1.682304    2.952067
  H     -1.836239   -2.364170    1.188425
  H     -3.564999   -0.787235    2.337680
  H     -2.980478    1.683232    2.344143
  H     -1.208525    1.268659    2.250682
  H     -3.296997    0.870323   -0.016443
  H     -1.704059   -0.981166   -0.840566

 Total Charge           Charge          ....    0
 Multiplicity           Mult            ....    1
 Number of Electrons    NEL             ....   66
 Basis Dimension        Dim             ....  339

ORBITAL ENERGIES
----------------

  NO   OCC          E(Eh)            E(eV)
   0   2.0000     -20.550598      -559.2102
   1   2.0000     -11.279514      -306.9312
   2   2.0000     -11.230403      -305.5948
   3   2.0000     -11.227539      -305.5169
   4   2.0000     -11.224965      -305.4468
   5   2.0000     -11.224629      -305.4377
   6   2.0000     -11.223895      -305.4177
   7   2.0000     -11.222828      -305.3887
   8   2.0000     -11.213896      -305.1456
   9   2.0000      -1.355326       -36.8803
  10   2.0000      -1.190455       -32.3939
  11   2.0000      -1.086951       -29.5774
  12   2.0000      -0.963566       -26.2200
  13   2.0000      -0.945650       -25.7324
  14   2.0000      -0.833249       -22.6739
  15   2.0000      -0.799054       -21.7434
  16   2.0000      -0.738243       -20.0886
  17   2.0000      -0.707501       -19.2521
  18   2.0000      -0.702965       -19.1287
  19   2.0000      -0.672909       -18.3108
  20   2.0000      -0.657212       -17.8837
  21   2.0000      -0.597973       -16.2717
  22   2.0000      -0.577346       -15.7104
  23   2.0000      -0.559158       -15.2155
  24   2.0000      -0.530893       -14.4463
  25   2.0000      -0.524210       -14.2645
  26   2.0000      -0.499172       -13.5832
  27   2.0000      -0.465940       -12.6789
  28   2.0000      -0.449404       -12.2289
  29   2.0000      -0.438899       -11.9430
  30   2.0000      -0.404481       -11.0065
  31   2.0000      -0.360202        -9.8016
  32   2.0000      -0.352735        -9.5984
  33   0.0000       0.130260         3.5445
  34   0.0000       0.148277         4.0348
  35   0.0000       0.161708         4.4003
  36   0.0000       0.173772         4.7286
  37   0.0000       0.178324         4.8525

MULLIKEN ATOMIC CHARGES
-----------------------
   0 O :   -0.453619
   1 C :    0.074334
   2 C :   -0.218620
   3 C :   -0.199441
   4 C :   -0.009793
   5 C :   -0.179084
   6 C :   -0.232410
   7 C :   -0.131423
   8 C :   -0.041611
   9 H :    0.309525
  10 H :    0.085734
  11 H :    0.124302
  12 H :    0.128034
  13 H :    0.114226
  14 H :    0.125210
  15 H :    0.124558
  16 H :    0.140913
  17 H :    0.125487
  18 H :    0.113680
Sum of atomic charges:    0.0000000

LOEWDIN ATOMIC CHARGES
----------------------
   0 O :   -0.017107
   1 C :   -0.302735
   2 C :   -0.149080
   3 C :   -0.128623
   4 C :   -0.165642
   5 C :   -0.158773
   6 C :   -0.202404
   7 C :   -0.154969
   8 C :   -0.137586
   9 H :    0.171241
  10 H :    0.132938
  11 H :    0.133873
  12 H :    0.138393
  13 H :    0.150295
  14 H :    0.131737
  15 H :    0.140069
  16 H :    0.135021
  17 H :    0.134194
  18 H :    0.149157

  Mayer bond orders larger than 0.1
B(  0-O ,  1-C ) :   1.0438 B(  0-O ,  9-H ) :   0.8471 B(  1-C ,  2-C ) :   0.9348
B(  1-C ,  8-C ) :   0.8909 B(  1-C , 10-H ) :   0.9474 B(  2-C ,  3-C ) :   1.7704
B(  2-C , 11-H ) :   0.9160 B(  3-C ,  4-C ) :   0.9213 B(  3-C , 12-H ) :   0.9195
B(  4-C ,  5-C ) :   0.9011 B(  4-C ,  8-C ) :   1.0066 B(  4-C , 13-H ) :   0.9174
B(  5-C ,  6-C ) :   0.9021 B(  5-C ,  7-C ) :   0.8461 B(  5-C , 14-H ) :   0.9247
B(  6-C ,  7-C ) :   0.8747 B(  6-C , 15-H ) :   0.9315 B(  6-C , 16-H ) :   0.9166
B(  7-C ,  8-C ) :   0.9457 B(  7-C , 17-H ) :   0.9287 B(  8-C , 18-H ) :   0.9189

MP2 TOTAL ENERGY:     -385.180096953 Eh
FINAL SINGLE POINT ENERGY      -385.180096952964

DIPOLE MOMENT
-------------
                                X             Y             Z
Electronic contribution:      1.14903      -0.02551      -0.91631
Nuclear contribution   :     -0.78070      -0.30848       0.90750
                        -----------------------------------------
Total Dipole Moment    :      0.36833      -0.33399      -0.00881
                        -----------------------------------------
Magnitude (a.u.)       :      0.49728
Magnitude (Debye)      :      1.26399

                             ****ORCA TERMINATED NORMALLY****
TOTAL RUN TIME: 0 days 0 hours 18 minutes 46 seconds 787 msec
