                         Program Version 3.0.3 - RELEASE   -
|  1> ! RI-MP2 RIJK def2-TZVP def2-TZVP/C def2-TZVP/JK TIGHTSCF
|  2> % maxcore 2000
|  3> % mp2 density relaxed end
|  4> *xyz 0 1
|  5>  C       -0.1408396460     1.5890733220     0.0144450040
|  6>  C       -0.0472353582     0.0897765997    -0.0246918305
|  7>  C        0.7354459761    -0.6894762321    -1.0878992812
|  8>  C       -0.3181526527    -1.8578273389    -0.9957194242
|  9>  C        0.1920034181    -3.1227812294    -0.3620544169
| 10>  C        0.6134962931    -3.1178817073     0.9017630105
| 11>  C        0.5716914185    -1.8775021472     1.7594317931
| 12>  C       -0.3185537245    -0.7681705732     1.1971157672
| 13>  C       -1.1483595946    -0.9711391349    -0.0395905866
| 14>  H        0.8062202434     2.0402039653     0.3368061075
| 15>  H       -0.3799268565     1.9990516367    -0.9741424484
| 16>  H       -0.9171888117     1.9235979397     0.7107803390
| 17>  H        0.6977483962    -0.1883055446    -2.0599617036
| 18>  H        1.7757400631    -0.9500213226    -0.8665270507
| 19>  H       -0.8071938152    -2.0487939204    -1.9516317220
| 20>  H        0.2387683581    -4.0288704304    -0.9596716343
| 21>  H        1.0036347929    -4.0217858108     1.3624701346
| 22>  H        0.2070571015    -2.1513950232     2.7585733355
| 23>  H        1.5931116512    -1.5029150323     1.9236956385
| 24>  H       -0.8316955155    -0.1975311855     1.9675327315
| 25>  H       -2.2270236374    -0.8655792008    -0.0595259729
| 26> *
| 27>
| 28>                          ****END OF INPUT****

CARTESIAN COORDINATES (ANGSTROEM)
---------------------------------
  C     -0.140840    1.589073    0.014445
  C     -0.047235    0.089777   -0.024692
  C      0.735446   -0.689476   -1.087899
  C     -0.318153   -1.857827   -0.995719
  C      0.192003   -3.122781   -0.362054
  C      0.613496   -3.117882    0.901763
  C      0.571691   -1.877502    1.759432
  C     -0.318554   -0.768171    1.197116
  C     -1.148360   -0.971139   -0.039591
  H      0.806220    2.040204    0.336806
  H     -0.379927    1.999052   -0.974142
  H     -0.917189    1.923598    0.710780
  H      0.697748   -0.188306   -2.059962
  H      1.775740   -0.950021   -0.866527
  H     -0.807194   -2.048794   -1.951632
  H      0.238768   -4.028870   -0.959672
  H      1.003635   -4.021786    1.362470
  H      0.207057   -2.151395    2.758573
  H      1.593112   -1.502915    1.923696
  H     -0.831696   -0.197531    1.967533
  H     -2.227024   -0.865579   -0.059526

 Total Charge           Charge          ....    0
 Multiplicity           Mult            ....    1
 Number of Electrons    NEL             ....   66
 Basis Dimension        Dim             ....  351

ORBITAL ENERGIES
----------------

  NO   OCC          E(Eh)            E(eV)
   0   2.0000     -11.230425      -305.5954
   1   2.0000     -11.227575      -305.5178
   2   2.0000     -11.225103      -305.4506
   3   2.0000     -11.223116      -305.3965
   4   2.0000     -11.220570      -305.3272
   5   2.0000     -11.218310      -305.2657
   6   2.0000     -11.217529      -305.2445
   7   2.0000     -11.214851      -305.1716
   8   2.0000     -11.213581      -305.1371
   9   2.0000      -1.196791       -32.5663
  10   2.0000      -1.062643       -28.9160
  11   2.0000      -1.014621       -27.6092
  12   2.0000      -0.967068       -26.3152
  13   2.0000      -0.914727       -24.8910
  14   2.0000      -0.847506       -23.0618
  15   2.0000      -0.797875       -21.7113
  16   2.0000      -0.712841       -19.3974
  17   2.0000      -0.683923       -18.6105
  18   2.0000      -0.666858       -18.1461
  19   2.0000      -0.611752       -16.6466
  20   2.0000      -0.609718       -16.5913
  21   2.0000      -0.578558       -15.7434
  22   2.0000      -0.574034       -15.6203
  23   2.0000      -0.558737       -15.2040
  24   2.0000      -0.543342       -14.7851
  25   2.0000      -0.525306       -14.2943
  26   2.0000      -0.495622       -13.4866
  27   2.0000      -0.490951       -13.3595
  28   2.0000      -0.459325       -12.4989
  29   2.0000      -0.439483       -11.9589
  30   2.0000      -0.386422       -10.5151
  31   2.0000      -0.359667        -9.7870
  32   2.0000      -0.334193        -9.0939
  33   0.0000       0.134066         3.6481
  34   0.0000       0.153785         4.1847
  35   0.0000       0.163173         4.4402
  36   0.0000       0.165560         4.5051
  37   0.0000       0.181021         4.9258

MULLIKEN ATOMIC CHARGES
-----------------------
   0 C :   -0.416421
   1 C :    0.066338
   2 C :   -0.246091
   3 C :    0.075329
   4 C :   -0.278115
   5 C :   -0.165707
   6 C :   -0.136916
   7 C :   -0.189445
   8 C :   -0.146464
   9 H :    0.132579
  10 H :    0.126815
  11 H :    0.127758
  12 H :    0.111329
  13 H :    0.112458
  14 H :    0.115202
  15 H :    0.114480
  16 H :    0.115581
  17 H :    0.120655
  18 H :    0.117114
  19 H :    0.114980
  20 H :    0.128543
Sum of atomic charges:    0.0000000

LOEWDIN ATOMIC CHARGES
----------------------
   0 C :   -0.277558
   1 C :   -0.212158
   2 C :   -0.158187
   3 C :   -0.180507
   4 C :   -0.156792
   5 C :   -0.164383
   6 C :   -0.228868
   7 C :   -0.161786
   8 C :   -0.120224
   9 H :    0.128027
  10 H :    0.125684
  11 H :    0.128339
  12 H :    0.136010
  13 H :    0.129429
  14 H :    0.147508
  15 H :    0.139575
  16 H :    0.139411
  17 H :    0.146773
  18 H :    0.148749
  19 H :    0.156930
  20 H :    0.134028

  Mayer bond orders larger than 0.1
B(  0-C ,  1-C ) :   0.8869 B(  0-C ,  9-H ) :   0.9408 B(  0-C , 10-H ) :   0.9398
B(  0-C , 11-H ) :   0.9379 B(  1-C ,  2-C ) :   0.9634 B(  1-C ,  7-C ) :   0.8910
B(  1-C ,  8-C ) :   0.8173 B(  2-C ,  3-C ) :   0.9081 B(  2-C , 12-H ) :   0.9215
B(  2-C , 13-H ) :   0.9109 B(  3-C ,  4-C ) :   0.9228 B(  3-C ,  8-C ) :   0.9105
B(  3-C , 14-H ) :   0.9257 B(  4-C ,  5-C ) :   1.8087 B(  4-C , 15-H ) :   0.9331
B(  5-C ,  6-C ) :   0.9600 B(  5-C , 16-H ) :   0.9326 B(  6-C ,  7-C ) :   0.9322
B(  6-C , 17-H ) :   0.9163 B(  6-C , 18-H ) :   0.9017 B(  7-C ,  8-C ) :   0.8858
B(  7-C , 19-H ) :   0.9337 B(  8-C , 20-H ) :   0.9115

MP2 TOTAL ENERGY:     -349.289492437 Eh
FINAL SINGLE POINT ENERGY      -349.289492436871

DIPOLE MOMENT
-------------
                                X             Y             Z
Electronic contribution:     -0.85413      -3.46618      -0.28774
Nuclear contribution   :      0.82120       3.63568       0.31331
                        -----------------------------------------
Total Dipole Moment    :     -0.03294       0.16950       0.02557
                        -----------------------------------------
Magnitude (a.u.)       :      0.17455
Magnitude (Debye)      :      0.44368

                             ****ORCA TERMINATED NORMALLY****
TOTAL RUN TIME: 0 days 0 hours 20 minutes 47 seconds 614 msec
