                         Program Version 3.0.3 - RELEASE   -
|  1> ! RI-MP2 RIJK def2-TZVP def2-TZVP/C def2-TZVP/JK TIGHTSCF
|  2> % maxcore 2000
|  3> % mp2 density relaxed end
|  4> *xyz 0 1
|  5>  C       -0.0565516083     1.5507427755    -0.0643366988
|  6>  C        0.0512363404     0.0229786312    -0.0330597497
|  7>  C        0.7047419077    -0.5222243299     1.2397904211
|  8>  C       -0.0819928518    -0.2449593215     2.5596505323
|  9>  C        0.0868168068    -1.5219172884     3.3820728757
| 10>  C       -0.3579804128    -2.8119232718     2.7185914923
| 11>  O       -0.5205701153    -2.6203802066     1.3121848122
| 12>  C        0.8339936757    -2.0462824693     1.2628117393
| 13>  C        1.0928423066    -2.4538417768     2.7280346520
| 14>  H        0.9304493424     2.0203795427     0.0183579207
| 15>  H       -0.5103945371     1.8950400654    -0.9988564599
| 16>  H       -0.6715552875     1.9272559620     0.7596627457
| 17>  H       -0.9429428344    -0.4282947765    -0.1303485626
| 18>  H        0.6304787302    -0.3145278649    -0.9028646575
| 19>  H        1.7186303775    -0.1051962428     1.3318297781
| 20>  H        0.3117054833     0.6238901919     3.0942309691
| 21>  H       -1.1379462111    -0.0468144562     2.3464552814
| 22>  H        0.0346886605    -1.4915102917     4.4650733690
| 23>  H       -0.9278462946    -3.6015833323     3.1943790293
| 24>  H        1.4250364339    -2.4989312658     0.4638589183
| 25>  H        1.9669599877    -2.9108849641     3.1695884219
| 26> *
| 27>
| 28>                          ****END OF INPUT****

CARTESIAN COORDINATES (ANGSTROEM)
---------------------------------
  C     -0.056552    1.550743   -0.064337
  C      0.051236    0.022979   -0.033060
  C      0.704742   -0.522224    1.239790
  C     -0.081993   -0.244959    2.559651
  C      0.086817   -1.521917    3.382073
  C     -0.357980   -2.811923    2.718591
  O     -0.520570   -2.620380    1.312185
  C      0.833994   -2.046282    1.262812
  C      1.092842   -2.453842    2.728035
  H      0.930449    2.020380    0.018358
  H     -0.510395    1.895040   -0.998856
  H     -0.671555    1.927256    0.759663
  H     -0.942943   -0.428295   -0.130349
  H      0.630479   -0.314528   -0.902865
  H      1.718630   -0.105196    1.331830
  H      0.311705    0.623890    3.094231
  H     -1.137946   -0.046814    2.346455
  H      0.034689   -1.491510    4.465073
  H     -0.927846   -3.601583    3.194379
  H      1.425036   -2.498931    0.463859
  H      1.966960   -2.910885    3.169588

 Total Charge           Charge          ....    0
 Multiplicity           Mult            ....    1
 Number of Electrons    NEL             ....   68
 Basis Dimension        Dim             ....  351

ORBITAL ENERGIES
----------------

  NO   OCC          E(Eh)            E(eV)
   0   2.0000     -20.545369      -559.0679
   1   2.0000     -11.283538      -307.0407
   2   2.0000     -11.282841      -307.0217
   3   2.0000     -11.233992      -305.6925
   4   2.0000     -11.229834      -305.5793
   5   2.0000     -11.225321      -305.4565
   6   2.0000     -11.220967      -305.3380
   7   2.0000     -11.214327      -305.1573
   8   2.0000     -11.210380      -305.0500
   9   2.0000      -1.387843       -37.7651
  10   2.0000      -1.136498       -30.9257
  11   2.0000      -1.071964       -29.1696
  12   2.0000      -0.984570       -26.7915
  13   2.0000      -0.949871       -25.8473
  14   2.0000      -0.859942       -23.4002
  15   2.0000      -0.791883       -21.5482
  16   2.0000      -0.765925       -20.8419
  17   2.0000      -0.728767       -19.8308
  18   2.0000      -0.720729       -19.6120
  19   2.0000      -0.645329       -17.5603
  20   2.0000      -0.634102       -17.2548
  21   2.0000      -0.590194       -16.0600
  22   2.0000      -0.580602       -15.7990
  23   2.0000      -0.560484       -15.2515
  24   2.0000      -0.545078       -14.8323
  25   2.0000      -0.529289       -14.4027
  26   2.0000      -0.514553       -14.0017
  27   2.0000      -0.497590       -13.5401
  28   2.0000      -0.490731       -13.3535
  29   2.0000      -0.466879       -12.7044
  30   2.0000      -0.449326       -12.2268
  31   2.0000      -0.434703       -11.8289
  32   2.0000      -0.393939       -10.7196
  33   2.0000      -0.368925       -10.0390
  34   0.0000       0.138865         3.7787
  35   0.0000       0.159692         4.3454
  36   0.0000       0.162190         4.4134
  37   0.0000       0.174492         4.7482
  38   0.0000       0.184049         5.0082

MULLIKEN ATOMIC CHARGES
-----------------------
   0 C :   -0.389177
   1 C :   -0.253300
   2 C :   -0.087323
   3 C :   -0.238993
   4 C :   -0.114657
   5 C :    0.016836
   6 O :   -0.345422
   7 C :    0.162267
   8 C :   -0.231263
   9 H :    0.119471
  10 H :    0.135000
  11 H :    0.128187
  12 H :    0.135721
  13 H :    0.106037
  14 H :    0.089407
  15 H :    0.125404
  16 H :    0.112724
  17 H :    0.126923
  18 H :    0.130730
  19 H :    0.127016
  20 H :    0.144414
Sum of atomic charges:   -0.0000000

LOEWDIN ATOMIC CHARGES
----------------------
   0 C :   -0.317793
   1 C :   -0.273308
   2 C :   -0.226898
   3 C :   -0.203154
   4 C :   -0.182182
   5 C :   -0.232763
   6 O :    0.160183
   7 C :   -0.198139
   8 C :   -0.154247
   9 H :    0.119661
  10 H :    0.120956
  11 H :    0.120604
  12 H :    0.143317
  13 H :    0.136893
  14 H :    0.155631
  15 H :    0.137227
  16 H :    0.143450
  17 H :    0.147811
  18 H :    0.130580
  19 H :    0.137998
  20 H :    0.134173

  Mayer bond orders larger than 0.1
B(  0-C ,  1-C ) :   0.9128 B(  0-C ,  9-H ) :   0.9374 B(  0-C , 10-H ) :   0.9429
B(  0-C , 11-H ) :   0.9396 B(  1-C ,  2-C ) :   0.8933 B(  1-C , 12-H ) :   0.9347
B(  1-C , 13-H ) :   0.9348 B(  2-C ,  3-C ) :   0.9731 B(  2-C ,  7-C ) :   0.9288
B(  2-C , 14-H ) :   0.9117 B(  3-C ,  4-C ) :   0.9236 B(  3-C , 15-H ) :   0.9247
B(  3-C , 16-H ) :   0.9106 B(  4-C ,  5-C ) :   0.8818 B(  4-C ,  8-C ) :   0.8643
B(  4-C , 17-H ) :   0.9257 B(  5-C ,  6-O ) :   0.9621 B(  5-C ,  8-C ) :   0.9314
B(  5-C , 18-H ) :   0.9266 B(  6-O ,  7-C ) :   0.8908 B(  7-C ,  8-C ) :   0.9260
B(  7-C , 19-H ) :   0.9087 B(  8-C , 20-H ) :   0.9072

MP2 TOTAL ENERGY:     -386.384492921 Eh
FINAL SINGLE POINT ENERGY      -386.384492920811

DIPOLE MOMENT
-------------
                                X             Y             Z
Electronic contribution:     -0.16854      -8.15310       3.10807
Nuclear contribution   :      0.66371       8.34426      -2.69194
                        -----------------------------------------
Total Dipole Moment    :      0.49517       0.19116       0.41613
                        -----------------------------------------
Magnitude (a.u.)       :      0.67446
Magnitude (Debye)      :      1.71435

                             ****ORCA TERMINATED NORMALLY****
TOTAL RUN TIME: 0 days 0 hours 31 minutes 5 seconds 461 msec
