                         Program Version 3.0.3 - RELEASE   -
|  1> ! RI-MP2 RIJK def2-TZVP def2-TZVP/C def2-TZVP/JK TIGHTSCF
|  2> % maxcore 2000
|  3> % mp2 density relaxed end
|  4> *xyz 0 1
|  5>  C       -0.0818959570     1.5177796988     0.0031334894
|  6>  C        0.0031738844    -0.0036836221     0.0058981029
|  7>  C        1.1264043050    -0.5832565814    -0.9227434180
|  8>  C        2.0483460488    -0.5962600109     0.3361587565
|  9>  C        0.7732685691    -0.5990792665     1.2356863489
| 10>  C        0.3152004587    -1.9833107166     1.6052813836
| 11>  C        0.1537145069    -3.0068832281     0.7499536881
| 12>  C        0.3899833135    -2.9962945544    -0.6942014268
| 13>  C        0.8132241383    -1.9609927959    -1.4387693392
| 14>  H        0.8956091643     1.9845638761     0.1664512645
| 15>  H       -0.4675189273     1.8857220388    -0.9542658063
| 16>  H       -0.7533195857     1.8729176516     0.7929229871
| 17>  H       -0.9872305287    -0.4350865895    -0.1593028660
| 18>  H        1.4423358089     0.0706582404    -1.7391835380
| 19>  H        2.7371862931    -1.4356065489     0.4427052538
| 20>  H        2.5986928270     0.3413343705     0.4330722999
| 21>  H        0.8110266950     0.0423698958     2.1194901798
| 22>  H        0.0980038931    -2.1588615123     2.6557398980
| 23>  H       -0.1859456604    -3.9557551441     1.1576966786
| 24>  H        0.2001736344    -3.9384487188    -1.2024327022
| 25>  H        0.9424976985    -2.1210143224    -2.5060729448
| 26> *
| 27>
| 28>                          ****END OF INPUT****

CARTESIAN COORDINATES (ANGSTROEM)
---------------------------------
  C     -0.081896    1.517780    0.003133
  C      0.003174   -0.003684    0.005898
  C      1.126404   -0.583257   -0.922743
  C      2.048346   -0.596260    0.336159
  C      0.773269   -0.599079    1.235686
  C      0.315200   -1.983311    1.605281
  C      0.153715   -3.006883    0.749954
  C      0.389983   -2.996295   -0.694201
  C      0.813224   -1.960993   -1.438769
  H      0.895609    1.984564    0.166451
  H     -0.467519    1.885722   -0.954266
  H     -0.753320    1.872918    0.792923
  H     -0.987231   -0.435087   -0.159303
  H      1.442336    0.070658   -1.739184
  H      2.737186   -1.435607    0.442705
  H      2.598693    0.341334    0.433072
  H      0.811027    0.042370    2.119490
  H      0.098004   -2.158862    2.655740
  H     -0.185946   -3.955755    1.157697
  H      0.200174   -3.938449   -1.202433
  H      0.942498   -2.121014   -2.506073

 Total Charge           Charge          ....    0
 Multiplicity           Mult            ....    1
 Number of Electrons    NEL             ....   66
 Basis Dimension        Dim             ....  351

ORBITAL ENERGIES
----------------

  NO   OCC          E(Eh)            E(eV)
   0   2.0000     -11.228119      -305.5327
   1   2.0000     -11.227900      -305.5267
   2   2.0000     -11.227301      -305.5104
   3   2.0000     -11.226552      -305.4900
   4   2.0000     -11.226552      -305.4900
   5   2.0000     -11.222231      -305.3724
   6   2.0000     -11.221436      -305.3508
   7   2.0000     -11.220674      -305.3301
   8   2.0000     -11.215218      -305.1816
   9   2.0000      -1.160146       -31.5692
  10   2.0000      -1.063044       -28.9269
  11   2.0000      -1.023669       -27.8555
  12   2.0000      -0.975560       -26.5463
  13   2.0000      -0.877111       -23.8674
  14   2.0000      -0.867158       -23.5966
  15   2.0000      -0.828061       -22.5327
  16   2.0000      -0.713673       -19.4200
  17   2.0000      -0.684246       -18.6193
  18   2.0000      -0.671932       -18.2842
  19   2.0000      -0.648266       -17.6402
  20   2.0000      -0.600845       -16.3498
  21   2.0000      -0.595190       -16.1959
  22   2.0000      -0.569448       -15.4955
  23   2.0000      -0.543716       -14.7953
  24   2.0000      -0.538147       -14.6437
  25   2.0000      -0.509575       -13.8662
  26   2.0000      -0.498207       -13.5569
  27   2.0000      -0.484180       -13.1752
  28   2.0000      -0.449123       -12.2213
  29   2.0000      -0.444511       -12.0958
  30   2.0000      -0.422527       -11.4975
  31   2.0000      -0.398726       -10.8499
  32   2.0000      -0.296647        -8.0722
  33   0.0000       0.097245         2.6462
  34   0.0000       0.138188         3.7603
  35   0.0000       0.161721         4.4007
  36   0.0000       0.169176         4.6035
  37   0.0000       0.177332         4.8254

MULLIKEN ATOMIC CHARGES
-----------------------
   0 C :   -0.437293
   1 C :   -0.080983
   2 C :    0.086359
   3 C :   -0.308340
   4 C :    0.086361
   5 C :   -0.293561
   6 C :   -0.106308
   7 C :   -0.106308
   8 C :   -0.293561
   9 H :    0.128124
  10 H :    0.133565
  11 H :    0.133565
  12 H :    0.118431
  13 H :    0.108232
  14 H :    0.127475
  15 H :    0.129451
  16 H :    0.108232
  17 H :    0.115282
  18 H :    0.117997
  19 H :    0.117997
  20 H :    0.115282
Sum of atomic charges:    0.0000000

LOEWDIN ATOMIC CHARGES
----------------------
   0 C :   -0.292582
   1 C :   -0.194030
   2 C :   -0.189266
   3 C :   -0.181056
   4 C :   -0.189267
   5 C :   -0.137848
   6 C :   -0.169570
   7 C :   -0.169570
   8 C :   -0.137848
   9 H :    0.125165
  10 H :    0.125073
  11 H :    0.125073
  12 H :    0.148341
  13 H :    0.143159
  14 H :    0.133221
  15 H :    0.135507
  16 H :    0.143159
  17 H :    0.143798
  18 H :    0.147371
  19 H :    0.147371
  20 H :    0.143798

  Mayer bond orders larger than 0.1
B(  0-C ,  1-C ) :   0.8938 B(  0-C ,  9-H ) :   0.9340 B(  0-C , 10-H ) :   0.9417
B(  0-C , 11-H ) :   0.9417 B(  1-C ,  2-C ) :   0.8546 B(  1-C ,  4-C ) :   0.8546
B(  1-C , 12-H ) :   0.9298 B(  2-C ,  3-C ) :   0.8871 B(  2-C ,  8-C ) :   0.9136
B(  2-C , 13-H ) :   0.9292 B(  3-C ,  4-C ) :   0.8871 B(  3-C , 14-H ) :   0.9204
B(  3-C , 15-H ) :   0.9247 B(  4-C ,  5-C ) :   0.9136 B(  4-C , 16-H ) :   0.9292
B(  5-C ,  6-C ) :   1.7347 B(  5-C , 17-H ) :   0.9318 B(  6-C ,  7-C ) :   0.9876
B(  6-C , 18-H ) :   0.9277 B(  7-C ,  8-C ) :   1.7347 B(  7-C , 19-H ) :   0.9277
B(  8-C , 20-H ) :   0.9318

MP2 TOTAL ENERGY:     -349.299012146 Eh
FINAL SINGLE POINT ENERGY      -349.299012146133

DIPOLE MOMENT
-------------
                                X             Y             Z
Electronic contribution:      0.07204      -4.62468      -0.02212
Nuclear contribution   :     -0.04813       4.86747       0.02781
                        -----------------------------------------
Total Dipole Moment    :      0.02391       0.24278       0.00569
                        -----------------------------------------
Magnitude (a.u.)       :      0.24402
Magnitude (Debye)      :      0.62026

                             ****ORCA TERMINATED NORMALLY****
TOTAL RUN TIME: 0 days 0 hours 19 minutes 37 seconds 317 msec
