                         Program Version 3.0.3 - RELEASE   -
|  1> ! RI-MP2 RIJK def2-TZVP def2-TZVP/C def2-TZVP/JK TIGHTSCF
|  2> % maxcore 2000
|  3> % mp2 density relaxed end
|  4> *xyz 0 1
|  5>  C        0.0053636094     1.5217480349     0.3254698201
|  6>  C       -0.0423155254     0.0418336852    -0.0933135759
|  7>  C       -1.4241456222    -0.5031984367    -0.1993620299
|  8>  C       -2.1567925392    -1.0017477132    -1.2314757962
|  9>  C       -3.4407793120    -1.3742037855    -0.6987983282
| 10>  N       -4.4926283179    -2.0093795069    -1.3846480084
| 11>  C       -3.3845332783    -1.0620038170     0.6227871989
| 12>  O       -4.3266204540    -1.1291736792     1.5899089074
| 13>  O       -2.1653144416    -0.5322194405     0.9507585275
| 14>  H        1.0399817354     1.8680915370     0.4105855362
| 15>  H       -0.5084649585     2.1512259800    -0.4074403596
| 16>  H       -0.4838907091     1.6652102855     1.2927179667
| 17>  H        0.4434233638    -0.0903540625    -1.0656545763
| 18>  H        0.5344553184    -0.5539815047     0.6269711790
| 19>  H       -1.8257008059    -1.1119146151    -2.2531335080
| 20>  H       -4.6937797094    -1.5604671644    -2.2707894631
| 21>  H       -5.3386282393    -2.0086390464    -0.8264568783
| 22>  H       -4.0729551942    -1.7868662004     2.2500495781
| 23> *
| 24>
| 25>                          ****END OF INPUT****

CARTESIAN COORDINATES (ANGSTROEM)
---------------------------------
  C      0.005364    1.521748    0.325470
  C     -0.042316    0.041834   -0.093314
  C     -1.424146   -0.503198   -0.199362
  C     -2.156793   -1.001748   -1.231476
  C     -3.440779   -1.374204   -0.698798
  N     -4.492628   -2.009380   -1.384648
  C     -3.384533   -1.062004    0.622787
  O     -4.326620   -1.129174    1.589909
  O     -2.165314   -0.532219    0.950759
  H      1.039982    1.868092    0.410586
  H     -0.508465    2.151226   -0.407440
  H     -0.483891    1.665210    1.292718
  H      0.443423   -0.090354   -1.065655
  H      0.534455   -0.553982    0.626971
  H     -1.825701   -1.111915   -2.253134
  H     -4.693780   -1.560467   -2.270789
  H     -5.338628   -2.008639   -0.826457
  H     -4.072955   -1.786866    2.250050

 Total Charge           Charge          ....    0
 Multiplicity           Mult            ....    1
 Number of Electrons    NEL             ....   68
 Basis Dimension        Dim             ....  333

ORBITAL ENERGIES
----------------

  NO   OCC          E(Eh)            E(eV)
   0   2.0000     -20.609027      -560.8001
   1   2.0000     -20.592140      -560.3406
   2   2.0000     -15.556799      -423.3220
   3   2.0000     -11.318493      -307.9919
   4   2.0000     -11.285442      -307.0925
   5   2.0000     -11.254794      -306.2585
   6   2.0000     -11.236631      -305.7643
   7   2.0000     -11.218563      -305.2726
   8   2.0000     -11.217631      -305.2473
   9   2.0000      -1.462950       -39.8089
  10   2.0000      -1.388853       -37.7926
  11   2.0000      -1.203280       -32.7429
  12   2.0000      -1.073007       -29.1980
  13   2.0000      -1.042930       -28.3796
  14   2.0000      -0.957608       -26.0579
  15   2.0000      -0.861587       -23.4450
  16   2.0000      -0.801023       -21.7969
  17   2.0000      -0.774342       -21.0709
  18   2.0000      -0.738090       -20.0844
  19   2.0000      -0.676864       -18.4184
  20   2.0000      -0.651905       -17.7392
  21   2.0000      -0.643170       -17.5015
  22   2.0000      -0.615871       -16.7587
  23   2.0000      -0.601977       -16.3806
  24   2.0000      -0.583683       -15.8828
  25   2.0000      -0.566061       -15.4033
  26   2.0000      -0.558088       -15.1863
  27   2.0000      -0.531937       -14.4748
  28   2.0000      -0.512488       -13.9455
  29   2.0000      -0.496083       -13.4991
  30   2.0000      -0.493573       -13.4308
  31   2.0000      -0.479273       -13.0417
  32   2.0000      -0.359694        -9.7878
  33   2.0000      -0.280968        -7.6455
  34   0.0000       0.128909         3.5078
  35   0.0000       0.141465         3.8495
  36   0.0000       0.151379         4.1192
  37   0.0000       0.169297         4.6068
  38   0.0000       0.179857         4.8941

MULLIKEN ATOMIC CHARGES
-----------------------
   0 C :   -0.380462
   1 C :   -0.237379
   2 C :    0.229109
   3 C :   -0.320413
   4 C :    0.131603
   5 N :   -0.531341
   6 C :    0.164891
   7 O :   -0.449889
   8 O :   -0.223876
   9 H :    0.127468
  10 H :    0.126239
  11 H :    0.137307
  12 H :    0.126188
  13 H :    0.122215
  14 H :    0.131985
  15 H :    0.249172
  16 H :    0.249081
  17 H :    0.348103
Sum of atomic charges:   -0.0000000

LOEWDIN ATOMIC CHARGES
----------------------
   0 C :   -0.308838
   1 C :   -0.261197
   2 C :   -0.254148
   3 C :   -0.146691
   4 C :   -0.276741
   5 N :   -0.100898
   6 C :   -0.399326
   7 O :    0.057212
   8 O :    0.350643
   9 H :    0.119543
  10 H :    0.122282
  11 H :    0.124405
  12 H :    0.149350
  13 H :    0.146200
  14 H :    0.144148
  15 H :    0.166798
  16 H :    0.169350
  17 H :    0.197907

  Mayer bond orders larger than 0.1
B(  0-C ,  1-C ) :   0.9154 B(  0-C ,  9-H ) :   0.9353 B(  0-C , 10-H ) :   0.9358
B(  0-C , 11-H ) :   0.9370 B(  1-C ,  2-C ) :   0.9014 B(  1-C , 12-H ) :   0.9476
B(  1-C , 13-H ) :   0.9294 B(  2-C ,  3-C ) :   1.5604 B(  2-C ,  8-O ) :   0.9844
B(  3-C ,  4-C ) :   1.1632 B(  3-C , 14-H ) :   0.9198 B(  4-C ,  5-N ) :   0.9902
B(  4-C ,  6-C ) :   1.5213 B(  5-N , 15-H ) :   0.8782 B(  5-N , 16-H ) :   0.8827
B(  6-C ,  7-O ) :   1.1622 B(  6-C ,  8-O ) :   1.0547 B(  7-O , 17-H ) :   0.8215

MP2 TOTAL ENERGY:     -438.387645732 Eh
FINAL SINGLE POINT ENERGY      -438.387645731501

DIPOLE MOMENT
-------------
                                X             Y             Z
Electronic contribution:     -6.30905      -4.33567       2.21474
Nuclear contribution   :      6.38457       4.27473      -2.32006
                        -----------------------------------------
Total Dipole Moment    :      0.07552      -0.06094      -0.10531
                        -----------------------------------------
Magnitude (a.u.)       :      0.14321
Magnitude (Debye)      :      0.36400

                             ****ORCA TERMINATED NORMALLY****
TOTAL RUN TIME: 0 days 0 hours 15 minutes 45 seconds 98 msec
