                         Program Version 3.0.3 - RELEASE   -
|  1> ! RI-MP2 RIJK def2-TZVP def2-TZVP/C def2-TZVP/JK TIGHTSCF
|  2> % maxcore 2000
|  3> % mp2 density relaxed end
|  4> *xyz 0 1
|  5>  C        0.3152809278     1.5012631990    -0.2782212599
|  6>  C        0.1098277910     0.0152627909     0.0280784555
|  7>  C       -1.3258521303    -0.4554450345    -0.2371555907
|  8>  C       -1.5362368208    -1.9378947430     0.0326072571
|  9>  C       -1.4280743442    -2.5020366693     1.4774184571
| 10>  O       -1.8996411180    -1.5024848732     2.3835649198
| 11>  C       -2.5412861951    -3.5197049907     1.1130581743
| 12>  C       -2.9732972220    -2.5562430005    -0.0323395284
| 13>  O       -4.0084852464    -1.6688239877     0.3295672241
| 14>  H        1.3450036887     1.8136214037    -0.0769456214
| 15>  H        0.0992451445     1.7231794447    -1.3293975218
| 16>  H       -0.3473091712     2.1246325798     0.3323796664
| 17>  H        0.8091213782    -0.5824462590    -0.5723357944
| 18>  H        0.3607793494    -0.1793217889     1.0780247575
| 19>  H       -2.0183789267     0.1321769334     0.3735193794
| 20>  H       -1.5947098459    -0.2507341551    -1.2823505053
| 21>  H       -0.8752586559    -2.5351217416    -0.6074525616
| 22>  H       -0.4573954682    -2.8924841034     1.8065286023
| 23>  H       -2.0289207243    -1.9184971314     3.2424716072
| 24>  H       -2.1309254718    -4.4612543955     0.7365615023
| 25>  H       -3.2928530428    -3.7306696983     1.8794211784
| 26>  H       -3.2751761856    -3.0072271429    -0.9808035065
| 27>  H       -3.7477831905    -1.2736940965     1.1721637788
| 28> *
| 29>
| 30>                          ****END OF INPUT****

CARTESIAN COORDINATES (ANGSTROEM)
---------------------------------
  C      0.315281    1.501263   -0.278221
  C      0.109828    0.015263    0.028078
  C     -1.325852   -0.455445   -0.237156
  C     -1.536237   -1.937895    0.032607
  C     -1.428074   -2.502037    1.477418
  O     -1.899641   -1.502485    2.383565
  C     -2.541286   -3.519705    1.113058
  C     -2.973297   -2.556243   -0.032340
  O     -4.008485   -1.668824    0.329567
  H      1.345004    1.813621   -0.076946
  H      0.099245    1.723179   -1.329398
  H     -0.347309    2.124633    0.332380
  H      0.809121   -0.582446   -0.572336
  H      0.360779   -0.179322    1.078025
  H     -2.018379    0.132177    0.373519
  H     -1.594710   -0.250734   -1.282351
  H     -0.875259   -2.535122   -0.607453
  H     -0.457395   -2.892484    1.806529
  H     -2.028921   -1.918497    3.242472
  H     -2.130925   -4.461254    0.736562
  H     -3.292853   -3.730670    1.879421
  H     -3.275176   -3.007227   -0.980804
  H     -3.747783   -1.273694    1.172164

 Total Charge           Charge          ....    0
 Multiplicity           Mult            ....    1
 Number of Electrons    NEL             ....   72
 Basis Dimension        Dim             ....  363

ORBITAL ENERGIES
----------------

  NO   OCC          E(Eh)            E(eV)
   0   2.0000     -20.570205      -559.7437
   1   2.0000     -20.543155      -559.0077
   2   2.0000     -11.286258      -307.1147
   3   2.0000     -11.276239      -306.8421
   4   2.0000     -11.225278      -305.4553
   5   2.0000     -11.224363      -305.4305
   6   2.0000     -11.213584      -305.1371
   7   2.0000     -11.210591      -305.0557
   8   2.0000     -11.207180      -304.9629
   9   2.0000      -1.378605       -37.5137
  10   2.0000      -1.350203       -36.7409
  11   2.0000      -1.117242       -30.4017
  12   2.0000      -1.050680       -28.5905
  13   2.0000      -0.957543       -26.0561
  14   2.0000      -0.880135       -23.9497
  15   2.0000      -0.863271       -23.4908
  16   2.0000      -0.797939       -21.7130
  17   2.0000      -0.757830       -20.6216
  18   2.0000      -0.724207       -19.7067
  19   2.0000      -0.664671       -18.0866
  20   2.0000      -0.635515       -17.2932
  21   2.0000      -0.624422       -16.9914
  22   2.0000      -0.596590       -16.2340
  23   2.0000      -0.588274       -16.0077
  24   2.0000      -0.584543       -15.9062
  25   2.0000      -0.554944       -15.1008
  26   2.0000      -0.540057       -14.6957
  27   2.0000      -0.530216       -14.4279
  28   2.0000      -0.524673       -14.2771
  29   2.0000      -0.501325       -13.6418
  30   2.0000      -0.478645       -13.0246
  31   2.0000      -0.473032       -12.8719
  32   2.0000      -0.461289       -12.5523
  33   2.0000      -0.434845       -11.8327
  34   2.0000      -0.416541       -11.3347
  35   2.0000      -0.399373       -10.8675
  36   0.0000       0.124806         3.3962
  37   0.0000       0.148134         4.0309
  38   0.0000       0.151093         4.1115
  39   0.0000       0.172332         4.6894
  40   0.0000       0.181215         4.9311

MULLIKEN ATOMIC CHARGES
-----------------------
   0 C :   -0.387439
   1 C :   -0.202762
   2 C :   -0.203283
   3 C :   -0.099910
   4 C :   -0.039951
   5 O :   -0.480568
   6 C :   -0.226728
   7 C :    0.110981
   8 O :   -0.474330
   9 H :    0.130107
  10 H :    0.120846
  11 H :    0.124951
  12 H :    0.098970
  13 H :    0.118917
  14 H :    0.099071
  15 H :    0.115110
  16 H :    0.103719
  17 H :    0.103466
  18 H :    0.319945
  19 H :    0.114068
  20 H :    0.119079
  21 H :    0.110857
  22 H :    0.324884
Sum of atomic charges:   -0.0000000

LOEWDIN ATOMIC CHARGES
----------------------
   0 C :   -0.321414
   1 C :   -0.292509
   2 C :   -0.251348
   3 C :   -0.211781
   4 C :   -0.302297
   5 O :   -0.024660
   6 C :   -0.224517
   7 C :   -0.298497
   8 O :   -0.011930
   9 H :    0.119155
  10 H :    0.119612
  11 H :    0.121107
  12 H :    0.132079
  13 H :    0.137396
  14 H :    0.140609
  15 H :    0.142864
  16 H :    0.159389
  17 H :    0.120527
  18 H :    0.176262
  19 H :    0.138899
  20 H :    0.127565
  21 H :    0.129822
  22 H :    0.173665

  Mayer bond orders larger than 0.1
B(  0-C ,  1-C ) :   0.9220 B(  0-C ,  9-H ) :   0.9434 B(  0-C , 10-H ) :   0.9403
B(  0-C , 11-H ) :   0.9402 B(  1-C ,  2-C ) :   0.9244 B(  1-C , 12-H ) :   0.9323
B(  1-C , 13-H ) :   0.9331 B(  2-C ,  3-C ) :   0.9377 B(  2-C , 14-H ) :   0.9065
B(  2-C , 15-H ) :   0.9321 B(  3-C ,  4-C ) :   0.8954 B(  3-C ,  7-C ) :   0.9063
B(  3-C , 16-H ) :   0.9059 B(  4-C ,  5-O ) :   1.0023 B(  4-C ,  6-C ) :   0.9426
B(  4-C , 17-H ) :   0.9370 B(  5-O , 18-H ) :   0.8406 B(  6-C ,  7-C ) :   0.9144
B(  6-C , 19-H ) :   0.9124 B(  6-C , 20-H ) :   0.9190 B(  7-C ,  8-O ) :   0.9648
B(  7-C , 21-H ) :   0.9325 B(  8-O , 22-H ) :   0.8218

MP2 TOTAL ENERGY:     -424.717971396 Eh
FINAL SINGLE POINT ENERGY      -424.717971395830

DIPOLE MOMENT
-------------
                                X             Y             Z
Electronic contribution:     -5.85918      -4.63340       2.62500
Nuclear contribution   :      6.51671       3.99106      -2.07707
                        -----------------------------------------
Total Dipole Moment    :      0.65753      -0.64234       0.54792
                        -----------------------------------------
Magnitude (a.u.)       :      1.07013
Magnitude (Debye)      :      2.72004

                             ****ORCA TERMINATED NORMALLY****
TOTAL RUN TIME: 0 days 0 hours 18 minutes 38 seconds 908 msec
