                         Program Version 3.0.3 - RELEASE   -
|  1> ! RI-MP2 RIJK def2-TZVP def2-TZVP/C def2-TZVP/JK TIGHTSCF
|  2> % maxcore 2000
|  3> % mp2 density relaxed end
|  4> *xyz 0 1
|  5>  O        0.1084236742     1.4559004692     0.0515924765
|  6>  C        0.0120644479     0.0452154860    -0.0168171121
|  7>  C        0.6959014653    -0.6097752826     1.1962612709
|  8>  N       -0.0370744055    -0.1838065390     2.3818932877
|  9>  C       -1.4044050411     0.0046287970     2.4248307670
| 10>  O       -1.9682895312     0.5218577488     3.3639436339
| 11>  N       -2.0810350666    -0.5058551298     1.2980955551
| 12>  C       -2.5944378339     0.3949451145     0.2686064908
| 13>  C       -1.4218557833    -0.4813970952    -0.0098317953
| 14>  H        0.0884933582     1.7047344998     0.9840289791
| 15>  H        0.5087576128    -0.2603331264    -0.9422483743
| 16>  H        0.7018688319    -1.7023623788     1.0806163672
| 17>  H        1.7324789273    -0.2714594838     1.2810791076
| 18>  H        0.4509471376     0.0398675931     3.2338300136
| 19>  H       -3.5694213237     0.1357073620    -0.1327776130
| 20>  H       -2.4022161644     1.4565606509     0.3870364467
| 21>  H       -1.5746735854    -1.3887081856    -0.5915533016
| 22> *
| 23>
| 24>                          ****END OF INPUT****

CARTESIAN COORDINATES (ANGSTROEM)
---------------------------------
  O      0.108424    1.455900    0.051592
  C      0.012064    0.045215   -0.016817
  C      0.695901   -0.609775    1.196261
  N     -0.037074   -0.183807    2.381893
  C     -1.404405    0.004629    2.424831
  O     -1.968290    0.521858    3.363944
  N     -2.081035   -0.505855    1.298096
  C     -2.594438    0.394945    0.268606
  C     -1.421856   -0.481397   -0.009832
  H      0.088493    1.704734    0.984029
  H      0.508758   -0.260333   -0.942248
  H      0.701869   -1.702362    1.080616
  H      1.732479   -0.271459    1.281079
  H      0.450947    0.039868    3.233830
  H     -3.569421    0.135707   -0.132778
  H     -2.402216    1.456561    0.387036
  H     -1.574674   -1.388708   -0.591553

 Total Charge           Charge          ....    0
 Multiplicity           Mult            ....    1
 Number of Electrons    NEL             ....   68
 Basis Dimension        Dim             ....  327

ORBITAL ENERGIES
----------------

  NO   OCC          E(Eh)            E(eV)
   0   2.0000     -20.575653      -559.8920
   1   2.0000     -20.516846      -558.2918
   2   2.0000     -15.593663      -424.3251
   3   2.0000     -15.585287      -424.0972
   4   2.0000     -11.379533      -309.6528
   5   2.0000     -11.310509      -307.7746
   6   2.0000     -11.292092      -307.2735
   7   2.0000     -11.283662      -307.0440
   8   2.0000     -11.281035      -306.9726
   9   2.0000      -1.404827       -38.2273
  10   2.0000      -1.384507       -37.6744
  11   2.0000      -1.297560       -35.3084
  12   2.0000      -1.234801       -33.6007
  13   2.0000      -1.046113       -28.4662
  14   2.0000      -0.962533       -26.1919
  15   2.0000      -0.917200       -24.9583
  16   2.0000      -0.829326       -22.5671
  17   2.0000      -0.776121       -21.1193
  18   2.0000      -0.724448       -19.7132
  19   2.0000      -0.710468       -19.3328
  20   2.0000      -0.688346       -18.7308
  21   2.0000      -0.672588       -18.3020
  22   2.0000      -0.649519       -17.6743
  23   2.0000      -0.614296       -16.7158
  24   2.0000      -0.602970       -16.4076
  25   2.0000      -0.562517       -15.3069
  26   2.0000      -0.550523       -14.9805
  27   2.0000      -0.542262       -14.7557
  28   2.0000      -0.521849       -14.2002
  29   2.0000      -0.489937       -13.3319
  30   2.0000      -0.468211       -12.7407
  31   2.0000      -0.431408       -11.7392
  32   2.0000      -0.406673       -11.0661
  33   2.0000      -0.398919       -10.8551
  34   0.0000       0.123132         3.3506
  35   0.0000       0.138106         3.7581
  36   0.0000       0.156939         4.2705
  37   0.0000       0.174440         4.7468
  38   0.0000       0.182384         4.9629

MULLIKEN ATOMIC CHARGES
-----------------------
   0 O :   -0.468084
   1 C :    0.083640
   2 C :   -0.156544
   3 N :   -0.356617
   4 C :    0.228023
   5 O :   -0.334139
   6 N :   -0.187642
   7 C :   -0.141749
   8 C :   -0.066886
   9 H :    0.326969
  10 H :    0.127494
  11 H :    0.126117
  12 H :    0.154861
  13 H :    0.252716
  14 H :    0.135405
  15 H :    0.137638
  16 H :    0.138798
Sum of atomic charges:    0.0000000

LOEWDIN ATOMIC CHARGES
----------------------
   0 O :   -0.000531
   1 C :   -0.331496
   2 C :   -0.262911
   3 N :    0.091902
   4 C :   -0.541610
   5 O :    0.084066
   6 N :    0.179185
   7 C :   -0.201750
   8 C :   -0.223501
   9 H :    0.177237
  10 H :    0.150724
  11 H :    0.137013
  12 H :    0.139217
  13 H :    0.189916
  14 H :    0.130771
  15 H :    0.135223
  16 H :    0.146544

  Mayer bond orders larger than 0.1
B(  0-O ,  1-C ) :   0.9693 B(  0-O ,  9-H ) :   0.8233 B(  1-C ,  2-C ) :   0.9282
B(  1-C ,  8-C ) :   0.9072 B(  1-C , 10-H ) :   0.9264 B(  2-C ,  3-N ) :   0.8944
B(  2-C , 11-H ) :   0.9219 B(  2-C , 12-H ) :   0.9332 B(  3-N ,  4-C ) :   1.1120
B(  3-N , 13-H ) :   0.8657 B(  4-C ,  5-O ) :   2.0380 B(  4-C ,  6-N ) :   1.0113
B(  6-N ,  7-C ) :   0.8812 B(  6-N ,  8-C ) :   0.8755 B(  7-C ,  8-C ) :   0.9610
B(  7-C , 14-H ) :   0.9241 B(  7-C , 15-H ) :   0.8986 B(  8-C , 16-H ) :   0.9029

MP2 TOTAL ENERGY:     -454.427004961 Eh
FINAL SINGLE POINT ENERGY      -454.427004960767

DIPOLE MOMENT
-------------
                                X             Y             Z
Electronic contribution:     -2.05089       0.53954       3.38390
Nuclear contribution   :      3.22282      -1.06324      -4.25796
                        -----------------------------------------
Total Dipole Moment    :      1.17193      -0.52370      -0.87406
                        -----------------------------------------
Magnitude (a.u.)       :      1.55296
Magnitude (Debye)      :      3.94730

                             ****ORCA TERMINATED NORMALLY****
TOTAL RUN TIME: 0 days 0 hours 16 minutes 58 seconds 30 msec
