                         Program Version 3.0.3 - RELEASE   -
|  1> ! RI-MP2 RIJK def2-TZVP def2-TZVP/C def2-TZVP/JK TIGHTSCF
|  2> % maxcore 2000
|  3> % mp2 density relaxed end
|  4> *xyz 0 1
|  5>  C        0.0861361790     1.5136721770    -0.1477267172
|  6>  C        0.0355788321     0.0673641914     0.0111055702
|  7>  C       -0.0100716645    -1.1274556847     0.1416474002
|  8>  C       -0.0584650382    -2.5832042757     0.3018993799
|  9>  C       -1.4001239070    -3.1509305879     0.1442110209
| 10>  C       -2.4991706251    -3.6224363649     0.0157657018
| 11>  C       -3.8312377421    -4.1888162752    -0.1404463410
| 12>  H        0.7524845480     1.8023130422    -0.9681490672
| 13>  H       -0.9062022439     1.9222531348    -0.3683882261
| 14>  H        0.4502759114     2.0029587566     0.7624524015
| 15>  H        0.6229831600    -3.0522508098    -0.4221403633
| 16>  H        0.3378569664    -2.8542109148     1.2908858584
| 17>  H       -3.8636315531    -4.9126612965    -0.9622892222
| 18>  H       -4.1544378214    -4.7063039069     0.7695939818
| 19>  H       -4.5696384317    -3.4090138756    -0.3573287276
| 20> *
| 21>
| 22>                          ****END OF INPUT****

CARTESIAN COORDINATES (ANGSTROEM)
---------------------------------
  C      0.086136    1.513672   -0.147727
  C      0.035579    0.067364    0.011106
  C     -0.010072   -1.127456    0.141647
  C     -0.058465   -2.583204    0.301899
  C     -1.400124   -3.150931    0.144211
  C     -2.499171   -3.622436    0.015766
  C     -3.831238   -4.188816   -0.140446
  H      0.752485    1.802313   -0.968149
  H     -0.906202    1.922253   -0.368388
  H      0.450276    2.002959    0.762452
  H      0.622983   -3.052251   -0.422140
  H      0.337857   -2.854211    1.290886
  H     -3.863632   -4.912661   -0.962289
  H     -4.154438   -4.706304    0.769594
  H     -4.569638   -3.409014   -0.357329

 Total Charge           Charge          ....    0
 Multiplicity           Mult            ....    1
 Number of Electrons    NEL             ....   50
 Basis Dimension        Dim             ....  265

ORBITAL ENERGIES
----------------

  NO   OCC          E(Eh)            E(eV)
   0   2.0000     -11.274068      -306.7830
   1   2.0000     -11.244323      -305.9736
   2   2.0000     -11.244323      -305.9736
   3   2.0000     -11.222405      -305.3772
   4   2.0000     -11.222401      -305.3770
   5   2.0000     -11.218214      -305.2631
   6   2.0000     -11.218206      -305.2629
   7   2.0000      -1.091363       -29.6975
   8   2.0000      -1.049505       -28.5585
   9   2.0000      -1.017825       -27.6964
  10   2.0000      -0.949192       -25.8288
  11   2.0000      -0.911503       -24.8032
  12   2.0000      -0.687388       -18.7048
  13   2.0000      -0.652837       -17.7646
  14   2.0000      -0.613029       -16.6814
  15   2.0000      -0.612553       -16.6684
  16   2.0000      -0.610741       -16.6191
  17   2.0000      -0.583806       -15.8862
  18   2.0000      -0.582788       -15.8585
  19   2.0000      -0.581557       -15.8250
  20   2.0000      -0.578761       -15.7489
  21   2.0000      -0.381394       -10.3783
  22   2.0000      -0.379234       -10.3195
  23   2.0000      -0.362678        -9.8690
  24   2.0000      -0.357483        -9.7276
  25   0.0000       0.133338         3.6283
  26   0.0000       0.146127         3.9763
  27   0.0000       0.157678         4.2906
  28   0.0000       0.180242         4.9046
  29   0.0000       0.187926         5.1137

MULLIKEN ATOMIC CHARGES
-----------------------
   0 C :   -0.480339
   1 C :    0.034982
   2 C :    0.011374
   3 C :   -0.434908
   4 C :    0.011374
   5 C :    0.034982
   6 C :   -0.480340
   7 H :    0.160173
   8 H :    0.162044
   9 H :    0.160174
  10 H :    0.169047
  11 H :    0.169047
  12 H :    0.160173
  13 H :    0.160174
  14 H :    0.162044
Sum of atomic charges:   -0.0000000

LOEWDIN ATOMIC CHARGES
----------------------
   0 C :   -0.295214
   1 C :   -0.104546
   2 C :   -0.074141
   3 C :   -0.237519
   4 C :   -0.074141
   5 C :   -0.104546
   6 C :   -0.295213
   7 H :    0.140127
   8 H :    0.141086
   9 H :    0.140125
  10 H :    0.171323
  11 H :    0.171321
  12 H :    0.140125
  13 H :    0.140127
  14 H :    0.141085

  Mayer bond orders larger than 0.1
B(  0-C ,  1-C ) :   0.8740 B(  0-C ,  7-H ) :   0.9477 B(  0-C ,  8-H ) :   0.9444
B(  0-C ,  9-H ) :   0.9476 B(  1-C ,  2-C ) :   2.6782 B(  2-C ,  3-C ) :   1.0229
B(  3-C ,  4-C ) :   1.0229 B(  3-C , 10-H ) :   0.9346 B(  3-C , 11-H ) :   0.9346
B(  4-C ,  5-C ) :   2.6782 B(  5-C ,  6-C ) :   0.8740 B(  6-C , 12-H ) :   0.9477
B(  6-C , 13-H ) :   0.9477 B(  6-C , 14-H ) :   0.9444

MP2 TOTAL ENERGY:     -270.806584136 Eh
FINAL SINGLE POINT ENERGY      -270.806584136400

DIPOLE MOMENT
-------------
                                X             Y             Z
Electronic contribution:      2.09565      -1.43894       0.51522
Nuclear contribution   :     -2.18828       1.50253      -0.53800
                        -----------------------------------------
Total Dipole Moment    :     -0.09263       0.06359      -0.02279
                        -----------------------------------------
Magnitude (a.u.)       :      0.11464
Magnitude (Debye)      :      0.29140

                             ****ORCA TERMINATED NORMALLY****
TOTAL RUN TIME: 0 days 0 hours 5 minutes 43 seconds 493 msec
