                         Program Version 3.0.3 - RELEASE   -
|  1> ! RI-MP2 RIJK def2-TZVP def2-TZVP/C def2-TZVP/JK TIGHTSCF
|  2> % maxcore 2000
|  3> % mp2 density relaxed end
|  4> *xyz 0 1
|  5>  O        0.0337038873     1.5927508954    -0.0322137749
|  6>  C       -0.0018812552     0.1923780866     0.0410209879
|  7>  C        0.6051589566    -0.3240498067     1.3884939108
|  8>  C       -0.5878594072    -0.5678212023     2.2881224004
|  9>  O       -1.5034485640     0.5305930410     2.3336275949
| 10>  C       -1.8157161493    -0.5786432162     1.4855003634
| 11>  C       -1.4733101223    -0.3421365903     0.0298953256
| 12>  C        0.7699718742    -0.3861633289    -1.1320692415
| 13>  O        1.3049801858     0.3089369246    -1.9595431845
| 14>  H        0.5522473577     1.8004889378    -0.8263793307
| 15>  H        1.1551357354    -1.2651861889     1.2549766457
| 16>  H        1.2971089187     0.4265245184     1.7767770539
| 17>  H       -0.4766006691    -1.1281832552     3.2133045605
| 18>  H       -2.7008235573    -1.1477122482     1.7594727505
| 19>  H       -2.1156336523     0.3970252175    -0.4537945601
| 20>  H       -1.5602683056    -1.2886511746    -0.5202001123
| 21>  H        0.8138594866    -1.4942611799    -1.1844554795
| 22> *
| 23>
| 24>                          ****END OF INPUT****

CARTESIAN COORDINATES (ANGSTROEM)
---------------------------------
  O      0.033704    1.592751   -0.032214
  C     -0.001881    0.192378    0.041021
  C      0.605159   -0.324050    1.388494
  C     -0.587859   -0.567821    2.288122
  O     -1.503449    0.530593    2.333628
  C     -1.815716   -0.578643    1.485500
  C     -1.473310   -0.342137    0.029895
  C      0.769972   -0.386163   -1.132069
  O      1.304980    0.308937   -1.959543
  H      0.552247    1.800489   -0.826379
  H      1.155136   -1.265186    1.254977
  H      1.297109    0.426525    1.776777
  H     -0.476601   -1.128183    3.213305
  H     -2.700824   -1.147712    1.759473
  H     -2.115634    0.397025   -0.453795
  H     -1.560268   -1.288651   -0.520200
  H      0.813859   -1.494261   -1.184455

 Total Charge           Charge          ....    0
 Multiplicity           Mult            ....    1
 Number of Electrons    NEL             ....   68
 Basis Dimension        Dim             ....  327

ORBITAL ENERGIES
----------------

  NO   OCC          E(Eh)            E(eV)
   0   2.0000     -20.582704      -560.0838
   1   2.0000     -20.571818      -559.7876
   2   2.0000     -20.556719      -559.3768
   3   2.0000     -11.350967      -308.8755
   4   2.0000     -11.312798      -307.8369
   5   2.0000     -11.295063      -307.3543
   6   2.0000     -11.294254      -307.3323
   7   2.0000     -11.248981      -306.1003
   8   2.0000     -11.248966      -306.0999
   9   2.0000      -1.430091       -38.9148
  10   2.0000      -1.421247       -38.6741
  11   2.0000      -1.366552       -37.1858
  12   2.0000      -1.104065       -30.0431
  13   2.0000      -1.002150       -27.2699
  14   2.0000      -0.955600       -26.0032
  15   2.0000      -0.859612       -23.3912
  16   2.0000      -0.806365       -21.9423
  17   2.0000      -0.784661       -21.3517
  18   2.0000      -0.742524       -20.2051
  19   2.0000      -0.713139       -19.4055
  20   2.0000      -0.683903       -18.6099
  21   2.0000      -0.631919       -17.1954
  22   2.0000      -0.625015       -17.0075
  23   2.0000      -0.603975       -16.4350
  24   2.0000      -0.584368       -15.9015
  25   2.0000      -0.561794       -15.2872
  26   2.0000      -0.547198       -14.8900
  27   2.0000      -0.541657       -14.7392
  28   2.0000      -0.528446       -14.3797
  29   2.0000      -0.518467       -14.1082
  30   2.0000      -0.464759       -12.6467
  31   2.0000      -0.440476       -11.9859
  32   2.0000      -0.432169       -11.7599
  33   2.0000      -0.430100       -11.7036
  34   0.0000       0.112353         3.0573
  35   0.0000       0.129827         3.5328
  36   0.0000       0.160835         4.3765
  37   0.0000       0.167813         4.5664
  38   0.0000       0.174673         4.7531

MULLIKEN ATOMIC CHARGES
-----------------------
   0 O :   -0.459124
   1 C :    0.247603
   2 C :   -0.209121
   3 C :   -0.013690
   4 O :   -0.311959
   5 C :   -0.013841
   6 C :   -0.209040
   7 C :    0.074662
   8 O :   -0.283039
   9 H :    0.327131
  10 H :    0.116682
  11 H :    0.129064
  12 H :    0.128981
  13 H :    0.129000
  14 H :    0.129081
  15 H :    0.116713
  16 H :    0.100895
Sum of atomic charges:    0.0000000

LOEWDIN ATOMIC CHARGES
----------------------
   0 O :    0.030583
   1 C :   -0.363874
   2 C :   -0.188475
   3 C :   -0.261394
   4 O :    0.184015
   5 C :   -0.261271
   6 C :   -0.188462
   7 C :   -0.259667
   8 O :    0.135192
   9 H :    0.181378
  10 H :    0.147074
  11 H :    0.152017
  12 H :    0.135736
  13 H :    0.135741
  14 H :    0.152036
  15 H :    0.147075
  16 H :    0.122296

  Mayer bond orders larger than 0.1
B(  0-O ,  1-C ) :   1.2087 B(  0-O ,  2-C ) :  -0.1034 B(  0-O ,  6-C ) :  -0.1034
B(  0-O ,  9-H ) :   0.8005 B(  1-C ,  2-C ) :   0.8693 B(  1-C ,  6-C ) :   0.8692
B(  1-C ,  7-C ) :   0.8346 B(  2-C ,  3-C ) :   0.9244 B(  2-C , 10-H ) :   0.9006
B(  2-C , 11-H ) :   0.8936 B(  3-C ,  4-O ) :   0.9301 B(  3-C ,  5-C ) :   0.9474
B(  3-C , 12-H ) :   0.9250 B(  4-O ,  5-C ) :   0.9301 B(  5-C ,  6-C ) :   0.9244
B(  5-C , 13-H ) :   0.9250 B(  6-C , 14-H ) :   0.8936 B(  6-C , 15-H ) :   0.9006
B(  7-C ,  8-O ) :   1.9162 B(  7-C , 16-H ) :   0.9232

MP2 TOTAL ENERGY:     -458.230528551 Eh
FINAL SINGLE POINT ENERGY      -458.230528551234

DIPOLE MOMENT
-------------
                                X             Y             Z
Electronic contribution:      0.72909       2.64755      -1.15142
Nuclear contribution   :     -0.74227      -4.08843       1.19157
                        -----------------------------------------
Total Dipole Moment    :     -0.01318      -1.44087       0.04015
                        -----------------------------------------
Magnitude (a.u.)       :      1.44149
Magnitude (Debye)      :      3.66398

                             ****ORCA TERMINATED NORMALLY****
TOTAL RUN TIME: 0 days 0 hours 15 minutes 52 seconds 672 msec
