                         Program Version 3.0.3 - RELEASE   -
|  1> ! RI-MP2 RIJK def2-TZVP def2-TZVP/C def2-TZVP/JK TIGHTSCF
|  2> % maxcore 2000
|  3> % mp2 density relaxed end
|  4> *xyz 0 1
|  5>  O       -0.4775130412     0.4492195611    -0.5974001032
|  6>  C        0.0880637277     1.1298909221     0.2238987704
|  7>  C        1.3185611354     1.9515425800     0.0046152467
|  8>  N        2.4034746215     1.7173301395    -0.9724698449
|  9>  C        1.8198648232     1.1222159308    -2.2395267741
| 10>  C        0.8949355312     2.3411691497    -2.4648105843
| 11>  C        1.4748391369     2.8965008817    -1.1581918925
| 12>  C        1.8648727178     4.2587557947    -0.9411992236
| 13>  N        2.1475964473     5.3694710410    -0.7841111682
| 14>  H       -0.2968946129     1.2071237341     1.2637822532
| 15>  H        1.7343034491     2.3370428279     0.9322842186
| 16>  H        2.6263183858     1.0444223704    -2.9693704406
| 17>  H        1.3417473340     0.1560075340    -2.0960954309
| 18>  H        1.1740477038     2.9492597534    -3.3254115096
| 19>  H       -0.1798139096     2.1600383797    -2.4700855369
| 20> *
| 21>
| 22>                          ****END OF INPUT****

CARTESIAN COORDINATES (ANGSTROEM)
---------------------------------
  O     -0.477513    0.449220   -0.597400
  C      0.088064    1.129891    0.223899
  C      1.318561    1.951543    0.004615
  N      2.403475    1.717330   -0.972470
  C      1.819865    1.122216   -2.239527
  C      0.894936    2.341169   -2.464811
  C      1.474839    2.896501   -1.158192
  C      1.864873    4.258756   -0.941199
  N      2.147596    5.369471   -0.784111
  H     -0.296895    1.207124    1.263782
  H      1.734303    2.337043    0.932284
  H      2.626318    1.044422   -2.969370
  H      1.341747    0.156008   -2.096095
  H      1.174048    2.949260   -3.325412
  H     -0.179814    2.160038   -2.470086

 Total Charge           Charge          ....    0
 Multiplicity           Mult            ....    1
 Number of Electrons    NEL             ....   64
 Basis Dimension        Dim             ....  315

ORBITAL ENERGIES
----------------

  NO   OCC          E(Eh)            E(eV)
   0   2.0000     -20.587429      -560.2124
   1   2.0000     -15.615218      -424.9117
   2   2.0000     -15.588292      -424.1790
   3   2.0000     -11.366505      -309.2983
   4   2.0000     -11.338883      -308.5467
   5   2.0000     -11.313945      -307.8681
   6   2.0000     -11.288353      -307.1717
   7   2.0000     -11.282123      -307.0022
   8   2.0000     -11.265690      -306.5550
   9   2.0000      -1.427629       -38.8478
  10   2.0000      -1.338172       -36.4135
  11   2.0000      -1.230104       -33.4728
  12   2.0000      -1.060406       -28.8551
  13   2.0000      -1.003688       -27.3117
  14   2.0000      -0.961592       -26.1662
  15   2.0000      -0.844720       -22.9860
  16   2.0000      -0.799575       -21.7575
  17   2.0000      -0.744499       -20.2588
  18   2.0000      -0.699774       -19.0418
  19   2.0000      -0.678179       -18.4542
  20   2.0000      -0.658555       -17.9202
  21   2.0000      -0.600879       -16.3508
  22   2.0000      -0.591007       -16.0821
  23   2.0000      -0.581462       -15.8224
  24   2.0000      -0.568634       -15.4733
  25   2.0000      -0.541619       -14.7382
  26   2.0000      -0.526819       -14.3355
  27   2.0000      -0.501178       -13.6377
  28   2.0000      -0.487603       -13.2683
  29   2.0000      -0.464122       -12.6294
  30   2.0000      -0.433782       -11.8038
  31   2.0000      -0.403823       -10.9886
  32   0.0000       0.079871         2.1734
  33   0.0000       0.126675         3.4470
  34   0.0000       0.132061         3.5936
  35   0.0000       0.151451         4.1212
  36   0.0000       0.161166         4.3855

MULLIKEN ATOMIC CHARGES
-----------------------
   0 O :   -0.275624
   1 C :    0.123007
   2 C :   -0.094919
   3 N :   -0.217430
   4 C :   -0.150663
   5 C :   -0.237693
   6 C :    0.290426
   7 C :   -0.247392
   8 N :   -0.040658
   9 H :    0.103233
  10 H :    0.153734
  11 H :    0.140865
  12 H :    0.151142
  13 H :    0.151385
  14 H :    0.150587
Sum of atomic charges:    0.0000000

LOEWDIN ATOMIC CHARGES
----------------------
   0 O :    0.145270
   1 C :   -0.274195
   2 C :   -0.208301
   3 N :    0.171335
   4 C :   -0.219276
   5 C :   -0.181374
   6 C :   -0.214864
   7 C :   -0.148350
   8 N :    0.086159
   9 H :    0.123703
  10 H :    0.167212
  11 H :    0.133483
  12 H :    0.130887
  13 H :    0.146768
  14 H :    0.141545

  Mayer bond orders larger than 0.1
B(  0-O ,  1-C ) :   1.9217 B(  1-C ,  2-C ) :   0.9033 B(  1-C ,  9-H ) :   0.9341
B(  2-C ,  3-N ) :   0.9317 B(  2-C ,  6-C ) :   0.8855 B(  2-C , 10-H ) :   0.9066
B(  3-N ,  4-C ) :   0.8972 B(  3-N ,  6-C ) :   0.8037 B(  4-C ,  5-C ) :   0.9804
B(  4-C , 11-H ) :   0.9141 B(  4-C , 12-H ) :   0.9294 B(  5-C ,  6-C ) :   0.9049
B(  5-C , 13-H ) :   0.9230 B(  5-C , 14-H ) :   0.8979 B(  6-C ,  7-C ) :   0.8735
B(  7-C ,  8-N ) :   2.8538

MP2 TOTAL ENERGY:     -416.061511745 Eh
FINAL SINGLE POINT ENERGY      -416.061511745209

DIPOLE MOMENT
-------------
                                X             Y             Z
Electronic contribution:      0.60126       2.85546       2.42878
Nuclear contribution   :     -1.02406      -3.71786      -2.50469
                        -----------------------------------------
Total Dipole Moment    :     -0.42280      -0.86241      -0.07591
                        -----------------------------------------
Magnitude (a.u.)       :      0.96347
Magnitude (Debye)      :      2.44894

                             ****ORCA TERMINATED NORMALLY****
TOTAL RUN TIME: 0 days 0 hours 16 minutes 19 seconds 512 msec
