                         Program Version 3.0.3 - RELEASE   -
|  1> ! RI-MP2 RIJK def2-TZVP def2-TZVP/C def2-TZVP/JK TIGHTSCF
|  2> % maxcore 2000
|  3> % mp2 density relaxed end
|  4> *xyz 0 1
|  5>  C       -0.0190139278     1.4902484218    -0.1364626026
|  6>  C        1.3581777177     2.0610054790     0.1060438546
|  7>  C        2.4566078289     1.3536855145     0.3719028389
|  8>  C        2.5297691791    -0.1510072193     0.4804240435
|  9>  C        1.1840456566    -0.7548989483     0.2460781938
| 10>  N        0.8754257171    -2.0215252711     0.2624101123
| 11>  O       -0.4674428432    -2.0726233808    -0.0057348280
| 12>  N       -0.9910257263    -0.8196465098    -0.1893586030
| 13>  C        0.0112476627     0.0003088339    -0.0377768233
| 14>  H       -0.7345936076     1.9061906231     0.5851553993
| 15>  H       -0.3899657425     1.8000924988    -1.1224528930
| 16>  H        1.4294308233     3.1437947827     0.0529814006
| 17>  H        3.3951187792     1.8780148264     0.5287506927
| 18>  H        3.2572323294    -0.5484690947    -0.2397202977
| 19>  H        2.9121397432    -0.4420792961     1.4677758319
| 20> *
| 21>
| 22>                          ****END OF INPUT****

CARTESIAN COORDINATES (ANGSTROEM)
---------------------------------
  C     -0.019014    1.490248   -0.136463
  C      1.358178    2.061005    0.106044
  C      2.456608    1.353686    0.371903
  C      2.529769   -0.151007    0.480424
  C      1.184046   -0.754899    0.246078
  N      0.875426   -2.021525    0.262410
  O     -0.467443   -2.072623   -0.005735
  N     -0.991026   -0.819647   -0.189359
  C      0.011248    0.000309   -0.037777
  H     -0.734594    1.906191    0.585155
  H     -0.389966    1.800092   -1.122453
  H      1.429431    3.143795    0.052981
  H      3.395119    1.878015    0.528751
  H      3.257232   -0.548469   -0.239720
  H      2.912140   -0.442079    1.467776

 Total Charge           Charge          ....    0
 Multiplicity           Mult            ....    1
 Number of Electrons    NEL             ....   64
 Basis Dimension        Dim             ....  315

ORBITAL ENERGIES
----------------

  NO   OCC          E(Eh)            E(eV)
   0   2.0000     -20.669634      -562.4493
   1   2.0000     -15.645635      -425.7394
   2   2.0000     -15.645581      -425.7379
   3   2.0000     -11.291607      -307.2602
   4   2.0000     -11.290564      -307.2319
   5   2.0000     -11.266027      -306.5642
   6   2.0000     -11.266023      -306.5641
   7   2.0000     -11.257425      -306.3301
   8   2.0000     -11.255707      -306.2834
   9   2.0000      -1.532520       -41.7020
  10   2.0000      -1.208420       -32.8828
  11   2.0000      -1.196552       -32.5598
  12   2.0000      -1.103953       -30.0401
  13   2.0000      -1.035146       -28.1677
  14   2.0000      -0.943891       -25.6846
  15   2.0000      -0.843648       -22.9568
  16   2.0000      -0.835973       -22.7480
  17   2.0000      -0.734337       -19.9823
  18   2.0000      -0.706632       -19.2284
  19   2.0000      -0.688776       -18.7425
  20   2.0000      -0.655412       -17.8347
  21   2.0000      -0.619179       -16.8487
  22   2.0000      -0.610730       -16.6188
  23   2.0000      -0.604195       -16.4410
  24   2.0000      -0.586504       -15.9596
  25   2.0000      -0.549488       -14.9523
  26   2.0000      -0.510932       -13.9032
  27   2.0000      -0.495679       -13.4881
  28   2.0000      -0.483827       -13.1656
  29   2.0000      -0.422946       -11.5089
  30   2.0000      -0.414756       -11.2861
  31   2.0000      -0.375390       -10.2149
  32   0.0000       0.091175         2.4810
  33   0.0000       0.125702         3.4205
  34   0.0000       0.142452         3.8763
  35   0.0000       0.146222         3.9789
  36   0.0000       0.167760         4.5650

MULLIKEN ATOMIC CHARGES
-----------------------
   0 C :   -0.070323
   1 C :   -0.207447
   2 C :   -0.207447
   3 C :   -0.070323
   4 C :   -0.057468
   5 N :   -0.078806
   6 O :   -0.013421
   7 N :   -0.078806
   8 C :   -0.057468
   9 H :    0.145345
  10 H :    0.145349
  11 H :    0.130060
  12 H :    0.130060
  13 H :    0.145349
  14 H :    0.145345
Sum of atomic charges:    0.0000000

LOEWDIN ATOMIC CHARGES
----------------------
   0 C :   -0.203929
   1 C :   -0.158280
   2 C :   -0.158280
   3 C :   -0.203929
   4 C :   -0.260503
   5 N :    0.051705
   6 O :    0.204269
   7 N :    0.051705
   8 C :   -0.260504
   9 H :    0.160612
  10 H :    0.160609
  11 H :    0.147653
  12 H :    0.147653
  13 H :    0.160609
  14 H :    0.160611

  Mayer bond orders larger than 0.1
B(  0-C ,  1-C ) :   0.9519 B(  0-C ,  8-C ) :   0.9488 B(  0-C ,  9-H ) :   0.8977
B(  0-C , 10-H ) :   0.8978 B(  1-C ,  2-C ) :   1.7960 B(  1-C , 11-H ) :   0.9317
B(  2-C ,  3-C ) :   0.9519 B(  2-C , 12-H ) :   0.9317 B(  3-C ,  4-C ) :   0.9488
B(  3-C , 13-H ) :   0.8978 B(  3-C , 14-H ) :   0.8978 B(  4-C ,  5-N ) :   1.6259
B(  4-C ,  8-C ) :   1.2086 B(  5-N ,  6-O ) :   0.9449 B(  5-N ,  7-N ) :   0.1274
B(  6-O ,  7-N ) :   0.9449 B(  7-N ,  8-C ) :   1.6259

MP2 TOTAL ENERGY:     -416.071990162 Eh
FINAL SINGLE POINT ENERGY      -416.071990162197

DIPOLE MOMENT
-------------
                                X             Y             Z
Electronic contribution:     -4.17391      -6.64362      -0.43037
Nuclear contribution   :      5.02959       8.00562       0.51867
                        -----------------------------------------
Total Dipole Moment    :      0.85567       1.36200       0.08830
                        -----------------------------------------
Magnitude (a.u.)       :      1.61091
Magnitude (Debye)      :      4.09460

                             ****ORCA TERMINATED NORMALLY****
TOTAL RUN TIME: 0 days 0 hours 15 minutes 10 seconds 379 msec
