                         Program Version 3.0.3 - RELEASE   -
|  1> ! RI-MP2 RIJK def2-TZVP def2-TZVP/C def2-TZVP/JK TIGHTSCF
|  2> % maxcore 2000
|  3> % mp2 density relaxed end
|  4> *xyz 0 1
|  5>  N        0.0200789937     1.4000360425     0.2039031802
|  6>  C       -0.0319426323     0.0338654322     0.0658839963
|  7>  C       -1.2217979453    -0.6768926915     0.0156158742
|  8>  C       -1.1135059619    -2.0639742025    -0.0717076961
|  9>  O       -2.2373349751    -2.8031658490    -0.1225833803
| 10>  N        0.0352403796    -2.7357089095    -0.1138892393
| 11>  N        1.1771133787    -2.0510192356    -0.0691798128
| 12>  C        1.1568089855    -0.7348720092     0.0174947389
| 13>  H        0.8821358449     1.8550000953    -0.0511256723
| 14>  H       -0.8069015537     1.9227158008    -0.0378597203
| 15>  H       -2.1944526020    -0.1997384888     0.0436709931
| 16>  H       -1.9390011545    -3.7234801467    -0.1813410217
| 17>  H        2.1279648422    -0.2474218580     0.0523835300
| 18> *
| 19>
| 20>                          ****END OF INPUT****

CARTESIAN COORDINATES (ANGSTROEM)
---------------------------------
  N      0.020079    1.400036    0.203903
  C     -0.031943    0.033865    0.065884
  C     -1.221798   -0.676893    0.015616
  C     -1.113506   -2.063974   -0.071708
  O     -2.237335   -2.803166   -0.122583
  N      0.035240   -2.735709   -0.113889
  N      1.177113   -2.051019   -0.069180
  C      1.156809   -0.734872    0.017495
  H      0.882136    1.855000   -0.051126
  H     -0.806902    1.922716   -0.037860
  H     -2.194453   -0.199738    0.043671
  H     -1.939001   -3.723480   -0.181341
  H      2.127965   -0.247422    0.052384

 Total Charge           Charge          ....    0
 Multiplicity           Mult            ....    1
 Number of Electrons    NEL             ....   58
 Basis Dimension        Dim             ....  278

ORBITAL ENERGIES
----------------

  NO   OCC          E(Eh)            E(eV)
   0   2.0000     -20.597944      -560.4986
   1   2.0000     -15.614557      -424.8937
   2   2.0000     -15.597012      -424.4163
   3   2.0000     -15.581117      -423.9838
   4   2.0000     -11.342798      -308.6532
   5   2.0000     -11.318656      -307.9963
   6   2.0000     -11.266662      -306.5815
   7   2.0000     -11.245634      -306.0093
   8   2.0000      -1.432617       -38.9835
   9   2.0000      -1.331950       -36.2442
  10   2.0000      -1.254997       -34.1502
  11   2.0000      -1.095048       -29.7978
  12   2.0000      -1.076244       -29.2861
  13   2.0000      -0.906029       -24.6543
  14   2.0000      -0.874553       -23.7978
  15   2.0000      -0.771619       -20.9968
  16   2.0000      -0.743797       -20.2398
  17   2.0000      -0.699682       -19.0393
  18   2.0000      -0.672572       -18.3016
  19   2.0000      -0.642389       -17.4803
  20   2.0000      -0.625658       -17.0250
  21   2.0000      -0.600237       -16.3333
  22   2.0000      -0.584744       -15.9117
  23   2.0000      -0.557725       -15.1765
  24   2.0000      -0.505373       -13.7519
  25   2.0000      -0.488031       -13.2800
  26   2.0000      -0.404586       -11.0093
  27   2.0000      -0.365561        -9.9474
  28   2.0000      -0.343720        -9.3531
  29   0.0000       0.096173         2.6170
  30   0.0000       0.116322         3.1653
  31   0.0000       0.141943         3.8625
  32   0.0000       0.157048         4.2735
  33   0.0000       0.164487         4.4759

MULLIKEN ATOMIC CHARGES
-----------------------
   0 N :   -0.498370
   1 C :    0.304136
   2 C :   -0.302964
   3 C :    0.276072
   4 O :   -0.419595
   5 N :   -0.186687
   6 N :   -0.154050
   7 C :   -0.134044
   8 H :    0.258740
   9 H :    0.256926
  10 H :    0.136752
  11 H :    0.342262
  12 H :    0.120823
Sum of atomic charges:   -0.0000000

LOEWDIN ATOMIC CHARGES
----------------------
   0 N :   -0.033291
   1 C :   -0.254818
   2 C :   -0.104065
   3 C :   -0.395447
   4 O :    0.085388
   5 N :    0.031127
   6 N :    0.045909
   7 C :   -0.220321
   8 H :    0.174130
   9 H :    0.172660
  10 H :    0.155413
  11 H :    0.201241
  12 H :    0.142076

  Mayer bond orders larger than 0.1
B(  0-N ,  1-C ) :   1.0758 B(  0-N ,  8-H ) :   0.8713 B(  0-N ,  9-H ) :   0.8731
B(  1-C ,  2-C ) :   1.3573 B(  1-C ,  7-C ) :   1.1651 B(  2-C ,  3-C ) :   1.3426
B(  2-C , 10-H ) :   0.9127 B(  3-C ,  4-O ) :   1.0995 B(  3-C ,  5-N ) :   1.4729
B(  4-O , 11-H ) :   0.8065 B(  5-N ,  6-N ) :   1.1163 B(  6-N ,  7-C ) :   1.5844
B(  7-C , 12-H ) :   0.9601

MP2 TOTAL ENERGY:     -394.157517010 Eh
FINAL SINGLE POINT ENERGY      -394.157517010074

DIPOLE MOMENT
-------------
                                X             Y             Z
Electronic contribution:     -0.10201      -3.54528      -0.10871
Nuclear contribution   :     -0.34893       5.26751      -0.10071
                        -----------------------------------------
Total Dipole Moment    :     -0.45094       1.72223      -0.20941
                        -----------------------------------------
Magnitude (a.u.)       :      1.79256
Magnitude (Debye)      :      4.55632

                             ****ORCA TERMINATED NORMALLY****
TOTAL RUN TIME: 0 days 0 hours 10 minutes 11 seconds 962 msec
