                         Program Version 3.0.3 - RELEASE   -
|  1> ! RI-MP2 RIJK def2-TZVP def2-TZVP/C def2-TZVP/JK TIGHTSCF
|  2> % maxcore 2000
|  3> % mp2 density relaxed end
|  4> *xyz 0 1
|  5>  C       -0.0670989185     1.4401221363    -0.3238207765
|  6>  C        1.3804351693     1.6206011055     0.2298030073
|  7>  C        1.4460014485     0.1077413490     0.5709447055
|  8>  C        0.9419611457    -0.2656450144     1.9907957360
|  9>  C       -0.5055026246    -0.4462584583     1.4370301205
| 10>  C       -0.0142620372    -0.0743606358     0.0123245434
| 11>  H       -0.8532364053     2.0024092684     0.1899574988
| 12>  H       -0.1490130183     1.6495869931    -1.3934785352
| 13>  H        2.0988072671     1.9297386221    -0.5338263199
| 14>  H        1.4886877414     2.2944767614     1.0855609542
| 15>  H        2.3091747644    -0.4441767288     0.1947116225
| 16>  H        1.3734005162    -1.1913584730     2.3802417827
| 17>  H        1.0741611512     0.5120794430     2.7496196915
| 18>  H       -0.8742286833    -1.4718691204     1.5202083728
| 19>  H       -1.2676490987     0.2197687470     1.8537920268
| 20>  H       -0.2706577877    -0.7658161950    -0.7922771904
| 21> *
| 22>
| 23>                          ****END OF INPUT****

CARTESIAN COORDINATES (ANGSTROEM)
---------------------------------
  C     -0.067099    1.440122   -0.323821
  C      1.380435    1.620601    0.229803
  C      1.446001    0.107741    0.570945
  C      0.941961   -0.265645    1.990796
  C     -0.505503   -0.446258    1.437030
  C     -0.014262   -0.074361    0.012325
  H     -0.853236    2.002409    0.189957
  H     -0.149013    1.649587   -1.393479
  H      2.098807    1.929739   -0.533826
  H      1.488688    2.294477    1.085561
  H      2.309175   -0.444177    0.194712
  H      1.373401   -1.191358    2.380242
  H      1.074161    0.512079    2.749620
  H     -0.874229   -1.471869    1.520208
  H     -1.267649    0.219769    1.853792
  H     -0.270658   -0.765816   -0.792277

 Total Charge           Charge          ....    0
 Multiplicity           Mult            ....    1
 Number of Electrons    NEL             ....   46
 Basis Dimension        Dim             ....  246

ORBITAL ENERGIES
----------------

  NO   OCC          E(Eh)            E(eV)
   0   2.0000     -11.217974      -305.2566
   1   2.0000     -11.217476      -305.2430
   2   2.0000     -11.214448      -305.1606
   3   2.0000     -11.214395      -305.1592
   4   2.0000     -11.213922      -305.1463
   5   2.0000     -11.213867      -305.1448
   6   2.0000      -1.152170       -31.3521
   7   2.0000      -1.004497       -27.3338
   8   2.0000      -0.917840       -24.9757
   9   2.0000      -0.841847       -22.9078
  10   2.0000      -0.812477       -22.1086
  11   2.0000      -0.692276       -18.8378
  12   2.0000      -0.672268       -18.2933
  13   2.0000      -0.614434       -16.7196
  14   2.0000      -0.605512       -16.4768
  15   2.0000      -0.563378       -15.3303
  16   2.0000      -0.532370       -14.4865
  17   2.0000      -0.488712       -13.2985
  18   2.0000      -0.475569       -12.9409
  19   2.0000      -0.452689       -12.3183
  20   2.0000      -0.431417       -11.7394
  21   2.0000      -0.402862       -10.9624
  22   2.0000      -0.391324       -10.6485
  23   0.0000       0.146337         3.9820
  24   0.0000       0.161460         4.3935
  25   0.0000       0.169238         4.6052
  26   0.0000       0.170786         4.6473
  27   0.0000       0.193392         5.2625

MULLIKEN ATOMIC CHARGES
-----------------------
   0 C :   -0.252003
   1 C :   -0.252018
   2 C :   -0.038101
   3 C :   -0.251998
   4 C :   -0.252023
   5 C :   -0.038081
   6 H :    0.104652
   7 H :    0.113128
   8 H :    0.113129
   9 H :    0.104649
  10 H :    0.106554
  11 H :    0.113130
  12 H :    0.104651
  13 H :    0.113127
  14 H :    0.104650
  15 H :    0.106554
Sum of atomic charges:   -0.0000000

LOEWDIN ATOMIC CHARGES
----------------------
   0 C :   -0.224509
   1 C :   -0.224515
   2 C :   -0.188015
   3 C :   -0.224508
   4 C :   -0.224516
   5 C :   -0.188017
   6 H :    0.125363
   7 H :    0.128828
   8 H :    0.128832
   9 H :    0.125359
  10 H :    0.128659
  11 H :    0.128828
  12 H :    0.125363
  13 H :    0.128832
  14 H :    0.125359
  15 H :    0.128659

  Mayer bond orders larger than 0.1
B(  0-C ,  1-C ) :   0.9620 B(  0-C ,  5-C ) :   0.9174 B(  0-C ,  6-H ) :   0.9208
B(  0-C ,  7-H ) :   0.9233 B(  1-C ,  2-C ) :   0.9174 B(  1-C ,  8-H ) :   0.9233
B(  1-C ,  9-H ) :   0.9208 B(  2-C ,  3-C ) :   0.9174 B(  2-C ,  5-C ) :   0.9105
B(  2-C , 10-H ) :   0.9199 B(  3-C ,  4-C ) :   0.9620 B(  3-C , 11-H ) :   0.9233
B(  3-C , 12-H ) :   0.9208 B(  4-C ,  5-C ) :   0.9174 B(  4-C , 13-H ) :   0.9233
B(  4-C , 14-H ) :   0.9208 B(  5-C , 15-H ) :   0.9199

MP2 TOTAL ENERGY:     -234.029194113 Eh
FINAL SINGLE POINT ENERGY      -234.029194112723

DIPOLE MOMENT
-------------
                                X             Y             Z
Electronic contribution:      0.32788      -0.67183      -0.63803
Nuclear contribution   :     -0.30709       0.62923       0.59758
                        -----------------------------------------
Total Dipole Moment    :      0.02079      -0.04260      -0.04046
                        -----------------------------------------
Magnitude (a.u.)       :      0.06232
Magnitude (Debye)      :      0.15840

                             ****ORCA TERMINATED NORMALLY****
TOTAL RUN TIME: 0 days 0 hours 5 minutes 41 seconds 550 msec
