                         Program Version 3.0.3 - RELEASE   -
|  1> ! RI-MP2 RIJK def2-TZVP def2-TZVP/C def2-TZVP/JK TIGHTSCF
|  2> % maxcore 2000
|  3> % mp2 density relaxed end
|  4> *xyz 0 1
|  5>  O       -0.0458589958     1.4375111769    -0.0346588385
|  6>  C        0.0161406015     0.0284547519     0.1230330491
|  7>  C       -1.3784218964    -0.5302383362    -0.1401223398
|  8>  C       -1.4291267677    -2.0491231238    -0.0715509961
|  9>  C       -1.4906231006    -2.7045068473     1.3588920999
| 10>  O       -2.9064707918    -2.3312204852     1.4060488499
| 11>  C       -2.8581337012    -2.6959831602    -0.0131991227
| 12>  C       -2.5145695099    -4.1932181445     0.0598048793
| 13>  C       -1.5713116277    -4.1988777090     1.0046530932
| 14>  H        0.8239559490     1.8005934133     0.1554094755
| 15>  H        0.7375599435    -0.4194241605    -0.5810563875
| 16>  H        0.3445525841    -0.2437486439     1.1394432529
| 17>  H       -2.0824139270    -0.1015230734     0.5782061043
| 18>  H       -1.6905555391    -0.1999409971    -1.1390523808
| 19>  H       -0.7292651018    -2.5140928389    -0.7726733258
| 20>  H       -0.9042360313    -2.3700453395     2.2141762027
| 21>  H       -3.7057996175    -2.3468083768    -0.6021663446
| 22>  H       -2.9385674788    -4.9926371925    -0.5293294090
| 23>  H       -0.9882573713    -5.0048681135     1.4246854679
| 24> *
| 25>
| 26>                          ****END OF INPUT****

CARTESIAN COORDINATES (ANGSTROEM)
---------------------------------
  O     -0.045859    1.437511   -0.034659
  C      0.016141    0.028455    0.123033
  C     -1.378422   -0.530238   -0.140122
  C     -1.429127   -2.049123   -0.071551
  C     -1.490623   -2.704507    1.358892
  O     -2.906471   -2.331220    1.406049
  C     -2.858134   -2.695983   -0.013199
  C     -2.514570   -4.193218    0.059805
  C     -1.571312   -4.198878    1.004653
  H      0.823956    1.800593    0.155409
  H      0.737560   -0.419424   -0.581056
  H      0.344553   -0.243749    1.139443
  H     -2.082414   -0.101523    0.578206
  H     -1.690556   -0.199941   -1.139052
  H     -0.729265   -2.514093   -0.772673
  H     -0.904236   -2.370045    2.214176
  H     -3.705800   -2.346808   -0.602166
  H     -2.938567   -4.992637   -0.529329
  H     -0.988257   -5.004868    1.424685

 Total Charge           Charge          ....    0
 Multiplicity           Mult            ....    1
 Number of Electrons    NEL             ....   68
 Basis Dimension        Dim             ....  339

ORBITAL ENERGIES
----------------

  NO   OCC          E(Eh)            E(eV)
   0   2.0000     -20.556011      -559.3575
   1   2.0000     -20.545839      -559.0807
   2   2.0000     -11.294714      -307.3448
   3   2.0000     -11.294337      -307.3345
   4   2.0000     -11.277619      -306.8796
   5   2.0000     -11.244089      -305.9672
   6   2.0000     -11.235603      -305.7363
   7   2.0000     -11.233879      -305.6894
   8   2.0000     -11.217744      -305.2503
   9   2.0000      -1.388884       -37.7935
  10   2.0000      -1.360064       -37.0092
  11   2.0000      -1.098866       -29.9017
  12   2.0000      -1.049202       -28.5502
  13   2.0000      -0.942528       -25.6475
  14   2.0000      -0.937023       -25.4977
  15   2.0000      -0.833420       -22.6785
  16   2.0000      -0.751441       -20.4478
  17   2.0000      -0.743762       -20.2388
  18   2.0000      -0.718431       -19.5495
  19   2.0000      -0.685921       -18.6649
  20   2.0000      -0.673923       -18.3384
  21   2.0000      -0.634590       -17.2681
  22   2.0000      -0.584702       -15.9105
  23   2.0000      -0.574662       -15.6373
  24   2.0000      -0.554153       -15.0793
  25   2.0000      -0.543305       -14.7841
  26   2.0000      -0.526408       -14.3243
  27   2.0000      -0.507256       -13.8031
  28   2.0000      -0.497902       -13.5486
  29   2.0000      -0.472081       -12.8460
  30   2.0000      -0.446077       -12.1384
  31   2.0000      -0.436653       -11.8819
  32   2.0000      -0.418715       -11.3938
  33   2.0000      -0.352783        -9.5997
  34   0.0000       0.131780         3.5859
  35   0.0000       0.135177         3.6784
  36   0.0000       0.156377         4.2552
  37   0.0000       0.166154         4.5213
  38   0.0000       0.170045         4.6272

MULLIKEN ATOMIC CHARGES
-----------------------
   0 O :   -0.460585
   1 C :   -0.077770
   2 C :   -0.211350
   3 C :   -0.061339
   4 C :    0.025752
   5 O :   -0.304445
   6 C :    0.056075
   7 C :   -0.196567
   8 C :   -0.201400
   9 H :    0.314750
  10 H :    0.091129
  11 H :    0.093669
  12 H :    0.144647
  13 H :    0.116750
  14 H :    0.111079
  15 H :    0.141395
  16 H :    0.139853
  17 H :    0.139277
  18 H :    0.139080
Sum of atomic charges:   -0.0000000

LOEWDIN ATOMIC CHARGES
----------------------
   0 O :   -0.049875
   1 C :   -0.349761
   2 C :   -0.251654
   3 C :   -0.179177
   4 C :   -0.219527
   5 O :    0.153698
   6 C :   -0.215177
   7 C :   -0.129636
   8 C :   -0.130652
   9 H :    0.171794
  10 H :    0.113504
  11 H :    0.113516
  12 H :    0.150376
  13 H :    0.145109
  14 H :    0.145261
  15 H :    0.130872
  16 H :    0.133061
  17 H :    0.134260
  18 H :    0.134009

  Mayer bond orders larger than 0.1
B(  0-O ,  1-C ) :   1.0243 B(  0-O ,  9-H ) :   0.8488 B(  1-C ,  2-C ) :   0.9216
B(  1-C , 10-H ) :   0.9316 B(  1-C , 11-H ) :   0.9352 B(  2-C ,  3-C ) :   0.8866
B(  2-C , 12-H ) :   0.9242 B(  2-C , 13-H ) :   0.9213 B(  3-C ,  4-C ) :   0.9345
B(  3-C ,  6-C ) :   0.9047 B(  3-C , 14-H ) :   0.9058 B(  4-C ,  5-O ) :   0.9182
B(  4-C ,  8-C ) :   0.9545 B(  4-C , 15-H ) :   0.8961 B(  5-O ,  6-C ) :   0.9085
B(  6-C ,  7-C ) :   0.9685 B(  6-C , 16-H ) :   0.9023 B(  7-C ,  8-C ) :   1.7783
B(  7-C , 17-H ) :   0.9273 B(  8-C , 18-H ) :   0.9250

MP2 TOTAL ENERGY:     -422.262497130 Eh
FINAL SINGLE POINT ENERGY      -422.262497129689

DIPOLE MOMENT
-------------
                                X             Y             Z
Electronic contribution:     -2.92285      -1.98999       1.70690
Nuclear contribution   :      3.93149       1.55149      -2.06770
                        -----------------------------------------
Total Dipole Moment    :      1.00864      -0.43850      -0.36081
                        -----------------------------------------
Magnitude (a.u.)       :      1.15750
Magnitude (Debye)      :      2.94214

                             ****ORCA TERMINATED NORMALLY****
TOTAL RUN TIME: 0 days 0 hours 15 minutes 46 seconds 867 msec
