                         Program Version 3.0.3 - RELEASE   -
|  1> ! RI-MP2 RIJK def2-TZVP def2-TZVP/C def2-TZVP/JK TIGHTSCF
|  2> % maxcore 2000
|  3> % mp2 density relaxed end
|  4> *xyz 0 1
|  5>  C       -0.5316218342     1.6351879078    -0.2184303744
|  6>  C       -0.0132095618     0.1899723102    -0.1267488219
|  7>  C       -1.1416298066    -0.8321701215     0.1260157777
|  8>  C       -2.0808680734    -0.5450594263     1.2822524332
|  9>  O       -1.2648055174    -1.8190092412    -0.5610599431
| 10>  C        0.7648608706    -0.2043423640    -1.3812895538
| 11>  O        0.5978040202     0.3564338590    -2.4422742120
| 12>  C        1.7921153424    -1.3186491037    -1.2773669477
| 13>  O        2.4230821082    -1.5493313651    -2.5011100877
| 14>  H        0.2998582803     2.3227152935    -0.3903806415
| 15>  H       -1.2239951913     1.7424491504    -1.0563290057
| 16>  H       -1.0355510154     1.9352943985     0.7028989591
| 17>  H        0.6606355672     0.1031687040     0.7389212723
| 18>  H       -1.5361342197    -0.2079547074     2.1697464737
| 19>  H       -2.7758877826     0.2555879130     1.0064554004
| 20>  H       -2.6542205334    -1.4448256094     1.5081634151
| 21>  H        2.5235057450    -1.0317285895    -0.5012580913
| 22>  H        1.2754064937    -2.2183374413    -0.9104410565
| 23>  H        2.0108797481    -0.9253060372    -3.1192701858
| 24> *
| 25>
| 26>                          ****END OF INPUT****

CARTESIAN COORDINATES (ANGSTROEM)
---------------------------------
  C     -0.531622    1.635188   -0.218430
  C     -0.013210    0.189972   -0.126749
  C     -1.141630   -0.832170    0.126016
  C     -2.080868   -0.545059    1.282252
  O     -1.264806   -1.819009   -0.561060
  C      0.764861   -0.204342   -1.381290
  O      0.597804    0.356434   -2.442274
  C      1.792115   -1.318649   -1.277367
  O      2.423082   -1.549331   -2.501110
  H      0.299858    2.322715   -0.390381
  H     -1.223995    1.742449   -1.056329
  H     -1.035551    1.935294    0.702899
  H      0.660636    0.103169    0.738921
  H     -1.536134   -0.207955    2.169746
  H     -2.775888    0.255588    1.006455
  H     -2.654221   -1.444826    1.508163
  H      2.523506   -1.031729   -0.501258
  H      1.275406   -2.218337   -0.910441
  H      2.010880   -0.925306   -3.119270

 Total Charge           Charge          ....    0
 Multiplicity           Mult            ....    1
 Number of Electrons    NEL             ....   70
 Basis Dimension        Dim             ....  339

ORBITAL ENERGIES
----------------

  NO   OCC          E(Eh)            E(eV)
   0   2.0000     -20.566971      -559.6557
   1   2.0000     -20.566093      -559.6319
   2   2.0000     -20.551787      -559.2426
   3   2.0000     -11.356862      -309.0359
   4   2.0000     -11.346768      -308.7613
   5   2.0000     -11.288923      -307.1872
   6   2.0000     -11.275743      -306.8286
   7   2.0000     -11.252689      -306.2012
   8   2.0000     -11.245988      -306.0189
   9   2.0000      -1.420386       -38.6507
  10   2.0000      -1.410460       -38.3806
  11   2.0000      -1.357504       -36.9396
  12   2.0000      -1.105463       -30.0812
  13   2.0000      -1.020579       -27.7714
  14   2.0000      -0.984516       -26.7900
  15   2.0000      -0.905276       -24.6338
  16   2.0000      -0.794826       -21.6283
  17   2.0000      -0.745444       -20.2846
  18   2.0000      -0.719690       -19.5838
  19   2.0000      -0.690343       -18.7852
  20   2.0000      -0.671142       -18.2627
  21   2.0000      -0.642245       -17.4764
  22   2.0000      -0.636537       -17.3210
  23   2.0000      -0.617815       -16.8116
  24   2.0000      -0.602499       -16.3948
  25   2.0000      -0.579285       -15.7631
  26   2.0000      -0.573749       -15.6125
  27   2.0000      -0.561025       -15.2663
  28   2.0000      -0.544492       -14.8164
  29   2.0000      -0.533207       -14.5093
  30   2.0000      -0.521837       -14.1999
  31   2.0000      -0.505743       -13.7620
  32   2.0000      -0.450015       -12.2455
  33   2.0000      -0.442136       -12.0311
  34   2.0000      -0.421698       -11.4750
  35   0.0000       0.105245         2.8639
  36   0.0000       0.124932         3.3996
  37   0.0000       0.130620         3.5543
  38   0.0000       0.155137         4.2215
  39   0.0000       0.163187         4.4406

MULLIKEN ATOMIC CHARGES
-----------------------
   0 C :   -0.413483
   1 C :   -0.043558
   2 C :    0.174817
   3 C :   -0.432401
   4 O :   -0.277763
   5 C :    0.203018
   6 O :   -0.318347
   7 C :   -0.051014
   8 O :   -0.485984
   9 H :    0.148623
  10 H :    0.158007
  11 H :    0.144453
  12 H :    0.126294
  13 H :    0.148114
  14 H :    0.162849
  15 H :    0.164741
  16 H :    0.111681
  17 H :    0.144374
  18 H :    0.335579
Sum of atomic charges:    0.0000000

LOEWDIN ATOMIC CHARGES
----------------------
   0 C :   -0.275338
   1 C :   -0.224338
   2 C :   -0.319271
   3 C :   -0.275313
   4 O :    0.165404
   5 C :   -0.298863
   6 O :    0.154980
   7 C :   -0.335547
   8 O :   -0.032575
   9 H :    0.132719
  10 H :    0.135341
  11 H :    0.125464
  12 H :    0.173579
  13 H :    0.135130
  14 H :    0.142974
  15 H :    0.137510
  16 H :    0.133793
  17 H :    0.142313
  18 H :    0.182040

  Mayer bond orders larger than 0.1
B(  0-C ,  1-C ) :   0.8794 B(  0-C ,  9-H ) :   0.9336 B(  0-C , 10-H ) :   0.9286
B(  0-C , 11-H ) :   0.9339 B(  1-C ,  2-C ) :   0.8583 B(  1-C ,  5-C ) :   0.8581
B(  1-C , 12-H ) :   0.8948 B(  2-C ,  3-C ) :   0.9199 B(  2-C ,  4-O ) :   1.9689
B(  3-C , 13-H ) :   0.9230 B(  3-C , 14-H ) :   0.9122 B(  3-C , 15-H ) :   0.9338
B(  5-C ,  6-O ) :   1.9066 B(  5-C ,  7-C ) :   0.9473 B(  7-C ,  8-O ) :   1.0051
B(  7-C , 16-H ) :   0.9022 B(  7-C , 17-H ) :   0.9113 B(  8-O , 18-H ) :   0.8067

MP2 TOTAL ENERGY:     -459.458775640 Eh
FINAL SINGLE POINT ENERGY      -459.458775640020

DIPOLE MOMENT
-------------
                                X             Y             Z
Electronic contribution:      2.59245      -3.89866      -6.15839
Nuclear contribution   :     -3.08044       4.84033       7.81364
                        -----------------------------------------
Total Dipole Moment    :     -0.48799       0.94168       1.65525
                        -----------------------------------------
Magnitude (a.u.)       :      1.96589
Magnitude (Debye)      :      4.99690

                             ****ORCA TERMINATED NORMALLY****
TOTAL RUN TIME: 0 days 0 hours 15 minutes 34 seconds 197 msec
