                         Program Version 3.0.3 - RELEASE   -
|  1> ! RI-MP2 RIJK def2-TZVP def2-TZVP/C def2-TZVP/JK TIGHTSCF
|  2> % maxcore 2000
|  3> % mp2 density relaxed end
|  4> *xyz 0 1
|  5>  N       -0.1155017018    -1.1952719745    -0.1071825753
|  6>  C       -0.0761719283    -0.0412436462    -0.0415577652
|  7>  C        0.0131377322     1.4112068316     0.0399516046
|  8>  C       -0.2615863707     2.0900478049     1.3989266384
|  9>  C        0.7913046596     1.7293050556     2.4058081489
| 10>  C        1.1138078728     2.7644006875     1.3622831751
| 11>  C        1.4287175560     2.0638977085     0.0574135076
| 12>  C        2.6957990386     1.5168573776    -0.4680907666
| 13>  N        2.0579889415     2.7083433024    -1.0775768900
| 14>  H       -0.5952669449     1.8575082361    -0.7528625796
| 15>  H       -1.2229580746     2.5015028646     1.6753207133
| 16>  H        0.6146340219     2.1133829905     3.4048959331
| 17>  H        1.2693927889     0.7536091237     2.3790836939
| 18>  H        1.3822559367     3.7866093551     1.5939865279
| 19>  H        3.6300725108     1.7144048198     0.0496936561
| 20>  H        2.6576346855     0.5716190514    -1.0034978251
| 21>  H        1.5936658058     2.4573461313    -1.9475397770
| 22> *
| 23>
| 24>                          ****END OF INPUT****

CARTESIAN COORDINATES (ANGSTROEM)
---------------------------------
  N     -0.115502   -1.195272   -0.107183
  C     -0.076172   -0.041244   -0.041558
  C      0.013138    1.411207    0.039952
  C     -0.261586    2.090048    1.398927
  C      0.791305    1.729305    2.405808
  C      1.113808    2.764401    1.362283
  C      1.428718    2.063898    0.057414
  C      2.695799    1.516857   -0.468091
  N      2.057989    2.708343   -1.077577
  H     -0.595267    1.857508   -0.752863
  H     -1.222958    2.501503    1.675321
  H      0.614634    2.113383    3.404896
  H      1.269393    0.753609    2.379084
  H      1.382256    3.786609    1.593987
  H      3.630073    1.714405    0.049694
  H      2.657635    0.571619   -1.003498
  H      1.593666    2.457346   -1.947540

 Total Charge           Charge          ....    0
 Multiplicity           Mult            ....    1
 Number of Electrons    NEL             ....   64
 Basis Dimension        Dim             ....  327

ORBITAL ENERGIES
----------------

  NO   OCC          E(Eh)            E(eV)
   0   2.0000     -15.575136      -423.8210
   1   2.0000     -15.572290      -423.7436
   2   2.0000     -11.296218      -307.3857
   3   2.0000     -11.294955      -307.3513
   4   2.0000     -11.274590      -306.7972
   5   2.0000     -11.267602      -306.6070
   6   2.0000     -11.265766      -306.5571
   7   2.0000     -11.256067      -306.2932
   8   2.0000     -11.250086      -306.1304
   9   2.0000      -1.291170       -35.1345
  10   2.0000      -1.223470       -33.2923
  11   2.0000      -1.199697       -32.6454
  12   2.0000      -1.026274       -27.9263
  13   2.0000      -0.915683       -24.9170
  14   2.0000      -0.890170       -24.2228
  15   2.0000      -0.829460       -22.5707
  16   2.0000      -0.767681       -20.8897
  17   2.0000      -0.732076       -19.9208
  18   2.0000      -0.697917       -18.9913
  19   2.0000      -0.673179       -18.3181
  20   2.0000      -0.633297       -17.2329
  21   2.0000      -0.591539       -16.0966
  22   2.0000      -0.566250       -15.4084
  23   2.0000      -0.558058       -15.1855
  24   2.0000      -0.522273       -14.2118
  25   2.0000      -0.516023       -14.0417
  26   2.0000      -0.503356       -13.6970
  27   2.0000      -0.466064       -12.6822
  28   2.0000      -0.449682       -12.2365
  29   2.0000      -0.435637       -11.8543
  30   2.0000      -0.421167       -11.4605
  31   2.0000      -0.390299       -10.6206
  32   0.0000       0.125248         3.4082
  33   0.0000       0.137311         3.7364
  34   0.0000       0.152139         4.1399
  35   0.0000       0.158894         4.3237
  36   0.0000       0.179108         4.8738

MULLIKEN ATOMIC CHARGES
-----------------------
   0 N :   -0.050167
   1 C :   -0.225492
   2 C :    0.051883
   3 C :   -0.125870
   4 C :   -0.268981
   5 C :   -0.097368
   6 C :    0.029377
   7 C :   -0.187205
   8 N :   -0.369324
   9 H :    0.146177
  10 H :    0.147065
  11 H :    0.140987
  12 H :    0.154939
  13 H :    0.150100
  14 H :    0.130109
  15 H :    0.148425
  16 H :    0.225345
Sum of atomic charges:    0.0000000

LOEWDIN ATOMIC CHARGES
----------------------
   0 N :    0.062740
   1 C :   -0.169367
   2 C :   -0.162027
   3 C :   -0.136529
   4 C :   -0.186910
   5 C :   -0.129140
   6 C :   -0.249715
   7 C :   -0.226781
   8 N :    0.018665
   9 H :    0.178744
  10 H :    0.140639
  11 H :    0.144718
  12 H :    0.140698
  13 H :    0.144650
  14 H :    0.130266
  15 H :    0.130060
  16 H :    0.169286

  Mayer bond orders larger than 0.1
B(  0-N ,  1-C ) :   2.8580 B(  1-C ,  2-C ) :   0.9308 B(  2-C ,  3-C ) :   0.8989
B(  2-C ,  6-C ) :   0.9252 B(  2-C ,  9-H ) :   0.9016 B(  3-C ,  4-C ) :   0.8927
B(  3-C ,  5-C ) :   0.8602 B(  3-C , 10-H ) :   0.9238 B(  4-C ,  5-C ) :   0.8680
B(  4-C , 11-H ) :   0.9289 B(  4-C , 12-H ) :   0.9193 B(  5-C ,  6-C ) :   0.8658
B(  5-C , 13-H ) :   0.9188 B(  6-C ,  7-C ) :   0.9422 B(  6-C ,  8-N ) :   0.9413
B(  7-C ,  8-N ) :   0.9445 B(  7-C , 14-H ) :   0.9128 B(  7-C , 15-H ) :   0.9112
B(  8-N , 16-H ) :   0.8652

MP2 TOTAL ENERGY:     -380.144149971 Eh
FINAL SINGLE POINT ENERGY      -380.144149970901

DIPOLE MOMENT
-------------
                                X             Y             Z
Electronic contribution:     -2.24625      -2.76456      -1.96103
Nuclear contribution   :      2.18649       3.80437       2.18391
                        -----------------------------------------
Total Dipole Moment    :     -0.05976       1.03981       0.22288
                        -----------------------------------------
Magnitude (a.u.)       :      1.06511
Magnitude (Debye)      :      2.70728

                             ****ORCA TERMINATED NORMALLY****
TOTAL RUN TIME: 0 days 0 hours 18 minutes 18 seconds 521 msec
