                         Program Version 3.0.3 - RELEASE   -
|  1> ! RI-MP2 RIJK def2-TZVP def2-TZVP/C def2-TZVP/JK TIGHTSCF
|  2> % maxcore 2000
|  3> % mp2 density relaxed end
|  4> *xyz 0 1
|  5>  C       -1.0281044318     1.5311330986    -0.7540018813
|  6>  C       -0.1065908811     0.4008320852    -0.2549325281
|  7>  C       -0.8586837617    -0.6925053025     0.3575131929
|  8>  N       -1.4348256840    -1.5866147249     0.8121434621
|  9>  C        0.8374542462    -0.0671945909    -1.3993099858
| 10>  N        0.9872395361    -1.4045975850    -1.5473878955
| 11>  O        1.4088856822     0.7609588882    -2.0765439946
| 12>  H       -0.4085883480     2.2850115119    -1.2408401079
| 13>  H       -1.7527972983     1.1499286957    -1.4777851414
| 14>  H       -1.5714832107     1.9811122768     0.0793430968
| 15>  H        0.5629270074     0.8094138834     0.5127683104
| 16>  H        0.4607797837    -2.0701002729    -1.0065841554
| 17>  H        1.5926725600    -1.7337011237    -2.2816216022
| 18> *
| 19>
| 20>                          ****END OF INPUT****

CARTESIAN COORDINATES (ANGSTROEM)
---------------------------------
  C     -1.028104    1.531133   -0.754002
  C     -0.106591    0.400832   -0.254933
  C     -0.858684   -0.692505    0.357513
  N     -1.434826   -1.586615    0.812143
  C      0.837454   -0.067195   -1.399310
  N      0.987240   -1.404598   -1.547388
  O      1.408886    0.760959   -2.076544
  H     -0.408588    2.285012   -1.240840
  H     -1.752797    1.149929   -1.477785
  H     -1.571483    1.981112    0.079343
  H      0.562927    0.809414    0.512768
  H      0.460780   -2.070100   -1.006584
  H      1.592673   -1.733701   -2.281622

 Total Charge           Charge          ....    0
 Multiplicity           Mult            ....    1
 Number of Electrons    NEL             ....   52
 Basis Dimension        Dim             ....  253

ORBITAL ENERGIES
----------------

  NO   OCC          E(Eh)            E(eV)
   0   2.0000     -20.539191      -558.8998
   1   2.0000     -15.604090      -424.6089
   2   2.0000     -15.590872      -424.2492
   3   2.0000     -11.381148      -309.6968
   4   2.0000     -11.308665      -307.7244
   5   2.0000     -11.293124      -307.3015
   6   2.0000     -11.251499      -306.1689
   7   2.0000      -1.407399       -38.2973
   8   2.0000      -1.247521       -33.9468
   9   2.0000      -1.229533       -33.4573
  10   2.0000      -1.103639       -30.0315
  11   2.0000      -0.933522       -25.4024
  12   2.0000      -0.830980       -22.6121
  13   2.0000      -0.763406       -20.7733
  14   2.0000      -0.736397       -20.0384
  15   2.0000      -0.678832       -18.4719
  16   2.0000      -0.634131       -17.2556
  17   2.0000      -0.607027       -16.5180
  18   2.0000      -0.587854       -15.9963
  19   2.0000      -0.566589       -15.4177
  20   2.0000      -0.555883       -15.1264
  21   2.0000      -0.545175       -14.8350
  22   2.0000      -0.501210       -13.6386
  23   2.0000      -0.476540       -12.9673
  24   2.0000      -0.438440       -11.9306
  25   2.0000      -0.435287       -11.8448
  26   0.0000       0.112671         3.0659
  27   0.0000       0.138651         3.7729
  28   0.0000       0.155295         4.2258
  29   0.0000       0.169326         4.6076
  30   0.0000       0.173632         4.7248

MULLIKEN ATOMIC CHARGES
-----------------------
   0 C :   -0.403968
   1 C :    0.093181
   2 C :   -0.224408
   3 N :   -0.059992
   4 C :    0.222930
   5 N :   -0.456533
   6 O :   -0.336685
   7 H :    0.174232
   8 H :    0.141717
   9 H :    0.148050
  10 H :    0.150852
  11 H :    0.284676
  12 H :    0.265948
Sum of atomic charges:    0.0000000

LOEWDIN ATOMIC CHARGES
----------------------
   0 C :   -0.256581
   1 C :   -0.231137
   2 C :   -0.181789
   3 N :    0.060310
   4 C :   -0.452819
   5 N :    0.009283
   6 O :    0.098272
   7 H :    0.139137
   8 H :    0.132366
   9 H :    0.130000
  10 H :    0.190360
  11 H :    0.182668
  12 H :    0.179928

  Mayer bond orders larger than 0.1
B(  0-C ,  1-C ) :   0.8977 B(  0-C ,  7-H ) :   0.9250 B(  0-C ,  8-H ) :   0.9277
B(  0-C ,  9-H ) :   0.9319 B(  1-C ,  2-C ) :   0.8800 B(  1-C ,  4-C ) :   0.8531
B(  1-C , 10-H ) :   0.8905 B(  2-C ,  3-N ) :   2.8491 B(  4-C ,  5-N ) :   1.2159
B(  4-C ,  6-O ) :   1.9699 B(  5-N , 11-H ) :   0.8495 B(  5-N , 12-H ) :   0.8545

MP2 TOTAL ENERGY:     -340.128519243 Eh
FINAL SINGLE POINT ENERGY      -340.128519243211

DIPOLE MOMENT
-------------
                                X             Y             Z
Electronic contribution:      1.32087      -3.09065       0.75205
Nuclear contribution   :     -1.10185       3.02772      -0.87174
                        -----------------------------------------
Total Dipole Moment    :      0.21903      -0.06293      -0.11969
                        -----------------------------------------
Magnitude (a.u.)       :      0.25741
Magnitude (Debye)      :      0.65428

                             ****ORCA TERMINATED NORMALLY****
TOTAL RUN TIME: 0 days 0 hours 6 minutes 48 seconds 602 msec
