                         Program Version 3.0.3 - RELEASE   -
|  1> ! RI-MP2 RIJK def2-TZVP def2-TZVP/C def2-TZVP/JK TIGHTSCF
|  2> % maxcore 2000
|  3> % mp2 density relaxed end
|  4> *xyz 0 1
|  5>  C       -0.0759784440     1.6556446769     0.0940137047
|  6>  C        0.0584602866     0.1244583101    -0.0067445023
|  7>  N        0.6934330869    -0.2868480947    -1.2586969334
|  8>  C       -0.0446862262    -0.6158594276    -2.3597495460
|  9>  C        0.7574545952    -1.0971428457    -3.5582024725
| 10>  O       -1.2609931893    -0.5421733489    -2.3738469235
| 11>  C        0.7935929459    -0.4319622562     1.1287258813
| 12>  C        1.4223826581    -0.8615282411     2.0584368523
| 13>  H        0.9081356960     2.1325253121     0.0815412123
| 14>  H       -0.6626118324     2.0207282599    -0.7523235145
| 15>  H       -0.5824951198     1.9321342457     1.0227002906
| 16>  H       -0.9494763639    -0.3040701946    -0.0394574156
| 17>  H        1.6951362236    -0.3830115743    -1.2706763273
| 18>  H        0.6090656709    -2.1754481574    -3.6714428521
| 19>  H        0.3675832259    -0.6153427206    -4.4570175764
| 20>  H        1.8291367682    -0.8982692591    -3.4757873486
| 21>  H        1.9593173087    -1.2538293846     2.8865711010
| 22> *
| 23>
| 24>                          ****END OF INPUT****

CARTESIAN COORDINATES (ANGSTROEM)
---------------------------------
  C     -0.075978    1.655645    0.094014
  C      0.058460    0.124458   -0.006745
  N      0.693433   -0.286848   -1.258697
  C     -0.044686   -0.615859   -2.359750
  C      0.757455   -1.097143   -3.558202
  O     -1.260993   -0.542173   -2.373847
  C      0.793593   -0.431962    1.128726
  C      1.422383   -0.861528    2.058437
  H      0.908136    2.132525    0.081541
  H     -0.662612    2.020728   -0.752324
  H     -0.582495    1.932134    1.022700
  H     -0.949476   -0.304070   -0.039457
  H      1.695136   -0.383012   -1.270676
  H      0.609066   -2.175448   -3.671443
  H      0.367583   -0.615343   -4.457018
  H      1.829137   -0.898269   -3.475787
  H      1.959317   -1.253829    2.886571

 Total Charge           Charge          ....    0
 Multiplicity           Mult            ....    1
 Number of Electrons    NEL             ....   60
 Basis Dimension        Dim             ....  302

ORBITAL ENERGIES
----------------

  NO   OCC          E(Eh)            E(eV)
   0   2.0000     -20.515715      -558.2610
   1   2.0000     -15.589252      -424.2051
   2   2.0000     -11.353013      -308.9312
   3   2.0000     -11.298762      -307.4550
   4   2.0000     -11.242611      -305.9270
   5   2.0000     -11.240196      -305.8613
   6   2.0000     -11.233884      -305.6895
   7   2.0000     -11.226695      -305.4939
   8   2.0000      -1.383108       -37.6363
   9   2.0000      -1.241557       -33.7845
  10   2.0000      -1.077132       -29.3102
  11   2.0000      -1.013248       -27.5719
  12   2.0000      -0.986731       -26.8503
  13   2.0000      -0.883681       -24.0462
  14   2.0000      -0.797973       -21.7140
  15   2.0000      -0.745075       -20.2745
  16   2.0000      -0.696806       -18.9610
  17   2.0000      -0.669478       -18.2174
  18   2.0000      -0.627936       -17.0870
  19   2.0000      -0.626139       -17.0381
  20   2.0000      -0.592412       -16.1203
  21   2.0000      -0.578393       -15.7389
  22   2.0000      -0.565640       -15.3918
  23   2.0000      -0.540733       -14.7141
  24   2.0000      -0.527184       -14.3454
  25   2.0000      -0.507534       -13.8107
  26   2.0000      -0.433602       -11.7989
  27   2.0000      -0.411251       -11.1907
  28   2.0000      -0.400429       -10.8962
  29   2.0000      -0.386992       -10.5306
  30   0.0000       0.124479         3.3873
  31   0.0000       0.151100         4.1116
  32   0.0000       0.160477         4.3668
  33   0.0000       0.168777         4.5927
  34   0.0000       0.173705         4.7267

MULLIKEN ATOMIC CHARGES
-----------------------
   0 C :   -0.369286
   1 C :   -0.026256
   2 N :   -0.347572
   3 C :    0.328545
   4 C :   -0.412264
   5 O :   -0.389475
   6 C :   -0.070504
   7 C :   -0.136378
   8 H :    0.117964
   9 H :    0.153897
  10 H :    0.134753
  11 H :    0.152725
  12 H :    0.241254
  13 H :    0.153568
  14 H :    0.155098
  15 H :    0.118595
  16 H :    0.195335
Sum of atomic charges:    0.0000000

LOEWDIN ATOMIC CHARGES
----------------------
   0 C :   -0.269776
   1 C :   -0.283990
   2 N :    0.135376
   3 C :   -0.475599
   4 C :   -0.277579
   5 O :    0.073394
   6 C :   -0.091373
   7 C :   -0.090539
   8 H :    0.124027
   9 H :    0.131078
  10 H :    0.129635
  11 H :    0.176990
  12 H :    0.189824
  13 H :    0.140181
  14 H :    0.138612
  15 H :    0.121227
  16 H :    0.128511

  Mayer bond orders larger than 0.1
B(  0-C ,  1-C ) :   0.9258 B(  0-C ,  8-H ) :   0.9239 B(  0-C ,  9-H ) :   0.9368
B(  0-C , 10-H ) :   0.9333 B(  1-C ,  2-N ) :   0.8241 B(  1-C ,  6-C ) :   1.0987
B(  1-C , 11-H ) :   0.9266 B(  2-N ,  3-C ) :   1.1604 B(  2-N , 12-H ) :   0.8666
B(  3-C ,  4-C ) :   0.8942 B(  3-C ,  5-O ) :   1.8597 B(  4-C , 13-H ) :   0.9157
B(  4-C , 14-H ) :   0.9327 B(  4-C , 15-H ) :   0.9394 B(  6-C ,  7-C ) :   2.5920
B(  7-C , 16-H ) :   0.8976

MP2 TOTAL ENERGY:     -363.237146181 Eh
FINAL SINGLE POINT ENERGY      -363.237146180889

DIPOLE MOMENT
-------------
                                X             Y             Z
Electronic contribution:     -1.30207      -2.39807       1.96565
Nuclear contribution   :      2.57583       2.47098      -1.72424
                        -----------------------------------------
Total Dipole Moment    :      1.27377       0.07291       0.24141
                        -----------------------------------------
Magnitude (a.u.)       :      1.29849
Magnitude (Debye)      :      3.30049

                             ****ORCA TERMINATED NORMALLY****
TOTAL RUN TIME: 0 days 0 hours 11 minutes 9 seconds 717 msec
