                         Program Version 3.0.3 - RELEASE   -
|  1> ! RI-MP2 RIJK def2-TZVP def2-TZVP/C def2-TZVP/JK TIGHTSCF
|  2> % maxcore 2000
|  3> % mp2 density relaxed end
|  4> *xyz 0 1
|  5>  N        0.0196864916    -1.0878559551    -0.0179504637
|  6>  C       -0.0059865562     0.0665853166    -0.0185430372
|  7>  C       -0.0047114501     1.5180685728     0.0446177610
|  8>  C       -0.8000501601     2.1537941484     1.2193828204
|  9>  C       -1.0527162600     3.5782024074     0.6411423177
| 10>  C       -0.3511836285     3.4489673276    -0.7220376521
| 11>  O        1.0598699349     3.4867070897    -0.5222361845
| 12>  C        1.3960236456     2.1875998845    -0.0254815146
| 13>  O       -0.6231579888     2.1112063393    -1.1094674353
| 14>  H       -1.7291843951     1.6062816301     1.3819484410
| 15>  H       -0.2266783193     2.1496604965     2.1479414579
| 16>  H       -2.1186751216     3.7806193308     0.5166492880
| 17>  H       -0.6083508683     4.3749099659     1.2393350773
| 18>  H       -0.6310061449     4.1450317618    -1.5109358002
| 19>  H        1.8772292638     2.2544924847     0.9550572467
| 20>  H        2.0580178670     1.6732909290    -0.7291681123
| 21> *
| 22>
| 23>                          ****END OF INPUT****

CARTESIAN COORDINATES (ANGSTROEM)
---------------------------------
  N      0.019686   -1.087856   -0.017950
  C     -0.005987    0.066585   -0.018543
  C     -0.004711    1.518069    0.044618
  C     -0.800050    2.153794    1.219383
  C     -1.052716    3.578202    0.641142
  C     -0.351184    3.448967   -0.722038
  O      1.059870    3.486707   -0.522236
  C      1.396024    2.187600   -0.025482
  O     -0.623158    2.111206   -1.109467
  H     -1.729184    1.606282    1.381948
  H     -0.226678    2.149660    2.147941
  H     -2.118675    3.780619    0.516649
  H     -0.608351    4.374910    1.239335
  H     -0.631006    4.145032   -1.510936
  H      1.877229    2.254492    0.955057
  H      2.058018    1.673291   -0.729168

 Total Charge           Charge          ....    0
 Multiplicity           Mult            ....    1
 Number of Electrons    NEL             ....   66
 Basis Dimension        Dim             ....  321

ORBITAL ENERGIES
----------------

  NO   OCC          E(Eh)            E(eV)
   0   2.0000     -20.597499      -560.4864
   1   2.0000     -20.583250      -560.0987
   2   2.0000     -15.588717      -424.1905
   3   2.0000     -11.356736      -309.0325
   4   2.0000     -11.352594      -308.9198
   5   2.0000     -11.310180      -307.7657
   6   2.0000     -11.286048      -307.1090
   7   2.0000     -11.263966      -306.5081
   8   2.0000     -11.251931      -306.1806
   9   2.0000      -1.476834       -40.1867
  10   2.0000      -1.358733       -36.9730
  11   2.0000      -1.233348       -33.5611
  12   2.0000      -1.098762       -29.8988
  13   2.0000      -1.067375       -29.0448
  14   2.0000      -0.913988       -24.8709
  15   2.0000      -0.885554       -24.0972
  16   2.0000      -0.833321       -22.6758
  17   2.0000      -0.781434       -21.2639
  18   2.0000      -0.717220       -19.5166
  19   2.0000      -0.685164       -18.6443
  20   2.0000      -0.653230       -17.7753
  21   2.0000      -0.609921       -16.5968
  22   2.0000      -0.602795       -16.4029
  23   2.0000      -0.587678       -15.9915
  24   2.0000      -0.569828       -15.5058
  25   2.0000      -0.556188       -15.1346
  26   2.0000      -0.545751       -14.8506
  27   2.0000      -0.531347       -14.4587
  28   2.0000      -0.519750       -14.1431
  29   2.0000      -0.491666       -13.3789
  30   2.0000      -0.475044       -12.9266
  31   2.0000      -0.458654       -12.4806
  32   2.0000      -0.441090       -12.0027
  33   0.0000       0.122269         3.3271
  34   0.0000       0.144772         3.9394
  35   0.0000       0.156510         4.2589
  36   0.0000       0.159828         4.3491
  37   0.0000       0.163038         4.4365

MULLIKEN ATOMIC CHARGES
-----------------------
   0 N :   -0.036310
   1 C :   -0.176677
   2 C :    0.313316
   3 C :   -0.283690
   4 C :   -0.196484
   5 C :    0.125126
   6 O :   -0.315031
   7 C :   -0.054903
   8 O :   -0.293700
   9 H :    0.144370
  10 H :    0.138714
  11 H :    0.127686
  12 H :    0.126144
  13 H :    0.143517
  14 H :    0.113347
  15 H :    0.124574
Sum of atomic charges:    0.0000000

LOEWDIN ATOMIC CHARGES
----------------------
   0 N :    0.090194
   1 C :   -0.134256
   2 C :   -0.335024
   3 C :   -0.184734
   4 C :   -0.225261
   5 C :   -0.363016
   6 O :    0.166746
   7 C :   -0.228876
   8 O :    0.235624
   9 H :    0.146934
  10 H :    0.143031
  11 H :    0.140780
  12 H :    0.142558
  13 H :    0.140836
  14 H :    0.131460
  15 H :    0.133003

  Mayer bond orders larger than 0.1
B(  0-N ,  1-C ) :   2.8583 B(  1-C ,  2-C ) :   0.8376 B(  2-C ,  3-C ) :   0.9322
B(  2-C ,  7-C ) :   0.9603 B(  2-C ,  8-O ) :   0.9128 B(  3-C ,  4-C ) :   0.9726
B(  3-C ,  9-H ) :   0.9149 B(  3-C , 10-H ) :   0.9148 B(  4-C ,  5-C ) :   0.9631
B(  4-C , 11-H ) :   0.9146 B(  4-C , 12-H ) :   0.9158 B(  5-C ,  6-O ) :   0.9716
B(  5-C ,  8-O ) :   0.9663 B(  5-C , 13-H ) :   0.9147 B(  6-O ,  7-C ) :   0.9427
B(  7-C , 14-H ) :   0.9018 B(  7-C , 15-H ) :   0.9207

MP2 TOTAL ENERGY:     -437.188819104 Eh
FINAL SINGLE POINT ENERGY      -437.188819104481

DIPOLE MOMENT
-------------
                                X             Y             Z
Electronic contribution:      0.89150      -4.34423      -3.46430
Nuclear contribution   :     -1.07793       5.63178       4.18528
                        -----------------------------------------
Total Dipole Moment    :     -0.18643       1.28754       0.72098
                        -----------------------------------------
Magnitude (a.u.)       :      1.48739
Magnitude (Debye)      :      3.78065

                             ****ORCA TERMINATED NORMALLY****
TOTAL RUN TIME: 0 days 0 hours 17 minutes 20 seconds 189 msec
