                         Program Version 3.0.3 - RELEASE   -
|  1> ! RI-MP2 RIJK def2-TZVP def2-TZVP/C def2-TZVP/JK TIGHTSCF
|  2> % maxcore 2000
|  3> % mp2 density relaxed end
|  4> *xyz 0 1
|  5>  C       -0.0734606258     1.5946895373    -0.0212421497
|  6>  C        0.0283466623     0.0652421460    -0.0232650597
|  7>  C       -1.2830909763    -0.5363279072     0.2170180203
|  8>  N       -2.3302160946    -0.9960035199     0.3838386712
|  9>  C        0.7649862976    -0.6573814581    -1.1771895779
| 10>  C        2.1997694947    -0.3457521824    -1.1895101745
| 11>  N        1.7170832781    -1.3615266266    -0.2066694515
| 12>  C        1.1055872565    -0.5989060275     0.8655148627
| 13>  N        1.3132438422    -0.5418578469     2.0974341950
| 14>  H        0.8959517721     2.0487375910    -0.2365146953
| 15>  H       -0.7953313795     1.9351219848    -0.7682159424
| 16>  H       -0.4009012110     1.9381025503     0.9629228819
| 17>  H        0.2656740259    -1.2161316955    -1.9587433185
| 18>  H        2.8013859864    -0.7912949571    -1.9747842554
| 19>  H        2.5710945087     0.6035571771    -0.8153029645
| 20>  H        2.0933246425    -1.1467269655     2.3674718782
| 21> *
| 22>
| 23>                          ****END OF INPUT****

CARTESIAN COORDINATES (ANGSTROEM)
---------------------------------
  C     -0.073461    1.594690   -0.021242
  C      0.028347    0.065242   -0.023265
  C     -1.283091   -0.536328    0.217018
  N     -2.330216   -0.996004    0.383839
  C      0.764986   -0.657381   -1.177190
  C      2.199769   -0.345752   -1.189510
  N      1.717083   -1.361527   -0.206669
  C      1.105587   -0.598906    0.865515
  N      1.313244   -0.541858    2.097434
  H      0.895952    2.048738   -0.236515
  H     -0.795331    1.935122   -0.768216
  H     -0.400901    1.938103    0.962923
  H      0.265674   -1.216132   -1.958743
  H      2.801386   -0.791295   -1.974784
  H      2.571095    0.603557   -0.815303
  H      2.093325   -1.146727    2.367472

 Total Charge           Charge          ....    0
 Multiplicity           Mult            ....    1
 Number of Electrons    NEL             ....   64
 Basis Dimension        Dim             ....  321

ORBITAL ENERGIES
----------------

  NO   OCC          E(Eh)            E(eV)
   0   2.0000     -15.605898      -424.6581
   1   2.0000     -15.579169      -423.9307
   2   2.0000     -15.567469      -423.6124
   3   2.0000     -11.340939      -308.6026
   4   2.0000     -11.317779      -307.9724
   5   2.0000     -11.310904      -307.7853
   6   2.0000     -11.304288      -307.6053
   7   2.0000     -11.281378      -306.9819
   8   2.0000     -11.256791      -306.3128
   9   2.0000      -1.352582       -36.8056
  10   2.0000      -1.227191       -33.3936
  11   2.0000      -1.220322       -33.2067
  12   2.0000      -1.099503       -29.9190
  13   2.0000      -0.973572       -26.4922
  14   2.0000      -0.939326       -25.5604
  15   2.0000      -0.848391       -23.0859
  16   2.0000      -0.804087       -21.8803
  17   2.0000      -0.737161       -20.0592
  18   2.0000      -0.697918       -18.9913
  19   2.0000      -0.647214       -17.6116
  20   2.0000      -0.627883       -17.0856
  21   2.0000      -0.604314       -16.4442
  22   2.0000      -0.592008       -16.1093
  23   2.0000      -0.570737       -15.5305
  24   2.0000      -0.547300       -14.8928
  25   2.0000      -0.537584       -14.6284
  26   2.0000      -0.523258       -14.2386
  27   2.0000      -0.483495       -13.1566
  28   2.0000      -0.463106       -12.6017
  29   2.0000      -0.449591       -12.2340
  30   2.0000      -0.434227       -11.8159
  31   2.0000      -0.410729       -11.1765
  32   0.0000       0.115884         3.1534
  33   0.0000       0.140462         3.8222
  34   0.0000       0.148816         4.0495
  35   0.0000       0.153741         4.1835
  36   0.0000       0.161028         4.3818

MULLIKEN ATOMIC CHARGES
-----------------------
   0 C :   -0.389126
   1 C :    0.321023
   2 C :   -0.243769
   3 N :   -0.040793
   4 C :   -0.129589
   5 C :   -0.131689
   6 N :   -0.204843
   7 C :   -0.013875
   8 N :   -0.315643
   9 H :    0.131990
  10 H :    0.153738
  11 H :    0.166059
  12 H :    0.162733
  13 H :    0.150552
  14 H :    0.145279
  15 H :    0.237954
Sum of atomic charges:    0.0000000

LOEWDIN ATOMIC CHARGES
----------------------
   0 C :   -0.231755
   1 C :   -0.222207
   2 C :   -0.136421
   3 N :    0.079770
   4 C :   -0.143011
   5 C :   -0.212014
   6 N :    0.149697
   7 C :   -0.297000
   8 N :    0.003156
   9 H :    0.129025
  10 H :    0.136265
  11 H :    0.143048
  12 H :    0.146682
  13 H :    0.141239
  14 H :    0.133069
  15 H :    0.180457

  Mayer bond orders larger than 0.1
B(  0-C ,  1-C ) :   0.9090 B(  0-C ,  9-H ) :   0.9227 B(  0-C , 10-H ) :   0.9294
B(  0-C , 11-H ) :   0.9257 B(  1-C ,  2-C ) :   0.9069 B(  1-C ,  4-C ) :   0.8982
B(  1-C ,  7-C ) :   0.8210 B(  2-C ,  3-N ) :   2.8670 B(  4-C ,  5-C ) :   0.9489
B(  4-C ,  6-N ) :   0.8664 B(  4-C , 12-H ) :   0.8952 B(  5-C ,  6-N ) :   0.8355
B(  5-C , 13-H ) :   0.9247 B(  5-C , 14-H ) :   0.9103 B(  6-N ,  7-C ) :   0.9947
B(  7-C ,  8-N ) :   2.1266 B(  8-N , 15-H ) :   0.8414

MP2 TOTAL ENERGY:     -396.204397266 Eh
FINAL SINGLE POINT ENERGY      -396.204397265948

DIPOLE MOMENT
-------------
                                X             Y             Z
Electronic contribution:     -2.77828      -4.59774       1.89832
Nuclear contribution   :      4.24562       5.48171      -2.99229
                        -----------------------------------------
Total Dipole Moment    :      1.46734       0.88396      -1.09397
                        -----------------------------------------
Magnitude (a.u.)       :      2.03255
Magnitude (Debye)      :      5.16633

                             ****ORCA TERMINATED NORMALLY****
TOTAL RUN TIME: 0 days 0 hours 18 minutes 18 seconds 739 msec
