                         Program Version 3.0.3 - RELEASE   -
|  1> ! RI-MP2 RIJK def2-TZVP def2-TZVP/C def2-TZVP/JK TIGHTSCF
|  2> % maxcore 2000
|  3> % mp2 density relaxed end
|  4> *xyz 0 1
|  5>  O        0.0485392719     1.4459344276    -0.1634038303
|  6>  C        0.0018180687     0.1201050534     0.3200844390
|  7>  C       -1.3530905640    -0.5103910032     0.0656462862
|  8>  O       -1.5937061216    -0.6015050363    -1.3918942405
|  9>  C       -1.7023288616    -1.9785198723    -1.3365078098
| 10>  O       -1.9021649364    -2.7330113094    -2.2333462246
| 11>  C       -1.4897027398    -2.0258738648     0.1457742984
| 12>  C       -0.7235364000    -3.0694067386     0.9170549789
| 13>  C       -2.2022097108    -2.9216161441     1.1221326862
| 14>  H       -0.1592255677     1.4068526922    -1.1045144554
| 15>  H        0.7838817524    -0.5116929018    -0.1289604464
| 16>  H        0.1886546086     0.1693234366     1.3988077736
| 17>  H       -2.1568458372     0.0708836220     0.5256278094
| 18>  H       -0.3609429422    -3.9222135649     0.3539160312
| 19>  H       -0.0591142223    -2.7234192419     1.7014167493
| 20>  H       -2.5512148900    -2.4702257235     2.0446547962
| 21>  H       -2.8608733379    -3.6732915411     0.7012913388
| 22> *
| 23>
| 24>                          ****END OF INPUT****

CARTESIAN COORDINATES (ANGSTROEM)
---------------------------------
  O      0.048539    1.445934   -0.163404
  C      0.001818    0.120105    0.320084
  C     -1.353091   -0.510391    0.065646
  O     -1.593706   -0.601505   -1.391894
  C     -1.702329   -1.978520   -1.336508
  O     -1.902165   -2.733011   -2.233346
  C     -1.489703   -2.025874    0.145774
  C     -0.723536   -3.069407    0.917055
  C     -2.202210   -2.921616    1.122133
  H     -0.159226    1.406853   -1.104514
  H      0.783882   -0.511693   -0.128960
  H      0.188655    0.169323    1.398808
  H     -2.156846    0.070884    0.525628
  H     -0.360943   -3.922214    0.353916
  H     -0.059114   -2.723419    1.701417
  H     -2.551215   -2.470226    2.044655
  H     -2.860873   -3.673292    0.701291

 Total Charge           Charge          ....    0
 Multiplicity           Mult            ....    1
 Number of Electrons    NEL             ....   68
 Basis Dimension        Dim             ....  327

ORBITAL ENERGIES
----------------

  NO   OCC          E(Eh)            E(eV)
   0   2.0000     -20.605758      -560.7112
   1   2.0000     -20.569942      -559.7366
   2   2.0000     -20.556591      -559.3733
   3   2.0000     -11.388263      -309.8904
   4   2.0000     -11.317153      -307.9554
   5   2.0000     -11.297201      -307.4125
   6   2.0000     -11.278483      -306.9031
   7   2.0000     -11.267150      -306.5947
   8   2.0000     -11.266186      -306.5685
   9   2.0000      -1.466651       -39.9096
  10   2.0000      -1.387814       -37.7643
  11   2.0000      -1.371957       -37.3328
  12   2.0000      -1.182869       -32.1875
  13   2.0000      -1.028606       -27.9898
  14   2.0000      -0.943778       -25.6815
  15   2.0000      -0.868080       -23.6217
  16   2.0000      -0.855073       -23.2677
  17   2.0000      -0.734522       -19.9874
  18   2.0000      -0.723945       -19.6995
  19   2.0000      -0.719054       -19.5665
  20   2.0000      -0.700507       -19.0618
  21   2.0000      -0.653776       -17.7902
  22   2.0000      -0.652079       -17.7440
  23   2.0000      -0.620105       -16.8739
  24   2.0000      -0.597236       -16.2516
  25   2.0000      -0.576062       -15.6754
  26   2.0000      -0.562013       -15.2932
  27   2.0000      -0.547915       -14.9095
  28   2.0000      -0.514033       -13.9875
  29   2.0000      -0.490794       -13.3552
  30   2.0000      -0.478779       -13.0282
  31   2.0000      -0.464348       -12.6356
  32   2.0000      -0.438869       -11.9422
  33   2.0000      -0.435762       -11.8577
  34   0.0000       0.126920         3.4537
  35   0.0000       0.141142         3.8407
  36   0.0000       0.149695         4.0734
  37   0.0000       0.157590         4.2882
  38   0.0000       0.164716         4.4822

MULLIKEN ATOMIC CHARGES
-----------------------
   0 O :   -0.468352
   1 C :   -0.043888
   2 C :    0.108621
   3 O :   -0.266118
   4 C :    0.270691
   5 O :   -0.264966
   6 C :   -0.111681
   7 C :   -0.246933
   8 C :   -0.264264
   9 H :    0.330858
  10 H :    0.119486
  11 H :    0.113373
  12 H :    0.119846
  13 H :    0.155272
  14 H :    0.146471
  15 H :    0.146079
  16 H :    0.155506
Sum of atomic charges:   -0.0000000

LOEWDIN ATOMIC CHARGES
----------------------
   0 O :   -0.034838
   1 C :   -0.331445
   2 C :   -0.216464
   3 O :    0.235955
   4 C :   -0.423818
   5 O :    0.157522
   6 C :   -0.189394
   7 C :   -0.181887
   8 C :   -0.180042
   9 H :    0.181745
  10 H :    0.126894
  11 H :    0.135887
  12 H :    0.146061
  13 H :    0.145728
  14 H :    0.140704
  15 H :    0.141229
  16 H :    0.146162

  Mayer bond orders larger than 0.1
B(  0-O ,  1-C ) :   0.9259 B(  0-O ,  9-H ) :   0.8336 B(  1-C ,  2-C ) :   0.9268
B(  1-C , 10-H ) :   0.9154 B(  1-C , 11-H ) :   0.9219 B(  2-C ,  3-O ) :   0.8641
B(  2-C ,  6-C ) :   0.8689 B(  2-C , 12-H ) :   0.9156 B(  3-O ,  4-C ) :   1.0791
B(  4-C ,  5-O ) :   2.0602 B(  4-C ,  6-C ) :   0.9318 B(  6-C ,  7-C ) :   0.8243
B(  6-C ,  8-C ) :   0.8309 B(  7-C ,  8-C ) :   0.9464 B(  7-C , 13-H ) :   0.9191
B(  7-C , 14-H ) :   0.9241 B(  8-C , 15-H ) :   0.9257 B(  8-C , 16-H ) :   0.9192

MP2 TOTAL ENERGY:     -458.235127481 Eh
FINAL SINGLE POINT ENERGY      -458.235127480906

DIPOLE MOMENT
-------------
                                X             Y             Z
Electronic contribution:     -2.03030       0.82374      -6.12620
Nuclear contribution   :      2.17920      -1.13827       7.46862
                        -----------------------------------------
Total Dipole Moment    :      0.14889      -0.31453       1.34243
                        -----------------------------------------
Magnitude (a.u.)       :      1.38680
Magnitude (Debye)      :      3.52496

                             ****ORCA TERMINATED NORMALLY****
TOTAL RUN TIME: 0 days 0 hours 24 minutes 14 seconds 920 msec
