                         Program Version 3.0.3 - RELEASE   -
|  1> ! RI-MP2 RIJK def2-TZVP def2-TZVP/C def2-TZVP/JK TIGHTSCF
|  2> % maxcore 2000
|  3> % mp2 density relaxed end
|  4> *xyz 0 1
|  5>  C        0.3133947127     1.2740554734     0.0944935924
|  6>  C       -0.1288589670    -0.2024801165     0.0112147145
|  7>  C        0.6024594382    -0.9216376701    -1.1555327356
|  8>  O        1.8778161387    -1.3051802546    -0.6290348792
|  9>  C        1.8199180978    -1.4032676338     0.7369280586
| 10>  N        2.7797342394    -1.7604034064     1.4725397567
| 11>  C        0.4359620026    -1.0128578950     1.2059996515
| 12>  C       -1.5773776378    -0.2993692922    -0.1215197731
| 13>  C       -2.7711245815    -0.3739774807    -0.2411478714
| 14>  H        1.4036308904     1.3408536055     0.1601364893
| 15>  H       -0.0172363939     1.8260856254    -0.7893040918
| 16>  H       -0.1168343793     1.7533723004     0.9775040314
| 17>  H        0.0517331770    -1.8130935919    -1.4758926991
| 18>  H        0.7704596029    -0.2730445139    -2.0181212852
| 19>  H        3.5986889906    -1.9910721907     0.9068289056
| 20>  H        0.4722986620    -0.4547209956     2.1416095586
| 21>  H       -0.1588968116    -1.9164437207     1.3731291946
| 22>  H       -3.8262832912    -0.4412653626    -0.3422614078
| 23> *
| 24>
| 25>                          ****END OF INPUT****

CARTESIAN COORDINATES (ANGSTROEM)
---------------------------------
  C      0.313395    1.274055    0.094494
  C     -0.128859   -0.202480    0.011215
  C      0.602459   -0.921638   -1.155533
  O      1.877816   -1.305180   -0.629035
  C      1.819918   -1.403268    0.736928
  N      2.779734   -1.760403    1.472540
  C      0.435962   -1.012858    1.206000
  C     -1.577378   -0.299369   -0.121520
  C     -2.771125   -0.373977   -0.241148
  H      1.403631    1.340854    0.160136
  H     -0.017236    1.826086   -0.789304
  H     -0.116834    1.753372    0.977504
  H      0.051733   -1.813094   -1.475893
  H      0.770460   -0.273045   -2.018121
  H      3.598689   -1.991072    0.906829
  H      0.472299   -0.454721    2.141610
  H     -0.158897   -1.916444    1.373129
  H     -3.826283   -0.441265   -0.342261

 Total Charge           Charge          ....    0
 Multiplicity           Mult            ....    1
 Number of Electrons    NEL             ....   66
 Basis Dimension        Dim             ....  333

ORBITAL ENERGIES
----------------

  NO   OCC          E(Eh)            E(eV)
   0   2.0000     -20.597975      -560.4994
   1   2.0000     -15.532625      -422.6642
   2   2.0000     -11.339385      -308.5604
   3   2.0000     -11.303888      -307.5944
   4   2.0000     -11.285630      -307.0976
   5   2.0000     -11.252076      -306.1846
   6   2.0000     -11.246218      -306.0251
   7   2.0000     -11.237834      -305.7970
   8   2.0000     -11.236984      -305.7739
   9   2.0000      -1.434913       -39.0460
  10   2.0000      -1.197169       -32.5766
  11   2.0000      -1.138480       -30.9796
  12   2.0000      -1.026595       -27.9351
  13   2.0000      -0.986022       -26.8310
  14   2.0000      -0.953242       -25.9390
  15   2.0000      -0.848414       -23.0865
  16   2.0000      -0.779891       -21.2219
  17   2.0000      -0.734287       -19.9810
  18   2.0000      -0.700032       -19.0488
  19   2.0000      -0.697505       -18.9801
  20   2.0000      -0.663356       -18.0508
  21   2.0000      -0.625672       -17.0254
  22   2.0000      -0.599366       -16.3096
  23   2.0000      -0.581438       -15.8217
  24   2.0000      -0.563473       -15.3329
  25   2.0000      -0.542325       -14.7574
  26   2.0000      -0.529755       -14.4154
  27   2.0000      -0.509909       -13.8753
  28   2.0000      -0.489608       -13.3229
  29   2.0000      -0.440296       -11.9811
  30   2.0000      -0.401634       -10.9290
  31   2.0000      -0.401281       -10.9194
  32   2.0000      -0.394735       -10.7413
  33   0.0000       0.123735         3.3670
  34   0.0000       0.151739         4.1290
  35   0.0000       0.159413         4.3379
  36   0.0000       0.165877         4.5137
  37   0.0000       0.169786         4.6201

MULLIKEN ATOMIC CHARGES
-----------------------
   0 C :   -0.437184
   1 C :   -0.064522
   2 C :   -0.043190
   3 O :   -0.259023
   4 C :    0.065702
   5 N :   -0.368740
   6 C :   -0.137379
   7 C :   -0.037861
   8 C :   -0.125539
   9 H :    0.157244
  10 H :    0.141900
  11 H :    0.145238
  12 H :    0.123020
  13 H :    0.128119
  14 H :    0.224542
  15 H :    0.143520
  16 H :    0.147349
  17 H :    0.196803
Sum of atomic charges:    0.0000000

LOEWDIN ATOMIC CHARGES
----------------------
   0 C :   -0.241776
   1 C :   -0.284894
   2 C :   -0.215556
   3 O :    0.234508
   4 C :   -0.405649
   5 N :   -0.058302
   6 C :   -0.156285
   7 C :   -0.071077
   8 C :   -0.085722
   9 H :    0.135207
  10 H :    0.130884
  11 H :    0.132474
  12 H :    0.133961
  13 H :    0.134885
  14 H :    0.169085
  15 H :    0.157108
  16 H :    0.162316
  17 H :    0.128834

  Mayer bond orders larger than 0.1
B(  0-C ,  1-C ) :   0.9413 B(  0-C ,  9-H ) :   0.9207 B(  0-C , 10-H ) :   0.9335
B(  0-C , 11-H ) :   0.9324 B(  1-C ,  2-C ) :   0.9086 B(  1-C ,  6-C ) :   0.9055
B(  1-C ,  7-C ) :   1.1725 B(  1-C ,  8-C ) :  -0.1184 B(  2-C ,  3-O ) :   0.8905
B(  2-C , 12-H ) :   0.9276 B(  2-C , 13-H ) :   0.9149 B(  3-O ,  4-C ) :   1.0700
B(  4-C ,  5-N ) :   2.0860 B(  4-C ,  6-C ) :   0.9090 B(  5-N , 14-H ) :   0.8542
B(  6-C , 15-H ) :   0.9038 B(  6-C , 16-H ) :   0.9149 B(  7-C ,  8-C ) :   2.5935
B(  8-C , 17-H ) :   0.8770

MP2 TOTAL ENERGY:     -401.242524882 Eh
FINAL SINGLE POINT ENERGY      -401.242524882342

DIPOLE MOMENT
-------------
                                X             Y             Z
Electronic contribution:      0.96072      -3.42246      -0.29968
Nuclear contribution   :     -1.72770       3.81605      -0.35369
                        -----------------------------------------
Total Dipole Moment    :     -0.76698       0.39359      -0.65337
                        -----------------------------------------
Magnitude (a.u.)       :      1.08170
Magnitude (Debye)      :      2.74945

                             ****ORCA TERMINATED NORMALLY****
TOTAL RUN TIME: 0 days 0 hours 19 minutes 32 seconds 145 msec
