                         Program Version 3.0.3 - RELEASE   -
|  1> ! RI-MP2 RIJK def2-TZVP def2-TZVP/C def2-TZVP/JK TIGHTSCF
|  2> % maxcore 2000
|  3> % mp2 density relaxed end
|  4> *xyz 0 1
|  5>  O        0.0182192412     1.3957169553     0.0102834234
|  6>  C        1.3085361813     1.9589332890     0.0002676197
|  7>  C        2.4160383630     1.2417895807     0.7415359796
|  8>  O        2.1100454673     0.0411653162     1.4104702609
|  9>  C        1.1384296672    -0.7292831207     0.7434027818
| 10>  C        0.0309401564    -0.0121149180     0.0021375827
| 11>  C        1.1229996066    -0.7207715670    -0.7699405105
| 12>  O        2.0804074508     0.0576696944    -1.4480906838
| 13>  C        2.4006629652     1.2503787625    -0.7718059886
| 14>  H        1.2462433024     3.0410873988     0.0067645891
| 15>  H        3.1658249569     1.7981718925     1.2922262404
| 16>  H        0.9371813516    -1.6401707500     1.2954748523
| 17>  H       -0.9823243009    -0.3971001670     0.0100279743
| 18>  H        0.9106451147    -1.6255130309    -1.3279378593
| 19>  H        3.1393565163     1.8129040340    -1.3311897622
| 20> *
| 21>
| 22>                          ****END OF INPUT****

CARTESIAN COORDINATES (ANGSTROEM)
---------------------------------
  O      0.018219    1.395717    0.010283
  C      1.308536    1.958933    0.000268
  C      2.416038    1.241790    0.741536
  O      2.110045    0.041165    1.410470
  C      1.138430   -0.729283    0.743403
  C      0.030940   -0.012115    0.002138
  C      1.123000   -0.720772   -0.769941
  O      2.080407    0.057670   -1.448091
  C      2.400663    1.250379   -0.771806
  H      1.246243    3.041087    0.006765
  H      3.165825    1.798172    1.292226
  H      0.937181   -1.640171    1.295475
  H     -0.982324   -0.397100    0.010028
  H      0.910645   -1.625513   -1.327938
  H      3.139357    1.812904   -1.331190

 Total Charge           Charge          ....    0
 Multiplicity           Mult            ....    1
 Number of Electrons    NEL             ....   66
 Basis Dimension        Dim             ....  315

ORBITAL ENERGIES
----------------

  NO   OCC          E(Eh)            E(eV)
   0   2.0000     -20.581903      -560.0620
   1   2.0000     -20.581883      -560.0615
   2   2.0000     -20.581874      -560.0613
   3   2.0000     -11.295500      -307.3662
   4   2.0000     -11.295473      -307.3654
   5   2.0000     -11.294515      -307.3394
   6   2.0000     -11.294505      -307.3391
   7   2.0000     -11.294497      -307.3389
   8   2.0000     -11.294486      -307.3386
   9   2.0000      -1.442758       -39.2595
  10   2.0000      -1.380871       -37.5754
  11   2.0000      -1.380839       -37.5745
  12   2.0000      -1.157974       -31.5101
  13   2.0000      -1.085810       -29.5464
  14   2.0000      -0.897836       -24.4314
  15   2.0000      -0.897812       -24.4307
  16   2.0000      -0.764181       -20.7944
  17   2.0000      -0.751664       -20.4538
  18   2.0000      -0.751628       -20.4528
  19   2.0000      -0.749465       -20.3940
  20   2.0000      -0.650276       -17.6949
  21   2.0000      -0.650260       -17.6945
  22   2.0000      -0.649223       -17.6663
  23   2.0000      -0.574029       -15.6201
  24   2.0000      -0.574003       -15.6194
  25   2.0000      -0.571716       -15.5572
  26   2.0000      -0.571667       -15.5559
  27   2.0000      -0.545293       -14.8382
  28   2.0000      -0.532327       -14.4854
  29   2.0000      -0.467833       -12.7304
  30   2.0000      -0.467740       -12.7279
  31   2.0000      -0.346775        -9.4362
  32   2.0000      -0.346667        -9.4333
  33   0.0000       0.142799         3.8858
  34   0.0000       0.154780         4.2118
  35   0.0000       0.165182         4.4948
  36   0.0000       0.195016         5.3066
  37   0.0000       0.195027         5.3070

MULLIKEN ATOMIC CHARGES
-----------------------
   0 O :   -0.293591
   1 C :    0.013130
   2 C :    0.013105
   3 O :   -0.293574
   4 C :    0.013105
   5 C :    0.013131
   6 C :    0.013076
   7 O :   -0.293579
   8 C :    0.013077
   9 H :    0.133682
  10 H :    0.133682
  11 H :    0.133683
  12 H :    0.133682
  13 H :    0.133697
  14 H :    0.133696
Sum of atomic charges:   -0.0000000

LOEWDIN ATOMIC CHARGES
----------------------
   0 O :    0.222543
   1 C :   -0.254140
   2 C :   -0.254086
   3 O :    0.222399
   4 C :   -0.254084
   5 C :   -0.254144
   6 C :   -0.254050
   7 O :    0.222431
   8 C :   -0.254053
   9 H :    0.142858
  10 H :    0.142872
  11 H :    0.142872
  12 H :    0.142858
  13 H :    0.142861
  14 H :    0.142861

  Mayer bond orders larger than 0.1
B(  0-O ,  1-C ) :   0.9380 B(  0-O ,  5-C ) :   0.9380 B(  1-C ,  2-C ) :   0.8605
B(  1-C ,  8-C ) :   0.8604 B(  1-C ,  9-H ) :   0.9181 B(  2-C ,  3-O ) :   0.9380
B(  2-C ,  8-C ) :   0.8605 B(  2-C , 10-H ) :   0.9181 B(  3-O ,  4-C ) :   0.9380
B(  4-C ,  5-C ) :   0.8605 B(  4-C ,  6-C ) :   0.8605 B(  4-C , 11-H ) :   0.9181
B(  5-C ,  6-C ) :   0.8604 B(  5-C , 12-H ) :   0.9181 B(  6-C ,  7-O ) :   0.9380
B(  6-C , 13-H ) :   0.9181 B(  7-O ,  8-C ) :   0.9380 B(  8-C , 14-H ) :   0.9181

MP2 TOTAL ENERGY:     -456.938374984 Eh
FINAL SINGLE POINT ENERGY      -456.938374983794

DIPOLE MOMENT
-------------
                                X             Y             Z
Electronic contribution:      0.00042      -0.00028       0.00024
Nuclear contribution   :     -0.00051       0.00034      -0.00011
                        -----------------------------------------
Total Dipole Moment    :     -0.00009       0.00006       0.00013
                        -----------------------------------------
Magnitude (a.u.)       :      0.00017
Magnitude (Debye)      :      0.00043

                             ****ORCA TERMINATED NORMALLY****
TOTAL RUN TIME: 0 days 0 hours 14 minutes 43 seconds 690 msec
