                         Program Version 3.0.3 - RELEASE   -
|  1> ! RI-MP2 RIJK def2-TZVP def2-TZVP/C def2-TZVP/JK TIGHTSCF
|  2> % maxcore 2000
|  3> % mp2 density relaxed end
|  4> *xyz 0 1
|  5>  C        0.0057343249     1.5271873255    -0.1247198872
|  6>  C       -0.0123994907     0.0271460932     0.0121942447
|  7>  C       -1.1462345026    -0.6862560121     0.0094938577
|  8>  C       -1.2346806387    -2.1885930696     0.0691991090
|  9>  N       -0.6350544373    -2.7703043810     1.2743130502
| 10>  C        0.6078261298    -2.6023714073     1.4393520022
| 11>  N        1.4969112309    -1.8473327592     0.6682852067
| 12>  C        1.3416219613    -0.5861446185     0.0795495485
| 13>  O        2.3361493002     0.0001191505    -0.3056760606
| 14>  H        0.5661412249     1.8211539272    -1.0167638742
| 15>  H       -1.0094924815     1.9246499129    -0.1910697563
| 16>  H        0.5122885276     1.9960094039     0.7258393343
| 17>  H       -2.0875158181    -0.1448359386    -0.0557912014
| 18>  H       -2.2822274577    -2.4955597609     0.0391588016
| 19>  H       -0.7450636215    -2.6232858469    -0.8169141704
| 20>  H        1.1006188423    -3.1133382891     2.2679481994
| 21>  H        2.4802366064    -2.0501196000     0.8007364459
| 22> *
| 23>
| 24>                          ****END OF INPUT****

CARTESIAN COORDINATES (ANGSTROEM)
---------------------------------
  C      0.005734    1.527187   -0.124720
  C     -0.012399    0.027146    0.012194
  C     -1.146235   -0.686256    0.009494
  C     -1.234681   -2.188593    0.069199
  N     -0.635054   -2.770304    1.274313
  C      0.607826   -2.602371    1.439352
  N      1.496911   -1.847333    0.668285
  C      1.341622   -0.586145    0.079550
  O      2.336149    0.000119   -0.305676
  H      0.566141    1.821154   -1.016764
  H     -1.009492    1.924650   -0.191070
  H      0.512289    1.996009    0.725839
  H     -2.087516   -0.144836   -0.055791
  H     -2.282227   -2.495560    0.039159
  H     -0.745064   -2.623286   -0.816914
  H      1.100619   -3.113338    2.267948
  H      2.480237   -2.050120    0.800736

 Total Charge           Charge          ....    0
 Multiplicity           Mult            ....    1
 Number of Electrons    NEL             ....   66
 Basis Dimension        Dim             ....  327

ORBITAL ENERGIES
----------------

  NO   OCC          E(Eh)            E(eV)
   0   2.0000     -20.537639      -558.8576
   1   2.0000     -15.613332      -424.8604
   2   2.0000     -15.561322      -423.4451
   3   2.0000     -11.372078      -309.4500
   4   2.0000     -11.329229      -308.2840
   5   2.0000     -11.270979      -306.6989
   6   2.0000     -11.260379      -306.4105
   7   2.0000     -11.256717      -306.3108
   8   2.0000     -11.227221      -305.5082
   9   2.0000      -1.404247       -38.2115
  10   2.0000      -1.291656       -35.1477
  11   2.0000      -1.198935       -32.6247
  12   2.0000      -1.112734       -30.2790
  13   2.0000      -1.001652       -27.2563
  14   2.0000      -0.912107       -24.8197
  15   2.0000      -0.905803       -24.6482
  16   2.0000      -0.812209       -22.1013
  17   2.0000      -0.736490       -20.0409
  18   2.0000      -0.728752       -19.8303
  19   2.0000      -0.667811       -18.1721
  20   2.0000      -0.648229       -17.6392
  21   2.0000      -0.637212       -17.3394
  22   2.0000      -0.620021       -16.8716
  23   2.0000      -0.599332       -16.3087
  24   2.0000      -0.564558       -15.3624
  25   2.0000      -0.548671       -14.9301
  26   2.0000      -0.541218       -14.7273
  27   2.0000      -0.528372       -14.3777
  28   2.0000      -0.485204       -13.2031
  29   2.0000      -0.450955       -12.2711
  30   2.0000      -0.434330       -11.8187
  31   2.0000      -0.384479       -10.4622
  32   2.0000      -0.368964       -10.0400
  33   0.0000       0.091393         2.4869
  34   0.0000       0.132701         3.6110
  35   0.0000       0.137980         3.7546
  36   0.0000       0.150075         4.0837
  37   0.0000       0.164460         4.4752

MULLIKEN ATOMIC CHARGES
-----------------------
   0 C :   -0.377357
   1 C :    0.018969
   2 C :   -0.213273
   3 C :   -0.072946
   4 N :   -0.238621
   5 C :    0.038590
   6 N :   -0.284997
   7 C :    0.235660
   8 O :   -0.329190
   9 H :    0.157583
  10 H :    0.130253
  11 H :    0.141629
  12 H :    0.133740
  13 H :    0.137621
  14 H :    0.131832
  15 H :    0.143669
  16 H :    0.246839
Sum of atomic charges:    0.0000000

LOEWDIN ATOMIC CHARGES
----------------------
   0 C :   -0.256776
   1 C :   -0.162508
   2 C :   -0.116180
   3 C :   -0.278510
   4 N :    0.088299
   5 C :   -0.314208
   6 N :    0.137857
   7 C :   -0.385058
   8 O :    0.110976
   9 H :    0.139765
  10 H :    0.128175
  11 H :    0.135105
  12 H :    0.149405
  13 H :    0.138317
  14 H :    0.144585
  15 H :    0.137919
  16 H :    0.202836

  Mayer bond orders larger than 0.1
B(  0-C ,  1-C ) :   0.9201 B(  0-C ,  9-H ) :   0.9188 B(  0-C , 10-H ) :   0.9432
B(  0-C , 11-H ) :   0.9245 B(  1-C ,  2-C ) :   1.6916 B(  1-C ,  7-C ) :   0.9502
B(  2-C ,  3-C ) :   0.9244 B(  2-C , 12-H ) :   0.9228 B(  3-C ,  4-N ) :   0.8718
B(  3-C , 13-H ) :   0.9414 B(  3-C , 14-H ) :   0.9099 B(  4-N ,  5-C ) :   1.8702
B(  5-C ,  6-N ) :   1.0175 B(  5-C , 15-H ) :   0.9171 B(  6-N ,  7-C ) :   1.0929
B(  6-N , 16-H ) :   0.8524 B(  7-C ,  8-O ) :   1.9751

MP2 TOTAL ENERGY:     -417.336056567 Eh
FINAL SINGLE POINT ENERGY      -417.336056567018

DIPOLE MOMENT
-------------
                                X             Y             Z
Electronic contribution:      3.64348      -3.22209       0.97679
Nuclear contribution   :     -3.92611       3.07464      -0.89240
                        -----------------------------------------
Total Dipole Moment    :     -0.28263      -0.14744       0.08439
                        -----------------------------------------
Magnitude (a.u.)       :      0.32976
Magnitude (Debye)      :      0.83819

                             ****ORCA TERMINATED NORMALLY****
TOTAL RUN TIME: 0 days 0 hours 17 minutes 33 seconds 320 msec
