                         Program Version 3.0.3 - RELEASE   -
|  1> ! RI-MP2 RIJK def2-TZVP def2-TZVP/C def2-TZVP/JK TIGHTSCF
|  2> % maxcore 2000
|  3> % mp2 density relaxed end
|  4> *xyz 0 1
|  5>  N       -0.1400827748     1.1676000773     0.0697459876
|  6>  C       -0.1680651090    -0.1815357319     0.2584302356
|  7>  O        0.2932230503    -0.7784732334     1.2001361015
|  8>  O       -0.7490400045    -0.7814787855    -0.8252055190
|  9>  C       -0.9315650305    -2.1744171370    -0.6961928166
| 10>  C       -2.1792977525    -2.5016762022     0.1234121691
| 11>  O       -2.8750198073    -1.6530408504     0.6277110159
| 12>  C       -2.4525832865    -3.9223980963     0.2412503343
| 13>  C       -2.6510878751    -5.1073425580     0.3122601110
| 14>  H        0.0835262417     1.7179007116     0.8813957819
| 15>  H       -0.7690518445     1.5670403904    -0.6066537641
| 16>  H       -1.0442437967    -2.5791237521    -1.7066623070
| 17>  H       -0.0666135336    -2.6466408938    -0.2183478839
| 18>  H       -2.8416016371    -6.1504106686     0.3917100336
| 19> *
| 20>
| 21>                          ****END OF INPUT****

CARTESIAN COORDINATES (ANGSTROEM)
---------------------------------
  N     -0.140083    1.167600    0.069746
  C     -0.168065   -0.181536    0.258430
  O      0.293223   -0.778473    1.200136
  O     -0.749040   -0.781479   -0.825206
  C     -0.931565   -2.174417   -0.696193
  C     -2.179298   -2.501676    0.123412
  O     -2.875020   -1.653041    0.627711
  C     -2.452583   -3.922398    0.241250
  C     -2.651088   -5.107343    0.312260
  H      0.083526    1.717901    0.881396
  H     -0.769052    1.567040   -0.606654
  H     -1.044244   -2.579124   -1.706662
  H     -0.066614   -2.646641   -0.218348
  H     -2.841602   -6.150411    0.391710

 Total Charge           Charge          ....    0
 Multiplicity           Mult            ....    1
 Number of Electrons    NEL             ....   66
 Basis Dimension        Dim             ....  309

ORBITAL ENERGIES
----------------

  NO   OCC          E(Eh)            E(eV)
   0   2.0000     -20.613734      -560.9282
   1   2.0000     -20.572996      -559.8197
   2   2.0000     -20.533892      -558.7556
   3   2.0000     -15.590554      -424.2405
   4   2.0000     -11.410443      -310.4939
   5   2.0000     -11.370220      -309.3994
   6   2.0000     -11.315703      -307.9159
   7   2.0000     -11.272969      -306.7531
   8   2.0000     -11.261886      -306.4515
   9   2.0000      -1.476883       -40.1880
  10   2.0000      -1.414038       -38.4779
  11   2.0000      -1.367113       -37.2010
  12   2.0000      -1.225470       -33.3467
  13   2.0000      -1.081572       -29.4311
  14   2.0000      -1.018083       -27.7034
  15   2.0000      -0.892621       -24.2894
  16   2.0000      -0.810482       -22.0543
  17   2.0000      -0.761029       -20.7087
  18   2.0000      -0.745726       -20.2922
  19   2.0000      -0.724442       -19.7131
  20   2.0000      -0.721905       -19.6440
  21   2.0000      -0.668804       -18.1991
  22   2.0000      -0.653172       -17.7737
  23   2.0000      -0.631601       -17.1867
  24   2.0000      -0.608584       -16.5604
  25   2.0000      -0.577263       -15.7081
  26   2.0000      -0.526386       -14.3237
  27   2.0000      -0.505206       -13.7474
  28   2.0000      -0.469244       -12.7688
  29   2.0000      -0.449597       -12.2341
  30   2.0000      -0.436970       -11.8906
  31   2.0000      -0.431827       -11.7506
  32   2.0000      -0.427319       -11.6279
  33   0.0000       0.076558         2.0832
  34   0.0000       0.132361         3.6017
  35   0.0000       0.148525         4.0416
  36   0.0000       0.153229         4.1696
  37   0.0000       0.157157         4.2765

MULLIKEN ATOMIC CHARGES
-----------------------
   0 N :   -0.506112
   1 C :    0.433360
   2 O :   -0.374262
   3 O :   -0.289811
   4 C :   -0.062655
   5 C :    0.036645
   6 O :   -0.257372
   7 C :    0.025669
   8 C :   -0.081302
   9 H :    0.272835
  10 H :    0.273420
  11 H :    0.161166
  12 H :    0.162690
  13 H :    0.205729
Sum of atomic charges:   -0.0000000

LOEWDIN ATOMIC CHARGES
----------------------
   0 N :   -0.026559
   1 C :   -0.601354
   2 O :    0.085105
   3 O :    0.240980
   4 C :   -0.265478
   5 C :   -0.327992
   6 O :    0.194318
   7 C :   -0.059351
   8 C :   -0.033336
   9 H :    0.180489
  10 H :    0.178272
  11 H :    0.148935
  12 H :    0.152065
  13 H :    0.133906

  Mayer bond orders larger than 0.1
B(  0-N ,  1-C ) :   1.1777 B(  0-N ,  9-H ) :   0.8665 B(  0-N , 10-H ) :   0.8626
B(  1-C ,  2-O ) :   1.9272 B(  1-C ,  3-O ) :   1.0366 B(  3-O ,  4-C ) :   0.9049
B(  4-C ,  5-C ) :   0.9696 B(  4-C , 11-H ) :   0.8979 B(  4-C , 12-H ) :   0.9192
B(  5-C ,  6-O ) :   2.0052 B(  5-C ,  7-C ) :   1.0128 B(  5-C ,  8-C ) :  -0.1096
B(  7-C ,  8-C ) :   2.6002 B(  8-C , 13-H ) :   0.8915

MP2 TOTAL ENERGY:     -473.079277204 Eh
FINAL SINGLE POINT ENERGY      -473.079277204414

DIPOLE MOMENT
-------------
                                X             Y             Z
Electronic contribution:     -1.61719      -0.42329       1.02861
Nuclear contribution   :      1.58945       0.20112      -1.86014
                        -----------------------------------------
Total Dipole Moment    :     -0.02774      -0.22218      -0.83153
                        -----------------------------------------
Magnitude (a.u.)       :      0.86114
Magnitude (Debye)      :      2.18886

                             ****ORCA TERMINATED NORMALLY****
TOTAL RUN TIME: 0 days 0 hours 13 minutes 21 seconds 0 msec
