                         Program Version 3.0.3 - RELEASE   -
|  1> ! RI-MP2 RIJK def2-TZVP def2-TZVP/C def2-TZVP/JK TIGHTSCF
|  2> % maxcore 2000
|  3> % mp2 density relaxed end
|  4> *xyz 0 1
|  5>  C       -0.3870775819     1.3884678295    -0.0987659097
|  6>  C        0.1549148720    -0.0474147698     0.0169417084
|  7>  C        0.8815011784    -0.5139500992    -1.2049361692
|  8>  C        2.1429321925    -0.9634081045    -1.2918764179
|  9>  C        2.4698365503    -1.3896908920    -2.6676104678
| 10>  O        3.5417521928    -1.7555286215    -3.0907510117
| 11>  C        1.1666204680    -1.2863795202    -3.4770792313
| 12>  C        0.1992912148    -0.5106273482    -2.5643390734
| 13>  O       -1.0956817321    -1.0819218441    -2.4211753244
| 14>  H        0.4188308014     2.1044048451    -0.2882107987
| 15>  H       -1.1161159651     1.4670128867    -0.9098924767
| 16>  H       -0.8869065784     1.6801217483     0.8290844294
| 17>  H        0.8133438969    -0.1344665051     0.8871505422
| 18>  H       -0.6917324107    -0.7257550249     0.1813288777
| 19>  H        2.8593900092    -1.0231185234    -0.4814078247
| 20>  H        1.3447103646    -0.8319587349    -4.4546232567
| 21>  H        0.7755093318    -2.2971057348    -3.6365750369
| 22>  H        0.1080162107     0.5325763982    -2.9079990718
| 23>  H       -1.5573075253    -0.9898065651    -3.2603074568
| 24> *
| 25>
| 26>                          ****END OF INPUT****

CARTESIAN COORDINATES (ANGSTROEM)
---------------------------------
  C     -0.387078    1.388468   -0.098766
  C      0.154915   -0.047415    0.016942
  C      0.881501   -0.513950   -1.204936
  C      2.142932   -0.963408   -1.291876
  C      2.469837   -1.389691   -2.667610
  O      3.541752   -1.755529   -3.090751
  C      1.166620   -1.286380   -3.477079
  C      0.199291   -0.510627   -2.564339
  O     -1.095682   -1.081922   -2.421175
  H      0.418831    2.104405   -0.288211
  H     -1.116116    1.467013   -0.909892
  H     -0.886907    1.680122    0.829084
  H      0.813344   -0.134467    0.887151
  H     -0.691732   -0.725755    0.181329
  H      2.859390   -1.023119   -0.481408
  H      1.344710   -0.831959   -4.454623
  H      0.775509   -2.297106   -3.636575
  H      0.108016    0.532576   -2.907999
  H     -1.557308   -0.989807   -3.260307

 Total Charge           Charge          ....    0
 Multiplicity           Mult            ....    1
 Number of Electrons    NEL             ....   68
 Basis Dimension        Dim             ....  339

ORBITAL ENERGIES
----------------

  NO   OCC          E(Eh)            E(eV)
   0   2.0000     -20.577181      -559.9335
   1   2.0000     -20.533851      -558.7545
   2   2.0000     -11.326182      -308.2011
   3   2.0000     -11.306896      -307.6763
   4   2.0000     -11.269413      -306.6563
   5   2.0000     -11.242397      -305.9212
   6   2.0000     -11.238826      -305.8240
   7   2.0000     -11.233895      -305.6898
   8   2.0000     -11.229946      -305.5824
   9   2.0000      -1.384440       -37.6725
  10   2.0000      -1.376749       -37.4632
  11   2.0000      -1.151313       -31.3288
  12   2.0000      -1.055245       -28.7147
  13   2.0000      -0.985885       -26.8273
  14   2.0000      -0.925104       -25.1733
  15   2.0000      -0.867180       -23.5972
  16   2.0000      -0.763636       -20.7796
  17   2.0000      -0.740143       -20.1403
  18   2.0000      -0.716148       -19.4874
  19   2.0000      -0.674881       -18.3644
  20   2.0000      -0.634897       -17.2764
  21   2.0000      -0.626033       -17.0352
  22   2.0000      -0.605821       -16.4852
  23   2.0000      -0.594776       -16.1847
  24   2.0000      -0.569211       -15.4890
  25   2.0000      -0.567883       -15.4529
  26   2.0000      -0.537676       -14.6309
  27   2.0000      -0.534930       -14.5562
  28   2.0000      -0.509067       -13.8524
  29   2.0000      -0.503323       -13.6961
  30   2.0000      -0.480983       -13.0882
  31   2.0000      -0.472590       -12.8598
  32   2.0000      -0.401303       -10.9200
  33   2.0000      -0.374299       -10.1852
  34   0.0000       0.095781         2.6063
  35   0.0000       0.118868         3.2346
  36   0.0000       0.152617         4.1529
  37   0.0000       0.160252         4.3607
  38   0.0000       0.165197         4.4952

MULLIKEN ATOMIC CHARGES
-----------------------
   0 C :   -0.427196
   1 C :   -0.189408
   2 C :    0.089273
   3 C :   -0.240728
   4 C :    0.182074
   5 O :   -0.286462
   6 C :   -0.206324
   7 C :    0.025345
   8 O :   -0.466826
   9 H :    0.134013
  10 H :    0.139741
  11 H :    0.139016
  12 H :    0.125734
  13 H :    0.140582
  14 H :    0.143643
  15 H :    0.134550
  16 H :    0.135093
  17 H :    0.107513
  18 H :    0.320366
Sum of atomic charges:    0.0000000

LOEWDIN ATOMIC CHARGES
----------------------
   0 C :   -0.304526
   1 C :   -0.245176
   2 C :   -0.107589
   3 C :   -0.091887
   4 C :   -0.321829
   5 O :    0.137758
   6 C :   -0.197846
   7 C :   -0.295897
   8 O :   -0.015780
   9 H :    0.122554
  10 H :    0.123903
  11 H :    0.124047
  12 H :    0.144756
  13 H :    0.157154
  14 H :    0.148319
  15 H :    0.143523
  16 H :    0.157922
  17 H :    0.143535
  18 H :    0.177059

  Mayer bond orders larger than 0.1
B(  0-C ,  1-C ) :   0.8984 B(  0-C ,  9-H ) :   0.9369 B(  0-C , 10-H ) :   0.9367
B(  0-C , 11-H ) :   0.9368 B(  1-C ,  2-C ) :   0.9060 B(  1-C , 12-H ) :   0.9411
B(  1-C , 13-H ) :   0.9185 B(  2-C ,  3-C ) :   1.6121 B(  2-C ,  7-C ) :   0.8792
B(  2-C ,  8-O ) :  -0.1033 B(  3-C ,  4-C ) :   1.0064 B(  3-C , 14-H ) :   0.9210
B(  4-C ,  5-O ) :   2.0092 B(  4-C ,  6-C ) :   0.9094 B(  6-C ,  7-C ) :   0.9152
B(  6-C , 15-H ) :   0.9157 B(  6-C , 16-H ) :   0.8895 B(  7-C ,  8-O ) :   1.0304
B(  7-C , 17-H ) :   0.9271 B(  8-O , 18-H ) :   0.8436

MP2 TOTAL ENERGY:     -422.355855920 Eh
FINAL SINGLE POINT ENERGY      -422.355855919774

DIPOLE MOMENT
-------------
                                X             Y             Z
Electronic contribution:      5.85398      -5.39000      -4.36601
Nuclear contribution   :     -7.03787       6.13399       4.49394
                        -----------------------------------------
Total Dipole Moment    :     -1.18389       0.74399       0.12793
                        -----------------------------------------
Magnitude (a.u.)       :      1.40409
Magnitude (Debye)      :      3.56892

                             ****ORCA TERMINATED NORMALLY****
TOTAL RUN TIME: 0 days 0 hours 18 minutes 7 seconds 634 msec
