                         Program Version 3.0.3 - RELEASE   -
|  1> ! RI-MP2 RIJK def2-TZVP def2-TZVP/C def2-TZVP/JK TIGHTSCF
|  2> % maxcore 2000
|  3> % mp2 density relaxed end
|  4> *xyz 0 1
|  5>  O        0.0612147694     1.4215238928    -0.1382760928
|  6>  C        0.0150415228     0.0200873179     0.0143079158
|  7>  C        0.6603019695    -0.5185257197     1.3371411648
|  8>  C       -0.4181095568    -1.4230585480     1.9580992504
|  9>  C       -1.2562345688    -1.8590153395     0.7495807127
| 10>  C       -1.4453917916    -0.4795883424     0.0950727801
| 11>  N       -2.2603440428     0.3711503353     0.9747025866
| 12>  C       -2.1084016488     0.1954045854     2.2179928393
| 13>  O       -1.2569171336    -0.6498334407     2.8525430135
| 14>  H        0.9807508903     1.6779578526    -0.2571206498
| 15>  H        0.4889766123    -0.4725585658    -0.8498873454
| 16>  H        1.5743227705    -1.0866345200     1.1381693934
| 17>  H        0.9113083184     0.3053434380     2.0097462577
| 18>  H       -0.0255691084    -2.2331715050     2.5734049050
| 19>  H       -0.6849800010    -2.5426856366     0.1127796147
| 20>  H       -2.1980894071    -2.3370552572     1.0274609746
| 21>  H       -1.9192542315    -0.5080851744    -0.8879216935
| 22>  H       -2.7012881228     0.7476078775     2.9444463331
| 23> *
| 24>
| 25>                          ****END OF INPUT****

CARTESIAN COORDINATES (ANGSTROEM)
---------------------------------
  O      0.061215    1.421524   -0.138276
  C      0.015042    0.020087    0.014308
  C      0.660302   -0.518526    1.337141
  C     -0.418110   -1.423059    1.958099
  C     -1.256235   -1.859015    0.749581
  C     -1.445392   -0.479588    0.095073
  N     -2.260344    0.371150    0.974703
  C     -2.108402    0.195405    2.217993
  O     -1.256917   -0.649833    2.852543
  H      0.980751    1.677958   -0.257121
  H      0.488977   -0.472559   -0.849887
  H      1.574323   -1.086635    1.138169
  H      0.911308    0.305343    2.009746
  H     -0.025569   -2.233172    2.573405
  H     -0.684980   -2.542686    0.112780
  H     -2.198089   -2.337055    1.027461
  H     -1.919254   -0.508085   -0.887922
  H     -2.701288    0.747608    2.944446

 Total Charge           Charge          ....    0
 Multiplicity           Mult            ....    1
 Number of Electrons    NEL             ....   68
 Basis Dimension        Dim             ....  333

ORBITAL ENERGIES
----------------

  NO   OCC          E(Eh)            E(eV)
   0   2.0000     -20.589591      -560.2713
   1   2.0000     -20.557537      -559.3990
   2   2.0000     -15.536002      -422.7561
   3   2.0000     -11.323560      -308.1297
   4   2.0000     -11.298395      -307.4449
   5   2.0000     -11.288077      -307.1642
   6   2.0000     -11.258590      -306.3618
   7   2.0000     -11.232923      -305.6634
   8   2.0000     -11.231837      -305.6338
   9   2.0000      -1.423837       -38.7446
  10   2.0000      -1.366602       -37.1871
  11   2.0000      -1.212314       -32.9887
  12   2.0000      -1.119101       -30.4523
  13   2.0000      -0.972814       -26.4716
  14   2.0000      -0.952638       -25.9226
  15   2.0000      -0.879843       -23.9417
  16   2.0000      -0.797786       -21.7089
  17   2.0000      -0.732314       -19.9273
  18   2.0000      -0.720833       -19.6149
  19   2.0000      -0.700604       -19.0644
  20   2.0000      -0.660989       -17.9864
  21   2.0000      -0.629998       -17.1431
  22   2.0000      -0.627359       -17.0713
  23   2.0000      -0.601270       -16.3614
  24   2.0000      -0.568651       -15.4738
  25   2.0000      -0.546895       -14.8818
  26   2.0000      -0.544253       -14.8099
  27   2.0000      -0.528804       -14.3895
  28   2.0000      -0.504229       -13.7208
  29   2.0000      -0.482690       -13.1347
  30   2.0000      -0.476113       -12.9557
  31   2.0000      -0.433339       -11.7917
  32   2.0000      -0.398091       -10.8326
  33   2.0000      -0.377068       -10.2605
  34   0.0000       0.123632         3.3642
  35   0.0000       0.144970         3.9448
  36   0.0000       0.165335         4.4990
  37   0.0000       0.172356         4.6900
  38   0.0000       0.179739         4.8909

MULLIKEN ATOMIC CHARGES
-----------------------
   0 O :   -0.438974
   1 C :   -0.038585
   2 C :   -0.270267
   3 C :    0.088914
   4 C :   -0.324199
   5 C :    0.161388
   6 N :   -0.287323
   7 C :    0.069901
   8 O :   -0.273035
   9 H :    0.315819
  10 H :    0.083563
  11 H :    0.126444
  12 H :    0.126217
  13 H :    0.130436
  14 H :    0.128655
  15 H :    0.141339
  16 H :    0.125187
  17 H :    0.134521
Sum of atomic charges:   -0.0000000

LOEWDIN ATOMIC CHARGES
----------------------
   0 O :   -0.004316
   1 C :   -0.320408
   2 C :   -0.217781
   3 C :   -0.267340
   4 C :   -0.214831
   5 C :   -0.257874
   6 N :    0.100658
   7 C :   -0.357098
   8 O :    0.233539
   9 H :    0.175574
  10 H :    0.133679
  11 H :    0.138257
  12 H :    0.146384
  13 H :    0.141364
  14 H :    0.146514
  15 H :    0.144670
  16 H :    0.146052
  17 H :    0.132956

  Mayer bond orders larger than 0.1
B(  0-O ,  1-C ) :   1.0854 B(  0-O ,  9-H ) :   0.8447 B(  1-C ,  2-C ) :   0.9226
B(  1-C ,  5-C ) :   0.8809 B(  1-C , 10-H ) :   0.9438 B(  2-C ,  3-C ) :   0.9226
B(  2-C , 11-H ) :   0.9088 B(  2-C , 12-H ) :   0.9111 B(  3-C ,  4-C ) :   0.9357
B(  3-C ,  8-O ) :   0.8417 B(  3-C , 13-H ) :   0.9286 B(  4-C ,  5-C ) :   0.9112
B(  4-C , 14-H ) :   0.9267 B(  4-C , 15-H ) :   0.9129 B(  5-C ,  6-N ) :   0.8888
B(  5-C , 16-H ) :   0.9313 B(  6-N ,  7-C ) :   1.8563 B(  7-C ,  8-O ) :   1.0665
B(  7-C , 17-H ) :   0.9246

MP2 TOTAL ENERGY:     -438.389024141 Eh
FINAL SINGLE POINT ENERGY      -438.389024141490

DIPOLE MOMENT
-------------
                                X             Y             Z
Electronic contribution:     -2.73521       2.63083       1.93497
Nuclear contribution   :      3.89090      -3.51791      -2.06162
                        -----------------------------------------
Total Dipole Moment    :      1.15568      -0.88708      -0.12665
                        -----------------------------------------
Magnitude (a.u.)       :      1.46238
Magnitude (Debye)      :      3.71708

                             ****ORCA TERMINATED NORMALLY****
TOTAL RUN TIME: 0 days 0 hours 18 minutes 26 seconds 855 msec
