                         Program Version 3.0.3 - RELEASE   -
|  1> ! RI-MP2 RIJK def2-TZVP def2-TZVP/C def2-TZVP/JK TIGHTSCF
|  2> % maxcore 2000
|  3> % mp2 density relaxed end
|  4> *xyz 0 1
|  5>  C        0.0563535301    -3.7635850603    -0.0184602448
|  6>  C        0.0393418644    -2.5551326179    -0.0116172423
|  7>  C        0.0210158173    -1.1977850831    -0.0039399116
|  8>  C       -0.0065346331     0.0154385714     0.0030650473
|  9>  C       -0.0045379542     1.4224818034     0.0106583735
| 10>  C       -1.0967624396     2.2508285857     0.0294387659
| 11>  O       -0.7141307451     3.5449189300     0.0314791294
| 12>  C        0.6490838442     3.5630136077     0.0136874616
| 13>  C        1.1426239858     2.3030333064     0.0002938671
| 14>  H        0.0703335624    -4.8250732560    -0.0244549523
| 15>  H       -2.1566247180     2.0604837507     0.0423058430
| 16>  H        1.1019303906     4.5402228236     0.0130641946
| 17>  H        2.1781143651     2.0048098484    -0.0149637213
| 18> *
| 19>
| 20>                          ****END OF INPUT****

CARTESIAN COORDINATES (ANGSTROEM)
---------------------------------
  C      0.056354   -3.763585   -0.018460
  C      0.039342   -2.555133   -0.011617
  C      0.021016   -1.197785   -0.003940
  C     -0.006535    0.015439    0.003065
  C     -0.004538    1.422482    0.010658
  C     -1.096762    2.250829    0.029439
  O     -0.714131    3.544919    0.031479
  C      0.649084    3.563014    0.013687
  C      1.142624    2.303033    0.000294
  H      0.070334   -4.825073   -0.024455
  H     -2.156625    2.060484    0.042306
  H      1.101930    4.540223    0.013064
  H      2.178114    2.004810   -0.014964

 Total Charge           Charge          ....    0
 Multiplicity           Mult            ....    1
 Number of Electrons    NEL             ....   60
 Basis Dimension        Dim             ....  303

ORBITAL ENERGIES
----------------

  NO   OCC          E(Eh)            E(eV)
   0   2.0000     -20.642285      -561.7051
   1   2.0000     -11.314072      -307.8716
   2   2.0000     -11.302447      -307.5552
   3   2.0000     -11.267563      -306.6060
   4   2.0000     -11.262375      -306.4648
   5   2.0000     -11.259736      -306.3930
   6   2.0000     -11.254510      -306.2508
   7   2.0000     -11.249732      -306.1208
   8   2.0000     -11.247866      -306.0700
   9   2.0000      -1.480383       -40.2833
  10   2.0000      -1.128292       -30.7024
  11   2.0000      -1.081162       -29.4199
  12   2.0000      -1.035720       -28.1834
  13   2.0000      -1.004841       -27.3431
  14   2.0000      -0.877185       -23.8694
  15   2.0000      -0.818453       -22.2712
  16   2.0000      -0.802636       -21.8408
  17   2.0000      -0.766078       -20.8460
  18   2.0000      -0.710815       -19.3423
  19   2.0000      -0.655021       -17.8240
  20   2.0000      -0.648515       -17.6470
  21   2.0000      -0.615256       -16.7420
  22   2.0000      -0.589147       -16.0315
  23   2.0000      -0.570970       -15.5369
  24   2.0000      -0.505815       -13.7639
  25   2.0000      -0.482309       -13.1243
  26   2.0000      -0.434977       -11.8363
  27   2.0000      -0.365882        -9.9562
  28   2.0000      -0.359236        -9.7753
  29   2.0000      -0.313472        -8.5300
  30   0.0000       0.085568         2.3284
  31   0.0000       0.110788         3.0147
  32   0.0000       0.142694         3.8829
  33   0.0000       0.147604         4.0165
  34   0.0000       0.167727         4.5641

MULLIKEN ATOMIC CHARGES
-----------------------
   0 C :   -0.155114
   1 C :   -0.007776
   2 C :    0.027141
   3 C :    0.024163
   4 C :   -0.025278
   5 C :   -0.063100
   6 O :   -0.200833
   7 C :    0.022029
   8 C :   -0.285959
   9 H :    0.194849
  10 H :    0.160825
  11 H :    0.156873
  12 H :    0.152182
Sum of atomic charges:    0.0000000

LOEWDIN ATOMIC CHARGES
----------------------
   0 C :   -0.045322
   1 C :   -0.099223
   2 C :   -0.041391
   3 C :    0.014773
   4 C :   -0.181371
   5 C :   -0.189987
   6 O :    0.351050
   7 C :   -0.228617
   8 C :   -0.137394
   9 H :    0.130313
  10 H :    0.140273
  11 H :    0.136040
  12 H :    0.150854

  Mayer bond orders larger than 0.1
B(  0-C ,  1-C ) :   2.5369 B(  0-C ,  3-C ) :   0.1282 B(  0-C ,  9-H ) :   0.8846
B(  1-C ,  2-C ) :   1.3165 B(  2-C ,  3-C ) :   2.5211 B(  2-C ,  4-C ) :  -0.1809
B(  3-C ,  4-C ) :   1.0004 B(  4-C ,  5-C ) :   1.4821 B(  4-C ,  8-C ) :   1.1322
B(  5-C ,  6-O ) :   1.0828 B(  5-C , 10-H ) :   0.9214 B(  6-O ,  7-C ) :   1.0289
B(  7-C ,  8-C ) :   1.5859 B(  7-C , 11-H ) :   0.9325 B(  8-C , 12-H ) :   0.9182

MP2 TOTAL ENERGY:     -381.556040488 Eh
FINAL SINGLE POINT ENERGY      -381.556040488064

DIPOLE MOMENT
-------------
                                X             Y             Z
Electronic contribution:     -0.97162      -0.59483       0.00967
Nuclear contribution   :      1.12906       0.84106      -0.01044
                        -----------------------------------------
Total Dipole Moment    :      0.15744       0.24623      -0.00077
                        -----------------------------------------
Magnitude (a.u.)       :      0.29226
Magnitude (Debye)      :      0.74287

                             ****ORCA TERMINATED NORMALLY****
TOTAL RUN TIME: 0 days 0 hours 19 minutes 7 seconds 258 msec
