                         Program Version 3.0.3 - RELEASE   -
|  1> ! RI-MP2 RIJK def2-TZVP def2-TZVP/C def2-TZVP/JK TIGHTSCF
|  2> % maxcore 2000
|  3> % mp2 density relaxed end
|  4> *xyz 0 1
|  5>  C       -0.0306107645     1.5458436183     0.0509917204
|  6>  C       -0.0068314012     0.0435468749     0.0080901259
|  7>  C       -0.0317559221    -0.6644159280    -1.1528207492
|  8>  N       -0.0091996736    -2.0249660956    -1.1717376530
|  9>  C        0.0413849348    -2.8534300416    -0.0305107539
| 10>  O        0.0570139913    -4.0680473685    -0.1582771504
| 11>  C        0.0671981815    -2.1008788985     1.1998019668
| 12>  C        0.0445098580    -0.7332543970     1.2145983224
| 13>  O        0.0684153939    -0.0073529552     2.3593851979
| 14>  H        0.8601175202     1.9478716063     0.5457596626
| 15>  H       -0.0750543476     1.9602165249    -0.9597328044
| 16>  H       -0.8953174453     1.9179374519     0.6108852487
| 17>  H       -0.0709653880    -0.1770449491    -2.1203188433
| 18>  H       -0.0288449446    -2.5254396878    -2.0485634680
| 19>  H        0.1057550311    -2.6773154903     2.1177625732
| 20>  H        0.1021783761    -0.6072505146     3.1133836444
| 21> *
| 22>
| 23>                          ****END OF INPUT****

CARTESIAN COORDINATES (ANGSTROEM)
---------------------------------
  C     -0.030611    1.545844    0.050992
  C     -0.006831    0.043547    0.008090
  C     -0.031756   -0.664416   -1.152821
  N     -0.009200   -2.024966   -1.171738
  C      0.041385   -2.853430   -0.030511
  O      0.057014   -4.068047   -0.158277
  C      0.067198   -2.100879    1.199802
  C      0.044510   -0.733254    1.214598
  O      0.068415   -0.007353    2.359385
  H      0.860118    1.947872    0.545760
  H     -0.075054    1.960217   -0.959733
  H     -0.895317    1.917937    0.610885
  H     -0.070965   -0.177045   -2.120319
  H     -0.028845   -2.525440   -2.048563
  H      0.105755   -2.677315    2.117763
  H      0.102178   -0.607251    3.113384

 Total Charge           Charge          ....    0
 Multiplicity           Mult            ....    1
 Number of Electrons    NEL             ....   66
 Basis Dimension        Dim             ....  321

ORBITAL ENERGIES
----------------

  NO   OCC          E(Eh)            E(eV)
   0   2.0000     -20.615106      -560.9656
   1   2.0000     -20.502254      -557.8947
   2   2.0000     -15.615143      -424.9096
   3   2.0000     -11.349364      -308.8319
   4   2.0000     -11.337856      -308.5188
   5   2.0000     -11.307364      -307.6890
   6   2.0000     -11.245892      -306.0163
   7   2.0000     -11.235268      -305.7272
   8   2.0000     -11.227449      -305.5144
   9   2.0000      -1.435322       -39.0571
  10   2.0000      -1.372808       -37.3560
  11   2.0000      -1.270070       -34.5604
  12   2.0000      -1.108694       -30.1691
  13   2.0000      -1.047876       -28.5142
  14   2.0000      -0.951392       -25.8887
  15   2.0000      -0.892491       -24.2859
  16   2.0000      -0.844558       -22.9816
  17   2.0000      -0.762514       -20.7491
  18   2.0000      -0.734065       -19.9749
  19   2.0000      -0.707837       -19.2612
  20   2.0000      -0.639238       -17.3945
  21   2.0000      -0.631918       -17.1954
  22   2.0000      -0.619470       -16.8566
  23   2.0000      -0.592596       -16.1253
  24   2.0000      -0.585755       -15.9392
  25   2.0000      -0.585712       -15.9380
  26   2.0000      -0.569665       -15.5014
  27   2.0000      -0.546258       -14.8644
  28   2.0000      -0.524921       -14.2838
  29   2.0000      -0.479228       -13.0404
  30   2.0000      -0.423897       -11.5348
  31   2.0000      -0.388915       -10.5829
  32   2.0000      -0.311254        -8.4697
  33   0.0000       0.099524         2.7082
  34   0.0000       0.126312         3.4371
  35   0.0000       0.132804         3.6138
  36   0.0000       0.150049         4.0830
  37   0.0000       0.164878         4.4866

MULLIKEN ATOMIC CHARGES
-----------------------
   0 C :   -0.384368
   1 C :    0.028764
   2 C :   -0.044059
   3 N :   -0.212209
   4 C :    0.196132
   5 O :   -0.378803
   6 C :   -0.261612
   7 C :    0.194421
   8 O :   -0.409046
   9 H :    0.146639
  10 H :    0.129541
  11 H :    0.146836
  12 H :    0.143015
  13 H :    0.247350
  14 H :    0.123223
  15 H :    0.334175
Sum of atomic charges:   -0.0000000

LOEWDIN ATOMIC CHARGES
----------------------
   0 C :   -0.261304
   1 C :   -0.178037
   2 C :   -0.172376
   3 N :    0.190424
   4 C :   -0.444175
   5 O :    0.051296
   6 C :   -0.135760
   7 C :   -0.248824
   8 O :    0.100574
   9 H :    0.134144
  10 H :    0.129821
  11 H :    0.134180
  12 H :    0.147672
  13 H :    0.201985
  14 H :    0.153216
  15 H :    0.197164

  Mayer bond orders larger than 0.1
B(  0-C ,  1-C ) :   0.8999 B(  0-C ,  9-H ) :   0.9266 B(  0-C , 10-H ) :   0.9428
B(  0-C , 11-H ) :   0.9268 B(  1-C ,  2-C ) :   1.5627 B(  1-C ,  7-C ) :   1.1168
B(  2-C ,  3-N ) :   1.1788 B(  2-C , 12-H ) :   0.9022 B(  3-N ,  4-C ) :   1.0315
B(  3-N , 13-H ) :   0.8547 B(  4-C ,  5-O ) :   1.9555 B(  4-C ,  6-C ) :   1.1019
B(  6-C ,  7-C ) :   1.4026 B(  6-C , 14-H ) :   0.9376 B(  7-C ,  8-O ) :   1.1408
B(  8-O , 15-H ) :   0.8285

MP2 TOTAL ENERGY:     -437.238385807 Eh
FINAL SINGLE POINT ENERGY      -437.238385807472

DIPOLE MOMENT
-------------
                                X             Y             Z
Electronic contribution:      0.12515      -6.35528       0.54992
Nuclear contribution   :     -0.15234       7.74142      -0.66933
                        -----------------------------------------
Total Dipole Moment    :     -0.02718       1.38614      -0.11941
                        -----------------------------------------
Magnitude (a.u.)       :      1.39154
Magnitude (Debye)      :      3.53700

                             ****ORCA TERMINATED NORMALLY****
TOTAL RUN TIME: 0 days 0 hours 16 minutes 3 seconds 442 msec
