                         Program Version 3.0.3 - RELEASE   -
|  1> ! RI-MP2 RIJK def2-TZVP def2-TZVP/C def2-TZVP/JK TIGHTSCF
|  2> % maxcore 2000
|  3> % mp2 density relaxed end
|  4> *xyz 0 1
|  5>  C        0.0483082283     1.5296487362     0.0743710745
|  6>  C        0.0158568254     0.0109109828    -0.0120599508
|  7>  C        0.6716970148    -0.5354609660    -1.2880120884
|  8>  C        0.6889724206    -2.0725842858    -1.2660959957
|  9>  C        1.2817143165    -2.5677531721     0.0405322588
| 10>  C        1.8171218969    -3.9442708463     0.1445359839
| 11>  N        2.7359106289    -2.7874609274     0.1494175090
| 12>  C        0.6523395076    -1.8967882173     1.2459030233
| 13>  O        0.6862353264    -0.4839592552     1.1417278953
| 14>  H        1.0821807953     1.8882751173     0.0589649771
| 15>  H       -0.4886097350     1.9766775258    -0.7677473705
| 16>  H       -0.4161547232     1.8674634789     1.0045067530
| 17>  H       -1.0357190583    -0.3332224666     0.0127906537
| 18>  H        0.1340969697    -0.1687016243    -2.1696403247
| 19>  H        1.6969367968    -0.1488907819    -1.3426120178
| 20>  H       -0.3405941166    -2.4460405438    -1.3577763979
| 21>  H        1.2473860097    -2.4771320981    -2.1189335560
| 22>  H        1.7637632184    -4.4876302987     1.0848489167
| 23>  H        1.7704140086    -4.5746032452    -0.7407010634
| 24>  H        3.1718001826    -2.6941948946    -0.7657572766
| 25>  H       -0.3909383680    -2.2441764705     1.3548908370
| 26>  H        1.2043836046    -2.1554320273     2.1525160194
| 27> *
| 28>
| 29>                          ****END OF INPUT****

CARTESIAN COORDINATES (ANGSTROEM)
---------------------------------
  C      0.048308    1.529649    0.074371
  C      0.015857    0.010911   -0.012060
  C      0.671697   -0.535461   -1.288012
  C      0.688972   -2.072584   -1.266096
  C      1.281714   -2.567753    0.040532
  C      1.817122   -3.944271    0.144536
  N      2.735911   -2.787461    0.149418
  C      0.652340   -1.896788    1.245903
  O      0.686235   -0.483959    1.141728
  H      1.082181    1.888275    0.058965
  H     -0.488610    1.976678   -0.767747
  H     -0.416155    1.867463    1.004507
  H     -1.035719   -0.333222    0.012791
  H      0.134097   -0.168702   -2.169640
  H      1.696937   -0.148891   -1.342612
  H     -0.340594   -2.446041   -1.357776
  H      1.247386   -2.477132   -2.118934
  H      1.763763   -4.487630    1.084849
  H      1.770414   -4.574603   -0.740701
  H      3.171800   -2.694195   -0.765757
  H     -0.390938   -2.244176    1.354891
  H      1.204384   -2.155432    2.152516

 Total Charge           Charge          ....    0
 Multiplicity           Mult            ....    1
 Number of Electrons    NEL             ....   70
 Basis Dimension        Dim             ....  357

ORBITAL ENERGIES
----------------

  NO   OCC          E(Eh)            E(eV)
   0   2.0000     -20.547069      -559.1142
   1   2.0000     -15.554079      -423.2480
   2   2.0000     -11.277190      -306.8680
   3   2.0000     -11.270006      -306.6725
   4   2.0000     -11.261662      -306.4454
   5   2.0000     -11.253974      -306.2362
   6   2.0000     -11.233565      -305.6808
   7   2.0000     -11.223902      -305.4179
   8   2.0000     -11.210858      -305.0630
   9   2.0000      -1.371662       -37.3248
  10   2.0000      -1.260629       -34.3035
  11   2.0000      -1.071286       -29.1512
  12   2.0000      -1.026583       -27.9347
  13   2.0000      -0.938964       -25.5505
  14   2.0000      -0.882096       -24.0031
  15   2.0000      -0.872656       -23.7462
  16   2.0000      -0.808236       -21.9932
  17   2.0000      -0.757528       -20.6134
  18   2.0000      -0.683752       -18.6058
  19   2.0000      -0.657164       -17.8824
  20   2.0000      -0.649037       -17.6612
  21   2.0000      -0.625253       -17.0140
  22   2.0000      -0.600238       -16.3333
  23   2.0000      -0.586926       -15.9711
  24   2.0000      -0.561731       -15.2855
  25   2.0000      -0.546901       -14.8819
  26   2.0000      -0.527022       -14.3410
  27   2.0000      -0.520036       -14.1509
  28   2.0000      -0.496813       -13.5190
  29   2.0000      -0.489733       -13.3263
  30   2.0000      -0.462943       -12.5973
  31   2.0000      -0.453664       -12.3448
  32   2.0000      -0.449312       -12.2264
  33   2.0000      -0.411770       -11.2048
  34   2.0000      -0.379699       -10.3321
  35   0.0000       0.131179         3.5696
  36   0.0000       0.149699         4.0735
  37   0.0000       0.152252         4.1430
  38   0.0000       0.176305         4.7975
  39   0.0000       0.184780         5.0281

MULLIKEN ATOMIC CHARGES
-----------------------
   0 C :   -0.369692
   1 C :    0.045603
   2 C :   -0.207657
   3 C :   -0.195751
   4 C :    0.094948
   5 C :   -0.216300
   6 N :   -0.378724
   7 C :   -0.071303
   8 O :   -0.294744
   9 H :    0.130142
  10 H :    0.120528
  11 H :    0.139085
  12 H :    0.067295
  13 H :    0.122345
  14 H :    0.108219
  15 H :    0.113104
  16 H :    0.117473
  17 H :    0.122146
  18 H :    0.124110
  19 H :    0.212129
  20 H :    0.090339
  21 H :    0.126704
Sum of atomic charges:   -0.0000000

LOEWDIN ATOMIC CHARGES
----------------------
   0 C :   -0.290725
   1 C :   -0.348988
   2 C :   -0.241126
   3 C :   -0.229901
   4 C :   -0.318991
   5 C :   -0.246287
   6 N :    0.004132
   7 C :   -0.272764
   8 O :    0.183311
   9 H :    0.127376
  10 H :    0.125046
  11 H :    0.126917
  12 H :    0.134485
  13 H :    0.139926
  14 H :    0.143314
  15 H :    0.146022
  16 H :    0.139907
  17 H :    0.126754
  18 H :    0.122608
  19 H :    0.164100
  20 H :    0.124768
  21 H :    0.140119

  Mayer bond orders larger than 0.1
B(  0-C ,  1-C ) :   0.9084 B(  0-C ,  9-H ) :   0.9372 B(  0-C , 10-H ) :   0.9349
B(  0-C , 11-H ) :   0.9405 B(  1-C ,  2-C ) :   0.9304 B(  1-C ,  8-O ) :   0.9525
B(  1-C , 12-H ) :   0.9305 B(  2-C ,  3-C ) :   0.9300 B(  2-C , 13-H ) :   0.9231
B(  2-C , 14-H ) :   0.9173 B(  3-C ,  4-C ) :   0.9441 B(  3-C , 15-H ) :   0.9249
B(  3-C , 16-H ) :   0.9227 B(  4-C ,  5-C ) :   0.9281 B(  4-C ,  6-N ) :   0.8449
B(  4-C ,  7-C ) :   0.9286 B(  5-C ,  6-N ) :   0.9582 B(  5-C , 17-H ) :   0.9111
B(  5-C , 18-H ) :   0.9118 B(  6-N , 19-H ) :   0.8697 B(  7-C ,  8-O ) :   0.9612
B(  7-C , 20-H ) :   0.9435 B(  7-C , 21-H ) :   0.9075

MP2 TOTAL ENERGY:     -403.650805325 Eh
FINAL SINGLE POINT ENERGY      -403.650805325286

DIPOLE MOMENT
-------------
                                X             Y             Z
Electronic contribution:      2.19906      -2.32459       2.83521
Nuclear contribution   :     -2.77387       1.94443      -3.73838
                        -----------------------------------------
Total Dipole Moment    :     -0.57481      -0.38016      -0.90317
                        -----------------------------------------
Magnitude (a.u.)       :      1.13607
Magnitude (Debye)      :      2.88765

                             ****ORCA TERMINATED NORMALLY****
TOTAL RUN TIME: 0 days 0 hours 19 minutes 11 seconds 817 msec
