                         Program Version 3.0.3 - RELEASE   -
|  1> ! RI-MP2 RIJK def2-TZVP def2-TZVP/C def2-TZVP/JK TIGHTSCF
|  2> % maxcore 2000
|  3> % mp2 density relaxed end
|  4> *xyz 0 1
|  5>  C       -0.0532148274     1.5277891988    -0.0379116084
|  6>  N        0.0779202349     0.1005156604     0.1338208904
|  7>  C       -1.1385310967    -0.7153299539     0.3050304329
|  8>  C       -0.4338422311    -1.5328840014     1.3956213586
|  9>  O        0.4761958005    -2.5507415256     0.8821106802
| 10>  C        1.5578713051    -1.6801771775     0.9206849971
| 11>  N        2.7716592811    -1.8725728273     0.6846142186
| 12>  C        0.7157226739    -0.4863563824     1.3549532020
| 13>  C        1.2019396085     0.4086972408     2.4646979234
| 14>  H        0.9346708547     1.9975783423    -0.0488551159
| 15>  H       -0.5214226302     1.7272508574    -1.0079294368
| 16>  H       -0.6663161992     2.0264287740     0.7363454456
| 17>  H       -1.9874348747    -0.1507909148     0.7248784186
| 18>  H       -1.4708478082    -1.2558749195    -0.5874870918
| 19>  H       -0.9745893086    -1.8822708871     2.2732475422
| 20>  H        2.9527557219    -2.8347872039     0.3929160329
| 21>  H        2.0733828956     0.9824834457     2.1341872024
| 22>  H        0.4282619954     1.1091765725     2.7913939153
| 23>  H        1.5122304144    -0.1915956985     3.3246931827
| 24> *
| 25>
| 26>                          ****END OF INPUT****

CARTESIAN COORDINATES (ANGSTROEM)
---------------------------------
  C     -0.053215    1.527789   -0.037912
  N      0.077920    0.100516    0.133821
  C     -1.138531   -0.715330    0.305030
  C     -0.433842   -1.532884    1.395621
  O      0.476196   -2.550742    0.882111
  C      1.557871   -1.680177    0.920685
  N      2.771659   -1.872573    0.684614
  C      0.715723   -0.486356    1.354953
  C      1.201940    0.408697    2.464698
  H      0.934671    1.997578   -0.048855
  H     -0.521423    1.727251   -1.007929
  H     -0.666316    2.026429    0.736345
  H     -1.987435   -0.150791    0.724878
  H     -1.470848   -1.255875   -0.587487
  H     -0.974589   -1.882271    2.273248
  H      2.952756   -2.834787    0.392916
  H      2.073383    0.982483    2.134187
  H      0.428262    1.109177    2.791394
  H      1.512230   -0.191596    3.324693

 Total Charge           Charge          ....    0
 Multiplicity           Mult            ....    1
 Number of Electrons    NEL             ....   68
 Basis Dimension        Dim             ....  339

ORBITAL ENERGIES
----------------

  NO   OCC          E(Eh)            E(eV)
   0   2.0000     -20.588423      -560.2395
   1   2.0000     -15.558805      -423.3766
   2   2.0000     -15.533817      -422.6966
   3   2.0000     -11.331741      -308.3523
   4   2.0000     -11.301575      -307.5315
   5   2.0000     -11.286917      -307.1326
   6   2.0000     -11.267077      -306.5928
   7   2.0000     -11.254326      -306.2458
   8   2.0000     -11.235556      -305.7350
   9   2.0000      -1.433150       -38.9980
  10   2.0000      -1.252924       -34.0938
  11   2.0000      -1.193772       -32.4842
  12   2.0000      -1.044796       -28.4304
  13   2.0000      -1.011937       -27.5362
  14   2.0000      -0.916971       -24.9520
  15   2.0000      -0.881811       -23.9953
  16   2.0000      -0.815796       -22.1989
  17   2.0000      -0.714253       -19.4358
  18   2.0000      -0.694153       -18.8889
  19   2.0000      -0.684281       -18.6202
  20   2.0000      -0.670046       -18.2329
  21   2.0000      -0.632781       -17.2188
  22   2.0000      -0.603742       -16.4286
  23   2.0000      -0.583552       -15.8792
  24   2.0000      -0.577702       -15.7201
  25   2.0000      -0.563616       -15.3368
  26   2.0000      -0.552798       -15.0424
  27   2.0000      -0.538010       -14.6400
  28   2.0000      -0.492171       -13.3926
  29   2.0000      -0.485109       -13.2005
  30   2.0000      -0.452617       -12.3163
  31   2.0000      -0.432469       -11.7681
  32   2.0000      -0.400040       -10.8856
  33   2.0000      -0.362324        -9.8593
  34   0.0000       0.127107         3.4588
  35   0.0000       0.158509         4.3133
  36   0.0000       0.161486         4.3943
  37   0.0000       0.176423         4.8007
  38   0.0000       0.181744         4.9455

MULLIKEN ATOMIC CHARGES
-----------------------
   0 C :   -0.342521
   1 N :   -0.197272
   2 C :   -0.141992
   3 C :    0.033778
   4 O :   -0.274223
   5 C :    0.101999
   6 N :   -0.369183
   7 C :    0.168375
   8 C :   -0.395984
   9 H :    0.143843
  10 H :    0.147216
  11 H :    0.105012
  12 H :    0.100123
  13 H :    0.119376
  14 H :    0.127143
  15 H :    0.229616
  16 H :    0.156803
  17 H :    0.138276
  18 H :    0.149613
Sum of atomic charges:    0.0000000

LOEWDIN ATOMIC CHARGES
----------------------
   0 C :   -0.336280
   1 N :    0.111891
   2 C :   -0.232530
   3 C :   -0.193840
   4 O :    0.226895
   5 C :   -0.352782
   6 N :   -0.046039
   7 C :   -0.231797
   8 C :   -0.261556
   9 H :    0.123146
  10 H :    0.122687
  11 H :    0.100252
  12 H :    0.127505
  13 H :    0.128383
  14 H :    0.130922
  15 H :    0.173823
  16 H :    0.140786
  17 H :    0.129878
  18 H :    0.138656

  Mayer bond orders larger than 0.1
B(  0-C ,  1-N ) :   0.9204 B(  0-C ,  9-H ) :   0.9358 B(  0-C , 10-H ) :   0.9340
B(  0-C , 11-H ) :   0.9257 B(  1-N ,  2-C ) :   0.9521 B(  1-N ,  7-C ) :   0.8963
B(  2-C ,  3-C ) :   0.9448 B(  2-C , 12-H ) :   0.9077 B(  2-C , 13-H ) :   0.9005
B(  3-C ,  4-O ) :   0.8929 B(  3-C ,  7-C ) :   0.9183 B(  3-C , 14-H ) :   0.9208
B(  4-O ,  5-C ) :   1.0492 B(  5-C ,  6-N ) :   2.1065 B(  5-C ,  7-C ) :   0.8671
B(  6-N , 15-H ) :   0.8453 B(  7-C ,  8-C ) :   0.8991 B(  8-C , 16-H ) :   0.9361
B(  8-C , 17-H ) :   0.9328 B(  8-C , 18-H ) :   0.9246

MP2 TOTAL ENERGY:     -418.460925224 Eh
FINAL SINGLE POINT ENERGY      -418.460925223626

DIPOLE MOMENT
-------------
                                X             Y             Z
Electronic contribution:      2.19830      -7.84055      -1.12781
Nuclear contribution   :     -3.21038       8.38452       1.63844
                        -----------------------------------------
Total Dipole Moment    :     -1.01208       0.54396       0.51063
                        -----------------------------------------
Magnitude (a.u.)       :      1.25735
Magnitude (Debye)      :      3.19594

                             ****ORCA TERMINATED NORMALLY****
TOTAL RUN TIME: 0 days 0 hours 18 minutes 20 seconds 170 msec
