                         Program Version 3.0.3 - RELEASE   -
|  1> ! RI-MP2 RIJK def2-TZVP def2-TZVP/C def2-TZVP/JK TIGHTSCF
|  2> % maxcore 2000
|  3> % mp2 density relaxed end
|  4> *xyz 0 1
|  5>  C       -0.0400794110     1.4255750747     0.0096232115
|  6>  O        0.0468360878     0.0206209552     0.0011672785
|  7>  C       -1.2310910298    -0.5895587117     0.0109383568
|  8>  C       -1.0989412223    -2.0402376836     0.0017676962
|  9>  C       -1.0130411942    -3.2414365461    -0.0054987336
| 10>  C       -0.9006588069    -4.7053776890    -0.0145796525
| 11>  C       -2.3182516527    -5.3218963533    -0.0046100797
| 12>  C       -0.1481291299    -5.1543094576    -1.2875685303
| 13>  C       -0.1242987442    -5.1682327272     1.2389616570
| 14>  H        0.9811192586     1.8131614399     0.0013006778
| 15>  H       -0.5739031350     1.8100992211    -0.8746314038
| 16>  H       -0.5557226031     1.8005025346     0.9086630291
| 17>  H       -1.7988403544    -0.2693631764     0.9027505308
| 18>  H       -1.8169905705    -0.2598093531    -0.8655295708
| 19>  H       -2.8885588407    -5.0067030773    -0.8830346062
| 20>  H       -2.2522514073    -6.4153072334    -0.0112883293
| 21>  H       -2.8717946488    -5.0165124927     0.8878874972
| 22>  H        0.8572979968    -4.7253701749    -1.3177488235
| 23>  H       -0.0589103015    -6.2459608105    -1.3069174091
| 24>  H       -0.6799736309    -4.8357958188    -2.1885051035
| 25>  H       -0.6390829789    -4.8598151642     2.1532208174
| 26>  H       -0.0347656683    -6.2600141273     1.2445412098
| 27>  H        0.8815360572    -4.7394837781     1.2549535004
| 28> *
| 29>
| 30>                          ****END OF INPUT****

CARTESIAN COORDINATES (ANGSTROEM)
---------------------------------
  C     -0.040079    1.425575    0.009623
  O      0.046836    0.020621    0.001167
  C     -1.231091   -0.589559    0.010938
  C     -1.098941   -2.040238    0.001768
  C     -1.013041   -3.241437   -0.005499
  C     -0.900659   -4.705378   -0.014580
  C     -2.318252   -5.321896   -0.004610
  C     -0.148129   -5.154309   -1.287569
  C     -0.124299   -5.168233    1.238962
  H      0.981119    1.813161    0.001301
  H     -0.573903    1.810099   -0.874631
  H     -0.555723    1.800503    0.908663
  H     -1.798840   -0.269363    0.902751
  H     -1.816991   -0.259809   -0.865530
  H     -2.888559   -5.006703   -0.883035
  H     -2.252251   -6.415307   -0.011288
  H     -2.871795   -5.016512    0.887887
  H      0.857298   -4.725370   -1.317749
  H     -0.058910   -6.245961   -1.306917
  H     -0.679974   -4.835796   -2.188505
  H     -0.639083   -4.859815    2.153221
  H     -0.034766   -6.260014    1.244541
  H      0.881536   -4.739484    1.254954

 Total Charge           Charge          ....    0
 Multiplicity           Mult            ....    1
 Number of Electrons    NEL             ....   70
 Basis Dimension        Dim             ....  363

ORBITAL ENERGIES
----------------

  NO   OCC          E(Eh)            E(eV)
   0   2.0000     -20.560518      -559.4801
   1   2.0000     -11.300099      -307.4913
   2   2.0000     -11.273366      -306.7639
   3   2.0000     -11.258465      -306.3584
   4   2.0000     -11.217817      -305.2523
   5   2.0000     -11.217627      -305.2471
   6   2.0000     -11.215994      -305.2027
   7   2.0000     -11.215980      -305.2023
   8   2.0000     -11.212511      -305.1079
   9   2.0000      -1.380705       -37.5709
  10   2.0000      -1.114676       -30.3319
  11   2.0000      -1.037000       -28.2182
  12   2.0000      -0.956973       -26.0406
  13   2.0000      -0.933761       -25.4089
  14   2.0000      -0.932828       -25.3835
  15   2.0000      -0.889107       -24.1938
  16   2.0000      -0.802809       -21.8455
  17   2.0000      -0.686637       -18.6843
  18   2.0000      -0.671094       -18.2614
  19   2.0000      -0.655005       -17.8236
  20   2.0000      -0.645327       -17.5602
  21   2.0000      -0.601840       -16.3769
  22   2.0000      -0.600788       -16.3483
  23   2.0000      -0.566035       -15.4026
  24   2.0000      -0.562199       -15.2982
  25   2.0000      -0.545491       -14.8436
  26   2.0000      -0.544111       -14.8060
  27   2.0000      -0.516092       -14.0436
  28   2.0000      -0.506434       -13.7808
  29   2.0000      -0.492303       -13.3962
  30   2.0000      -0.478137       -13.0108
  31   2.0000      -0.477982       -13.0065
  32   2.0000      -0.434640       -11.8272
  33   2.0000      -0.372085       -10.1249
  34   2.0000      -0.362115        -9.8536
  35   0.0000       0.129080         3.5124
  36   0.0000       0.143538         3.9059
  37   0.0000       0.175412         4.7732
  38   0.0000       0.179416         4.8821
  39   0.0000       0.180010         4.8983

MULLIKEN ATOMIC CHARGES
-----------------------
   0 C :   -0.214563
   1 O :   -0.283978
   2 C :   -0.233616
   3 C :    0.060598
   4 C :    0.056801
   5 C :   -0.019375
   6 C :   -0.394071
   7 C :   -0.390442
   8 C :   -0.390447
   9 H :    0.142574
  10 H :    0.110585
  11 H :    0.110583
  12 H :    0.123014
  13 H :    0.123015
  14 H :    0.133486
  15 H :    0.131098
  16 H :    0.133480
  17 H :    0.138453
  18 H :    0.129558
  19 H :    0.132618
  20 H :    0.132613
  21 H :    0.129561
  22 H :    0.138454
Sum of atomic charges:   -0.0000000

LOEWDIN ATOMIC CHARGES
----------------------
   0 C :   -0.361907
   1 O :    0.139178
   2 C :   -0.317327
   3 C :   -0.067489
   4 C :   -0.025022
   5 C :   -0.338632
   6 C :   -0.254199
   7 C :   -0.253645
   8 C :   -0.253648
   9 H :    0.115059
  10 H :    0.101168
  11 H :    0.101167
  12 H :    0.135152
  13 H :    0.135151
  14 H :    0.127750
  15 H :    0.125404
  16 H :    0.127749
  17 H :    0.129323
  18 H :    0.124880
  19 H :    0.127843
  20 H :    0.127841
  21 H :    0.124882
  22 H :    0.129322

  Mayer bond orders larger than 0.1
B(  0-C ,  1-O ) :   0.9168 B(  0-C ,  9-H ) :   0.9388 B(  0-C , 10-H ) :   0.9362
B(  0-C , 11-H ) :   0.9362 B(  1-O ,  2-C ) :   1.0741 B(  1-O ,  4-C ) :  -0.1126
B(  2-C ,  3-C ) :   0.9677 B(  2-C , 12-H ) :   0.9442 B(  2-C , 13-H ) :   0.9442
B(  3-C ,  4-C ) :   2.6597 B(  3-C ,  5-C ) :  -0.1625 B(  4-C ,  5-C ) :   1.1248
B(  5-C ,  6-C ) :   0.9173 B(  5-C ,  7-C ) :   0.9154 B(  5-C ,  8-C ) :   0.9154
B(  6-C , 14-H ) :   0.9335 B(  6-C , 15-H ) :   0.9366 B(  6-C , 16-H ) :   0.9335
B(  7-C , 17-H ) :   0.9328 B(  7-C , 18-H ) :   0.9358 B(  7-C , 19-H ) :   0.9327
B(  8-C , 20-H ) :   0.9327 B(  8-C , 21-H ) :   0.9358 B(  8-C , 22-H ) :   0.9328

MP2 TOTAL ENERGY:     -387.572022498 Eh
FINAL SINGLE POINT ENERGY      -387.572022498079

DIPOLE MOMENT
-------------
                                X             Y             Z
Electronic contribution:      0.62601       5.14612       0.02146
Nuclear contribution   :     -1.01433      -5.00363      -0.01674
                        -----------------------------------------
Total Dipole Moment    :     -0.38832       0.14249       0.00472
                        -----------------------------------------
Magnitude (a.u.)       :      0.41366
Magnitude (Debye)      :      1.05145

                             ****ORCA TERMINATED NORMALLY****
TOTAL RUN TIME: 0 days 0 hours 18 minutes 18 seconds 993 msec
