                         Program Version 3.0.3 - RELEASE   -
|  1> ! RI-MP2 RIJK def2-TZVP def2-TZVP/C def2-TZVP/JK TIGHTSCF
|  2> % maxcore 2000
|  3> % mp2 density relaxed end
|  4> *xyz 0 1
|  5>  N       -0.0300050298     1.3455501384     0.0100727610
|  6>  C        1.2775761730     1.8060845233    -0.0001085448
|  7>  C        2.1700028670     0.7453835413    -0.0148037097
|  8>  C        1.3408047533    -0.3990600360    -0.0132018936
|  9>  C        0.0226910812    -0.0207239212     0.0018069394
| 10>  N       -0.8142976506    -1.1106489067     0.0037692520
| 11>  C        0.0317056695    -2.0997149251    -0.0100839097
| 12>  O        1.3630366261    -1.7669700391    -0.0211948904
| 13>  H       -0.8529127775     1.9211261670     0.0214088265
| 14>  H        1.4781276197     2.8653653317     0.0039267590
| 15>  H        3.2442746030     0.8221630206    -0.0248497261
| 16>  H       -0.1901667050    -3.1547099343    -0.0139031037
| 17> *
| 18>
| 19>                          ****END OF INPUT****

CARTESIAN COORDINATES (ANGSTROEM)
---------------------------------
  N     -0.030005    1.345550    0.010073
  C      1.277576    1.806085   -0.000109
  C      2.170003    0.745384   -0.014804
  C      1.340805   -0.399060   -0.013202
  C      0.022691   -0.020724    0.001807
  N     -0.814298   -1.110649    0.003769
  C      0.031706   -2.099715   -0.010084
  O      1.363037   -1.766970   -0.021195
  H     -0.852913    1.921126    0.021409
  H      1.478128    2.865365    0.003927
  H      3.244275    0.822163   -0.024850
  H     -0.190167   -3.154710   -0.013903

 Total Charge           Charge          ....    0
 Multiplicity           Mult            ....    1
 Number of Electrons    NEL             ....   56
 Basis Dimension        Dim             ....  272

ORBITAL ENERGIES
----------------

  NO   OCC          E(Eh)            E(eV)
   0   2.0000     -20.634274      -561.4872
   1   2.0000     -15.616477      -424.9459
   2   2.0000     -15.576958      -423.8706
   3   2.0000     -11.339600      -308.5662
   4   2.0000     -11.278356      -306.8997
   5   2.0000     -11.271384      -306.7099
   6   2.0000     -11.271053      -306.7009
   7   2.0000     -11.233454      -305.6778
   8   2.0000      -1.475522       -40.1510
   9   2.0000      -1.305842       -35.5338
  10   2.0000      -1.229751       -33.4632
  11   2.0000      -1.060806       -28.8660
  12   2.0000      -0.985649       -26.8209
  13   2.0000      -0.859030       -23.3754
  14   2.0000      -0.817169       -22.2363
  15   2.0000      -0.794795       -21.6275
  16   2.0000      -0.737036       -20.0558
  17   2.0000      -0.664860       -18.0918
  18   2.0000      -0.664245       -18.0750
  19   2.0000      -0.652860       -17.7652
  20   2.0000      -0.600199       -16.3323
  21   2.0000      -0.572358       -15.5746
  22   2.0000      -0.566387       -15.4122
  23   2.0000      -0.542345       -14.7580
  24   2.0000      -0.465670       -12.6715
  25   2.0000      -0.457080       -12.4378
  26   2.0000      -0.355477        -9.6730
  27   2.0000      -0.285231        -7.7615
  28   0.0000       0.127132         3.4594
  29   0.0000       0.135088         3.6759
  30   0.0000       0.177563         4.8317
  31   0.0000       0.179217         4.8767
  32   0.0000       0.186392         5.0720

MULLIKEN ATOMIC CHARGES
-----------------------
   0 N :   -0.299397
   1 C :   -0.054770
   2 C :   -0.235112
   3 C :    0.129472
   4 C :    0.143799
   5 N :   -0.270646
   6 C :    0.108684
   7 O :   -0.224652
   8 H :    0.254435
   9 H :    0.151429
  10 H :    0.143414
  11 H :    0.153345
Sum of atomic charges:   -0.0000000

LOEWDIN ATOMIC CHARGES
----------------------
   0 N :    0.194286
   1 C :   -0.211283
   2 C :   -0.174918
   3 C :   -0.247062
   4 C :   -0.307113
   5 N :    0.115902
   6 C :   -0.306033
   7 O :    0.332250
   8 H :    0.194881
   9 H :    0.134639
  10 H :    0.142976
  11 H :    0.131475

  Mayer bond orders larger than 0.1
B(  0-N ,  1-C ) :   1.1141 B(  0-N ,  4-C ) :   1.0939 B(  0-N ,  8-H ) :   0.8664
B(  1-C ,  2-C ) :   1.4962 B(  1-C ,  9-H ) :   0.9156 B(  2-C ,  3-C ) :   1.2494
B(  2-C , 10-H ) :   0.9286 B(  3-C ,  4-C ) :   1.3478 B(  3-C ,  7-O ) :   1.0342
B(  4-C ,  5-N ) :   1.2456 B(  5-N ,  6-C ) :   1.6141 B(  6-C ,  7-O ) :   1.0645
B(  6-C , 11-H ) :   0.9329

MP2 TOTAL ENERGY:     -376.916166104 Eh
FINAL SINGLE POINT ENERGY      -376.916166104001

DIPOLE MOMENT
-------------
                                X             Y             Z
Electronic contribution:     -0.92755      -2.34316      -0.00424
Nuclear contribution   :      0.95570       3.05064       0.00800
                        -----------------------------------------
Total Dipole Moment    :      0.02815       0.70748       0.00377
                        -----------------------------------------
Magnitude (a.u.)       :      0.70805
Magnitude (Debye)      :      1.79972

                             ****ORCA TERMINATED NORMALLY****
TOTAL RUN TIME: 0 days 0 hours 10 minutes 7 seconds 163 msec
