                         Program Version 3.0.3 - RELEASE   -
|  1> ! RI-MP2 RIJK def2-TZVP def2-TZVP/C def2-TZVP/JK TIGHTSCF
|  2> % maxcore 2000
|  3> % mp2 density relaxed end
|  4> *xyz 0 1
|  5>  C       -0.0320163866     1.5564918656    -0.0425669971
|  6>  C        0.0155096986     0.0307642626     0.0097968127
|  7>  O       -1.3073409606    -0.5163777175     0.0784303777
|  8>  C        0.6421674965    -0.5346391761    -1.2659188129
|  9>  N        0.9386892046    -1.9516271270    -1.1425243421
| 10>  C        1.4508232740    -2.4231841969     0.0155590981
| 11>  C        1.4443553840    -1.7250241596     1.1838566837
| 12>  C        0.7528876969    -0.4616545396     1.2902647095
| 13>  O        0.6121047099     0.1661489528     2.3313872221
| 14>  H        0.9655296997     1.9847328937    -0.1836477665
| 15>  H       -0.6804687619     1.8841454062    -0.8603576280
| 16>  H       -0.4208868980     1.9356341880     0.9047245471
| 17>  H       -1.6645926161    -0.2689683026     0.9396896939
| 18>  H       -0.0505835087    -0.3842416409    -2.0985818210
| 19>  H        1.5662461993     0.0257234944    -1.4752045655
| 20>  H        1.0944626305    -2.4757142636    -1.9862678164
| 21>  H        1.8628977060    -3.4270870050    -0.0356577801
| 22>  H        1.8611636020    -2.1593418045     2.0831681248
| 23> *
| 24>
| 25>                          ****END OF INPUT****

CARTESIAN COORDINATES (ANGSTROEM)
---------------------------------
  C     -0.032016    1.556492   -0.042567
  C      0.015510    0.030764    0.009797
  O     -1.307341   -0.516378    0.078430
  C      0.642167   -0.534639   -1.265919
  N      0.938689   -1.951627   -1.142524
  C      1.450823   -2.423184    0.015559
  C      1.444355   -1.725024    1.183857
  C      0.752888   -0.461655    1.290265
  O      0.612105    0.166149    2.331387
  H      0.965530    1.984733   -0.183648
  H     -0.680469    1.884145   -0.860358
  H     -0.420887    1.935634    0.904725
  H     -1.664593   -0.268968    0.939690
  H     -0.050584   -0.384242   -2.098582
  H      1.566246    0.025723   -1.475205
  H      1.094463   -2.475714   -1.986268
  H      1.862898   -3.427087   -0.035658
  H      1.861164   -2.159342    2.083168

 Total Charge           Charge          ....    0
 Multiplicity           Mult            ....    1
 Number of Electrons    NEL             ....   68
 Basis Dimension        Dim             ....  333

ORBITAL ENERGIES
----------------

  NO   OCC          E(Eh)            E(eV)
   0   2.0000     -20.561636      -559.5106
   1   2.0000     -20.523372      -558.4693
   2   2.0000     -15.597506      -424.4297
   3   2.0000     -11.316591      -307.9401
   4   2.0000     -11.309661      -307.7515
   5   2.0000     -11.299018      -307.4619
   6   2.0000     -11.278537      -306.9046
   7   2.0000     -11.217367      -305.2401
   8   2.0000     -11.211368      -305.0768
   9   2.0000      -1.381590       -37.5950
  10   2.0000      -1.352950       -36.8157
  11   2.0000      -1.275838       -34.7173
  12   2.0000      -1.059065       -28.8186
  13   2.0000      -1.050169       -28.5766
  14   2.0000      -0.952839       -25.9281
  15   2.0000      -0.855528       -23.2801
  16   2.0000      -0.833694       -22.6860
  17   2.0000      -0.751811       -20.4578
  18   2.0000      -0.726449       -19.7677
  19   2.0000      -0.692369       -18.8403
  20   2.0000      -0.646628       -17.5957
  21   2.0000      -0.624017       -16.9804
  22   2.0000      -0.607626       -16.5343
  23   2.0000      -0.597746       -16.2655
  24   2.0000      -0.593266       -16.1436
  25   2.0000      -0.567182       -15.4338
  26   2.0000      -0.560890       -15.2626
  27   2.0000      -0.530006       -14.4222
  28   2.0000      -0.511959       -13.9311
  29   2.0000      -0.499349       -13.5880
  30   2.0000      -0.474704       -12.9174
  31   2.0000      -0.465955       -12.6793
  32   2.0000      -0.391683       -10.6582
  33   2.0000      -0.324749        -8.8369
  34   0.0000       0.104102         2.8327
  35   0.0000       0.117524         3.1980
  36   0.0000       0.143214         3.8971
  37   0.0000       0.170097         4.6286
  38   0.0000       0.180752         4.9185

MULLIKEN ATOMIC CHARGES
-----------------------
   0 C :   -0.429451
   1 C :    0.290283
   2 O :   -0.470524
   3 C :   -0.148870
   4 N :   -0.293798
   5 C :    0.005533
   6 C :   -0.254993
   7 C :    0.103869
   8 O :   -0.329988
   9 H :    0.125283
  10 H :    0.138851
  11 H :    0.155273
  12 H :    0.327356
  13 H :    0.136391
  14 H :    0.126852
  15 H :    0.242505
  16 H :    0.140947
  17 H :    0.134482
Sum of atomic charges:    0.0000000

LOEWDIN ATOMIC CHARGES
----------------------
   0 C :   -0.273128
   1 C :   -0.367659
   2 O :    0.015036
   3 C :   -0.228869
   4 N :    0.107317
   5 C :   -0.197189
   6 C :   -0.195806
   7 C :   -0.322505
   8 O :    0.113618
   9 H :    0.129562
  10 H :    0.127756
  11 H :    0.134836
  12 H :    0.184059
  13 H :    0.145696
  14 H :    0.142366
  15 H :    0.187635
  16 H :    0.145637
  17 H :    0.151641

  Mayer bond orders larger than 0.1
B(  0-C ,  1-C ) :   0.9230 B(  0-C ,  9-H ) :   0.9261 B(  0-C , 10-H ) :   0.9425
B(  0-C , 11-H ) :   0.9192 B(  1-C ,  2-O ) :   0.8695 B(  1-C ,  3-C ) :   0.8692
B(  1-C ,  7-C ) :   0.8468 B(  2-O , 12-H ) :   0.8342 B(  3-C ,  4-N ) :   0.9200
B(  3-C , 13-H ) :   0.9128 B(  3-C , 14-H ) :   0.9416 B(  4-N ,  5-C ) :   1.2295
B(  4-N , 15-H ) :   0.8785 B(  5-C ,  6-C ) :   1.5204 B(  5-C , 16-H ) :   0.9064
B(  6-C ,  7-C ) :   1.1626 B(  6-C , 17-H ) :   0.9189 B(  7-C ,  8-O ) :   1.8756

MP2 TOTAL ENERGY:     -438.399609608 Eh
FINAL SINGLE POINT ENERGY      -438.399609608330

DIPOLE MOMENT
-------------
                                X             Y             Z
Electronic contribution:      0.05313      -3.13667       3.29280
Nuclear contribution   :      0.38544       2.51712      -4.79061
                        -----------------------------------------
Total Dipole Moment    :      0.43857      -0.61955      -1.49781
                        -----------------------------------------
Magnitude (a.u.)       :      1.67917
Magnitude (Debye)      :      4.26811

                             ****ORCA TERMINATED NORMALLY****
TOTAL RUN TIME: 0 days 0 hours 19 minutes 8 seconds 693 msec
