                         Program Version 3.0.3 - RELEASE   -
|  1> ! RI-MP2 RIJK def2-TZVP def2-TZVP/C def2-TZVP/JK TIGHTSCF
|  2> % maxcore 2000
|  3> % mp2 density relaxed end
|  4> *xyz 0 1
|  5>  O       -0.0158303173     0.0565096796    -0.0372822309
|  6>  C        0.0490125023     1.2469880077    -0.0055492556
|  7>  O       -1.0438141301     2.0863578550     0.0076783599
|  8>  C       -0.4096016636     3.4016376722     0.0472901012
|  9>  C        0.6996449988     3.2647203035    -1.0194070542
| 10>  C        1.2220829447     2.2195170617     0.0294195088
| 11>  C        0.6823875638     3.2085122181     1.1230579394
| 12>  H       -1.1763862602     4.1719023841     0.0613224617
| 13>  H        0.4044517225     2.9057124336    -2.0072378434
| 14>  H        1.3445899787     4.1419501578    -1.0931098497
| 15>  H        2.2188806217     1.7886703145     0.0261457825
| 16>  H        1.3256892677     4.0804012881     1.2530236770
| 17>  H        0.3714847710     2.7983317341     2.0858285733
| 18> *
| 19>
| 20>                          ****END OF INPUT****

CARTESIAN COORDINATES (ANGSTROEM)
---------------------------------
  O     -0.015830    0.056510   -0.037282
  C      0.049013    1.246988   -0.005549
  O     -1.043814    2.086358    0.007678
  C     -0.409602    3.401638    0.047290
  C      0.699645    3.264720   -1.019407
  C      1.222083    2.219517    0.029420
  C      0.682388    3.208512    1.123058
  H     -1.176386    4.171902    0.061322
  H      0.404452    2.905712   -2.007238
  H      1.344590    4.141950   -1.093110
  H      2.218881    1.788670    0.026146
  H      1.325689    4.080401    1.253024
  H      0.371485    2.798332    2.085829

 Total Charge           Charge          ....    0
 Multiplicity           Mult            ....    1
 Number of Electrons    NEL             ....   52
 Basis Dimension        Dim             ....  253

ORBITAL ENERGIES
----------------

  NO   OCC          E(Eh)            E(eV)
   0   2.0000     -20.596705      -560.4648
   1   2.0000     -20.545583      -559.0737
   2   2.0000     -11.377879      -309.6078
   3   2.0000     -11.317771      -307.9722
   4   2.0000     -11.273135      -306.7576
   5   2.0000     -11.261186      -306.4324
   6   2.0000     -11.261169      -306.4320
   7   2.0000      -1.459958       -39.7275
   8   2.0000      -1.372676       -37.3524
   9   2.0000      -1.160636       -31.5825
  10   2.0000      -0.961147       -26.1541
  11   2.0000      -0.939308       -25.5599
  12   2.0000      -0.820858       -22.3367
  13   2.0000      -0.768830       -20.9209
  14   2.0000      -0.711050       -19.3486
  15   2.0000      -0.686969       -18.6934
  16   2.0000      -0.655025       -17.8241
  17   2.0000      -0.629598       -17.1322
  18   2.0000      -0.580559       -15.7978
  19   2.0000      -0.551161       -14.9979
  20   2.0000      -0.550627       -14.9833
  21   2.0000      -0.545134       -14.8338
  22   2.0000      -0.497550       -13.5390
  23   2.0000      -0.484410       -13.1815
  24   2.0000      -0.443603       -12.0711
  25   2.0000      -0.427418       -11.6306
  26   0.0000       0.133521         3.6333
  27   0.0000       0.156859         4.2684
  28   0.0000       0.156863         4.2685
  29   0.0000       0.181458         4.9377
  30   0.0000       0.181785         4.9466

MULLIKEN ATOMIC CHARGES
-----------------------
   0 O :   -0.267728
   1 C :    0.227984
   2 O :   -0.247681
   3 C :    0.060497
   4 C :   -0.262117
   5 C :   -0.094742
   6 C :   -0.262116
   7 H :    0.145045
   8 H :    0.140931
   9 H :    0.134077
  10 H :    0.150842
  11 H :    0.134077
  12 H :    0.140931
Sum of atomic charges:    0.0000000

LOEWDIN ATOMIC CHARGES
----------------------
   0 O :    0.149961
   1 C :   -0.439780
   2 O :    0.246369
   3 C :   -0.235608
   4 C :   -0.187720
   5 C :   -0.176470
   6 C :   -0.187720
   7 H :    0.132723
   8 H :    0.135862
   9 H :    0.141572
  10 H :    0.143378
  11 H :    0.141572
  12 H :    0.135862

  Mayer bond orders larger than 0.1
B(  0-O ,  1-C ) :   2.0606 B(  1-C ,  2-O ) :   1.0848 B(  1-C ,  5-C ) :   0.9072
B(  2-O ,  3-C ) :   0.8403 B(  3-C ,  4-C ) :   0.9256 B(  3-C ,  6-C ) :   0.9256
B(  3-C ,  7-H ) :   0.9188 B(  4-C ,  5-C ) :   0.8912 B(  4-C ,  8-H ) :   0.9178
B(  4-C ,  9-H ) :   0.9251 B(  5-C ,  6-C ) :   0.8912 B(  5-C , 10-H ) :   0.9083
B(  6-C , 11-H ) :   0.9251 B(  6-C , 12-H ) :   0.9178

MP2 TOTAL ENERGY:     -343.906673576 Eh
FINAL SINGLE POINT ENERGY      -343.906673576436

DIPOLE MOMENT
-------------
                                X             Y             Z
Electronic contribution:     -2.61244      -4.68215      -0.14388
Nuclear contribution   :      3.35809       6.31223       0.19264
                        -----------------------------------------
Total Dipole Moment    :      0.74565       1.63007       0.04876
                        -----------------------------------------
Magnitude (a.u.)       :      1.79318
Magnitude (Debye)      :      4.55791

                             ****ORCA TERMINATED NORMALLY****
TOTAL RUN TIME: 0 days 0 hours 7 minutes 25 seconds 119 msec
