                         Program Version 3.0.3 - RELEASE   -
|  1> ! RI-MP2 RIJK def2-TZVP def2-TZVP/C def2-TZVP/JK TIGHTSCF
|  2> % maxcore 2000
|  3> % mp2 density relaxed end
|  4> *xyz 0 1
|  5>  O       -0.0891864880     1.3746261549    -0.0450867411
|  6>  C        0.0054854017    -0.0326110578     0.0173673393
|  7>  C        0.6325494839    -0.6006246384     1.3116464013
|  8>  C        0.1865802852    -2.0532106991     1.2656120073
|  9>  C       -1.0977324865    -2.0951059045     0.4222630501
| 10>  C       -1.3955930693    -0.6670766135    -0.0048058288
| 11>  C        0.1973110479    -2.6352895337    -0.1221301990
| 12>  O        0.8777871871    -2.0023628197    -1.1742684892
| 13>  C        0.7949060942    -0.5785536621    -1.1836753009
| 14>  H        0.8015236467     1.7388592607     0.0047326497
| 15>  H        1.7228312373    -0.4807147998     1.3267995358
| 16>  H        0.2171618686    -0.0827777798     2.1832985894
| 17>  H        0.3335646236    -2.6956371539     2.1266329036
| 18>  H       -1.9125275534    -2.7734514011     0.6485780005
| 19>  H       -2.0440977645    -0.1612402113     0.7186057197
| 20>  H       -1.8599721535    -0.5897715443    -0.9932146533
| 21>  H        0.3007433922    -3.7091523526    -0.2277486201
| 22>  H        0.3135764109    -0.2501582302    -2.1146268414
| 23>  H        1.8190252959    -0.1732731838    -1.1710551329
| 24> *
| 25>
| 26>                          ****END OF INPUT****

CARTESIAN COORDINATES (ANGSTROEM)
---------------------------------
  O     -0.089186    1.374626   -0.045087
  C      0.005485   -0.032611    0.017367
  C      0.632549   -0.600625    1.311646
  C      0.186580   -2.053211    1.265612
  C     -1.097732   -2.095106    0.422263
  C     -1.395593   -0.667077   -0.004806
  C      0.197311   -2.635290   -0.122130
  O      0.877787   -2.002363   -1.174268
  C      0.794906   -0.578554   -1.183675
  H      0.801524    1.738859    0.004733
  H      1.722831   -0.480715    1.326800
  H      0.217162   -0.082778    2.183299
  H      0.333565   -2.695637    2.126633
  H     -1.912528   -2.773451    0.648578
  H     -2.044098   -0.161240    0.718606
  H     -1.859972   -0.589772   -0.993215
  H      0.300743   -3.709152   -0.227749
  H      0.313576   -0.250158   -2.114627
  H      1.819025   -0.173273   -1.171055

 Total Charge           Charge          ....    0
 Multiplicity           Mult            ....    1
 Number of Electrons    NEL             ....   68
 Basis Dimension        Dim             ....  339

ORBITAL ENERGIES
----------------

  NO   OCC          E(Eh)            E(eV)
   0   2.0000     -20.565151      -559.6062
   1   2.0000     -20.557906      -559.4091
   2   2.0000     -11.289883      -307.2133
   3   2.0000     -11.282418      -307.0102
   4   2.0000     -11.275780      -306.8296
   5   2.0000     -11.231874      -305.6348
   6   2.0000     -11.231002      -305.6111
   7   2.0000     -11.228834      -305.5521
   8   2.0000     -11.224872      -305.4443
   9   2.0000      -1.386770       -37.7359
  10   2.0000      -1.368864       -37.2487
  11   2.0000      -1.169441       -31.8221
  12   2.0000      -1.048484       -28.5307
  13   2.0000      -0.975361       -26.5409
  14   2.0000      -0.916321       -24.9344
  15   2.0000      -0.839728       -22.8502
  16   2.0000      -0.773191       -21.0396
  17   2.0000      -0.734952       -19.9991
  18   2.0000      -0.725642       -19.7457
  19   2.0000      -0.664319       -18.0770
  20   2.0000      -0.655853       -17.8467
  21   2.0000      -0.633834       -17.2475
  22   2.0000      -0.613911       -16.7054
  23   2.0000      -0.583046       -15.8655
  24   2.0000      -0.566852       -15.4248
  25   2.0000      -0.550713       -14.9857
  26   2.0000      -0.537927       -14.6377
  27   2.0000      -0.516437       -14.0530
  28   2.0000      -0.509537       -13.8652
  29   2.0000      -0.498823       -13.5737
  30   2.0000      -0.454048       -12.3553
  31   2.0000      -0.430269       -11.7082
  32   2.0000      -0.391980       -10.6663
  33   2.0000      -0.367832       -10.0092
  34   0.0000       0.128598         3.4993
  35   0.0000       0.148261         4.0344
  36   0.0000       0.174306         4.7431
  37   0.0000       0.178064         4.8454
  38   0.0000       0.185468         5.0468

MULLIKEN ATOMIC CHARGES
-----------------------
   0 O :   -0.452668
   1 C :    0.186109
   2 C :   -0.244639
   3 C :   -0.155797
   4 C :   -0.160254
   5 C :   -0.202536
   6 C :    0.041841
   7 O :   -0.312312
   8 C :   -0.080438
   9 H :    0.318539
  10 H :    0.112394
  11 H :    0.122375
  12 H :    0.127799
  13 H :    0.127868
  14 H :    0.121780
  15 H :    0.121527
  16 H :    0.127598
  17 H :    0.110528
  18 H :    0.090287
Sum of atomic charges:    0.0000000

LOEWDIN ATOMIC CHARGES
----------------------
   0 O :    0.022258
   1 C :   -0.382326
   2 C :   -0.196350
   3 C :   -0.178262
   4 C :   -0.176101
   5 C :   -0.182553
   6 C :   -0.262709
   7 O :    0.183464
   8 C :   -0.264220
   9 H :    0.178960
  10 H :    0.139463
  11 H :    0.145640
  12 H :    0.141157
  13 H :    0.141959
  14 H :    0.147944
  15 H :    0.143861
  16 H :    0.145421
  17 H :    0.129093
  18 H :    0.123300

  Mayer bond orders larger than 0.1
B(  0-O ,  1-C ) :   0.9926 B(  0-O ,  9-H ) :   0.8387 B(  1-C ,  2-C ) :   0.9175
B(  1-C ,  5-C ) :   0.8883 B(  1-C ,  8-C ) :   0.9458 B(  2-C ,  3-C ) :   0.9419
B(  2-C , 10-H ) :   0.9142 B(  2-C , 11-H ) :   0.9170 B(  3-C ,  4-C ) :   0.8165
B(  3-C ,  6-C ) :   0.8706 B(  3-C , 12-H ) :   0.9141 B(  4-C ,  5-C ) :   0.9601
B(  4-C ,  6-C ) :   0.8719 B(  4-C , 13-H ) :   0.9218 B(  5-C , 14-H ) :   0.9156
B(  5-C , 15-H ) :   0.9236 B(  6-C ,  7-O ) :   0.9856 B(  6-C , 16-H ) :   0.9470
B(  7-O ,  8-C ) :   0.9343 B(  8-C , 17-H ) :   0.9231 B(  8-C , 18-H ) :   0.9085

MP2 TOTAL ENERGY:     -422.328108076 Eh
FINAL SINGLE POINT ENERGY      -422.328108075674

DIPOLE MOMENT
-------------
                                X             Y             Z
Electronic contribution:      0.77309      -0.57309      -1.58413
Nuclear contribution   :     -0.58935       0.58203       2.06761
                        -----------------------------------------
Total Dipole Moment    :      0.18374       0.00894       0.48348
                        -----------------------------------------
Magnitude (a.u.)       :      0.51729
Magnitude (Debye)      :      1.31484

                             ****ORCA TERMINATED NORMALLY****
TOTAL RUN TIME: 0 days 0 hours 19 minutes 2 seconds 482 msec
