                         Program Version 3.0.3 - RELEASE   -
|  1> ! RI-MP2 RIJK def2-TZVP def2-TZVP/C def2-TZVP/JK TIGHTSCF
|  2> % maxcore 2000
|  3> % mp2 density relaxed end
|  4> *xyz 0 1
|  5>  N       -0.0610520473     1.2926374995     0.0073518603
|  6>  C        0.0015336260     0.0285067463     0.0005804326
|  7>  C       -1.1783463312    -0.9419875704     0.0023806339
|  8>  N       -0.6180145814    -2.2991872852    -0.0077695464
|  9>  C        0.6516416192    -2.1406969674    -0.0141880746
| 10>  N        1.1104684769    -0.8297111439    -0.0100917291
| 11>  C        1.6013888856    -3.2178863458    -0.0251310306
| 12>  N        2.4019016125    -4.0509228382    -0.0339738683
| 13>  H        0.8604533041     1.7314994613     0.0043322975
| 14>  H       -1.8088830772    -0.8013103098     0.8865990685
| 15>  H       -1.8189815398    -0.7923122789    -0.8730562410
| 16>  H        2.0769860926    -0.5484025775    -0.0142831328
| 17> *
| 18>
| 19>                          ****END OF INPUT****

CARTESIAN COORDINATES (ANGSTROEM)
---------------------------------
  N     -0.061052    1.292637    0.007352
  C      0.001534    0.028507    0.000580
  C     -1.178346   -0.941988    0.002381
  N     -0.618015   -2.299187   -0.007770
  C      0.651642   -2.140697   -0.014188
  N      1.110468   -0.829711   -0.010092
  C      1.601389   -3.217886   -0.025131
  N      2.401902   -4.050923   -0.033974
  H      0.860453    1.731499    0.004332
  H     -1.808883   -0.801310    0.886599
  H     -1.818982   -0.792312   -0.873056
  H      2.076986   -0.548403   -0.014283

 Total Charge           Charge          ....    0
 Multiplicity           Mult            ....    1
 Number of Electrons    NEL             ....   56
 Basis Dimension        Dim             ....  272

ORBITAL ENERGIES
----------------

  NO   OCC          E(Eh)            E(eV)
   0   2.0000     -15.639934      -425.5842
   1   2.0000     -15.617617      -424.9770
   2   2.0000     -15.597857      -424.4393
   3   2.0000     -15.557032      -423.3284
   4   2.0000     -11.386897      -309.8532
   5   2.0000     -11.352021      -308.9042
   6   2.0000     -11.311478      -307.8010
   7   2.0000     -11.292122      -307.2743
   8   2.0000      -1.378392       -37.5080
   9   2.0000      -1.258258       -34.2389
  10   2.0000      -1.238685       -33.7063
  11   2.0000      -1.189076       -32.3564
  12   2.0000      -1.036262       -28.1981
  13   2.0000      -0.906061       -24.6552
  14   2.0000      -0.849944       -23.1281
  15   2.0000      -0.789547       -21.4847
  16   2.0000      -0.715833       -19.4788
  17   2.0000      -0.679258       -18.4835
  18   2.0000      -0.647342       -17.6151
  19   2.0000      -0.605033       -16.4638
  20   2.0000      -0.586780       -15.9671
  21   2.0000      -0.576481       -15.6869
  22   2.0000      -0.528478       -14.3806
  23   2.0000      -0.512974       -13.9587
  24   2.0000      -0.499849       -13.6016
  25   2.0000      -0.466422       -12.6920
  26   2.0000      -0.441863       -12.0237
  27   2.0000      -0.377388       -10.2692
  28   0.0000       0.066294         1.8039
  29   0.0000       0.103646         2.8204
  30   0.0000       0.147232         4.0064
  31   0.0000       0.151944         4.1346
  32   0.0000       0.156700         4.2640

MULLIKEN ATOMIC CHARGES
-----------------------
   0 N :   -0.348497
   1 C :    0.039859
   2 C :   -0.039351
   3 N :   -0.235536
   4 C :    0.333380
   5 N :   -0.327198
   6 C :   -0.178731
   7 N :   -0.028055
   8 H :    0.212660
   9 H :    0.157653
  10 H :    0.157654
  11 H :    0.256164
Sum of atomic charges:   -0.0000000

LOEWDIN ATOMIC CHARGES
----------------------
   0 N :   -0.058365
   1 C :   -0.348167
   2 C :   -0.217554
   3 N :    0.132562
   4 C :   -0.323697
   5 N :    0.164383
   6 C :   -0.127471
   7 N :    0.107638
   8 H :    0.163308
   9 H :    0.156239
  10 H :    0.156238
  11 H :    0.194886

  Mayer bond orders larger than 0.1
B(  0-N ,  1-C ) :   2.0741 B(  0-N ,  8-H ) :   0.8530 B(  1-C ,  2-C ) :   0.9201
B(  1-C ,  5-N ) :   1.0237 B(  2-C ,  3-N ) :   0.9238 B(  2-C ,  9-H ) :   0.9051
B(  2-C , 10-H ) :   0.9051 B(  3-N ,  4-C ) :   1.7774 B(  4-C ,  5-N ) :   1.0709
B(  4-C ,  6-C ) :   0.8766 B(  5-N , 11-H ) :   0.8593 B(  6-C ,  7-N ) :   2.8297

MP2 TOTAL ENERGY:     -373.088326300 Eh
FINAL SINGLE POINT ENERGY      -373.088326299520

DIPOLE MOMENT
-------------
                                X             Y             Z
Electronic contribution:      2.85071      -4.11208      -0.03725
Nuclear contribution   :     -2.44494       5.10673       0.04000
                        -----------------------------------------
Total Dipole Moment    :      0.40577       0.99464       0.00275
                        -----------------------------------------
Magnitude (a.u.)       :      1.07423
Magnitude (Debye)      :      2.73047

                             ****ORCA TERMINATED NORMALLY****
TOTAL RUN TIME: 0 days 0 hours 9 minutes 34 seconds 257 msec
