                         Program Version 3.0.3 - RELEASE   -
|  1> ! RI-MP2 RIJK def2-TZVP def2-TZVP/C def2-TZVP/JK TIGHTSCF
|  2> % maxcore 2000
|  3> % mp2 density relaxed end
|  4> *xyz 0 1
|  5>  C       -0.0677207485     1.4899771472    -0.2404363512
|  6>  C        0.0593836529     0.0285299130     0.1230794732
|  7>  N        1.2697673950    -0.8032529512    -0.0936539415
|  8>  C        2.4684016396     0.0537324334     0.2302717183
|  9>  C        1.9961371675     0.2856569764     1.6864162114
| 10>  C        0.7528604852    -0.5239577197     1.3090920843
| 11>  C        0.1299202863    -1.6050572295     2.1680744221
| 12>  C        1.1227444935    -2.4678874876     2.8114481667
| 13>  N        1.9225948440    -3.1263382454     3.3230700096
| 14>  H        0.7243550514     2.1128692285     0.1790709444
| 15>  H       -0.0577194489     1.6146861952    -1.3286074561
| 16>  H       -1.0226496639     1.8782135626     0.1283824287
| 17>  H       -0.8141217109    -0.5507026800    -0.1745111340
| 18>  H        3.3716643784    -0.5531798195     0.1557191000
| 19>  H        2.5785321701     0.9306871444    -0.4134037145
| 20>  H        2.6239689621    -0.2287008222     2.4157372918
| 21>  H        1.8306574225     1.3118413227     2.0266887766
| 22>  H       -0.4939634725    -1.1545719302     2.9509479777
| 23>  H       -0.5283713637    -2.2263218984     1.5516437023
| 24> *
| 25>
| 26>                          ****END OF INPUT****

CARTESIAN COORDINATES (ANGSTROEM)
---------------------------------
  C     -0.067721    1.489977   -0.240436
  C      0.059384    0.028530    0.123079
  N      1.269767   -0.803253   -0.093654
  C      2.468402    0.053732    0.230272
  C      1.996137    0.285657    1.686416
  C      0.752860   -0.523958    1.309092
  C      0.129920   -1.605057    2.168074
  C      1.122744   -2.467887    2.811448
  N      1.922595   -3.126338    3.323070
  H      0.724355    2.112869    0.179071
  H     -0.057719    1.614686   -1.328607
  H     -1.022650    1.878214    0.128382
  H     -0.814122   -0.550703   -0.174511
  H      3.371664   -0.553180    0.155719
  H      2.578532    0.930687   -0.413404
  H      2.623969   -0.228701    2.415737
  H      1.830657    1.311841    2.026689
  H     -0.493963   -1.154572    2.950948
  H     -0.528371   -2.226322    1.551644

 Total Charge           Charge          ....    0
 Multiplicity           Mult            ....    1
 Number of Electrons    NEL             ....   66
 Basis Dimension        Dim             ....  339

ORBITAL ENERGIES
----------------

  NO   OCC          E(Eh)            E(eV)
   0   2.0000     -15.568865      -423.6504
   1   2.0000     -15.568548      -423.6417
   2   2.0000     -11.288819      -307.1844
   3   2.0000     -11.288140      -307.1659
   4   2.0000     -11.276903      -306.8601
   5   2.0000     -11.273360      -306.7637
   6   2.0000     -11.263028      -306.4826
   7   2.0000     -11.242450      -305.9226
   8   2.0000     -11.236923      -305.7722
   9   2.0000      -1.304297       -35.4917
  10   2.0000      -1.217927       -33.1415
  11   2.0000      -1.063520       -28.9399
  12   2.0000      -1.038118       -28.2486
  13   2.0000      -0.988369       -26.8949
  14   2.0000      -0.917441       -24.9648
  15   2.0000      -0.791679       -21.5427
  16   2.0000      -0.755365       -20.5545
  17   2.0000      -0.700277       -19.0555
  18   2.0000      -0.687636       -18.7115
  19   2.0000      -0.650152       -17.6915
  20   2.0000      -0.637749       -17.3540
  21   2.0000      -0.599771       -16.3206
  22   2.0000      -0.588096       -16.0029
  23   2.0000      -0.575069       -15.6484
  24   2.0000      -0.555599       -15.1186
  25   2.0000      -0.535056       -14.5596
  26   2.0000      -0.532303       -14.4847
  27   2.0000      -0.495946       -13.4954
  28   2.0000      -0.463321       -12.6076
  29   2.0000      -0.462516       -12.5857
  30   2.0000      -0.452594       -12.3157
  31   2.0000      -0.427101       -11.6220
  32   2.0000      -0.376901       -10.2560
  33   0.0000       0.121800         3.3143
  34   0.0000       0.138643         3.7727
  35   0.0000       0.158254         4.3063
  36   0.0000       0.164399         4.4735
  37   0.0000       0.172843         4.7033

MULLIKEN ATOMIC CHARGES
-----------------------
   0 C :   -0.406961
   1 C :   -0.031782
   2 N :   -0.247730
   3 C :   -0.156831
   4 C :   -0.280370
   5 C :    0.088167
   6 C :   -0.110660
   7 C :   -0.196487
   8 N :   -0.059499
   9 H :    0.140090
  10 H :    0.146850
  11 H :    0.140660
  12 H :    0.114131
  13 H :    0.134416
  14 H :    0.121361
  15 H :    0.152176
  16 H :    0.130375
  17 H :    0.158780
  18 H :    0.163315
Sum of atomic charges:   -0.0000000

LOEWDIN ATOMIC CHARGES
----------------------
   0 C :   -0.291289
   1 C :   -0.248678
   2 N :    0.130912
   3 C :   -0.238971
   4 C :   -0.206692
   5 C :   -0.229672
   6 C :   -0.208093
   7 C :   -0.184942
   8 N :    0.057867
   9 H :    0.128164
  10 H :    0.132237
  11 H :    0.132588
  12 H :    0.153080
  13 H :    0.131497
  14 H :    0.121225
  15 H :    0.145976
  16 H :    0.129468
  17 H :    0.170922
  18 H :    0.174402

  Mayer bond orders larger than 0.1
B(  0-C ,  1-C ) :   0.8889 B(  0-C ,  9-H ) :   0.9390 B(  0-C , 10-H ) :   0.9364
B(  0-C , 11-H ) :   0.9284 B(  1-C ,  2-N ) :   0.9122 B(  1-C ,  5-C ) :   0.9374
B(  1-C , 12-H ) :   0.9218 B(  2-N ,  3-C ) :   0.9224 B(  2-N ,  5-C ) :   0.8466
B(  3-C ,  4-C ) :   0.9744 B(  3-C , 13-H ) :   0.9171 B(  3-C , 14-H ) :   0.9363
B(  4-C ,  5-C ) :   0.9006 B(  4-C , 15-H ) :   0.9169 B(  4-C , 16-H ) :   0.9214
B(  5-C ,  6-C ) :   0.8569 B(  6-C ,  7-C ) :   0.9308 B(  6-C , 17-H ) :   0.9100
B(  6-C , 18-H ) :   0.9035 B(  7-C ,  8-N ) :   2.8576

MP2 TOTAL ENERGY:     -381.367798444 Eh
FINAL SINGLE POINT ENERGY      -381.367798443979

DIPOLE MOMENT
-------------
                                X             Y             Z
Electronic contribution:      1.34812      -7.89550       4.11186
Nuclear contribution   :     -2.31901       9.43746      -4.48069
                        -----------------------------------------
Total Dipole Moment    :     -0.97088       1.54195      -0.36883
                        -----------------------------------------
Magnitude (a.u.)       :      1.85911
Magnitude (Debye)      :      4.72547

                             ****ORCA TERMINATED NORMALLY****
TOTAL RUN TIME: 0 days 0 hours 19 minutes 9 seconds 851 msec
