                         Program Version 3.0.3 - RELEASE   -
|  1> ! RI-MP2 RIJK def2-TZVP def2-TZVP/C def2-TZVP/JK TIGHTSCF
|  2> % maxcore 2000
|  3> % mp2 density relaxed end
|  4> *xyz 0 1
|  5>  C       -0.2279217281     1.4458230292    -0.1414701066
|  6>  N        0.0056987764     0.0148778488     0.0345660836
|  7>  C        1.3696606220    -0.4664418306    -0.1679446505
|  8>  C        0.7698594546    -0.4580761736     1.1932610427
|  9>  C        1.2925821726     0.4504624245     2.2767277620
| 10>  C        0.2794535736     0.8874290762     3.3133347592
| 11>  C        2.7173044009     0.3638086460     2.6426817096
| 12>  O        2.2250533855     1.4632988527     1.8711745236
| 13>  H        0.5967960156     2.0870802120     0.1953659308
| 14>  H       -0.4014703345     1.6345839152    -1.2058173606
| 15>  H       -1.1376379395     1.7306450462     0.3977721298
| 16>  H        1.4718661672    -1.3958089607    -0.7227053401
| 17>  H        2.1435001745     0.2760622803    -0.3531626758
| 18>  H        0.3833887439    -1.3945675521     1.5970801372
| 19>  H       -0.1686713076     0.0168420855     3.8039441970
| 20>  H        0.7513105040     1.5132951517     4.0748208999
| 21>  H       -0.5288588500     1.4603873221     2.8489898855
| 22>  H        3.0285634702     0.6126994820     3.6562844741
| 23>  H        3.3692187386    -0.3249506954     2.1081200983
| 24> *
| 25>
| 26>                          ****END OF INPUT****

CARTESIAN COORDINATES (ANGSTROEM)
---------------------------------
  C     -0.227922    1.445823   -0.141470
  N      0.005699    0.014878    0.034566
  C      1.369661   -0.466442   -0.167945
  C      0.769859   -0.458076    1.193261
  C      1.292582    0.450462    2.276728
  C      0.279454    0.887429    3.313335
  C      2.717304    0.363809    2.642682
  O      2.225053    1.463299    1.871175
  H      0.596796    2.087080    0.195366
  H     -0.401470    1.634584   -1.205817
  H     -1.137638    1.730645    0.397772
  H      1.471866   -1.395809   -0.722705
  H      2.143500    0.276062   -0.353163
  H      0.383389   -1.394568    1.597080
  H     -0.168671    0.016842    3.803944
  H      0.751311    1.513295    4.074821
  H     -0.528859    1.460387    2.848990
  H      3.028563    0.612699    3.656284
  H      3.369219   -0.324951    2.108120

 Total Charge           Charge          ....    0
 Multiplicity           Mult            ....    1
 Number of Electrons    NEL             ....   62
 Basis Dimension        Dim             ....  314

ORBITAL ENERGIES
----------------

  NO   OCC          E(Eh)            E(eV)
   0   2.0000     -20.570261      -559.7453
   1   2.0000     -15.555541      -423.2878
   2   2.0000     -11.299085      -307.4637
   3   2.0000     -11.284563      -307.0686
   4   2.0000     -11.261051      -306.4288
   5   2.0000     -11.248267      -306.0809
   6   2.0000     -11.237341      -305.7836
   7   2.0000     -11.227694      -305.5211
   8   2.0000      -1.415740       -38.5242
   9   2.0000      -1.266625       -34.4666
  10   2.0000      -1.030101       -28.0305
  11   2.0000      -0.986860       -26.8538
  12   2.0000      -0.914357       -24.8809
  13   2.0000      -0.874709       -23.8020
  14   2.0000      -0.824296       -22.4302
  15   2.0000      -0.759307       -20.6618
  16   2.0000      -0.699254       -19.0277
  17   2.0000      -0.658365       -17.9150
  18   2.0000      -0.652654       -17.7596
  19   2.0000      -0.602889       -16.4054
  20   2.0000      -0.590877       -16.0786
  21   2.0000      -0.570393       -15.5212
  22   2.0000      -0.561420       -15.2770
  23   2.0000      -0.548355       -14.9215
  24   2.0000      -0.529349       -14.4043
  25   2.0000      -0.510038       -13.8788
  26   2.0000      -0.476297       -12.9607
  27   2.0000      -0.467400       -12.7186
  28   2.0000      -0.436755       -11.8847
  29   2.0000      -0.421592       -11.4721
  30   2.0000      -0.364925        -9.9301
  31   0.0000       0.143369         3.9013
  32   0.0000       0.167408         4.5554
  33   0.0000       0.169286         4.6065
  34   0.0000       0.172724         4.7001
  35   0.0000       0.197501         5.3743

MULLIKEN ATOMIC CHARGES
-----------------------
   0 C :   -0.322736
   1 N :   -0.209857
   2 C :   -0.174949
   3 C :   -0.084917
   4 C :    0.206490
   5 C :   -0.423642
   6 C :   -0.095074
   7 O :   -0.349645
   8 H :    0.145597
   9 H :    0.138867
  10 H :    0.126988
  11 H :    0.124108
  12 H :    0.138122
  13 H :    0.120240
  14 H :    0.138350
  15 H :    0.140445
  16 H :    0.142313
  17 H :    0.118143
  18 H :    0.121158
Sum of atomic charges:   -0.0000000

LOEWDIN ATOMIC CHARGES
----------------------
   0 C :   -0.330663
   1 N :    0.090268
   2 C :   -0.240463
   3 C :   -0.229884
   4 C :   -0.342665
   5 C :   -0.260520
   6 C :   -0.239380
   7 O :    0.161143
   8 H :    0.114083
   9 H :    0.118706
  10 H :    0.114837
  11 H :    0.122635
  12 H :    0.131479
  13 H :    0.150167
  14 H :    0.132708
  15 H :    0.131875
  16 H :    0.130890
  17 H :    0.121541
  18 H :    0.123242

  Mayer bond orders larger than 0.1
B(  0-C ,  1-N ) :   0.8741 B(  0-C ,  8-H ) :   0.9281 B(  0-C ,  9-H ) :   0.9352
B(  0-C , 10-H ) :   0.9385 B(  1-N ,  2-C ) :   0.8956 B(  1-N ,  3-C ) :   0.9418
B(  2-C ,  3-C ) :   0.9439 B(  2-C , 11-H ) :   0.9163 B(  2-C , 12-H ) :   0.9103
B(  3-C ,  4-C ) :   0.9368 B(  3-C , 13-H ) :   0.9140 B(  4-C ,  5-C ) :   0.8918
B(  4-C ,  6-C ) :   0.9627 B(  4-C ,  7-O ) :   0.8091 B(  5-C , 14-H ) :   0.9385
B(  5-C , 15-H ) :   0.9358 B(  5-C , 16-H ) :   0.9356 B(  6-C ,  7-O ) :   0.9086
B(  6-C , 17-H ) :   0.9155 B(  6-C , 18-H ) :   0.9024

MP2 TOTAL ENERGY:     -364.386420035 Eh
FINAL SINGLE POINT ENERGY      -364.386420034856

DIPOLE MOMENT
-------------
                                X             Y             Z
Electronic contribution:      2.23521      -0.94921      -0.57073
Nuclear contribution   :     -1.98856       0.68299       1.11844
                        -----------------------------------------
Total Dipole Moment    :      0.24666      -0.26622       0.54771
                        -----------------------------------------
Magnitude (a.u.)       :      0.65704
Magnitude (Debye)      :      1.67006

                             ****ORCA TERMINATED NORMALLY****
TOTAL RUN TIME: 0 days 0 hours 12 minutes 38 seconds 199 msec
