                         Program Version 3.0.3 - RELEASE   -
|  1> ! RI-MP2 RIJK def2-TZVP def2-TZVP/C def2-TZVP/JK TIGHTSCF
|  2> % maxcore 2000
|  3> % mp2 density relaxed end
|  4> *xyz 0 1
|  5>  C       -0.0813588032     1.3319297925    -0.2067094981
|  6>  C        0.2018908698    -0.1311553599     0.0390980382
|  7>  C        1.6028270944    -0.6697678420     0.0387963752
|  8>  C        0.8179313507    -0.6374134250     1.3463195229
|  9>  C        1.2254186426     0.3384549996     2.3255697388
| 10>  C        1.5482490781     1.1345566585     3.1686107149
| 11>  C        0.2830471202    -1.9097944950     1.9606024331
| 12>  C        0.2401096255    -3.2265278384     1.2279644679
| 13>  C        1.2047859382    -3.0295061849     2.3712780096
| 14>  H        0.6760264890     1.9654676034     0.2621310691
| 15>  H       -0.0913100664     1.5487349517    -1.2806089638
| 16>  H       -1.0550023132     1.6209568344     0.2032485828
| 17>  H       -0.5475076001    -0.8121288305    -0.3562908320
| 18>  H        1.8003388699    -1.6322977953    -0.4194446207
| 19>  H        2.4173270217     0.0408030552    -0.0479345902
| 20>  H        1.8404500796     1.8371363732     3.9088247643
| 21>  H       -0.5534807617    -1.7255738488     2.6294428754
| 22>  H       -0.6279017280    -3.8573402577     1.3852497559
| 23>  H        0.6479311853    -3.2902309209     0.2251705264
| 24>  H        2.2550880976    -2.9226499239     2.1221565426
| 25>  H        1.0166669602    -3.5404836261     3.3087496679
| 26> *
| 27>
| 28>                          ****END OF INPUT****

CARTESIAN COORDINATES (ANGSTROEM)
---------------------------------
  C     -0.081359    1.331930   -0.206709
  C      0.201891   -0.131155    0.039098
  C      1.602827   -0.669768    0.038796
  C      0.817931   -0.637413    1.346320
  C      1.225419    0.338455    2.325570
  C      1.548249    1.134557    3.168611
  C      0.283047   -1.909794    1.960602
  C      0.240110   -3.226528    1.227964
  C      1.204786   -3.029506    2.371278
  H      0.676026    1.965468    0.262131
  H     -0.091310    1.548735   -1.280609
  H     -1.055002    1.620957    0.203249
  H     -0.547508   -0.812129   -0.356291
  H      1.800339   -1.632298   -0.419445
  H      2.417327    0.040803   -0.047935
  H      1.840450    1.837136    3.908825
  H     -0.553481   -1.725574    2.629443
  H     -0.627902   -3.857340    1.385250
  H      0.647931   -3.290231    0.225171
  H      2.255088   -2.922650    2.122157
  H      1.016667   -3.540484    3.308750

 Total Charge           Charge          ....    0
 Multiplicity           Mult            ....    1
 Number of Electrons    NEL             ....   66
 Basis Dimension        Dim             ....  351

ORBITAL ENERGIES
----------------

  NO   OCC          E(Eh)            E(eV)
   0   2.0000     -11.260189      -306.4053
   1   2.0000     -11.239396      -305.8395
   2   2.0000     -11.236879      -305.7710
   3   2.0000     -11.232191      -305.6434
   4   2.0000     -11.228501      -305.5430
   5   2.0000     -11.227199      -305.5076
   6   2.0000     -11.223118      -305.3966
   7   2.0000     -11.215662      -305.1937
   8   2.0000     -11.214215      -305.1543
   9   2.0000      -1.181752       -32.1571
  10   2.0000      -1.122178       -30.5360
  11   2.0000      -1.021241       -27.7894
  12   2.0000      -0.966172       -26.2909
  13   2.0000      -0.891213       -24.2512
  14   2.0000      -0.825063       -22.4511
  15   2.0000      -0.794210       -21.6115
  16   2.0000      -0.783578       -21.3223
  17   2.0000      -0.704649       -19.1745
  18   2.0000      -0.689349       -18.7581
  19   2.0000      -0.654334       -17.8053
  20   2.0000      -0.631512       -17.1843
  21   2.0000      -0.592000       -16.1091
  22   2.0000      -0.569431       -15.4950
  23   2.0000      -0.546231       -14.8637
  24   2.0000      -0.519626       -14.1397
  25   2.0000      -0.511553       -13.9201
  26   2.0000      -0.501957       -13.6589
  27   2.0000      -0.476003       -12.9527
  28   2.0000      -0.451257       -12.2793
  29   2.0000      -0.420298       -11.4369
  30   2.0000      -0.401794       -10.9334
  31   2.0000      -0.374560       -10.1923
  32   2.0000      -0.349167        -9.5013
  33   0.0000       0.145796         3.9673
  34   0.0000       0.152080         4.1383
  35   0.0000       0.159992         4.3536
  36   0.0000       0.165288         4.4977
  37   0.0000       0.172364         4.6903

MULLIKEN ATOMIC CHARGES
-----------------------
   0 C :   -0.413462
   1 C :   -0.068745
   2 C :   -0.296717
   3 C :   -0.092280
   4 C :   -0.002477
   5 C :   -0.121143
   6 C :   -0.103729
   7 C :   -0.267102
   8 C :   -0.268327
   9 H :    0.139726
  10 H :    0.133569
  11 H :    0.133212
  12 H :    0.127997
  13 H :    0.133944
  14 H :    0.135236
  15 H :    0.186361
  16 H :    0.122273
  17 H :    0.132005
  18 H :    0.124028
  19 H :    0.134101
  20 H :    0.131528
Sum of atomic charges:   -0.0000000

LOEWDIN ATOMIC CHARGES
----------------------
   0 C :   -0.287300
   1 C :   -0.193194
   2 C :   -0.164644
   3 C :   -0.202065
   4 C :   -0.062355
   5 C :   -0.101105
   6 C :   -0.176185
   7 C :   -0.225065
   8 C :   -0.215998
   9 H :    0.132720
  10 H :    0.126082
  11 H :    0.127637
  12 H :    0.154125
  13 H :    0.133281
  14 H :    0.142000
  15 H :    0.125605
  16 H :    0.156789
  17 H :    0.131678
  18 H :    0.130291
  19 H :    0.136869
  20 H :    0.130832

  Mayer bond orders larger than 0.1
B(  0-C ,  1-C ) :   0.9056 B(  0-C ,  9-H ) :   0.9340 B(  0-C , 10-H ) :   0.9392
B(  0-C , 11-H ) :   0.9399 B(  1-C ,  2-C ) :   0.9066 B(  1-C ,  3-C ) :   0.8262
B(  1-C , 12-H ) :   0.9211 B(  2-C ,  3-C ) :   0.8158 B(  2-C , 13-H ) :   0.9221
B(  2-C , 14-H ) :   0.9222 B(  3-C ,  4-C ) :   1.2270 B(  3-C ,  5-C ) :  -0.1479
B(  3-C ,  6-C ) :   0.9527 B(  4-C ,  5-C ) :   2.5539 B(  5-C , 15-H ) :   0.8852
B(  6-C ,  7-C ) :   0.8711 B(  6-C ,  8-C ) :   0.8722 B(  6-C , 16-H ) :   0.9291
B(  7-C ,  8-C ) :   0.9054 B(  7-C , 17-H ) :   0.9304 B(  7-C , 18-H ) :   0.9287
B(  8-C , 19-H ) :   0.9277 B(  8-C , 20-H ) :   0.9296

MP2 TOTAL ENERGY:     -349.239351097 Eh
FINAL SINGLE POINT ENERGY      -349.239351097382

DIPOLE MOMENT
-------------
                                X             Y             Z
Electronic contribution:      1.24320       1.30732       3.51580
Nuclear contribution   :     -1.36007      -1.43606      -3.73056
                        -----------------------------------------
Total Dipole Moment    :     -0.11687      -0.12874      -0.21476
                        -----------------------------------------
Magnitude (a.u.)       :      0.27632
Magnitude (Debye)      :      0.70235

                             ****ORCA TERMINATED NORMALLY****
TOTAL RUN TIME: 0 days 0 hours 21 minutes 30 seconds 182 msec
