                         Program Version 3.0.3 - RELEASE   -
|  1> ! RI-MP2 RIJK def2-TZVP def2-TZVP/C def2-TZVP/JK TIGHTSCF
|  2> % maxcore 2000
|  3> % mp2 density relaxed end
|  4> *xyz 0 1
|  5>  C       -0.1781664137     1.5502492733    -0.0224808178
|  6>  C        0.0784209147     0.0335863911     0.0368991187
|  7>  C        0.7872300407    -0.4796710553    -1.1794223927
|  8>  C        2.0411902796    -0.9380698553    -1.3036165579
|  9>  C        2.4038013152    -1.3673195016    -2.7035739019
| 10>  C        1.1220748638    -1.1048109914    -3.5170467878
| 11>  C        0.1118578463    -0.5476874418    -2.5046102252
| 12>  O       -1.0322074729    -0.2277838255    -2.7405859589
| 13>  H        0.7630668132     2.1061795381    -0.0816809598
| 14>  H       -0.7813787586     1.7999622664    -0.8985566675
| 15>  H       -0.7147276230     1.8849157071     0.8703809556
| 16>  H        0.6543557965    -0.2162736790     0.9346834285
| 17>  H       -0.8872983950    -0.4799992393     0.1172309449
| 18>  H        2.7534787530    -1.0097068588    -0.4867166614
| 19>  H        3.2650083359    -0.8006091163    -3.0783805657
| 20>  H        2.7064191574    -2.4214898433    -2.7246452423
| 21>  H        1.2655491657    -0.3773865957    -4.3215107109
| 22>  H        0.7129173014    -2.0074974026    -3.9798178179
| 23> *
| 24>
| 25>                          ****END OF INPUT****

CARTESIAN COORDINATES (ANGSTROEM)
---------------------------------
  C     -0.178166    1.550249   -0.022481
  C      0.078421    0.033586    0.036899
  C      0.787230   -0.479671   -1.179422
  C      2.041190   -0.938070   -1.303617
  C      2.403801   -1.367320   -2.703574
  C      1.122075   -1.104811   -3.517047
  C      0.111858   -0.547687   -2.504610
  O     -1.032207   -0.227784   -2.740586
  H      0.763067    2.106180   -0.081681
  H     -0.781379    1.799962   -0.898557
  H     -0.714728    1.884916    0.870381
  H      0.654356   -0.216274    0.934683
  H     -0.887298   -0.479999    0.117231
  H      2.753479   -1.009707   -0.486717
  H      3.265008   -0.800609   -3.078381
  H      2.706419   -2.421490   -2.724645
  H      1.265549   -0.377387   -4.321511
  H      0.712917   -2.007497   -3.979818

 Total Charge           Charge          ....    0
 Multiplicity           Mult            ....    1
 Number of Electrons    NEL             ....   60
 Basis Dimension        Dim             ....  308

ORBITAL ENERGIES
----------------

  NO   OCC          E(Eh)            E(eV)
   0   2.0000     -20.534156      -558.7628
   1   2.0000     -11.322679      -308.1058
   2   2.0000     -11.257071      -306.3205
   3   2.0000     -11.245705      -306.0112
   4   2.0000     -11.238545      -305.8164
   5   2.0000     -11.236969      -305.7735
   6   2.0000     -11.230168      -305.5884
   7   2.0000     -11.212264      -305.1012
   8   2.0000      -1.377352       -37.4797
   9   2.0000      -1.149624       -31.2829
  10   2.0000      -1.052215       -28.6322
  11   2.0000      -0.972441       -26.4615
  12   2.0000      -0.930268       -25.3139
  13   2.0000      -0.847436       -23.0599
  14   2.0000      -0.792259       -21.5585
  15   2.0000      -0.699186       -19.0258
  16   2.0000      -0.666651       -18.1405
  17   2.0000      -0.644860       -17.5475
  18   2.0000      -0.627622       -17.0785
  19   2.0000      -0.588305       -16.0086
  20   2.0000      -0.574708       -15.6386
  21   2.0000      -0.560392       -15.2490
  22   2.0000      -0.543806       -14.7977
  23   2.0000      -0.525048       -14.2873
  24   2.0000      -0.516378       -14.0514
  25   2.0000      -0.500190       -13.6109
  26   2.0000      -0.490746       -13.3539
  27   2.0000      -0.482427       -13.1275
  28   2.0000      -0.397981       -10.8296
  29   2.0000      -0.364822        -9.9273
  30   0.0000       0.101046         2.7496
  31   0.0000       0.132104         3.5947
  32   0.0000       0.151186         4.1140
  33   0.0000       0.162367         4.4182
  34   0.0000       0.175395         4.7727

MULLIKEN ATOMIC CHARGES
-----------------------
   0 C :   -0.408331
   1 C :   -0.190898
   2 C :   -0.019061
   3 C :   -0.164496
   4 C :   -0.159203
   5 C :   -0.234609
   6 C :    0.161064
   7 O :   -0.303730
   8 H :    0.121084
   9 H :    0.155162
  10 H :    0.130033
  11 H :    0.119076
  12 H :    0.125069
  13 H :    0.137161
  14 H :    0.126765
  15 H :    0.127257
  16 H :    0.138662
  17 H :    0.138997
Sum of atomic charges:   -0.0000000

LOEWDIN ATOMIC CHARGES
----------------------
   0 C :   -0.305860
   1 C :   -0.246516
   2 C :   -0.146046
   3 C :   -0.088728
   4 C :   -0.237934
   5 C :   -0.209038
   6 C :   -0.292044
   7 O :    0.135960
   8 H :    0.119690
   9 H :    0.128388
  10 H :    0.120980
  11 H :    0.141521
  12 H :    0.151697
  13 H :    0.140947
  14 H :    0.143022
  15 H :    0.143271
  16 H :    0.150440
  17 H :    0.150250

  Mayer bond orders larger than 0.1
B(  0-C ,  1-C ) :   0.9065 B(  0-C ,  8-H ) :   0.9368 B(  0-C ,  9-H ) :   0.9365
B(  0-C , 10-H ) :   0.9360 B(  1-C ,  2-C ) :   0.9003 B(  1-C , 11-H ) :   0.9488
B(  1-C , 12-H ) :   0.9201 B(  2-C ,  3-C ) :   1.6313 B(  2-C ,  6-C ) :   0.9132
B(  3-C ,  4-C ) :   0.9477 B(  3-C , 13-H ) :   0.9138 B(  4-C ,  5-C ) :   0.9481
B(  4-C , 14-H ) :   0.9125 B(  4-C , 15-H ) :   0.9096 B(  5-C ,  6-C ) :   0.9479
B(  5-C , 16-H ) :   0.9148 B(  5-C , 17-H ) :   0.9144 B(  6-C ,  7-O ) :   1.9903

MP2 TOTAL ENERGY:     -347.236916647 Eh
FINAL SINGLE POINT ENERGY      -347.236916646576

DIPOLE MOMENT
-------------
                                X             Y             Z
Electronic contribution:     -2.00455      -2.23715      -3.21899
Nuclear contribution   :      3.16876       1.93437       3.53694
                        -----------------------------------------
Total Dipole Moment    :      1.16421      -0.30278       0.31795
                        -----------------------------------------
Magnitude (a.u.)       :      1.24425
Magnitude (Debye)      :      3.16263

                             ****ORCA TERMINATED NORMALLY****
TOTAL RUN TIME: 0 days 0 hours 18 minutes 24 seconds 313 msec
