                         Program Version 3.0.3 - RELEASE   -
|  1> ! RI-MP2 RIJK def2-TZVP def2-TZVP/C def2-TZVP/JK TIGHTSCF
|  2> % maxcore 2000
|  3> % mp2 density relaxed end
|  4> *xyz 0 1
|  5>  C       -0.0557725287     1.5533155868    -0.0077613606
|  6>  C        0.0163254005     0.0282953639    -0.0114975233
|  7>  C        0.9237065626    -0.5669065340    -1.0871216066
|  8>  C        2.2789071867    -0.6645582216    -0.4179771146
|  9>  O        2.1628578703    -0.1832256841     0.9085503060
| 10>  C        0.8078697800    -0.5895278096     1.1732489393
| 11>  C        0.8272964163    -2.0903741867     0.8197024869
| 12>  C        1.4422505359    -1.9155235368    -0.5682956310
| 13>  C        1.8074325192    -3.0690705807    -1.4599995316
| 14>  H        0.9414562384     1.9836732784     0.1167758099
| 15>  H       -0.4762522899     1.9296890488    -0.9462176673
| 16>  H       -0.6894248904     1.9165641401     0.8088099909
| 17>  H       -0.9911611392    -0.4015893822    -0.0515131021
| 18>  H        0.8053226676    -0.3584096851    -2.1429728623
| 19>  H        3.2375687579    -0.4857144809    -0.8848420451
| 20>  H        0.5264839299    -0.2962226263     2.1831190219
| 21>  H        1.4684447326    -2.6675059043     1.4933556093
| 22>  H       -0.1731133523    -2.5336202203     0.8034838272
| 23>  H        0.9221252171    -3.6418778912    -1.7602239389
| 24>  H        2.2992959109    -2.7230806945    -2.3753509042
| 25>  H        2.4943152946    -3.7585974297    -0.9553775939
| 26> *
| 27>
| 28>                          ****END OF INPUT****

CARTESIAN COORDINATES (ANGSTROEM)
---------------------------------
  C     -0.055773    1.553316   -0.007761
  C      0.016325    0.028295   -0.011498
  C      0.923707   -0.566907   -1.087122
  C      2.278907   -0.664558   -0.417977
  O      2.162858   -0.183226    0.908550
  C      0.807870   -0.589528    1.173249
  C      0.827296   -2.090374    0.819702
  C      1.442251   -1.915524   -0.568296
  C      1.807433   -3.069071   -1.460000
  H      0.941456    1.983673    0.116776
  H     -0.476252    1.929689   -0.946218
  H     -0.689425    1.916564    0.808810
  H     -0.991161   -0.401589   -0.051513
  H      0.805323   -0.358410   -2.142973
  H      3.237569   -0.485714   -0.884842
  H      0.526484   -0.296223    2.183119
  H      1.468445   -2.667506    1.493356
  H     -0.173113   -2.533620    0.803484
  H      0.922125   -3.641878   -1.760224
  H      2.299296   -2.723081   -2.375351
  H      2.494315   -3.758597   -0.955378

 Total Charge           Charge          ....    0
 Multiplicity           Mult            ....    1
 Number of Electrons    NEL             ....   68
 Basis Dimension        Dim             ....  351

ORBITAL ENERGIES
----------------

  NO   OCC          E(Eh)            E(eV)
   0   2.0000     -20.550968      -559.2203
   1   2.0000     -11.275689      -306.8271
   2   2.0000     -11.271676      -306.7179
   3   2.0000     -11.234149      -305.6967
   4   2.0000     -11.228615      -305.5462
   5   2.0000     -11.224159      -305.4249
   6   2.0000     -11.222278      -305.3737
   7   2.0000     -11.221670      -305.3572
   8   2.0000     -11.208553      -305.0002
   9   2.0000      -1.391462       -37.8636
  10   2.0000      -1.152644       -31.3650
  11   2.0000      -1.045325       -28.4448
  12   2.0000      -1.001468       -27.2513
  13   2.0000      -0.959132       -26.0993
  14   2.0000      -0.882302       -24.0087
  15   2.0000      -0.788586       -21.4585
  16   2.0000      -0.772930       -21.0325
  17   2.0000      -0.738065       -20.0838
  18   2.0000      -0.692406       -18.8413
  19   2.0000      -0.642323       -17.4785
  20   2.0000      -0.620979       -16.8977
  21   2.0000      -0.588416       -16.0116
  22   2.0000      -0.562684       -15.3114
  23   2.0000      -0.557211       -15.1625
  24   2.0000      -0.555852       -15.1255
  25   2.0000      -0.546832       -14.8800
  26   2.0000      -0.539741       -14.6871
  27   2.0000      -0.508172       -13.8281
  28   2.0000      -0.494612       -13.4591
  29   2.0000      -0.479406       -13.0453
  30   2.0000      -0.466405       -12.6915
  31   2.0000      -0.434967       -11.8360
  32   2.0000      -0.386635       -10.5209
  33   2.0000      -0.363740        -9.8979
  34   0.0000       0.135428         3.6852
  35   0.0000       0.151104         4.1117
  36   0.0000       0.167670         4.5625
  37   0.0000       0.180314         4.9066
  38   0.0000       0.188572         5.1313

MULLIKEN ATOMIC CHARGES
-----------------------
   0 C :   -0.453717
   1 C :   -0.018310
   2 C :   -0.188644
   3 C :   -0.053256
   4 O :   -0.318584
   5 C :    0.055022
   6 C :   -0.205633
   7 C :    0.074571
   8 C :   -0.432642
   9 H :    0.152541
  10 H :    0.128702
  11 H :    0.126753
  12 H :    0.101624
  13 H :    0.130611
  14 H :    0.132873
  15 H :    0.133672
  16 H :    0.117801
  17 H :    0.115288
  18 H :    0.133897
  19 H :    0.131205
  20 H :    0.136226
Sum of atomic charges:   -0.0000000

LOEWDIN ATOMIC CHARGES
----------------------
   0 C :   -0.289196
   1 C :   -0.228990
   2 C :   -0.145936
   3 C :   -0.228447
   4 O :    0.200879
   5 C :   -0.250832
   6 C :   -0.184300
   7 C :   -0.225644
   8 C :   -0.270977
   9 H :    0.131449
  10 H :    0.123571
  11 H :    0.122666
  12 H :    0.153822
  13 H :    0.144716
  14 H :    0.138759
  15 H :    0.139464
  16 H :    0.141372
  17 H :    0.141171
  18 H :    0.127474
  19 H :    0.129861
  20 H :    0.129119

  Mayer bond orders larger than 0.1
B(  0-C ,  1-C ) :   0.8810 B(  0-C ,  9-H ) :   0.9408 B(  0-C , 10-H ) :   0.9390
B(  0-C , 11-H ) :   0.9386 B(  1-C ,  2-C ) :   0.9184 B(  1-C ,  5-C ) :   0.9186
B(  1-C , 12-H ) :   0.9199 B(  2-C ,  3-C ) :   0.8829 B(  2-C ,  7-C ) :   0.8039
B(  2-C , 13-H ) :   0.9229 B(  3-C ,  4-O ) :   0.9793 B(  3-C ,  7-C ) :   0.8571
B(  3-C , 14-H ) :   0.9331 B(  4-O ,  5-C ) :   0.8944 B(  5-C ,  6-C ) :   0.9506
B(  5-C , 15-H ) :   0.9119 B(  6-C ,  7-C ) :   0.9600 B(  6-C , 16-H ) :   0.9158
B(  6-C , 17-H ) :   0.9225 B(  7-C ,  8-C ) :   0.8699 B(  8-C , 18-H ) :   0.9433
B(  8-C , 19-H ) :   0.9396 B(  8-C , 20-H ) :   0.9429

MP2 TOTAL ENERGY:     -386.428254504 Eh
FINAL SINGLE POINT ENERGY      -386.428254504284

DIPOLE MOMENT
-------------
                                X             Y             Z
Electronic contribution:      2.69340       0.76552       2.40363
Nuclear contribution   :     -3.10827      -1.10612      -2.74748
                        -----------------------------------------
Total Dipole Moment    :     -0.41488      -0.34060      -0.34385
                        -----------------------------------------
Magnitude (a.u.)       :      0.63747
Magnitude (Debye)      :      1.62031

                             ****ORCA TERMINATED NORMALLY****
TOTAL RUN TIME: 0 days 0 hours 19 minutes 50 seconds 792 msec
