                         Program Version 3.0.3 - RELEASE   -
|  1> ! RI-MP2 RIJK def2-TZVP def2-TZVP/C def2-TZVP/JK TIGHTSCF
|  2> % maxcore 2000
|  3> % mp2 density relaxed end
|  4> *xyz 0 1
|  5>  C       -0.0344842753     1.4352413171     0.0235349429
|  6>  N        0.0338378637    -0.0081665734     0.0112972487
|  7>  C        0.0404959587    -0.7895726622    -1.1041216443
|  8>  O        0.0041036771    -0.1723025899    -2.3168513875
|  9>  C        0.0817249805    -2.1148790056    -0.7459959966
| 10>  C        0.0935355932    -2.1402856649     0.6856113583
| 11>  N        0.2156034528    -3.3201678796     1.4534583493
| 12>  C        0.0522406608    -0.8425233857     1.1417162693
| 13>  C        0.0533481259    -0.2867050019     2.5248194697
| 14>  H        0.7677133460     1.8580812259     0.6373293159
| 15>  H        0.0788914434     1.7993230440    -0.9974562659
| 16>  H       -0.9941909990     1.7931175685     0.4161877851
| 17>  H        0.1010862983    -0.8469495388    -2.9947935370
| 18>  H        0.1211919191    -2.9633074345    -1.4119187460
| 19>  H       -0.3980128070    -4.0514425234     1.1121885640
| 20>  H       -0.0008795280    -3.1618198017     2.4302013819
| 21>  H        0.9941274410     0.2139209126     2.7961637255
| 22>  H       -0.7542707685     0.4391126820     2.6887169338
| 23>  H       -0.0944339326    -1.0906401985     3.2525495930
| 24> *
| 25>
| 26>                          ****END OF INPUT****

CARTESIAN COORDINATES (ANGSTROEM)
---------------------------------
  C     -0.034484    1.435241    0.023535
  N      0.033838   -0.008167    0.011297
  C      0.040496   -0.789573   -1.104122
  O      0.004104   -0.172303   -2.316851
  C      0.081725   -2.114879   -0.745996
  C      0.093536   -2.140286    0.685611
  N      0.215603   -3.320168    1.453458
  C      0.052241   -0.842523    1.141716
  C      0.053348   -0.286705    2.524819
  H      0.767713    1.858081    0.637329
  H      0.078891    1.799323   -0.997456
  H     -0.994191    1.793118    0.416188
  H      0.101086   -0.846950   -2.994794
  H      0.121192   -2.963307   -1.411919
  H     -0.398013   -4.051443    1.112189
  H     -0.000880   -3.161820    2.430201
  H      0.994127    0.213921    2.796164
  H     -0.754271    0.439113    2.688717
  H     -0.094434   -1.090640    3.252550

 Total Charge           Charge          ....    0
 Multiplicity           Mult            ....    1
 Number of Electrons    NEL             ....   68
 Basis Dimension        Dim             ....  339

ORBITAL ENERGIES
----------------

  NO   OCC          E(Eh)            E(eV)
   0   2.0000     -20.594578      -560.4070
   1   2.0000     -15.587193      -424.1491
   2   2.0000     -15.545206      -423.0066
   3   2.0000     -11.313506      -307.8562
   4   2.0000     -11.259976      -306.3995
   5   2.0000     -11.239579      -305.8445
   6   2.0000     -11.226379      -305.4853
   7   2.0000     -11.224089      -305.4230
   8   2.0000     -11.190481      -304.5085
   9   2.0000      -1.415915       -38.5290
  10   2.0000      -1.280878       -34.8545
  11   2.0000      -1.185444       -32.2576
  12   2.0000      -1.051955       -28.6251
  13   2.0000      -1.013038       -27.5662
  14   2.0000      -0.918857       -25.0034
  15   2.0000      -0.895845       -24.3772
  16   2.0000      -0.797125       -21.6909
  17   2.0000      -0.736662       -20.0456
  18   2.0000      -0.709559       -19.3081
  19   2.0000      -0.667766       -18.1708
  20   2.0000      -0.643294       -17.5049
  21   2.0000      -0.638433       -17.3726
  22   2.0000      -0.607225       -16.5234
  23   2.0000      -0.584475       -15.9044
  24   2.0000      -0.578531       -15.7426
  25   2.0000      -0.560943       -15.2640
  26   2.0000      -0.550350       -14.9758
  27   2.0000      -0.545114       -14.8333
  28   2.0000      -0.523066       -14.2334
  29   2.0000      -0.505155       -13.7460
  30   2.0000      -0.494982       -13.4691
  31   2.0000      -0.445376       -12.1193
  32   2.0000      -0.310727        -8.4553
  33   2.0000      -0.255848        -6.9620
  34   0.0000       0.128128         3.4865
  35   0.0000       0.140626         3.8266
  36   0.0000       0.153558         4.1785
  37   0.0000       0.183344         4.9891
  38   0.0000       0.198836         5.4106

MULLIKEN ATOMIC CHARGES
-----------------------
   0 C :   -0.344402
   1 N :   -0.016881
   2 C :    0.228304
   3 O :   -0.456926
   4 C :   -0.358168
   5 C :    0.158199
   6 N :   -0.522455
   7 C :   -0.056040
   8 C :   -0.427211
   9 H :    0.143339
  10 H :    0.174554
  11 H :    0.142019
  12 H :    0.341030
  13 H :    0.124166
  14 H :    0.242933
  15 H :    0.223272
  16 H :    0.145405
  17 H :    0.138642
  18 H :    0.120222
Sum of atomic charges:    0.0000000

LOEWDIN ATOMIC CHARGES
----------------------
   0 C :   -0.275083
   1 N :    0.249102
   2 C :   -0.352930
   3 O :    0.055451
   4 C :   -0.200307
   5 C :   -0.265972
   6 N :   -0.106139
   7 C :   -0.233894
   8 C :   -0.287585
   9 H :    0.122442
  10 H :    0.133311
  11 H :    0.119678
  12 H :    0.198670
  13 H :    0.135299
  14 H :    0.164210
  15 H :    0.158726
  16 H :    0.127036
  17 H :    0.127884
  18 H :    0.130100

  Mayer bond orders larger than 0.1
B(  0-C ,  1-N ) :   0.8686 B(  0-C ,  9-H ) :   0.9308 B(  0-C , 10-H ) :   0.9276
B(  0-C , 11-H ) :   0.9308 B(  1-N ,  2-C ) :   1.1647 B(  1-N ,  7-C ) :   1.0817
B(  2-C ,  3-O ) :   1.0743 B(  2-C ,  4-C ) :   1.4589 B(  3-O , 12-H ) :   0.8314
B(  4-C ,  5-C ) :   1.2317 B(  4-C , 13-H ) :   0.9038 B(  5-C ,  6-N ) :   0.9710
B(  5-C ,  7-C ) :   1.4971 B(  6-N , 14-H ) :   0.8816 B(  6-N , 15-H ) :   0.8880
B(  7-C ,  8-C ) :   0.8663 B(  8-C , 16-H ) :   0.9442 B(  8-C , 17-H ) :   0.9392
B(  8-C , 18-H ) :   0.9429

MP2 TOTAL ENERGY:     -418.527842623 Eh
FINAL SINGLE POINT ENERGY      -418.527842622594

DIPOLE MOMENT
-------------
                                X             Y             Z
Electronic contribution:      0.26727      -2.46659      -5.79457
Nuclear contribution   :     -0.67521       2.71812       5.78889
                        -----------------------------------------
Total Dipole Moment    :     -0.40795       0.25153      -0.00567
                        -----------------------------------------
Magnitude (a.u.)       :      0.47929
Magnitude (Debye)      :      1.21826

                             ****ORCA TERMINATED NORMALLY****
TOTAL RUN TIME: 0 days 0 hours 18 minutes 34 seconds 238 msec
