                         Program Version 3.0.3 - RELEASE   -
|  1> ! RI-MP2 RIJK def2-TZVP def2-TZVP/C def2-TZVP/JK TIGHTSCF
|  2> % maxcore 2000
|  3> % mp2 density relaxed end
|  4> *xyz 0 1
|  5>  N        0.0991011138     1.4278771922     0.1136362826
|  6>  C        0.0086114328     0.0291293991     0.0086208693
|  7>  C       -1.0421312160    -0.8298550840     0.0056251284
|  8>  O       -0.6108427887    -2.1073549914    -0.0350301778
|  9>  N        0.7856641152    -2.1122952139    -0.0673782277
| 10>  C        1.1397995803    -0.8487536917    -0.0380894588
| 11>  N        2.4598171505    -0.4282709850    -0.1150738123
| 12>  H        0.6498853012     1.8239393569    -0.6415118390
| 13>  H       -0.8085958638     1.8759647772     0.1188172599
| 14>  H       -2.1115295219    -0.6901342607     0.0341592516
| 15>  H        3.1156611428    -1.1862495550     0.0254712999
| 16>  H        2.6554304338     0.3449579561     0.5091807641
| 17> *
| 18>
| 19>                          ****END OF INPUT****

CARTESIAN COORDINATES (ANGSTROEM)
---------------------------------
  N      0.099101    1.427877    0.113636
  C      0.008611    0.029129    0.008621
  C     -1.042131   -0.829855    0.005625
  O     -0.610843   -2.107355   -0.035030
  N      0.785664   -2.112295   -0.067378
  C      1.139800   -0.848754   -0.038089
  N      2.459817   -0.428271   -0.115074
  H      0.649885    1.823939   -0.641512
  H     -0.808596    1.875965    0.118817
  H     -2.111530   -0.690134    0.034159
  H      3.115661   -1.186250    0.025471
  H      2.655430    0.344958    0.509181

 Total Charge           Charge          ....    0
 Multiplicity           Mult            ....    1
 Number of Electrons    NEL             ....   52
 Basis Dimension        Dim             ....  247

ORBITAL ENERGIES
----------------

  NO   OCC          E(Eh)            E(eV)
   0   2.0000     -20.624666      -561.2257
   1   2.0000     -15.597824      -424.4384
   2   2.0000     -15.581159      -423.9849
   3   2.0000     -15.579933      -423.9515
   4   2.0000     -11.309390      -307.7442
   5   2.0000     -11.298618      -307.4510
   6   2.0000     -11.272402      -306.7376
   7   2.0000      -1.473641       -40.0998
   8   2.0000      -1.254793       -34.1446
   9   2.0000      -1.214450       -33.0469
  10   2.0000      -1.111173       -30.2366
  11   2.0000      -1.034236       -28.1430
  12   2.0000      -0.835095       -22.7241
  13   2.0000      -0.798803       -21.7365
  14   2.0000      -0.726903       -19.7800
  15   2.0000      -0.690864       -18.7994
  16   2.0000      -0.680082       -18.5060
  17   2.0000      -0.663151       -18.0453
  18   2.0000      -0.635142       -17.2831
  19   2.0000      -0.586021       -15.9464
  20   2.0000      -0.557958       -15.1828
  21   2.0000      -0.519471       -14.1355
  22   2.0000      -0.490759       -13.3542
  23   2.0000      -0.464735       -12.6461
  24   2.0000      -0.362365        -9.8605
  25   2.0000      -0.333075        -9.0634
  26   0.0000       0.118310         3.2194
  27   0.0000       0.136319         3.7094
  28   0.0000       0.147470         4.0129
  29   0.0000       0.172948         4.7061
  30   0.0000       0.191720         5.2170

MULLIKEN ATOMIC CHARGES
-----------------------
   0 N :   -0.562698
   1 C :    0.040367
   2 C :   -0.033188
   3 O :   -0.120812
   4 N :   -0.159307
   5 C :    0.186142
   6 N :   -0.535979
   7 H :    0.264852
   8 H :    0.247699
   9 H :    0.150003
  10 H :    0.258421
  11 H :    0.264499
Sum of atomic charges:   -0.0000000

LOEWDIN ATOMIC CHARGES
----------------------
   0 N :   -0.098302
   1 C :   -0.283503
   2 C :   -0.269266
   3 O :    0.253815
   4 N :    0.020848
   5 C :   -0.377637
   6 N :   -0.073503
   7 H :    0.173114
   8 H :    0.169174
   9 H :    0.134525
  10 H :    0.175631
  11 H :    0.175105

  Mayer bond orders larger than 0.1
B(  0-N ,  1-C ) :   0.9796 B(  0-N ,  7-H ) :   0.8669 B(  0-N ,  8-H ) :   0.8831
B(  1-C ,  2-C ) :   1.5449 B(  1-C ,  5-C ) :   1.1741 B(  2-C ,  3-O ) :   1.0955
B(  2-C ,  4-N ) :   0.1033 B(  2-C ,  9-H ) :   0.9272 B(  3-O ,  4-N ) :   0.8705
B(  4-N ,  5-C ) :   1.6051 B(  5-C ,  6-N ) :   1.0520 B(  6-N , 10-H ) :   0.8733
B(  6-N , 11-H ) :   0.8628

MP2 TOTAL ENERGY:     -356.099714283 Eh
FINAL SINGLE POINT ENERGY      -356.099714283366

DIPOLE MOMENT
-------------
                                X             Y             Z
Electronic contribution:     -1.37321      -3.77504      -0.08126
Nuclear contribution   :      1.29804       5.18647       0.12644
                        -----------------------------------------
Total Dipole Moment    :     -0.07517       1.41144       0.04518
                        -----------------------------------------
Magnitude (a.u.)       :      1.41416
Magnitude (Debye)      :      3.59451

                             ****ORCA TERMINATED NORMALLY****
TOTAL RUN TIME: 0 days 0 hours 6 minutes 39 seconds 607 msec
