                         Program Version 3.0.3 - RELEASE   -
|  1> ! RI-MP2 RIJK def2-TZVP def2-TZVP/C def2-TZVP/JK TIGHTSCF
|  2> % maxcore 2000
|  3> % mp2 density relaxed end
|  4> *xyz 0 1
|  5>  O       -0.1944995702     1.3826899429    -0.0023959141
|  6>  C        0.0263775986     0.0008240422     0.0044565684
|  7>  C        0.9604088552    -0.7098049088    -1.0177922502
|  8>  N        1.2287365266    -1.7536446753     0.0341677340
|  9>  C        0.9006667243    -0.7042728454     1.0672522482
| 10>  C        0.1556217969    -2.7691633821     0.0002564498
| 11>  C       -1.2501037354    -2.1765431999    -0.0867413348
| 12>  O       -1.7374143992    -1.4662034471     1.0649900144
| 13>  C       -1.3218129717    -0.7101880053    -0.0736526821
| 14>  H        0.6587858070     1.8263612297     0.0494827184
| 15>  H        0.5372537116    -1.0751648184    -1.9585075301
| 16>  H        1.8793874668    -0.1480215482    -1.2199286785
| 17>  H        1.8055164243    -0.1336853360     1.3071080105
| 18>  H        0.4209226926    -1.0616104947     1.9777909701
| 19>  H        0.3231501200    -3.4051672626    -0.8768488300
| 20>  H        0.2494352606    -3.4060147873     0.8867008449
| 21>  H       -2.0119507920    -2.7614835923    -0.6010936138
| 22>  H       -2.1078206957    -0.1645487614    -0.5917032348
| 23> *
| 24>
| 25>                          ****END OF INPUT****

CARTESIAN COORDINATES (ANGSTROEM)
---------------------------------
  O     -0.194500    1.382690   -0.002396
  C      0.026378    0.000824    0.004457
  C      0.960409   -0.709805   -1.017792
  N      1.228737   -1.753645    0.034168
  C      0.900667   -0.704273    1.067252
  C      0.155622   -2.769163    0.000256
  C     -1.250104   -2.176543   -0.086741
  O     -1.737414   -1.466203    1.064990
  C     -1.321813   -0.710188   -0.073653
  H      0.658786    1.826361    0.049483
  H      0.537254   -1.075165   -1.958508
  H      1.879387   -0.148022   -1.219929
  H      1.805516   -0.133685    1.307108
  H      0.420923   -1.061610    1.977791
  H      0.323150   -3.405167   -0.876849
  H      0.249435   -3.406015    0.886701
  H     -2.011951   -2.761484   -0.601094
  H     -2.107821   -0.164549   -0.591703

 Total Charge           Charge          ....    0
 Multiplicity           Mult            ....    1
 Number of Electrons    NEL             ....   68
 Basis Dimension        Dim             ....  333

ORBITAL ENERGIES
----------------

  NO   OCC          E(Eh)            E(eV)
   0   2.0000     -20.572799      -559.8143
   1   2.0000     -20.569428      -559.7226
   2   2.0000     -15.561645      -423.4539
   3   2.0000     -11.300294      -307.4966
   4   2.0000     -11.289003      -307.1894
   5   2.0000     -11.287778      -307.1561
   6   2.0000     -11.261887      -306.4515
   7   2.0000     -11.261414      -306.4387
   8   2.0000     -11.254659      -306.2548
   9   2.0000      -1.418355       -38.5954
  10   2.0000      -1.382128       -37.6096
  11   2.0000      -1.256792       -34.1990
  12   2.0000      -1.032925       -28.1073
  13   2.0000      -0.982956       -26.7476
  14   2.0000      -0.927343       -25.2343
  15   2.0000      -0.865203       -23.5434
  16   2.0000      -0.837809       -22.7979
  17   2.0000      -0.743523       -20.2323
  18   2.0000      -0.732533       -19.9332
  19   2.0000      -0.686760       -18.6877
  20   2.0000      -0.655223       -17.8295
  21   2.0000      -0.636700       -17.3255
  22   2.0000      -0.622569       -16.9410
  23   2.0000      -0.588801       -16.0221
  24   2.0000      -0.574454       -15.6317
  25   2.0000      -0.557935       -15.1822
  26   2.0000      -0.546321       -14.8662
  27   2.0000      -0.528278       -14.3752
  28   2.0000      -0.506335       -13.7781
  29   2.0000      -0.484375       -13.1805
  30   2.0000      -0.451780       -12.2935
  31   2.0000      -0.443094       -12.0572
  32   2.0000      -0.415413       -11.3040
  33   2.0000      -0.367054        -9.9880
  34   0.0000       0.129442         3.5223
  35   0.0000       0.146551         3.9879
  36   0.0000       0.171529         4.6675
  37   0.0000       0.181682         4.9438
  38   0.0000       0.187845         5.1115

MULLIKEN ATOMIC CHARGES
-----------------------
   0 O :   -0.442960
   1 C :    0.280967
   2 C :   -0.233963
   3 N :   -0.160883
   4 C :   -0.244926
   5 C :   -0.146778
   6 C :    0.010525
   7 O :   -0.322101
   8 C :   -0.080297
   9 H :    0.320390
  10 H :    0.122492
  11 H :    0.121043
  12 H :    0.118121
  13 H :    0.147341
  14 H :    0.130956
  15 H :    0.132171
  16 H :    0.120782
  17 H :    0.127122
Sum of atomic charges:   -0.0000000

LOEWDIN ATOMIC CHARGES
----------------------
   0 O :    0.022759
   1 C :   -0.369685
   2 C :   -0.211961
   3 N :    0.083270
   4 C :   -0.209258
   5 C :   -0.273381
   6 C :   -0.258711
   7 O :    0.170101
   8 C :   -0.220255
   9 H :    0.180232
  10 H :    0.127519
  11 H :    0.130288
  12 H :    0.130102
  13 H :    0.133295
  14 H :    0.141904
  15 H :    0.142287
  16 H :    0.136432
  17 H :    0.145061

  Mayer bond orders larger than 0.1
B(  0-O ,  1-C ) :   1.0323 B(  0-O ,  9-H ) :   0.8361 B(  1-C ,  2-C ) :   0.8975
B(  1-C ,  4-C ) :   0.9158 B(  1-C ,  8-C ) :   0.8340 B(  2-C ,  3-N ) :   0.9108
B(  2-C , 10-H ) :   0.9261 B(  2-C , 11-H ) :   0.9066 B(  3-N ,  4-C ) :   0.9142
B(  3-N ,  5-C ) :   0.9448 B(  4-C , 12-H ) :   0.9036 B(  4-C , 13-H ) :   0.9181
B(  5-C ,  6-C ) :   0.9058 B(  5-C , 14-H ) :   0.9313 B(  5-C , 15-H ) :   0.9194
B(  6-C ,  7-O ) :   0.9075 B(  6-C ,  8-C ) :   0.9705 B(  6-C , 16-H ) :   0.9240
B(  7-O ,  8-C ) :   0.9459 B(  8-C , 17-H ) :   0.9355

MP2 TOTAL ENERGY:     -438.321227460 Eh
FINAL SINGLE POINT ENERGY      -438.321227459897

DIPOLE MOMENT
-------------
                                X             Y             Z
Electronic contribution:     -2.45103       1.63367       1.35182
Nuclear contribution   :      2.84348      -1.61801      -1.95910
                        -----------------------------------------
Total Dipole Moment    :      0.39245       0.01566      -0.60728
                        -----------------------------------------
Magnitude (a.u.)       :      0.72322
Magnitude (Debye)      :      1.83828

                             ****ORCA TERMINATED NORMALLY****
TOTAL RUN TIME: 0 days 0 hours 18 minutes 43 seconds 779 msec
