                         Program Version 3.0.3 - RELEASE   -
|  1> ! RI-MP2 RIJK def2-TZVP def2-TZVP/C def2-TZVP/JK TIGHTSCF
|  2> % maxcore 2000
|  3> % mp2 density relaxed end
|  4> *xyz 0 1
|  5>  C       -0.0479632469     1.4455846908    -0.0163841365
|  6>  C        0.0042127751    -0.0690868853     0.0117652891
|  7>  O       -1.3546668453    -0.5434213221    -0.0216458425
|  8>  C       -1.5530871333    -1.8527276826    -0.0061710523
|  9>  N       -2.7022089879    -2.4430077836    -0.0340314871
| 10>  C       -2.3783768027    -3.8035941319     0.0001549148
| 11>  C       -3.4367068339    -4.8524832359    -0.0167123439
| 12>  C       -1.0348145730    -3.9391706065     0.0462202366
| 13>  O       -0.4770498044    -2.6687381608     0.0429559496
| 14>  H        0.9678786167     1.8504814952     0.0078065705
| 15>  H       -0.5420020022     1.7993235368    -0.9251673074
| 16>  H       -0.5965623945     1.8303712536     0.8473721605
| 17>  H        0.5477357764    -0.4706893930    -0.8506154000
| 18>  H        0.4933903863    -0.4396385068     0.9193941888
| 19>  H       -4.0480899470    -4.7731068892    -0.9218731664
| 20>  H       -2.9998749999    -5.8537963132     0.0191730004
| 21>  H       -4.1112204787    -4.7373534102     0.8383254981
| 22>  H       -0.3435902548    -4.7621926454     0.0828404576
| 23> *
| 24>
| 25>                          ****END OF INPUT****

CARTESIAN COORDINATES (ANGSTROEM)
---------------------------------
  C     -0.047963    1.445585   -0.016384
  C      0.004213   -0.069087    0.011765
  O     -1.354667   -0.543421   -0.021646
  C     -1.553087   -1.852728   -0.006171
  N     -2.702209   -2.443008   -0.034031
  C     -2.378377   -3.803594    0.000155
  C     -3.436707   -4.852483   -0.016712
  C     -1.034815   -3.939171    0.046220
  O     -0.477050   -2.668738    0.042956
  H      0.967879    1.850481    0.007807
  H     -0.542002    1.799324   -0.925167
  H     -0.596562    1.830371    0.847372
  H      0.547736   -0.470689   -0.850615
  H      0.493390   -0.439639    0.919394
  H     -4.048090   -4.773107   -0.921873
  H     -2.999875   -5.853796    0.019173
  H     -4.111220   -4.737353    0.838325
  H     -0.343590   -4.762193    0.082840

 Total Charge           Charge          ....    0
 Multiplicity           Mult            ....    1
 Number of Electrons    NEL             ....   68
 Basis Dimension        Dim             ....  333

ORBITAL ENERGIES
----------------

  NO   OCC          E(Eh)            E(eV)
   0   2.0000     -20.632048      -561.4266
   1   2.0000     -20.608556      -560.7873
   2   2.0000     -15.542110      -422.9223
   3   2.0000     -11.390572      -309.9532
   4   2.0000     -11.300952      -307.5145
   5   2.0000     -11.273564      -306.7693
   6   2.0000     -11.265308      -306.5446
   7   2.0000     -11.230021      -305.5844
   8   2.0000     -11.226349      -305.4845
   9   2.0000      -1.502877       -40.8954
  10   2.0000      -1.418481       -38.5988
  11   2.0000      -1.229126       -33.4462
  12   2.0000      -1.063183       -28.9307
  13   2.0000      -1.024757       -27.8851
  14   2.0000      -0.948682       -25.8149
  15   2.0000      -0.878972       -23.9180
  16   2.0000      -0.819417       -22.2975
  17   2.0000      -0.786775       -21.4092
  18   2.0000      -0.738707       -20.1012
  19   2.0000      -0.706318       -19.2199
  20   2.0000      -0.659857       -17.9556
  21   2.0000      -0.643816       -17.5191
  22   2.0000      -0.623102       -16.9555
  23   2.0000      -0.585305       -15.9270
  24   2.0000      -0.572062       -15.5666
  25   2.0000      -0.559456       -15.2236
  26   2.0000      -0.556041       -15.1306
  27   2.0000      -0.546401       -14.8683
  28   2.0000      -0.534895       -14.5552
  29   2.0000      -0.516344       -14.0504
  30   2.0000      -0.498641       -13.5687
  31   2.0000      -0.450976       -12.2717
  32   2.0000      -0.430374       -11.7111
  33   2.0000      -0.318199        -8.6586
  34   0.0000       0.133514         3.6331
  35   0.0000       0.152557         4.1513
  36   0.0000       0.166541         4.5318
  37   0.0000       0.175537         4.7766
  38   0.0000       0.182281         4.9601

MULLIKEN ATOMIC CHARGES
-----------------------
   0 C :   -0.362525
   1 C :   -0.071096
   2 O :   -0.240391
   3 C :    0.354534
   4 N :   -0.280965
   5 C :    0.090179
   6 C :   -0.407089
   7 C :   -0.080266
   8 O :   -0.225411
   9 H :    0.130697
  10 H :    0.138520
  11 H :    0.138513
  12 H :    0.121001
  13 H :    0.121028
  14 H :    0.145484
  15 H :    0.130381
  16 H :    0.145606
  17 H :    0.151798
Sum of atomic charges:    0.0000000

LOEWDIN ATOMIC CHARGES
----------------------
   0 C :   -0.311300
   1 C :   -0.303952
   2 O :    0.273023
   3 C :   -0.484637
   4 N :    0.124749
   5 C :   -0.286428
   6 C :   -0.269511
   7 C :   -0.233836
   8 O :    0.321588
   9 H :    0.128762
  10 H :    0.127634
  11 H :    0.127635
  12 H :    0.126441
  13 H :    0.126439
  14 H :    0.134656
  15 H :    0.130676
  16 H :    0.134698
  17 H :    0.133365

  Mayer bond orders larger than 0.1
B(  0-C ,  1-C ) :   0.9500 B(  0-C ,  9-H ) :   0.9313 B(  0-C , 10-H ) :   0.9336
B(  0-C , 11-H ) :   0.9336 B(  1-C ,  2-O ) :   0.8312 B(  1-C , 12-H ) :   0.9267
B(  1-C , 13-H ) :   0.9267 B(  2-O ,  3-C ) :   1.1553 B(  3-C ,  4-N ) :   1.6930
B(  3-C ,  8-O ) :   1.0685 B(  4-N ,  5-C ) :   1.1331 B(  5-C ,  6-C ) :   0.8848
B(  5-C ,  7-C ) :   1.6226 B(  6-C , 14-H ) :   0.9318 B(  6-C , 15-H ) :   0.9481
B(  6-C , 16-H ) :   0.9321 B(  7-C ,  8-O ) :   0.9709 B(  7-C , 17-H ) :   0.9233

MP2 TOTAL ENERGY:     -438.391548532 Eh
FINAL SINGLE POINT ENERGY      -438.391548532153

DIPOLE MOMENT
-------------
                                X             Y             Z
Electronic contribution:     -0.88823      -2.69750       0.02613
Nuclear contribution   :      1.94162       2.56877       0.00909
                        -----------------------------------------
Total Dipole Moment    :      1.05339      -0.12873       0.03522
                        -----------------------------------------
Magnitude (a.u.)       :      1.06181
Magnitude (Debye)      :      2.69891

                             ****ORCA TERMINATED NORMALLY****
TOTAL RUN TIME: 0 days 0 hours 15 minutes 12 seconds 815 msec
