                         Program Version 3.0.3 - RELEASE   -
|  1> ! RI-MP2 RIJK def2-TZVP def2-TZVP/C def2-TZVP/JK TIGHTSCF
|  2> % maxcore 2000
|  3> % mp2 density relaxed end
|  4> *xyz 0 1
|  5>  C       -0.3390304514     1.3377656984     0.0287860571
|  6>  O       -0.2428535274    -0.0564360772    -0.1306399766
|  7>  C        0.8214444018    -0.4340256309    -0.9822947562
|  8>  C        0.8328565948    -1.9377737709    -1.0611108188
|  9>  N        0.0193359749    -2.5974162075    -2.0989095385
| 10>  C        1.4846416430    -2.7343707884    -2.1348841104
| 11>  C        2.1457555150    -2.1563506668    -3.3882636255
| 12>  C        2.4681191904    -3.2722670676    -4.3888600985
| 13>  O        1.3235396613    -1.1691903349    -3.9846358320
| 14>  H        0.5727595345     1.7630028065     0.4794270359
| 15>  H       -0.5136833478     1.8491051733    -0.9310511178
| 16>  H       -1.1844142318     1.5347201602     0.6928459234
| 17>  H        0.7152425286     0.0058295480    -1.9814914034
| 18>  H        1.7838355733    -0.0850980824    -0.5661022990
| 19>  H        0.8205382273    -2.4037162651    -0.0765462523
| 20>  H       -0.4395564047    -3.4308590821    -1.7464700947
| 21>  H        1.9084855157    -3.6857381776    -1.8171027202
| 22>  H        3.0809399854    -1.6566435618    -3.1017746824
| 23>  H        3.1891566243    -3.9856957853    -3.9740585295
| 24>  H        1.5578496304    -3.8189410366    -4.6590326769
| 25>  H        2.8909974177    -2.8410813969    -5.2996266622
| 26>  H        0.4147078346    -1.4551836844    -3.7974296817
| 27> *
| 28>
| 29>                          ****END OF INPUT****

CARTESIAN COORDINATES (ANGSTROEM)
---------------------------------
  C     -0.339030    1.337766    0.028786
  O     -0.242854   -0.056436   -0.130640
  C      0.821444   -0.434026   -0.982295
  C      0.832857   -1.937774   -1.061111
  N      0.019336   -2.597416   -2.098910
  C      1.484642   -2.734371   -2.134884
  C      2.145756   -2.156351   -3.388264
  C      2.468119   -3.272267   -4.388860
  O      1.323540   -1.169190   -3.984636
  H      0.572760    1.763003    0.479427
  H     -0.513683    1.849105   -0.931051
  H     -1.184414    1.534720    0.692846
  H      0.715243    0.005830   -1.981491
  H      1.783836   -0.085098   -0.566102
  H      0.820538   -2.403716   -0.076546
  H     -0.439556   -3.430859   -1.746470
  H      1.908486   -3.685738   -1.817103
  H      3.080940   -1.656644   -3.101775
  H      3.189157   -3.985696   -3.974059
  H      1.557850   -3.818941   -4.659033
  H      2.890997   -2.841081   -5.299627
  H      0.414708   -1.455184   -3.797430

 Total Charge           Charge          ....    0
 Multiplicity           Mult            ....    1
 Number of Electrons    NEL             ....   72
 Basis Dimension        Dim             ....  357

ORBITAL ENERGIES
----------------

  NO   OCC          E(Eh)            E(eV)
   0   2.0000     -20.553001      -559.2756
   1   2.0000     -20.540363      -558.9317
   2   2.0000     -15.567083      -423.6019
   3   2.0000     -11.281846      -306.9946
   4   2.0000     -11.272346      -306.7361
   5   2.0000     -11.268016      -306.6183
   6   2.0000     -11.267676      -306.6091
   7   2.0000     -11.265334      -306.5453
   8   2.0000     -11.214253      -305.1553
   9   2.0000      -1.374419       -37.3998
  10   2.0000      -1.356182       -36.9036
  11   2.0000      -1.265969       -34.4488
  12   2.0000      -1.022909       -27.8348
  13   2.0000      -0.997490       -27.1431
  14   2.0000      -0.911711       -24.8089
  15   2.0000      -0.885703       -24.1012
  16   2.0000      -0.822389       -22.3784
  17   2.0000      -0.784344       -21.3431
  18   2.0000      -0.724573       -19.7166
  19   2.0000      -0.682620       -18.5750
  20   2.0000      -0.658747       -17.9254
  21   2.0000      -0.648536       -17.6476
  22   2.0000      -0.625919       -17.0321
  23   2.0000      -0.614659       -16.7257
  24   2.0000      -0.581551       -15.8248
  25   2.0000      -0.559773       -15.2322
  26   2.0000      -0.547127       -14.8881
  27   2.0000      -0.534393       -14.5416
  28   2.0000      -0.523073       -14.2335
  29   2.0000      -0.490975       -13.3601
  30   2.0000      -0.486117       -13.2279
  31   2.0000      -0.473485       -12.8842
  32   2.0000      -0.459026       -12.4907
  33   2.0000      -0.439328       -11.9547
  34   2.0000      -0.418542       -11.3891
  35   2.0000      -0.399680       -10.8758
  36   0.0000       0.130571         3.5530
  37   0.0000       0.151652         4.1267
  38   0.0000       0.158994         4.3264
  39   0.0000       0.166601         4.5334
  40   0.0000       0.184671         5.0251

MULLIKEN ATOMIC CHARGES
-----------------------
   0 C :   -0.217041
   1 O :   -0.302524
   2 C :   -0.099568
   3 C :    0.059204
   4 N :   -0.442215
   5 C :   -0.120363
   6 C :    0.132475
   7 C :   -0.383569
   8 O :   -0.490416
   9 H :    0.108107
  10 H :    0.115215
  11 H :    0.137379
  12 H :    0.130127
  13 H :    0.086893
  14 H :    0.128418
  15 H :    0.222675
  16 H :    0.126110
  17 H :    0.089102
  18 H :    0.117197
  19 H :    0.121620
  20 H :    0.143418
  21 H :    0.337756
Sum of atomic charges:   -0.0000000

LOEWDIN ATOMIC CHARGES
----------------------
   0 C :   -0.363110
   1 O :    0.133455
   2 C :   -0.311062
   3 C :   -0.250563
   4 N :    0.001286
   5 C :   -0.245587
   6 C :   -0.363695
   7 C :   -0.299642
   8 O :   -0.017805
   9 H :    0.100230
  10 H :    0.102564
  11 H :    0.112879
  12 H :    0.131186
  13 H :    0.123824
  14 H :    0.144614
  15 H :    0.167358
  16 H :    0.143959
  17 H :    0.143213
  18 H :    0.121297
  19 H :    0.123771
  20 H :    0.126659
  21 H :    0.175169

  Mayer bond orders larger than 0.1
B(  0-C ,  1-O ) :   0.9228 B(  0-C ,  9-H ) :   0.9369 B(  0-C , 10-H ) :   0.9370
B(  0-C , 11-H ) :   0.9393 B(  1-O ,  2-C ) :   0.9412 B(  2-C ,  3-C ) :   0.9208
B(  2-C , 12-H ) :   0.9212 B(  2-C , 13-H ) :   0.9203 B(  3-C ,  4-N ) :   0.8384
B(  3-C ,  5-C ) :   0.8884 B(  3-C , 14-H ) :   0.9321 B(  4-N ,  5-C ) :   0.9141
B(  4-N , 15-H ) :   0.8706 B(  5-C ,  6-C ) :   0.9330 B(  5-C , 16-H ) :   0.9201
B(  6-C ,  7-C ) :   0.9124 B(  6-C ,  8-O ) :   0.9482 B(  6-C , 17-H ) :   0.9345
B(  7-C , 18-H ) :   0.9309 B(  7-C , 19-H ) :   0.9312 B(  7-C , 20-H ) :   0.9411
B(  8-O , 21-H ) :   0.8005

MP2 TOTAL ENERGY:     -440.730071231 Eh
FINAL SINGLE POINT ENERGY      -440.730071230684

DIPOLE MOMENT
-------------
                                X             Y             Z
Electronic contribution:     -2.23177      -0.66091       1.01113
Nuclear contribution   :      2.56678       0.11586      -0.44039
                        -----------------------------------------
Total Dipole Moment    :      0.33500      -0.54505       0.57073
                        -----------------------------------------
Magnitude (a.u.)       :      0.85734
Magnitude (Debye)      :      2.17920

                             ****ORCA TERMINATED NORMALLY****
TOTAL RUN TIME: 0 days 0 hours 15 minutes 55 seconds 177 msec
