                         Program Version 3.0.3 - RELEASE   -
|  1> ! RI-MP2 RIJK def2-TZVP def2-TZVP/C def2-TZVP/JK TIGHTSCF
|  2> % maxcore 2000
|  3> % mp2 density relaxed end
|  4> *xyz 0 1
|  5>  C        0.0687383789     1.5282212472    -0.1998313932
|  6>  C       -0.0055701353     0.0360349773     0.0604288477
|  7>  N        1.2742677167    -0.7087020863     0.0723667032
|  8>  C        0.4972215091    -0.6259140077     1.3150507701
|  9>  C        1.0988742744     0.1286603172     2.4759478011
| 10>  C        2.1052404393    -0.7276335855     3.2405671899
| 11>  O        2.5879292449     0.0509229754     4.3222678365
| 12>  C       -1.1331011687    -0.6231501128    -0.5677485273
| 13>  N       -2.0256550780    -1.1487081003    -1.0836126468
| 14>  H        0.9768584207     1.9426476873     0.2382241528
| 15>  H        0.0909962163     1.7220250890    -1.2759923870
| 16>  H       -0.8000460027     2.0406495100     0.2234116178
| 17>  H        1.1667185986    -1.6172569616    -0.3714439535
| 18>  H       -0.0558202866    -1.5201010680     1.6012166494
| 19>  H        1.6083955090     1.0315180326     2.1311861095
| 20>  H        0.3045766708     0.4404851946     3.1641427131
| 21>  H        1.6166524269    -1.6498287283     3.5973204331
| 22>  H        2.9174417061    -1.0262340461     2.5603419951
| 23>  H        3.2563511096    -0.4596959141     4.7881452786
| 24> *
| 25>
| 26>                          ****END OF INPUT****

CARTESIAN COORDINATES (ANGSTROEM)
---------------------------------
  C      0.068738    1.528221   -0.199831
  C     -0.005570    0.036035    0.060429
  N      1.274268   -0.708702    0.072367
  C      0.497222   -0.625914    1.315051
  C      1.098874    0.128660    2.475948
  C      2.105240   -0.727634    3.240567
  O      2.587929    0.050923    4.322268
  C     -1.133101   -0.623150   -0.567749
  N     -2.025655   -1.148708   -1.083613
  H      0.976858    1.942648    0.238224
  H      0.090996    1.722025   -1.275992
  H     -0.800046    2.040650    0.223412
  H      1.166719   -1.617257   -0.371444
  H     -0.055820   -1.520101    1.601217
  H      1.608396    1.031518    2.131186
  H      0.304577    0.440485    3.164143
  H      1.616652   -1.649829    3.597320
  H      2.917442   -1.026234    2.560342
  H      3.256351   -0.459696    4.788145

 Total Charge           Charge          ....    0
 Multiplicity           Mult            ....    1
 Number of Electrons    NEL             ....   68
 Basis Dimension        Dim             ....  339

ORBITAL ENERGIES
----------------

  NO   OCC          E(Eh)            E(eV)
   0   2.0000     -20.566090      -559.6318
   1   2.0000     -15.590079      -424.2276
   2   2.0000     -15.577722      -423.8914
   3   2.0000     -11.320593      -308.0490
   4   2.0000     -11.294316      -307.3340
   5   2.0000     -11.288621      -307.1790
   6   2.0000     -11.279058      -306.9188
   7   2.0000     -11.244016      -305.9652
   8   2.0000     -11.239690      -305.8475
   9   2.0000      -1.370890       -37.3038
  10   2.0000      -1.304672       -35.5019
  11   2.0000      -1.219931       -33.1960
  12   2.0000      -1.053901       -28.6781
  13   2.0000      -1.031305       -28.0632
  14   2.0000      -0.913282       -24.8517
  15   2.0000      -0.887942       -24.1621
  16   2.0000      -0.810581       -22.0570
  17   2.0000      -0.763514       -20.7763
  18   2.0000      -0.709127       -19.2963
  19   2.0000      -0.663345       -18.0505
  20   2.0000      -0.625271       -17.0145
  21   2.0000      -0.612738       -16.6735
  22   2.0000      -0.602275       -16.3887
  23   2.0000      -0.582663       -15.8551
  24   2.0000      -0.577184       -15.7060
  25   2.0000      -0.555262       -15.1095
  26   2.0000      -0.529968       -14.4212
  27   2.0000      -0.516144       -14.0450
  28   2.0000      -0.509815       -13.8728
  29   2.0000      -0.492757       -13.4086
  30   2.0000      -0.475091       -12.9279
  31   2.0000      -0.461280       -12.5521
  32   2.0000      -0.455807       -12.4031
  33   2.0000      -0.403531       -10.9806
  34   0.0000       0.120889         3.2895
  35   0.0000       0.132433         3.6037
  36   0.0000       0.143351         3.9008
  37   0.0000       0.157282         4.2799
  38   0.0000       0.174428         4.7464

MULLIKEN ATOMIC CHARGES
-----------------------
   0 C :   -0.398191
   1 C :    0.207430
   2 N :   -0.371602
   3 C :   -0.083632
   4 C :   -0.150104
   5 C :   -0.082800
   6 O :   -0.463245
   7 C :   -0.190252
   8 N :   -0.055934
   9 H :    0.148157
  10 H :    0.149677
  11 H :    0.145389
  12 H :    0.235520
  13 H :    0.147512
  14 H :    0.114784
  15 H :    0.123509
  16 H :    0.092118
  17 H :    0.113304
  18 H :    0.318355
Sum of atomic charges:    0.0000000

LOEWDIN ATOMIC CHARGES
----------------------
   0 C :   -0.242130
   1 C :   -0.295412
   2 N :    0.053314
   3 C :   -0.220186
   4 C :   -0.244757
   5 C :   -0.346721
   6 O :   -0.047724
   7 C :   -0.160797
   8 N :    0.067758
   9 H :    0.134087
  10 H :    0.136986
  11 H :    0.135726
  12 H :    0.174984
  13 H :    0.150208
  14 H :    0.147302
  15 H :    0.148785
  16 H :    0.114834
  17 H :    0.119623
  18 H :    0.174120

  Mayer bond orders larger than 0.1
B(  0-C ,  1-C ) :   0.9040 B(  0-C ,  9-H ) :   0.9354 B(  0-C , 10-H ) :   0.9286
B(  0-C , 11-H ) :   0.9327 B(  1-C ,  2-N ) :   0.9437 B(  1-C ,  3-C ) :   0.8893
B(  1-C ,  7-C ) :   0.9281 B(  2-N ,  3-C ) :   0.8885 B(  2-N , 12-H ) :   0.8662
B(  3-C ,  4-C ) :   0.8910 B(  3-C , 13-H ) :   0.9019 B(  4-C ,  5-C ) :   0.9272
B(  4-C , 14-H ) :   0.9246 B(  4-C , 15-H ) :   0.9236 B(  5-C ,  6-O ) :   1.0208
B(  5-C , 16-H ) :   0.9298 B(  5-C , 17-H ) :   0.9306 B(  6-O , 18-H ) :   0.8473
B(  7-C ,  8-N ) :   2.8447

MP2 TOTAL ENERGY:     -418.493241207 Eh
FINAL SINGLE POINT ENERGY      -418.493241206811

DIPOLE MOMENT
-------------
                                X             Y             Z
Electronic contribution:     -3.97722      -3.04463      -3.91279
Nuclear contribution   :      4.93865       2.90433       4.66831
                        -----------------------------------------
Total Dipole Moment    :      0.96143      -0.14030       0.75553
                        -----------------------------------------
Magnitude (a.u.)       :      1.23079
Magnitude (Debye)      :      3.12843

                             ****ORCA TERMINATED NORMALLY****
TOTAL RUN TIME: 0 days 0 hours 16 minutes 2 seconds 286 msec
