                         Program Version 3.0.3 - RELEASE   -
|  1> ! RI-MP2 RIJK def2-TZVP def2-TZVP/C def2-TZVP/JK TIGHTSCF
|  2> % maxcore 2000
|  3> % mp2 density relaxed end
|  4> *xyz 0 1
|  5>  C       -0.0503966084     1.3911327589    -0.0304852633
|  6>  N       -0.0128059174    -0.0549677118     0.0177146352
|  7>  N        0.0198832138    -0.7715813453    -1.1194157035
|  8>  C        0.0345459073    -2.0452142897    -0.7127210877
|  9>  C        0.0578801612    -3.1708316828    -1.6572141754
| 10>  O        0.0788911832    -3.0887757033    -2.8619579909
| 11>  C        0.0326271824    -2.1442501534     0.7010123628
| 12>  C        0.0077882157    -0.8356658450     1.1383457767
| 13>  N       -0.0834101451    -0.2627806518     2.4085753799
| 14>  H        0.9383136970     1.8256010104     0.1581827893
| 15>  H       -0.3782065142     1.6781438060    -1.0287092355
| 16>  H       -0.7544303208     1.7637437168     0.7180974364
| 17>  H        0.0551039415    -4.1622840230    -1.1473650355
| 18>  H        0.0537955244    -3.0367556317     1.3058402411
| 19>  H       -0.0763176943    -0.9644989699     3.1365040905
| 20>  H        0.6380335837     0.4230708656     2.6003203398
| 21> *
| 22>
| 23>                          ****END OF INPUT****

CARTESIAN COORDINATES (ANGSTROEM)
---------------------------------
  C     -0.050397    1.391133   -0.030485
  N     -0.012806   -0.054968    0.017715
  N      0.019883   -0.771581   -1.119416
  C      0.034546   -2.045214   -0.712721
  C      0.057880   -3.170832   -1.657214
  O      0.078891   -3.088776   -2.861958
  C      0.032627   -2.144250    0.701012
  C      0.007788   -0.835666    1.138346
  N     -0.083410   -0.262781    2.408575
  H      0.938314    1.825601    0.158183
  H     -0.378207    1.678144   -1.028709
  H     -0.754430    1.763744    0.718097
  H      0.055104   -4.162284   -1.147365
  H      0.053796   -3.036756    1.305840
  H     -0.076318   -0.964499    3.136504
  H      0.638034    0.423071    2.600320

 Total Charge           Charge          ....    0
 Multiplicity           Mult            ....    1
 Number of Electrons    NEL             ....   66
 Basis Dimension        Dim             ....  321

ORBITAL ENERGIES
----------------

  NO   OCC          E(Eh)            E(eV)
   0   2.0000     -20.545008      -559.0581
   1   2.0000     -15.650506      -425.8719
   2   2.0000     -15.595876      -424.3853
   3   2.0000     -15.595124      -424.3649
   4   2.0000     -11.326264      -308.2033
   5   2.0000     -11.323844      -308.1375
   6   2.0000     -11.280605      -306.9609
   7   2.0000     -11.262536      -306.4692
   8   2.0000     -11.229254      -305.5635
   9   2.0000      -1.396803       -38.0089
  10   2.0000      -1.379045       -37.5257
  11   2.0000      -1.238880       -33.7117
  12   2.0000      -1.133963       -30.8567
  13   2.0000      -1.047328       -28.4992
  14   2.0000      -0.977927       -26.6107
  15   2.0000      -0.881514       -23.9872
  16   2.0000      -0.812913       -22.1205
  17   2.0000      -0.761892       -20.7321
  18   2.0000      -0.716841       -19.5062
  19   2.0000      -0.695256       -18.9189
  20   2.0000      -0.669246       -18.2111
  21   2.0000      -0.649742       -17.6804
  22   2.0000      -0.633961       -17.2510
  23   2.0000      -0.606523       -16.5043
  24   2.0000      -0.598262       -16.2795
  25   2.0000      -0.569120       -15.4865
  26   2.0000      -0.565579       -15.3902
  27   2.0000      -0.524669       -14.2770
  28   2.0000      -0.492753       -13.4085
  29   2.0000      -0.464971       -12.6525
  30   2.0000      -0.421909       -11.4807
  31   2.0000      -0.363660        -9.8957
  32   2.0000      -0.327850        -8.9213
  33   0.0000       0.093960         2.5568
  34   0.0000       0.109424         2.9776
  35   0.0000       0.144808         3.9404
  36   0.0000       0.167766         4.5651
  37   0.0000       0.176871         4.8129

MULLIKEN ATOMIC CHARGES
-----------------------
   0 C :   -0.366068
   1 N :    0.133109
   2 N :   -0.247921
   3 C :    0.114523
   4 C :    0.001946
   5 O :   -0.263398
   6 C :   -0.247054
   7 C :    0.176207
   8 N :   -0.546625
   9 H :    0.149982
  10 H :    0.182295
  11 H :    0.169904
  12 H :    0.074088
  13 H :    0.150289
  14 H :    0.256813
  15 H :    0.261910
Sum of atomic charges:    0.0000000

LOEWDIN ATOMIC CHARGES
----------------------
   0 C :   -0.273786
   1 N :    0.193659
   2 N :    0.092158
   3 C :   -0.295831
   4 C :   -0.282103
   5 O :    0.132131
   6 C :   -0.161923
   7 C :   -0.313295
   8 N :   -0.084930
   9 H :    0.122075
  10 H :    0.137349
  11 H :    0.129665
  12 H :    0.113130
  13 H :    0.143903
  14 H :    0.176247
  15 H :    0.171550

  Mayer bond orders larger than 0.1
B(  0-C ,  1-N ) :   0.8547 B(  0-C ,  9-H ) :   0.9252 B(  0-C , 10-H ) :   0.9256
B(  0-C , 11-H ) :   0.9240 B(  1-N ,  2-N ) :   0.9942 B(  1-N ,  7-C ) :   1.1983
B(  2-N ,  3-C ) :   1.4686 B(  3-C ,  4-C ) :   0.8189 B(  3-C ,  5-O ) :  -0.1036
B(  3-C ,  6-C ) :   1.2548 B(  3-C , 12-H ) :  -0.1361 B(  4-C ,  5-O ) :   2.0398
B(  4-C , 12-H ) :   1.0089 B(  6-C ,  7-C ) :   1.4140 B(  6-C , 13-H ) :   0.8931
B(  7-C ,  8-N ) :   0.9903 B(  8-N , 14-H ) :   0.8797 B(  8-N , 15-H ) :   0.8639

MP2 TOTAL ENERGY:     -433.369340063 Eh
FINAL SINGLE POINT ENERGY      -433.369340062582

DIPOLE MOMENT
-------------
                                X             Y             Z
Electronic contribution:     -0.02058      -4.54056      -4.43126
Nuclear contribution   :      0.35988       5.48025       6.85207
                        -----------------------------------------
Total Dipole Moment    :      0.33930       0.93969       2.42080
                        -----------------------------------------
Magnitude (a.u.)       :      2.61886
Magnitude (Debye)      :      6.65661

                             ****ORCA TERMINATED NORMALLY****
TOTAL RUN TIME: 0 days 0 hours 16 minutes 31 seconds 416 msec
