                         Program Version 3.0.3 - RELEASE   -
|  1> ! RI-MP2 RIJK def2-TZVP def2-TZVP/C def2-TZVP/JK TIGHTSCF
|  2> % maxcore 2000
|  3> % mp2 density relaxed end
|  4> *xyz 0 1
|  5>  C       -0.0550652890     1.4040063840    -0.3484647991
|  6>  C        1.4092714003     1.5992008473     0.0907644555
|  7>  C        1.2525999177     0.2038915903     0.7196192416
|  8>  O       -0.1102577776     0.1011369736     0.2718497063
|  9>  C        2.1824081392    -0.9984008140     0.5138186132
| 10>  C        3.0265121202    -0.6173744108     1.7721125160
| 11>  O        2.9359471083    -1.9360054786     2.3874803413
| 12>  C        1.6242265274    -1.7041896427     1.7938613629
| 13>  C        1.5779304037    -0.1853730851     2.1670518804
| 14>  H       -0.7822139251     2.0961298850     0.0917509113
| 15>  H       -0.2261714911     1.3481714849    -1.4297464717
| 16>  H        2.1388186282     1.6655704286    -0.7188049406
| 17>  H        1.5842361490     2.4117988884     0.7986603511
| 18>  H        2.5357399321    -1.4745024313    -0.4000692100
| 19>  H        3.9623586644    -0.0655350038     1.8429030843
| 20>  H        0.8558218366    -2.4680837189     1.8885725114
| 21>  H        1.2522572956     0.2517937230     3.1102005462
| 22> *
| 23>
| 24>                          ****END OF INPUT****

CARTESIAN COORDINATES (ANGSTROEM)
---------------------------------
  C     -0.055065    1.404006   -0.348465
  C      1.409271    1.599201    0.090764
  C      1.252600    0.203892    0.719619
  O     -0.110258    0.101137    0.271850
  C      2.182408   -0.998401    0.513819
  C      3.026512   -0.617374    1.772113
  O      2.935947   -1.936005    2.387480
  C      1.624227   -1.704190    1.793861
  C      1.577930   -0.185373    2.167052
  H     -0.782214    2.096130    0.091751
  H     -0.226171    1.348171   -1.429746
  H      2.138819    1.665570   -0.718805
  H      1.584236    2.411799    0.798660
  H      2.535740   -1.474502   -0.400069
  H      3.962359   -0.065535    1.842903
  H      0.855822   -2.468084    1.888573
  H      1.252257    0.251794    3.110201

 Total Charge           Charge          ....    0
 Multiplicity           Mult            ....    1
 Number of Electrons    NEL             ....   66
 Basis Dimension        Dim             ....  327

ORBITAL ENERGIES
----------------

  NO   OCC          E(Eh)            E(eV)
   0   2.0000     -20.552904      -559.2730
   1   2.0000     -20.548909      -559.1642
   2   2.0000     -11.307970      -307.7055
   3   2.0000     -11.305655      -307.6425
   4   2.0000     -11.302207      -307.5487
   5   2.0000     -11.285121      -307.0837
   6   2.0000     -11.249441      -306.1129
   7   2.0000     -11.249431      -306.1126
   8   2.0000     -11.238153      -305.8057
   9   2.0000      -1.409029       -38.3416
  10   2.0000      -1.384210       -37.6663
  11   2.0000      -1.164144       -31.6780
  12   2.0000      -1.016849       -27.6699
  13   2.0000      -0.907698       -24.6997
  14   2.0000      -0.892533       -24.2871
  15   2.0000      -0.889836       -24.2137
  16   2.0000      -0.782215       -21.2852
  17   2.0000      -0.712915       -19.3994
  18   2.0000      -0.703081       -19.1318
  19   2.0000      -0.679862       -18.5000
  20   2.0000      -0.678253       -18.4562
  21   2.0000      -0.634172       -17.2567
  22   2.0000      -0.598551       -16.2874
  23   2.0000      -0.570077       -15.5126
  24   2.0000      -0.548051       -14.9132
  25   2.0000      -0.537525       -14.6268
  26   2.0000      -0.513096       -13.9620
  27   2.0000      -0.483251       -13.1499
  28   2.0000      -0.453482       -12.3399
  29   2.0000      -0.443232       -12.0609
  30   2.0000      -0.433834       -11.8052
  31   2.0000      -0.419959       -11.4277
  32   2.0000      -0.388589       -10.5740
  33   0.0000       0.135709         3.6928
  34   0.0000       0.156877         4.2688
  35   0.0000       0.170545         4.6408
  36   0.0000       0.173314         4.7161
  37   0.0000       0.177825         4.8389

MULLIKEN ATOMIC CHARGES
-----------------------
   0 C :   -0.016208
   1 C :   -0.310158
   2 C :    0.138159
   3 O :   -0.343365
   4 C :   -0.072826
   5 C :   -0.009454
   6 O :   -0.332619
   7 C :   -0.005926
   8 C :   -0.072844
   9 H :    0.099332
  10 H :    0.099343
  11 H :    0.131378
  12 H :    0.131385
  13 H :    0.144122
  14 H :    0.133900
  15 H :    0.141659
  16 H :    0.144124
Sum of atomic charges:   -0.0000000

LOEWDIN ATOMIC CHARGES
----------------------
   0 C :   -0.265695
   1 C :   -0.206522
   2 C :   -0.276465
   3 O :    0.159330
   4 C :   -0.101822
   5 C :   -0.186981
   6 O :    0.127468
   7 C :   -0.176933
   8 C :   -0.101822
   9 H :    0.116567
  10 H :    0.116567
  11 H :    0.135343
  12 H :    0.135340
  13 H :    0.132915
  14 H :    0.128073
  15 H :    0.131723
  16 H :    0.132914

  Mayer bond orders larger than 0.1
B(  0-C ,  1-C ) :   1.0042 B(  0-C ,  3-O ) :   0.9488 B(  0-C ,  9-H ) :   0.9150
B(  0-C , 10-H ) :   0.9150 B(  1-C ,  2-C ) :   0.9359 B(  1-C , 11-H ) :   0.9214
B(  1-C , 12-H ) :   0.9214 B(  2-C ,  3-O ) :   0.9918 B(  2-C ,  4-C ) :   0.8871
B(  2-C ,  8-C ) :   0.8871 B(  4-C ,  5-C ) :   0.8766 B(  4-C ,  7-C ) :   0.8858
B(  4-C , 13-H ) :   0.8866 B(  5-C ,  6-O ) :   0.9303 B(  5-C ,  8-C ) :   0.8766
B(  5-C , 14-H ) :   0.9005 B(  6-O ,  7-C ) :   0.9300 B(  7-C ,  8-C ) :   0.8858
B(  7-C , 15-H ) :   0.8862 B(  8-C , 16-H ) :   0.8866

MP2 TOTAL ENERGY:     -420.997451250 Eh
FINAL SINGLE POINT ENERGY      -420.997451249593

DIPOLE MOMENT
-------------
                                X             Y             Z
Electronic contribution:      0.86064      -4.23868       2.39884
Nuclear contribution   :     -0.80648       5.27433      -2.88828
                        -----------------------------------------
Total Dipole Moment    :      0.05416       1.03565      -0.48944
                        -----------------------------------------
Magnitude (a.u.)       :      1.14676
Magnitude (Debye)      :      2.91483

                             ****ORCA TERMINATED NORMALLY****
TOTAL RUN TIME: 0 days 0 hours 15 minutes 8 seconds 629 msec
