                         Program Version 3.0.3 - RELEASE   -
|  1> ! RI-MP2 RIJK def2-TZVP def2-TZVP/C def2-TZVP/JK TIGHTSCF
|  2> % maxcore 2000
|  3> % mp2 density relaxed end
|  4> *xyz 0 1
|  5>  N        0.0487370813     1.3041547786    -0.2973189009
|  6>  C       -0.0282601791    -0.0608382221    -0.0647421117
|  7>  N       -1.0935938618    -0.8099504146    -0.2938332329
|  8>  C       -0.5851449906    -2.0727546726    -0.1915620962
|  9>  C        0.7366139384    -2.1081251581     0.0753689841
| 10>  N        1.1104248926    -0.7851288578     0.2749455582
| 11>  O        1.0904651184    -3.3007068540     0.6838207050
| 12>  C       -0.0164165818    -4.1205395619     0.2529549955
| 13>  O       -1.1725272492    -3.2800501437     0.0826919907
| 14>  H       -0.8644116207     1.6677241838    -0.5383755313
| 15>  H        0.4505026562     1.8307335077     0.4695883990
| 16>  H        2.0370680233    -0.4109672023     0.1426803148
| 17>  H        0.2385140596    -4.5643768015    -0.7221788048
| 18>  H       -0.2222410467    -4.8789127015     1.0083475904
| 19> *
| 20>
| 21>                          ****END OF INPUT****

CARTESIAN COORDINATES (ANGSTROEM)
---------------------------------
  N      0.048737    1.304155   -0.297319
  C     -0.028260   -0.060838   -0.064742
  N     -1.093594   -0.809950   -0.293833
  C     -0.585145   -2.072755   -0.191562
  C      0.736614   -2.108125    0.075369
  N      1.110425   -0.785129    0.274946
  O      1.090465   -3.300707    0.683821
  C     -0.016417   -4.120540    0.252955
  O     -1.172527   -3.280050    0.082692
  H     -0.864412    1.667724   -0.538376
  H      0.450503    1.830734    0.469588
  H      2.037068   -0.410967    0.142680
  H      0.238514   -4.564377   -0.722179
  H     -0.222241   -4.878913    1.008348

 Total Charge           Charge          ....    0
 Multiplicity           Mult            ....    1
 Number of Electrons    NEL             ....   66
 Basis Dimension        Dim             ....  309

ORBITAL ENERGIES
----------------

  NO   OCC          E(Eh)            E(eV)
   0   2.0000     -20.593812      -560.3861
   1   2.0000     -20.593277      -560.3715
   2   2.0000     -15.624283      -425.1583
   3   2.0000     -15.592555      -424.2950
   4   2.0000     -15.554599      -423.2621
   5   2.0000     -11.358275      -309.0744
   6   2.0000     -11.350463      -308.8618
   7   2.0000     -11.300145      -307.4926
   8   2.0000     -11.290687      -307.2352
   9   2.0000      -1.468205       -39.9519
  10   2.0000      -1.363783       -37.1104
  11   2.0000      -1.352845       -36.8128
  12   2.0000      -1.220576       -33.2136
  13   2.0000      -1.180009       -32.1097
  14   2.0000      -0.995748       -27.0957
  15   2.0000      -0.903342       -24.5812
  16   2.0000      -0.836602       -22.7651
  17   2.0000      -0.811898       -22.0929
  18   2.0000      -0.759986       -20.6803
  19   2.0000      -0.708992       -19.2927
  20   2.0000      -0.704128       -19.1603
  21   2.0000      -0.679879       -18.5004
  22   2.0000      -0.648325       -17.6418
  23   2.0000      -0.628954       -17.1147
  24   2.0000      -0.587124       -15.9765
  25   2.0000      -0.579346       -15.7648
  26   2.0000      -0.560496       -15.2519
  27   2.0000      -0.535405       -14.5691
  28   2.0000      -0.512722       -13.9519
  29   2.0000      -0.462564       -12.5870
  30   2.0000      -0.454078       -12.3561
  31   2.0000      -0.410621       -11.1736
  32   2.0000      -0.277669        -7.5558
  33   0.0000       0.116896         3.1809
  34   0.0000       0.149902         4.0790
  35   0.0000       0.158914         4.3243
  36   0.0000       0.175710         4.7813
  37   0.0000       0.187224         5.0946

MULLIKEN ATOMIC CHARGES
-----------------------
   0 N :   -0.520205
   1 C :    0.311179
   2 N :   -0.311105
   3 C :    0.162372
   4 C :    0.095536
   5 N :   -0.300003
   6 O :   -0.291568
   7 C :    0.108789
   8 O :   -0.281188
   9 H :    0.272326
  10 H :    0.257978
  11 H :    0.262718
  12 H :    0.093525
  13 H :    0.139645
Sum of atomic charges:   -0.0000000

LOEWDIN ATOMIC CHARGES
----------------------
   0 N :   -0.079461
   1 C :   -0.403664
   2 N :    0.114939
   3 C :   -0.372697
   4 C :   -0.355578
   5 N :    0.178687
   6 O :    0.196712
   7 C :   -0.288710
   8 O :    0.226007
   9 H :    0.182756
  10 H :    0.171726
  11 H :    0.194892
  12 H :    0.112820
  13 H :    0.121571

  Mayer bond orders larger than 0.1
B(  0-N ,  1-C ) :   1.0442 B(  0-N ,  9-H ) :   0.8700 B(  0-N , 10-H ) :   0.8701
B(  1-C ,  2-N ) :   1.5387 B(  1-C ,  5-N ) :   1.1173 B(  2-N ,  3-C ) :   1.2617
B(  3-C ,  4-C ) :   1.5027 B(  3-C ,  8-O ) :   1.0021 B(  4-C ,  5-N ) :   1.0507
B(  4-C ,  6-O ) :   0.9888 B(  5-N , 11-H ) :   0.8550 B(  6-O ,  7-C ) :   0.9192
B(  7-C ,  8-O ) :   0.9348 B(  7-C , 12-H ) :   0.9285 B(  7-C , 13-H ) :   0.9199

MP2 TOTAL ENERGY:     -469.246461623 Eh
FINAL SINGLE POINT ENERGY      -469.246461623309

DIPOLE MOMENT
-------------
                                X             Y             Z
Electronic contribution:     -0.46783      -1.32781       0.32872
Nuclear contribution   :      1.44253       1.99597       0.00966
                        -----------------------------------------
Total Dipole Moment    :      0.97471       0.66815       0.33837
                        -----------------------------------------
Magnitude (a.u.)       :      1.22922
Magnitude (Debye)      :      3.12443

                             ****ORCA TERMINATED NORMALLY****
TOTAL RUN TIME: 0 days 0 hours 14 minutes 45 seconds 81 msec
