                         Program Version 3.0.3 - RELEASE   -
|  1> ! RI-MP2 RIJK def2-TZVP def2-TZVP/C def2-TZVP/JK TIGHTSCF
|  2> % maxcore 2000
|  3> % mp2 density relaxed end
|  4> *xyz 0 1
|  5>  C       -0.1945666222     1.4541963985    -0.0065978387
|  6>  C        1.2059183899     0.9101323244    -0.0009320961
|  7>  C        0.0236080256    -0.0406576641     0.0257219370
|  8>  C       -0.2845605010    -0.8830037236     1.2120772556
|  9>  C       -0.6579317300    -2.1209525194     0.8767842103
| 10>  C       -0.6966814874    -2.3127866965    -0.6160942932
| 11>  C       -2.0664482930    -2.0700882380    -1.2964135635
| 12>  O       -1.7035583874    -0.7154964496    -1.6348223763
| 13>  C       -0.3439749567    -0.9043512576    -1.1720014454
| 14>  H       -0.5682507174     1.9282829844     0.8948836683
| 15>  H       -0.5871001514     1.8745535018    -0.9257865376
| 16>  H        1.7831845852     0.9638622322    -0.9188054871
| 17>  H        1.7968516633     1.0084960577     0.9037637392
| 18>  H       -0.1980984265    -0.5059225519     2.2260319014
| 19>  H       -0.9254445463    -2.9048315690     1.5763444273
| 20>  H       -0.1367862786    -3.1803491116    -0.9734441777
| 21>  H       -2.2457040091    -2.6783879903    -2.1932550973
| 22>  H       -2.9486740526    -2.1123744724    -0.6472239371
| 23>  H        0.3664475354    -0.8311602049    -2.0035204991
| 24> *
| 25>
| 26>                          ****END OF INPUT****

CARTESIAN COORDINATES (ANGSTROEM)
---------------------------------
  C     -0.194567    1.454196   -0.006598
  C      1.205918    0.910132   -0.000932
  C      0.023608   -0.040658    0.025722
  C     -0.284561   -0.883004    1.212077
  C     -0.657932   -2.120953    0.876784
  C     -0.696681   -2.312787   -0.616094
  C     -2.066448   -2.070088   -1.296414
  O     -1.703558   -0.715496   -1.634822
  C     -0.343975   -0.904351   -1.172001
  H     -0.568251    1.928283    0.894884
  H     -0.587100    1.874554   -0.925787
  H      1.783185    0.963862   -0.918805
  H      1.796852    1.008496    0.903764
  H     -0.198098   -0.505923    2.226032
  H     -0.925445   -2.904832    1.576344
  H     -0.136786   -3.180349   -0.973444
  H     -2.245704   -2.678388   -2.193255
  H     -2.948674   -2.112374   -0.647224
  H      0.366448   -0.831160   -2.003520

 Total Charge           Charge          ....    0
 Multiplicity           Mult            ....    1
 Number of Electrons    NEL             ....   66
 Basis Dimension        Dim             ....  339

ORBITAL ENERGIES
----------------

  NO   OCC          E(Eh)            E(eV)
   0   2.0000     -20.541779      -558.9702
   1   2.0000     -11.280515      -306.9584
   2   2.0000     -11.274541      -306.7959
   3   2.0000     -11.237963      -305.8005
   4   2.0000     -11.235687      -305.7386
   5   2.0000     -11.232193      -305.6435
   6   2.0000     -11.228534      -305.5439
   7   2.0000     -11.226253      -305.4819
   8   2.0000     -11.226204      -305.4805
   9   2.0000      -1.373501       -37.3749
  10   2.0000      -1.163226       -31.6530
  11   2.0000      -1.087575       -29.5944
  12   2.0000      -0.969517       -26.3819
  13   2.0000      -0.937570       -25.5126
  14   2.0000      -0.848689       -23.0940
  15   2.0000      -0.824944       -22.4479
  16   2.0000      -0.744042       -20.2464
  17   2.0000      -0.737203       -20.0603
  18   2.0000      -0.694664       -18.9028
  19   2.0000      -0.654622       -17.8132
  20   2.0000      -0.631967       -17.1967
  21   2.0000      -0.626133       -17.0379
  22   2.0000      -0.589869       -16.0512
  23   2.0000      -0.577264       -15.7081
  24   2.0000      -0.532560       -14.4917
  25   2.0000      -0.516133       -14.0447
  26   2.0000      -0.500180       -13.6106
  27   2.0000      -0.476555       -12.9677
  28   2.0000      -0.456036       -12.4094
  29   2.0000      -0.448009       -12.1910
  30   2.0000      -0.419461       -11.4141
  31   2.0000      -0.409424       -11.1410
  32   2.0000      -0.330715        -8.9992
  33   0.0000       0.142385         3.8745
  34   0.0000       0.151484         4.1221
  35   0.0000       0.161338         4.3902
  36   0.0000       0.168403         4.5825
  37   0.0000       0.180501         4.9117

MULLIKEN ATOMIC CHARGES
-----------------------
   0 C :   -0.278701
   1 C :   -0.313240
   2 C :    0.128638
   3 C :   -0.201536
   4 C :   -0.217932
   5 C :   -0.056785
   6 C :   -0.029620
   7 O :   -0.339698
   8 C :    0.112036
   9 H :    0.130230
  10 H :    0.143235
  11 H :    0.131948
  12 H :    0.129993
  13 H :    0.126877
  14 H :    0.128657
  15 H :    0.123177
  16 H :    0.091884
  17 H :    0.099580
  18 H :    0.091256
Sum of atomic charges:   -0.0000000

LOEWDIN ATOMIC CHARGES
----------------------
   0 C :   -0.192939
   1 C :   -0.200291
   2 C :   -0.210183
   3 C :   -0.106409
   4 C :   -0.139651
   5 C :   -0.190133
   6 C :   -0.247595
   7 O :    0.137793
   8 C :   -0.189244
   9 H :    0.135224
  10 H :    0.140431
  11 H :    0.134107
  12 H :    0.133611
  13 H :    0.142801
  14 H :    0.138070
  15 H :    0.144413
  16 H :    0.115578
  17 H :    0.118377
  18 H :    0.136040

  Mayer bond orders larger than 0.1
B(  0-C ,  1-C ) :   0.9251 B(  0-C ,  2-C ) :   0.8194 B(  0-C ,  9-H ) :   0.9287
B(  0-C , 10-H ) :   0.9226 B(  1-C ,  2-C ) :   0.8347 B(  1-C , 11-H ) :   0.9202
B(  1-C , 12-H ) :   0.9234 B(  2-C ,  3-C ) :   0.9460 B(  2-C ,  8-C ) :   0.8972
B(  3-C ,  4-C ) :   1.7975 B(  3-C , 13-H ) :   0.9125 B(  4-C ,  5-C ) :   0.9310
B(  4-C , 14-H ) :   0.9307 B(  5-C ,  6-C ) :   0.9657 B(  5-C ,  8-C ) :   0.9393
B(  5-C , 15-H ) :   0.9124 B(  6-C ,  7-O ) :   0.9500 B(  6-C , 16-H ) :   0.9168
B(  6-C , 17-H ) :   0.9051 B(  7-O ,  8-C ) :   0.9715 B(  8-C , 18-H ) :   0.9198

MP2 TOTAL ENERGY:     -385.181995152 Eh
FINAL SINGLE POINT ENERGY      -385.181995151874

DIPOLE MOMENT
-------------
                                X             Y             Z
Electronic contribution:     -1.34171      -1.24410      -0.82351
Nuclear contribution   :      1.70314       0.84219       1.11680
                        -----------------------------------------
Total Dipole Moment    :      0.36143      -0.40191       0.29328
                        -----------------------------------------
Magnitude (a.u.)       :      0.61496
Magnitude (Debye)      :      1.56311

                             ****ORCA TERMINATED NORMALLY****
TOTAL RUN TIME: 0 days 0 hours 17 minutes 2 seconds 816 msec
