                         Program Version 3.0.3 - RELEASE   -
|  1> ! RI-MP2 RIJK def2-TZVP def2-TZVP/C def2-TZVP/JK TIGHTSCF
|  2> % maxcore 2000
|  3> % mp2 density relaxed end
|  4> *xyz 0 1
|  5>  C       -0.2854363698     1.3853783407     0.0375198612
|  6>  N        0.0460218645    -0.0341728804     0.0962571790
|  7>  C        1.3912150656    -0.4522553122    -0.2074576357
|  8>  C        0.8884400505    -0.5217721282     1.2093562950
|  9>  C        1.4772248025     0.3797545163     2.2805883922
| 10>  O        0.5394471722     0.6909956892     3.2922870298
| 11>  C        0.3916882512    -1.8378560852     1.7081574259
| 12>  O        0.4415122525    -2.1816158230     2.8671905093
| 13>  H        0.5757036574     2.0553669276     0.1723885872
| 14>  H       -0.7247417923     1.5916887328    -0.9429860671
| 15>  H       -1.0241297616     1.6116755942     0.8100771846
| 16>  H        1.5003866333    -1.3545625210    -0.8052850923
| 17>  H        2.1453637691     0.3129762438    -0.3955340080
| 18>  H        2.3681466491    -0.1164668605     2.6939275098
| 19>  H        1.8064159124     1.3288497822     1.8503338050
| 20>  H        0.3390898903    -0.1456382754     3.7309406680
| 21>  H       -0.0606920367    -2.4832703209     0.9258306060
| 22> *
| 23>
| 24>                          ****END OF INPUT****

CARTESIAN COORDINATES (ANGSTROEM)
---------------------------------
  C     -0.285436    1.385378    0.037520
  N      0.046022   -0.034173    0.096257
  C      1.391215   -0.452255   -0.207458
  C      0.888440   -0.521772    1.209356
  C      1.477225    0.379755    2.280588
  O      0.539447    0.690996    3.292287
  C      0.391688   -1.837856    1.708157
  O      0.441512   -2.181616    2.867191
  H      0.575704    2.055367    0.172389
  H     -0.724742    1.591689   -0.942986
  H     -1.024130    1.611676    0.810077
  H      1.500387   -1.354563   -0.805285
  H      2.145364    0.312976   -0.395534
  H      2.368147   -0.116467    2.693928
  H      1.806416    1.328850    1.850334
  H      0.339090   -0.145638    3.730941
  H     -0.060692   -2.483270    0.925831

 Total Charge           Charge          ....    0
 Multiplicity           Mult            ....    1
 Number of Electrons    NEL             ....   62
 Basis Dimension        Dim             ....  302

ORBITAL ENERGIES
----------------

  NO   OCC          E(Eh)            E(eV)
   0   2.0000     -20.567628      -559.6736
   1   2.0000     -20.554193      -559.3080
   2   2.0000     -15.585967      -424.1157
   3   2.0000     -11.342012      -308.6318
   4   2.0000     -11.289920      -307.2143
   5   2.0000     -11.284254      -307.0602
   6   2.0000     -11.283455      -307.0384
   7   2.0000     -11.259396      -306.3838
   8   2.0000      -1.408835       -38.3364
   9   2.0000      -1.362218       -37.0678
  10   2.0000      -1.299092       -35.3501
  11   2.0000      -1.034596       -28.1528
  12   2.0000      -0.965432       -26.2707
  13   2.0000      -0.904281       -24.6067
  14   2.0000      -0.843638       -22.9566
  15   2.0000      -0.773657       -21.0523
  16   2.0000      -0.708802       -19.2875
  17   2.0000      -0.688639       -18.7388
  18   2.0000      -0.674910       -18.3652
  19   2.0000      -0.644810       -17.5462
  20   2.0000      -0.612205       -16.6590
  21   2.0000      -0.600576       -16.3425
  22   2.0000      -0.589409       -16.0386
  23   2.0000      -0.580515       -15.7966
  24   2.0000      -0.558591       -15.2000
  25   2.0000      -0.518371       -14.1056
  26   2.0000      -0.499034       -13.5794
  27   2.0000      -0.471689       -12.8353
  28   2.0000      -0.447151       -12.1676
  29   2.0000      -0.430122       -11.7042
  30   2.0000      -0.392641       -10.6843
  31   0.0000       0.116319         3.1652
  32   0.0000       0.144486         3.9317
  33   0.0000       0.165875         4.5137
  34   0.0000       0.166853         4.5403
  35   0.0000       0.173505         4.7213

MULLIKEN ATOMIC CHARGES
-----------------------
   0 C :   -0.297661
   1 N :   -0.242772
   2 C :   -0.199416
   3 C :    0.104163
   4 C :    0.005469
   5 O :   -0.485733
   6 C :    0.065257
   7 O :   -0.309947
   8 H :    0.108890
   9 H :    0.147121
  10 H :    0.156196
  11 H :    0.136980
  12 H :    0.131600
  13 H :    0.128248
  14 H :    0.106321
  15 H :    0.336075
  16 H :    0.109208
Sum of atomic charges:   -0.0000000

LOEWDIN ATOMIC CHARGES
----------------------
   0 C :   -0.314765
   1 N :    0.120557
   2 C :   -0.219001
   3 C :   -0.290528
   4 C :   -0.312388
   5 O :   -0.038650
   6 C :   -0.251610
   7 O :    0.119858
   8 H :    0.106839
   9 H :    0.121261
  10 H :    0.126945
  11 H :    0.129559
  12 H :    0.132061
  13 H :    0.132606
  14 H :    0.132807
  15 H :    0.178371
  16 H :    0.126078

  Mayer bond orders larger than 0.1
B(  0-C ,  1-N ) :   0.8834 B(  0-C ,  8-H ) :   0.9321 B(  0-C ,  9-H ) :   0.9309
B(  0-C , 10-H ) :   0.9340 B(  1-N ,  2-C ) :   0.9218 B(  1-N ,  3-C ) :   0.7303
B(  2-C ,  3-C ) :   0.8806 B(  2-C , 11-H ) :   0.9051 B(  2-C , 12-H ) :   0.9144
B(  3-C ,  4-C ) :   0.9232 B(  3-C ,  6-C ) :   0.8655 B(  4-C ,  5-O ) :   0.9432
B(  4-C , 13-H ) :   0.9242 B(  4-C , 14-H ) :   0.9263 B(  5-O , 15-H ) :   0.8265
B(  6-C ,  7-O ) :   1.9195 B(  6-C , 16-H ) :   0.9579

MP2 TOTAL ENERGY:     -400.322476587 Eh
FINAL SINGLE POINT ENERGY      -400.322476587056

DIPOLE MOMENT
-------------
                                X             Y             Z
Electronic contribution:     -0.81435      -4.86844       3.74925
Nuclear contribution   :      1.37775       5.11475      -4.76656
                        -----------------------------------------
Total Dipole Moment    :      0.56339       0.24630      -1.01731
                        -----------------------------------------
Magnitude (a.u.)       :      1.18869
Magnitude (Debye)      :      3.02142

                             ****ORCA TERMINATED NORMALLY****
TOTAL RUN TIME: 0 days 0 hours 12 minutes 24 seconds 77 msec
