                         Program Version 3.0.3 - RELEASE   -
|  1> ! RI-MP2 RIJK def2-TZVP def2-TZVP/C def2-TZVP/JK TIGHTSCF
|  2> % maxcore 2000
|  3> % mp2 density relaxed end
|  4> *xyz 0 1
|  5>  O       -0.1581344867     0.0677436394     0.2271309940
|  6>  C        0.0142804017     1.2381045792    -0.0190511256
|  7>  C        1.3160664313     1.9298350780    -0.0005506176
|  8>  C        1.3030440473     3.4368093148     0.2133569832
|  9>  C        1.6443376120     2.9233581413    -1.1428943844
| 10>  C        3.0796311934     2.6776012818    -1.5551965933
| 11>  C        4.2026167919     2.9842344167    -0.5930332306
| 12>  C        3.6582853938     1.5819065686    -0.6763608005
| 13>  C        2.5790377512     1.1274288856     0.3107283079
| 14>  H       -0.8417164627     1.8967934427    -0.3017340929
| 15>  H        0.3274292195     3.8980960203     0.3384105328
| 16>  H        2.0705680291     3.8596938010     0.8502269137
| 17>  H        0.9223234606     3.0801476707    -1.9369220381
| 18>  H        3.2883197223     2.7160044465    -2.6178114326
| 19>  H        5.1819130185     3.1593552123    -1.0262634256
| 20>  H        4.0090658621     3.5860524187     0.2881911178
| 21>  H        4.3045701338     0.8192310220    -1.0969175606
| 22>  H        2.8916621021     1.2381635293     1.3550937100
| 23>  H        2.3442992886     0.0697813610     0.1611403722
| 24> *
| 25>
| 26>                          ****END OF INPUT****

CARTESIAN COORDINATES (ANGSTROEM)
---------------------------------
  O     -0.158134    0.067744    0.227131
  C      0.014280    1.238105   -0.019051
  C      1.316066    1.929835   -0.000551
  C      1.303044    3.436809    0.213357
  C      1.644338    2.923358   -1.142894
  C      3.079631    2.677601   -1.555197
  C      4.202617    2.984234   -0.593033
  C      3.658285    1.581907   -0.676361
  C      2.579038    1.127429    0.310728
  H     -0.841716    1.896793   -0.301734
  H      0.327429    3.898096    0.338411
  H      2.070568    3.859694    0.850227
  H      0.922323    3.080148   -1.936922
  H      3.288320    2.716004   -2.617811
  H      5.181913    3.159355   -1.026263
  H      4.009066    3.586052    0.288191
  H      4.304570    0.819231   -1.096918
  H      2.891662    1.238164    1.355094
  H      2.344299    0.069781    0.161140

 Total Charge           Charge          ....    0
 Multiplicity           Mult            ....    1
 Number of Electrons    NEL             ....   66
 Basis Dimension        Dim             ....  339

ORBITAL ENERGIES
----------------

  NO   OCC          E(Eh)            E(eV)
   0   2.0000     -20.544967      -559.0570
   1   2.0000     -11.326928      -308.2214
   2   2.0000     -11.256401      -306.3022
   3   2.0000     -11.249360      -306.1107
   4   2.0000     -11.248084      -306.0759
   5   2.0000     -11.241895      -305.9075
   6   2.0000     -11.235698      -305.7389
   7   2.0000     -11.232705      -305.6574
   8   2.0000     -11.229475      -305.5696
   9   2.0000      -1.385171       -37.6924
  10   2.0000      -1.209339       -32.9078
  11   2.0000      -1.118848       -30.4454
  12   2.0000      -0.991717       -26.9860
  13   2.0000      -0.900538       -24.5049
  14   2.0000      -0.883941       -24.0533
  15   2.0000      -0.800585       -21.7850
  16   2.0000      -0.763753       -20.7828
  17   2.0000      -0.745839       -20.2953
  18   2.0000      -0.709572       -19.3084
  19   2.0000      -0.657707       -17.8971
  20   2.0000      -0.637731       -17.3535
  21   2.0000      -0.619443       -16.8559
  22   2.0000      -0.587730       -15.9929
  23   2.0000      -0.572215       -15.5708
  24   2.0000      -0.566089       -15.4041
  25   2.0000      -0.533985       -14.5305
  26   2.0000      -0.514890       -14.0109
  27   2.0000      -0.494742       -13.4626
  28   2.0000      -0.462208       -12.5773
  29   2.0000      -0.432234       -11.7617
  30   2.0000      -0.416736       -11.3400
  31   2.0000      -0.410529       -11.1711
  32   2.0000      -0.372616       -10.1394
  33   0.0000       0.131944         3.5904
  34   0.0000       0.143225         3.8974
  35   0.0000       0.155457         4.2302
  36   0.0000       0.157880         4.2961
  37   0.0000       0.173145         4.7115

MULLIKEN ATOMIC CHARGES
-----------------------
   0 O :   -0.284799
   1 C :    0.051789
   2 C :    0.114615
   3 C :   -0.305714
   4 C :   -0.088785
   5 C :   -0.156787
   6 C :   -0.265717
   7 C :   -0.099866
   8 C :   -0.234920
   9 H :    0.067461
  10 H :    0.142042
  11 H :    0.134952
  12 H :    0.136731
  13 H :    0.128621
  14 H :    0.134227
  15 H :    0.119818
  16 H :    0.129448
  17 H :    0.124749
  18 H :    0.152134
Sum of atomic charges:    0.0000000

LOEWDIN ATOMIC CHARGES
----------------------
   0 O :    0.120971
   1 C :   -0.277753
   2 C :   -0.200288
   3 C :   -0.169402
   4 C :   -0.141457
   5 C :   -0.175768
   6 C :   -0.201844
   7 C :   -0.184477
   8 C :   -0.177318
   9 H :    0.117402
  10 H :    0.140578
  11 H :    0.138136
  12 H :    0.152167
  13 H :    0.147583
  14 H :    0.135831
  15 H :    0.130502
  16 H :    0.143873
  17 H :    0.145005
  18 H :    0.156260

  Mayer bond orders larger than 0.1
B(  0-O ,  1-C ) :   1.9817 B(  1-C ,  2-C ) :   0.9008 B(  1-C ,  9-H ) :   0.9519
B(  2-C ,  3-C ) :   0.8391 B(  2-C ,  4-C ) :   0.7725 B(  2-C ,  8-C ) :   0.9330
B(  3-C ,  4-C ) :   0.9063 B(  3-C , 10-H ) :   0.9241 B(  3-C , 11-H ) :   0.9096
B(  4-C ,  5-C ) :   0.9205 B(  4-C , 12-H ) :   0.9219 B(  5-C ,  6-C ) :   0.8978
B(  5-C ,  7-C ) :   0.8770 B(  5-C , 13-H ) :   0.9283 B(  6-C ,  7-C ) :   0.8828
B(  6-C , 14-H ) :   0.9313 B(  6-C , 15-H ) :   0.9233 B(  7-C ,  8-C ) :   0.9442
B(  7-C , 16-H ) :   0.9333 B(  8-C , 17-H ) :   0.9217 B(  8-C , 18-H ) :   0.9143

MP2 TOTAL ENERGY:     -385.205351463 Eh
FINAL SINGLE POINT ENERGY      -385.205351462720

DIPOLE MOMENT
-------------
                                X             Y             Z
Electronic contribution:     -4.26768      -3.30341       0.19670
Nuclear contribution   :      4.83498       4.31543      -0.50794
                        -----------------------------------------
Total Dipole Moment    :      0.56729       1.01202      -0.31124
                        -----------------------------------------
Magnitude (a.u.)       :      1.20120
Magnitude (Debye)      :      3.05320

                             ****ORCA TERMINATED NORMALLY****
TOTAL RUN TIME: 0 days 0 hours 19 minutes 27 seconds 998 msec
