                         Program Version 3.0.3 - RELEASE   -
|  1> ! RI-MP2 RIJK def2-TZVP def2-TZVP/C def2-TZVP/JK TIGHTSCF
|  2> % maxcore 2000
|  3> % mp2 density relaxed end
|  4> *xyz 0 1
|  5>  C       -0.1476881525     1.4381015758     0.0075488355
|  6>  C        0.0563234652    -0.0595793305     0.1192315852
|  7>  N        1.0723006609    -0.6620195013    -0.7751734704
|  8>  C        0.6397974037    -1.2019719028    -2.0468372569
|  9>  C        1.4749439927    -1.6068414265     0.2830981789
| 10>  C        0.8614074702    -0.6410720340     1.3362545523
| 11>  O        1.7740272345     0.2426482145     1.9424112298
| 12>  C        0.0462385315    -1.2621568063     2.4458223196
| 13>  O       -0.8236708017    -2.0745105830     2.2595213441
| 14>  H        0.7851411000     1.9825578073     0.1762842939
| 15>  H       -0.5161261772     1.6981048525    -0.9903092702
| 16>  H       -0.8854548571     1.7840052886     0.7385937849
| 17>  H       -0.9070920448    -0.5921579317     0.0576641146
| 18>  H        0.2760523061    -0.3942566547    -2.6903417552
| 19>  H        1.4853126750    -1.6770594012    -2.5554950145
| 20>  H       -0.1664013634    -1.9518251906    -1.9442839997
| 21>  H        0.9296897914    -2.5626817864     0.2558871276
| 22>  H        2.5514040246    -1.7927550520     0.3676462751
| 23>  H        2.3431225335     0.5980246323     1.2510428599
| 24>  H        0.3171396276    -0.9009926000     3.4611745254
| 25> *
| 26>
| 27>                          ****END OF INPUT****

CARTESIAN COORDINATES (ANGSTROEM)
---------------------------------
  C     -0.147688    1.438102    0.007549
  C      0.056323   -0.059579    0.119232
  N      1.072301   -0.662020   -0.775173
  C      0.639797   -1.201972   -2.046837
  C      1.474944   -1.606841    0.283098
  C      0.861407   -0.641072    1.336255
  O      1.774027    0.242648    1.942411
  C      0.046239   -1.262157    2.445822
  O     -0.823671   -2.074511    2.259521
  H      0.785141    1.982558    0.176284
  H     -0.516126    1.698105   -0.990309
  H     -0.885455    1.784005    0.738594
  H     -0.907092   -0.592158    0.057664
  H      0.276052   -0.394257   -2.690342
  H      1.485313   -1.677059   -2.555495
  H     -0.166401   -1.951825   -1.944284
  H      0.929690   -2.562682    0.255887
  H      2.551404   -1.792755    0.367646
  H      2.343123    0.598025    1.251043
  H      0.317140   -0.900993    3.461175

 Total Charge           Charge          ....    0
 Multiplicity           Mult            ....    1
 Number of Electrons    NEL             ....   70
 Basis Dimension        Dim             ....  345

ORBITAL ENERGIES
----------------

  NO   OCC          E(Eh)            E(eV)
   0   2.0000     -20.577080      -559.9308
   1   2.0000     -20.562909      -559.5452
   2   2.0000     -15.557908      -423.3522
   3   2.0000     -11.333471      -308.3994
   4   2.0000     -11.303695      -307.5892
   5   2.0000     -11.270041      -306.6734
   6   2.0000     -11.264822      -306.5314
   7   2.0000     -11.250437      -306.1399
   8   2.0000     -11.223691      -305.4122
   9   2.0000      -1.406589       -38.2752
  10   2.0000      -1.387275       -37.7497
  11   2.0000      -1.257009       -34.2050
  12   2.0000      -1.042393       -28.3650
  13   2.0000      -1.006649       -27.3923
  14   2.0000      -0.935498       -25.4562
  15   2.0000      -0.875583       -23.8258
  16   2.0000      -0.816956       -22.2305
  17   2.0000      -0.751025       -20.4364
  18   2.0000      -0.706131       -19.2148
  19   2.0000      -0.692490       -18.8436
  20   2.0000      -0.650331       -17.6964
  21   2.0000      -0.642432       -17.4815
  22   2.0000      -0.625541       -17.0218
  23   2.0000      -0.608640       -16.5619
  24   2.0000      -0.592212       -16.1149
  25   2.0000      -0.566889       -15.4258
  26   2.0000      -0.563785       -15.3414
  27   2.0000      -0.552438       -15.0326
  28   2.0000      -0.530931       -14.4474
  29   2.0000      -0.515403       -14.0248
  30   2.0000      -0.494227       -13.4486
  31   2.0000      -0.480137       -13.0652
  32   2.0000      -0.427001       -11.6193
  33   2.0000      -0.418721       -11.3940
  34   2.0000      -0.374485       -10.1902
  35   0.0000       0.116018         3.1570
  36   0.0000       0.134816         3.6685
  37   0.0000       0.151591         4.1250
  38   0.0000       0.163657         4.4533
  39   0.0000       0.186172         5.0660

MULLIKEN ATOMIC CHARGES
-----------------------
   0 C :   -0.356595
   1 C :   -0.141962
   2 N :   -0.153199
   3 C :   -0.346791
   4 C :   -0.240534
   5 C :    0.322196
   6 O :   -0.457202
   7 C :    0.078274
   8 O :   -0.272040
   9 H :    0.108658
  10 H :    0.135808
  11 H :    0.134952
  12 H :    0.108929
  13 H :    0.136637
  14 H :    0.139986
  15 H :    0.117845
  16 H :    0.124779
  17 H :    0.124799
  18 H :    0.332185
  19 H :    0.103273
Sum of atomic charges:   -0.0000000

LOEWDIN ATOMIC CHARGES
----------------------
   0 C :   -0.292288
   1 C :   -0.244929
   2 N :    0.077844
   3 C :   -0.336614
   4 C :   -0.215298
   5 C :   -0.340560
   6 O :    0.029161
   7 C :   -0.251363
   8 O :    0.141771
   9 H :    0.121317
  10 H :    0.128536
  11 H :    0.130057
  12 H :    0.147128
  13 H :    0.118988
  14 H :    0.119735
  15 H :    0.105182
  16 H :    0.132502
  17 H :    0.124105
  18 H :    0.185205
  19 H :    0.119520

  Mayer bond orders larger than 0.1
B(  0-C ,  1-C ) :   0.9304 B(  0-C ,  9-H ) :   0.9228 B(  0-C , 10-H ) :   0.9364
B(  0-C , 11-H ) :   0.9359 B(  1-C ,  2-N ) :   0.8963 B(  1-C ,  5-C ) :   0.8759
B(  1-C , 12-H ) :   0.9078 B(  2-N ,  3-C ) :   0.9212 B(  2-N ,  4-C ) :   0.9205
B(  3-C , 13-H ) :   0.9351 B(  3-C , 14-H ) :   0.9358 B(  3-C , 15-H ) :   0.9321
B(  4-C ,  5-C ) :   0.9064 B(  4-C , 16-H ) :   0.9083 B(  4-C , 17-H ) :   0.9116
B(  5-C ,  6-O ) :   0.9845 B(  5-C ,  7-C ) :   0.8256 B(  6-O , 18-H ) :   0.8298
B(  7-C ,  8-O ) :   1.9785 B(  7-C , 19-H ) :   0.9337

MP2 TOTAL ENERGY:     -439.549011814 Eh
FINAL SINGLE POINT ENERGY      -439.549011814286

DIPOLE MOMENT
-------------
                                X             Y             Z
Electronic contribution:      0.30865      -2.65030       7.46156
Nuclear contribution   :      0.10095       3.00670      -8.13212
                        -----------------------------------------
Total Dipole Moment    :      0.40960       0.35640      -0.67056
                        -----------------------------------------
Magnitude (a.u.)       :      0.86282
Magnitude (Debye)      :      2.19310

                             ****ORCA TERMINATED NORMALLY****
TOTAL RUN TIME: 0 days 0 hours 18 minutes 47 seconds 417 msec
