                         Program Version 3.0.3 - RELEASE   -
|  1> ! RI-MP2 RIJK def2-TZVP def2-TZVP/C def2-TZVP/JK TIGHTSCF
|  2> % maxcore 2000
|  3> % mp2 density relaxed end
|  4> *xyz 0 1
|  5>  C        0.1990373208     1.4521213806    -0.1777866197
|  6>  C       -0.0062239325    -0.0439331192    -0.0399276121
|  7>  O        0.6741423126    -0.6779100630    -1.1401515945
|  8>  C        0.6127122865    -2.0194528450    -1.1942434473
|  9>  N       -0.0141505516    -2.7073543740    -0.3380269373
| 10>  C        1.4143509904    -2.4888858193    -2.4146901823
| 11>  C        2.9200861453    -2.1686605512    -2.2620314195
| 12>  C        1.2007849205    -3.9153118837    -2.6588390220
| 13>  N        1.0420912212    -5.0455140742    -2.8393694695
| 14>  H        1.2620658292     1.7073646997    -0.1427999739
| 15>  H       -0.2127116546     1.8189546515    -1.1222661238
| 16>  H       -0.3060226934     1.9707660308     0.6422924695
| 17>  H        0.4006990962    -0.4335986665     0.8984832888
| 18>  H       -1.0643102379    -0.3218924699    -0.0739590119
| 19>  H        0.0425466738    -3.7028440203    -0.5441509728
| 20>  H        1.0305477373    -1.9380969697    -3.2818590234
| 21>  H        3.3406614862    -2.7031436520    -1.4067002311
| 22>  H        3.4659322850    -2.4651660729    -3.1602631069
| 23>  H        3.0423151847    -1.0962736616    -2.1050644603
| 24> *
| 25>
| 26>                          ****END OF INPUT****

CARTESIAN COORDINATES (ANGSTROEM)
---------------------------------
  C      0.199037    1.452121   -0.177787
  C     -0.006224   -0.043933   -0.039928
  O      0.674142   -0.677910   -1.140152
  C      0.612712   -2.019453   -1.194243
  N     -0.014151   -2.707354   -0.338027
  C      1.414351   -2.488886   -2.414690
  C      2.920086   -2.168661   -2.262031
  C      1.200785   -3.915312   -2.658839
  N      1.042091   -5.045514   -2.839369
  H      1.262066    1.707365   -0.142800
  H     -0.212712    1.818955   -1.122266
  H     -0.306023    1.970766    0.642292
  H      0.400699   -0.433599    0.898483
  H     -1.064310   -0.321892   -0.073959
  H      0.042547   -3.702844   -0.544151
  H      1.030548   -1.938097   -3.281859
  H      3.340661   -2.703144   -1.406700
  H      3.465932   -2.465166   -3.160263
  H      3.042315   -1.096274   -2.105064

 Total Charge           Charge          ....    0
 Multiplicity           Mult            ....    1
 Number of Electrons    NEL             ....   68
 Basis Dimension        Dim             ....  339

ORBITAL ENERGIES
----------------

  NO   OCC          E(Eh)            E(eV)
   0   2.0000     -20.602845      -560.6319
   1   2.0000     -15.582009      -424.0080
   2   2.0000     -15.548921      -423.1077
   3   2.0000     -11.359136      -309.0978
   4   2.0000     -11.307102      -307.6819
   5   2.0000     -11.291076      -307.2458
   6   2.0000     -11.283531      -307.0405
   7   2.0000     -11.255301      -306.2723
   8   2.0000     -11.229269      -305.5639
   9   2.0000      -1.441320       -39.2203
  10   2.0000      -1.236330       -33.6422
  11   2.0000      -1.208829       -32.8939
  12   2.0000      -1.102307       -29.9953
  13   2.0000      -1.038414       -28.2567
  14   2.0000      -0.931090       -25.3363
  15   2.0000      -0.879740       -23.9389
  16   2.0000      -0.801834       -21.8190
  17   2.0000      -0.733008       -19.9462
  18   2.0000      -0.701488       -19.0885
  19   2.0000      -0.678852       -18.4725
  20   2.0000      -0.674537       -18.3551
  21   2.0000      -0.613275       -16.6881
  22   2.0000      -0.586168       -15.9504
  23   2.0000      -0.584367       -15.9014
  24   2.0000      -0.565203       -15.3800
  25   2.0000      -0.562054       -15.2943
  26   2.0000      -0.553508       -15.0617
  27   2.0000      -0.545604       -14.8466
  28   2.0000      -0.515579       -14.0296
  29   2.0000      -0.494302       -13.4506
  30   2.0000      -0.475622       -12.9423
  31   2.0000      -0.467142       -12.7116
  32   2.0000      -0.443131       -12.0582
  33   2.0000      -0.418202       -11.3798
  34   0.0000       0.115768         3.1502
  35   0.0000       0.139992         3.8094
  36   0.0000       0.153728         4.1831
  37   0.0000       0.165303         4.4981
  38   0.0000       0.168792         4.5931

MULLIKEN ATOMIC CHARGES
-----------------------
   0 C :   -0.360669
   1 C :   -0.057158
   2 O :   -0.256903
   3 C :    0.134339
   4 N :   -0.379677
   5 C :    0.118587
   6 C :   -0.396196
   7 C :   -0.238895
   8 N :   -0.046080
   9 H :    0.130509
  10 H :    0.132240
  11 H :    0.133876
  12 H :    0.122454
  13 H :    0.125804
  14 H :    0.238102
  15 H :    0.143024
  16 H :    0.143997
  17 H :    0.152083
  18 H :    0.160565
Sum of atomic charges:    0.0000000

LOEWDIN ATOMIC CHARGES
----------------------
   0 C :   -0.316254
   1 C :   -0.302969
   2 O :    0.254536
   3 C :   -0.398149
   4 N :   -0.040942
   5 C :   -0.232606
   6 C :   -0.255642
   7 C :   -0.174057
   8 N :    0.068490
   9 H :    0.124177
  10 H :    0.124810
  11 H :    0.129310
  12 H :    0.129240
  13 H :    0.130101
  14 H :    0.175649
  15 H :    0.186539
  16 H :    0.133066
  17 H :    0.131739
  18 H :    0.132962

  Mayer bond orders larger than 0.1
B(  0-C ,  1-C ) :   0.9368 B(  0-C ,  9-H ) :   0.9338 B(  0-C , 10-H ) :   0.9337
B(  0-C , 11-H ) :   0.9356 B(  1-C ,  2-O ) :   0.8300 B(  1-C , 12-H ) :   0.9298
B(  1-C , 13-H ) :   0.9325 B(  2-O ,  3-C ) :   1.1169 B(  3-C ,  4-N ) :   1.9331
B(  3-C ,  5-C ) :   0.8818 B(  4-N , 14-H ) :   0.8566 B(  5-C ,  6-C ) :   0.8755
B(  5-C ,  7-C ) :   0.8936 B(  5-C , 15-H ) :   0.9018 B(  6-C , 16-H ) :   0.9258
B(  6-C , 17-H ) :   0.9306 B(  6-C , 18-H ) :   0.9312 B(  7-C ,  8-N ) :   2.8633

MP2 TOTAL ENERGY:     -418.528484313 Eh
FINAL SINGLE POINT ENERGY      -418.528484313272

DIPOLE MOMENT
-------------
                                X             Y             Z
Electronic contribution:     -1.49526      -9.39005      -3.54842
Nuclear contribution   :      1.95320      10.89705       3.59354
                        -----------------------------------------
Total Dipole Moment    :      0.45794       1.50700       0.04512
                        -----------------------------------------
Magnitude (a.u.)       :      1.57569
Magnitude (Debye)      :      4.00509

                             ****ORCA TERMINATED NORMALLY****
TOTAL RUN TIME: 0 days 0 hours 16 minutes 17 seconds 643 msec
