                         Program Version 3.0.3 - RELEASE   -
|  1> ! RI-MP2 RIJK def2-TZVP def2-TZVP/C def2-TZVP/JK TIGHTSCF
|  2> % maxcore 2000
|  3> % mp2 density relaxed end
|  4> *xyz 0 1
|  5>  C       -0.8451317745     1.1964152217    -0.6837900737
|  6>  O       -0.8979304835    -0.2117756808    -0.6323272061
|  7>  C       -0.7566156138    -0.7209973812     0.6667988868
|  8>  C       -0.8884157110    -2.2504304779     0.6000762276
|  9>  N       -0.6113419543    -2.8121193913     1.9280947733
| 10>  C       -2.1903665319    -2.6509999532     0.0543916886
| 11>  C       -3.2763871931    -3.0195557695    -0.3297415388
| 12>  C       -4.5023767106    -3.4305272091    -0.7664939790
| 13>  N       -5.5469033414    -3.7824056398    -1.1345182707
| 14>  H       -0.9679046379     1.4867908720    -1.7292735790
| 15>  H       -1.6499777499     1.6544399553    -0.0886651094
| 16>  H        0.1187304299     1.5810120384    -0.3163187269
| 17>  H        0.2286689692    -0.4859460864     1.0968358537
| 18>  H       -1.5262708216    -0.3098750896     1.3426368164
| 19>  H       -0.1087320161    -2.6059571358    -0.0843670357
| 20>  H       -1.3795020517    -2.5939103230     2.5576046926
| 21>  H       -0.5743928377    -3.8252422898     1.8704316904
| 22> *
| 23>
| 24>                          ****END OF INPUT****

CARTESIAN COORDINATES (ANGSTROEM)
---------------------------------
  C     -0.845132    1.196415   -0.683790
  O     -0.897930   -0.211776   -0.632327
  C     -0.756616   -0.720997    0.666799
  C     -0.888416   -2.250430    0.600076
  N     -0.611342   -2.812119    1.928095
  C     -2.190367   -2.651000    0.054392
  C     -3.276387   -3.019556   -0.329742
  C     -4.502377   -3.430527   -0.766494
  N     -5.546903   -3.782406   -1.134518
  H     -0.967905    1.486791   -1.729274
  H     -1.649978    1.654440   -0.088665
  H      0.118730    1.581012   -0.316319
  H      0.228669   -0.485946    1.096836
  H     -1.526271   -0.309875    1.342637
  H     -0.108732   -2.605957   -0.084367
  H     -1.379502   -2.593910    2.557605
  H     -0.574393   -3.825242    1.870432

 Total Charge           Charge          ....    0
 Multiplicity           Mult            ....    1
 Number of Electrons    NEL             ....   66
 Basis Dimension        Dim             ....  327

ORBITAL ENERGIES
----------------

  NO   OCC          E(Eh)            E(eV)
   0   2.0000     -20.575375      -559.8844
   1   2.0000     -15.590672      -424.2438
   2   2.0000     -15.576497      -423.8580
   3   2.0000     -11.312292      -307.8231
   4   2.0000     -11.301810      -307.5379
   5   2.0000     -11.298842      -307.4571
   6   2.0000     -11.288678      -307.1805
   7   2.0000     -11.285101      -307.0832
   8   2.0000     -11.274678      -306.7996
   9   2.0000      -1.399351       -38.0783
  10   2.0000      -1.231688       -33.5159
  11   2.0000      -1.225771       -33.3549
  12   2.0000      -1.087702       -29.5979
  13   2.0000      -1.027114       -27.9492
  14   2.0000      -0.938099       -25.5270
  15   2.0000      -0.893627       -24.3168
  16   2.0000      -0.849734       -23.1224
  17   2.0000      -0.728519       -19.8240
  18   2.0000      -0.702027       -19.1031
  19   2.0000      -0.673898       -18.3377
  20   2.0000      -0.663455       -18.0535
  21   2.0000      -0.632525       -17.2119
  22   2.0000      -0.598814       -16.2945
  23   2.0000      -0.576042       -15.6749
  24   2.0000      -0.561180       -15.2705
  25   2.0000      -0.544596       -14.8192
  26   2.0000      -0.529235       -14.4012
  27   2.0000      -0.521997       -14.2043
  28   2.0000      -0.501730       -13.6528
  29   2.0000      -0.453973       -12.3532
  30   2.0000      -0.442712       -12.0468
  31   2.0000      -0.401052       -10.9132
  32   2.0000      -0.398202       -10.8356
  33   0.0000       0.093214         2.5365
  34   0.0000       0.097536         2.6541
  35   0.0000       0.122427         3.3314
  36   0.0000       0.142286         3.8718
  37   0.0000       0.156634         4.2622

MULLIKEN ATOMIC CHARGES
-----------------------
   0 C :   -0.218276
   1 O :   -0.304024
   2 C :   -0.029258
   3 C :    0.029281
   4 N :   -0.525264
   5 C :   -0.197675
   6 C :    0.284393
   7 C :   -0.211345
   8 N :   -0.038784
   9 H :    0.145433
  10 H :    0.117510
  11 H :    0.116068
  12 H :    0.125856
  13 H :    0.092289
  14 H :    0.137724
  15 H :    0.235902
  16 H :    0.240171
Sum of atomic charges:   -0.0000000

LOEWDIN ATOMIC CHARGES
----------------------
   0 C :   -0.351673
   1 O :    0.146732
   2 C :   -0.302444
   3 C :   -0.318345
   4 N :   -0.124731
   5 C :    0.017581
   6 C :   -0.056522
   7 C :   -0.178513
   8 N :    0.095753
   9 H :    0.116286
  10 H :    0.103779
  11 H :    0.103793
  12 H :    0.129720
  13 H :    0.124039
  14 H :    0.172465
  15 H :    0.160875
  16 H :    0.161203

  Mayer bond orders larger than 0.1
B(  0-C ,  1-O ) :   0.9114 B(  0-C ,  9-H ) :   0.9379 B(  0-C , 10-H ) :   0.9375
B(  0-C , 11-H ) :   0.9369 B(  1-O ,  2-C ) :   0.9582 B(  2-C ,  3-C ) :   0.9675
B(  2-C , 12-H ) :   0.9273 B(  2-C , 13-H ) :   0.9027 B(  3-C ,  4-N ) :   0.9104
B(  3-C ,  5-C ) :   1.0385 B(  3-C , 14-H ) :   0.9212 B(  4-N ,  5-C ) :   0.1194
B(  4-N , 15-H ) :   0.8884 B(  4-N , 16-H ) :   0.8959 B(  5-C ,  6-C ) :   2.5616
B(  5-C ,  8-N ) :   0.1113 B(  6-C ,  7-C ) :   0.9714 B(  7-C ,  8-N ) :   2.7664

MP2 TOTAL ENERGY:     -417.256409674 Eh
FINAL SINGLE POINT ENERGY      -417.256409674456

DIPOLE MOMENT
-------------
                                X             Y             Z
Electronic contribution:     -8.66137      -8.47930      -3.49744
Nuclear contribution   :      9.99696       9.22300       4.34588
                        -----------------------------------------
Total Dipole Moment    :      1.33559       0.74369       0.84844
                        -----------------------------------------
Magnitude (a.u.)       :      1.74835
Magnitude (Debye)      :      4.44395

                             ****ORCA TERMINATED NORMALLY****
TOTAL RUN TIME: 0 days 0 hours 14 minutes 25 seconds 913 msec
