                         Program Version 3.0.3 - RELEASE   -
|  1> ! RI-MP2 RIJK def2-TZVP def2-TZVP/C def2-TZVP/JK TIGHTSCF
|  2> % maxcore 2000
|  3> % mp2 density relaxed end
|  4> *xyz 0 1
|  5>  C        0.0164541727     1.5251121425     0.0099811242
|  6>  C        0.0068605775    -0.0084441619    -0.0710696776
|  7>  C       -1.4244582355    -0.5576857388     0.0185950619
|  8>  C        0.7133473641    -0.5019251904    -1.3155106543
|  9>  C        2.1942653647    -0.2164581255    -1.7340193696
| 10>  C        1.6084944839    -1.1160057959    -2.8399498698
| 11>  O        2.3397081573    -1.5266866249    -3.9394133571
| 12>  C        0.9682178724    -1.9896430798    -1.7203210177
| 13>  C        0.3231396277    -0.2331049563    -2.8076587366
| 14>  H        1.0357579824     1.9222677107    -0.0147950838
| 15>  H       -0.5355841820     1.9650973018    -0.8282963543
| 16>  H       -0.4559486900     1.8685642612     0.9359927895
| 17>  H        0.5704042990    -0.3946762099     0.7910207061
| 18>  H       -2.0338123127    -0.2019104334    -0.8200077158
| 19>  H       -1.4368495948    -1.6517817799     0.0020300105
| 20>  H       -1.9094384218    -0.2300494541     0.9438036089
| 21>  H        2.4370636639     0.8105239037    -2.0195785239
| 22>  H        2.9726983260    -0.6582491610    -1.1053506725
| 23>  H        1.7738455347    -2.0762632623    -4.4922302356
| 24>  H        1.6566700785    -2.5575998581    -1.0878803315
| 25>  H        0.0891477930    -2.5805379897    -1.9958388590
| 26>  H       -0.6032129821    -0.6955147389    -3.1624334143
| 27>  H        0.4279502413     0.7937272910    -3.1681037376
| 28> *
| 29>
| 30>                          ****END OF INPUT****

CARTESIAN COORDINATES (ANGSTROEM)
---------------------------------
  C      0.016454    1.525112    0.009981
  C      0.006861   -0.008444   -0.071070
  C     -1.424458   -0.557686    0.018595
  C      0.713347   -0.501925   -1.315511
  C      2.194265   -0.216458   -1.734019
  C      1.608494   -1.116006   -2.839950
  O      2.339708   -1.526687   -3.939413
  C      0.968218   -1.989643   -1.720321
  C      0.323140   -0.233105   -2.807659
  H      1.035758    1.922268   -0.014795
  H     -0.535584    1.965097   -0.828296
  H     -0.455949    1.868564    0.935993
  H      0.570404   -0.394676    0.791021
  H     -2.033812   -0.201910   -0.820008
  H     -1.436850   -1.651782    0.002030
  H     -1.909438   -0.230049    0.943804
  H      2.437064    0.810524   -2.019579
  H      2.972698   -0.658249   -1.105351
  H      1.773846   -2.076263   -4.492230
  H      1.656670   -2.557600   -1.087880
  H      0.089148   -2.580538   -1.995839
  H     -0.603213   -0.695515   -3.162433
  H      0.427950    0.793727   -3.168104

 Total Charge           Charge          ....    0
 Multiplicity           Mult            ....    1
 Number of Electrons    NEL             ....   70
 Basis Dimension        Dim             ....  363

ORBITAL ENERGIES
----------------

  NO   OCC          E(Eh)            E(eV)
   0   2.0000     -20.561120      -559.4965
   1   2.0000     -11.294830      -307.3479
   2   2.0000     -11.245730      -306.0119
   3   2.0000     -11.228827      -305.5519
   4   2.0000     -11.223949      -305.4192
   5   2.0000     -11.223600      -305.4097
   6   2.0000     -11.221323      -305.3477
   7   2.0000     -11.212635      -305.1113
   8   2.0000     -11.211937      -305.0923
   9   2.0000      -1.373387       -37.3718
  10   2.0000      -1.204292       -32.7705
  11   2.0000      -1.064689       -28.9717
  12   2.0000      -0.932054       -25.3625
  13   2.0000      -0.909537       -24.7498
  14   2.0000      -0.905157       -24.6306
  15   2.0000      -0.862424       -23.4677
  16   2.0000      -0.779342       -21.2070
  17   2.0000      -0.726273       -19.7629
  18   2.0000      -0.684741       -18.6328
  19   2.0000      -0.629663       -17.1340
  20   2.0000      -0.621196       -16.9036
  21   2.0000      -0.611706       -16.6454
  22   2.0000      -0.602894       -16.4056
  23   2.0000      -0.565885       -15.3985
  24   2.0000      -0.556930       -15.1548
  25   2.0000      -0.548687       -14.9305
  26   2.0000      -0.532799       -14.4982
  27   2.0000      -0.501431       -13.6446
  28   2.0000      -0.488706       -13.2984
  29   2.0000      -0.488467       -13.2919
  30   2.0000      -0.445216       -12.1149
  31   2.0000      -0.437955       -11.9174
  32   2.0000      -0.436554       -11.8792
  33   2.0000      -0.423069       -11.5123
  34   2.0000      -0.402493       -10.9524
  35   0.0000       0.129134         3.5139
  36   0.0000       0.144678         3.9369
  37   0.0000       0.166462         4.5297
  38   0.0000       0.167020         4.5449
  39   0.0000       0.177481         4.8295

MULLIKEN ATOMIC CHARGES
-----------------------
   0 C :   -0.419846
   1 C :    0.020116
   2 C :   -0.422444
   3 C :   -0.143693
   4 C :   -0.162219
   5 C :    0.112133
   6 O :   -0.450350
   7 C :   -0.181006
   8 C :   -0.213776
   9 H :    0.135663
  10 H :    0.125844
  11 H :    0.133816
  12 H :    0.084856
  13 H :    0.125488
  14 H :    0.134239
  15 H :    0.134333
  16 H :    0.111513
  17 H :    0.108338
  18 H :    0.320567
  19 H :    0.109576
  20 H :    0.110990
  21 H :    0.111616
  22 H :    0.114246
Sum of atomic charges:    0.0000000

LOEWDIN ATOMIC CHARGES
----------------------
   0 C :   -0.286066
   1 C :   -0.278459
   2 C :   -0.286534
   3 C :   -0.191729
   4 C :   -0.153283
   5 C :   -0.349295
   6 O :    0.021973
   7 C :   -0.168127
   8 C :   -0.168727
   9 H :    0.124268
  10 H :    0.124316
  11 H :    0.123172
  12 H :    0.157429
  13 H :    0.124130
  14 H :    0.123663
  15 H :    0.123327
  16 H :    0.131324
  17 H :    0.131335
  18 H :    0.183199
  19 H :    0.130038
  20 H :    0.126928
  21 H :    0.127005
  22 H :    0.130114

  Mayer bond orders larger than 0.1
B(  0-C ,  1-C ) :   0.9144 B(  0-C ,  9-H ) :   0.9401 B(  0-C , 10-H ) :   0.9319
B(  0-C , 11-H ) :   0.9409 B(  1-C ,  2-C ) :   0.9136 B(  1-C ,  3-C ) :   0.8740
B(  1-C , 12-H ) :   0.9284 B(  2-C , 13-H ) :   0.9322 B(  2-C , 14-H ) :   0.9402
B(  2-C , 15-H ) :   0.9410 B(  3-C ,  4-C ) :   0.8742 B(  3-C ,  7-C ) :   0.9000
B(  3-C ,  8-C ) :   0.9313 B(  4-C ,  5-C ) :   0.9286 B(  4-C , 16-H ) :   0.9217
B(  4-C , 17-H ) :   0.9225 B(  5-C ,  6-O ) :   1.0290 B(  5-C ,  7-C ) :   0.8925
B(  5-C ,  8-C ) :   0.8860 B(  6-O , 18-H ) :   0.8367 B(  7-C , 19-H ) :   0.9222
B(  7-C , 20-H ) :   0.9244 B(  8-C , 21-H ) :   0.9238 B(  8-C , 22-H ) :   0.9230

MP2 TOTAL ENERGY:     -387.587224428 Eh
FINAL SINGLE POINT ENERGY      -387.587224427889

DIPOLE MOMENT
-------------
                                X             Y             Z
Electronic contribution:      5.47929      -3.47994      -6.10905
Nuclear contribution   :     -6.05697       3.32839       6.25080
                        -----------------------------------------
Total Dipole Moment    :     -0.57768      -0.15155       0.14174
                        -----------------------------------------
Magnitude (a.u.)       :      0.61382
Magnitude (Debye)      :      1.56021

                             ****ORCA TERMINATED NORMALLY****
TOTAL RUN TIME: 0 days 0 hours 22 minutes 41 seconds 508 msec
