                         Program Version 3.0.3 - RELEASE   -
|  1> ! RI-MP2 RIJK def2-TZVP def2-TZVP/C def2-TZVP/JK TIGHTSCF
|  2> % maxcore 2000
|  3> % mp2 density relaxed end
|  4> *xyz 0 1
|  5>  O        0.1555053135     1.4442142500     0.0652991088
|  6>  C        0.0406125160     0.0406316196     0.0349555823
|  7>  C        0.6574700715    -0.5332779169    -1.1862548951
|  8>  N        1.1672088769    -0.9895296658    -2.1175384778
|  9>  C        0.6930130773    -0.5587609783     1.2658364884
| 10>  C        0.3432038626    -0.2629006376     2.7476100291
| 11>  C        1.6704353827    -1.0587235620     2.7144803870
| 12>  C        1.0341623996    -2.0183057571     1.6676324629
| 13>  N        2.1154594925    -0.1198487727     1.5967848162
| 14>  H        1.0307357870     1.6352233931     0.4349765864
| 15>  H       -1.0284806769    -0.2006983280     0.0184457174
| 16>  H        0.4223453301     0.7802597311     3.0512492668
| 17>  H       -0.5319582141    -0.7678212344     3.1581207824
| 18>  H        2.3311353090    -1.3021429216     3.5455409110
| 19>  H        0.2142063889    -2.6647919651     1.9940441465
| 20>  H        1.7294195416    -2.5434481769     1.0077587761
| 21>  H        2.7670985720    -0.6189212273     0.9819363316
| 22> *
| 23>
| 24>                          ****END OF INPUT****

CARTESIAN COORDINATES (ANGSTROEM)
---------------------------------
  O      0.155505    1.444214    0.065299
  C      0.040613    0.040632    0.034956
  C      0.657470   -0.533278   -1.186255
  N      1.167209   -0.989530   -2.117538
  C      0.693013   -0.558761    1.265836
  C      0.343204   -0.262901    2.747610
  C      1.670435   -1.058724    2.714480
  C      1.034162   -2.018306    1.667632
  N      2.115459   -0.119849    1.596785
  H      1.030736    1.635223    0.434977
  H     -1.028481   -0.200698    0.018446
  H      0.422345    0.780260    3.051249
  H     -0.531958   -0.767821    3.158121
  H      2.331135   -1.302143    3.545541
  H      0.214206   -2.664792    1.994044
  H      1.729420   -2.543448    1.007759
  H      2.767099   -0.618921    0.981936

 Total Charge           Charge          ....    0
 Multiplicity           Mult            ....    1
 Number of Electrons    NEL             ....   66
 Basis Dimension        Dim             ....  327

ORBITAL ENERGIES
----------------

  NO   OCC          E(Eh)            E(eV)
   0   2.0000     -20.586610      -560.1901
   1   2.0000     -15.580472      -423.9662
   2   2.0000     -15.576034      -423.8454
   3   2.0000     -11.346650      -308.7580
   4   2.0000     -11.310201      -307.7662
   5   2.0000     -11.299241      -307.4680
   6   2.0000     -11.278134      -306.8936
   7   2.0000     -11.259574      -306.3886
   8   2.0000     -11.253801      -306.2315
   9   2.0000      -1.401439       -38.1351
  10   2.0000      -1.308824       -35.6149
  11   2.0000      -1.224833       -33.3294
  12   2.0000      -1.043112       -28.3845
  13   2.0000      -1.027400       -27.9570
  14   2.0000      -0.943118       -25.6635
  15   2.0000      -0.870436       -23.6858
  16   2.0000      -0.772863       -21.0307
  17   2.0000      -0.754770       -20.5383
  18   2.0000      -0.732937       -19.9442
  19   2.0000      -0.672321       -18.2948
  20   2.0000      -0.655181       -17.8284
  21   2.0000      -0.628910       -17.1135
  22   2.0000      -0.588565       -16.0157
  23   2.0000      -0.572344       -15.5743
  24   2.0000      -0.528017       -14.3681
  25   2.0000      -0.527827       -14.3629
  26   2.0000      -0.516073       -14.0431
  27   2.0000      -0.498159       -13.5556
  28   2.0000      -0.488622       -13.2961
  29   2.0000      -0.479806       -13.0562
  30   2.0000      -0.470708       -12.8086
  31   2.0000      -0.448205       -12.1963
  32   2.0000      -0.416330       -11.3289
  33   0.0000       0.126675         3.4470
  34   0.0000       0.144792         3.9400
  35   0.0000       0.146072         3.9748
  36   0.0000       0.158887         4.3235
  37   0.0000       0.174010         4.7351

MULLIKEN ATOMIC CHARGES
-----------------------
   0 O :   -0.443783
   1 C :    0.271334
   2 C :   -0.187325
   3 N :   -0.056960
   4 C :   -0.183473
   5 C :   -0.111595
   6 C :   -0.105044
   7 C :   -0.170112
   8 N :   -0.363539
   9 H :    0.340615
  10 H :    0.135875
  11 H :    0.123040
  12 H :    0.128152
  13 H :    0.149637
  14 H :    0.121797
  15 H :    0.140135
  16 H :    0.211245
Sum of atomic charges:   -0.0000000

LOEWDIN ATOMIC CHARGES
----------------------
   0 O :    0.022229
   1 C :   -0.315650
   2 C :   -0.161691
   3 N :    0.069355
   4 C :   -0.262442
   5 C :   -0.168959
   6 C :   -0.211739
   7 C :   -0.178807
   8 N :    0.018757
   9 H :    0.189513
  10 H :    0.172423
  11 H :    0.137119
  12 H :    0.133956
  13 H :    0.126040
  14 H :    0.131906
  15 H :    0.134725
  16 H :    0.163263

  Mayer bond orders larger than 0.1
B(  0-O ,  1-C ) :   0.9835 B(  0-O ,  9-H ) :   0.8105 B(  1-C ,  2-C ) :   0.8793
B(  1-C ,  4-C ) :   0.8965 B(  1-C , 10-H ) :   0.9019 B(  2-C ,  3-N ) :   2.8525
B(  4-C ,  5-C ) :   0.8828 B(  4-C ,  7-C ) :   0.8726 B(  4-C ,  8-N ) :   0.8969
B(  5-C ,  6-C ) :   0.9090 B(  5-C , 11-H ) :   0.9098 B(  5-C , 12-H ) :   0.9290
B(  6-C ,  7-C ) :   0.9301 B(  6-C ,  8-N ) :   0.8900 B(  6-C , 13-H ) :   0.8986
B(  7-C , 14-H ) :   0.9297 B(  7-C , 15-H ) :   0.9180 B(  8-N , 16-H ) :   0.8717

MP2 TOTAL ENERGY:     -417.247233701 Eh
FINAL SINGLE POINT ENERGY      -417.247233701381

DIPOLE MOMENT
-------------
                                X             Y             Z
Electronic contribution:     -0.16314       1.66253      -6.01385
Nuclear contribution   :     -0.07267      -2.22759       7.54547
                        -----------------------------------------
Total Dipole Moment    :     -0.23581      -0.56506       1.53162
                        -----------------------------------------
Magnitude (a.u.)       :      1.64947
Magnitude (Debye)      :      4.19262

                             ****ORCA TERMINATED NORMALLY****
TOTAL RUN TIME: 0 days 0 hours 18 minutes 52 seconds 730 msec
