                         Program Version 3.0.3 - RELEASE   -
|  1> ! RI-MP2 RIJK def2-TZVP def2-TZVP/C def2-TZVP/JK TIGHTSCF
|  2> % maxcore 2000
|  3> % mp2 density relaxed end
|  4> *xyz 0 1
|  5>  C       -0.2408632814     1.5416993410    -0.2087155296
|  6>  C       -0.1345544602     0.0183641384    -0.0950283786
|  7>  C        0.8706352425    -0.5727683127    -1.0923104851
|  8>  C        0.9051015368    -2.1044228819    -1.1104305899
|  9>  C        1.3847774161    -2.7479361511     0.1847236055
| 10>  O       -0.3801819372    -2.6622849580    -1.5435276624
| 11>  C        0.1459816756    -3.2149467418    -2.7635255804
| 12>  C        1.5353893047    -2.6897807372    -2.3890449238
| 13>  O        2.6288964859    -2.7165676422    -2.8656011169
| 14>  H        0.7240226024     2.0239455640    -0.0159709315
| 15>  H       -0.5656504542     1.8424731887    -1.2108961291
| 16>  H       -0.9627403547     1.9424777842     0.5094545032
| 17>  H        0.1526319822    -0.2485723590     0.9286581486
| 18>  H       -1.1136365233    -0.4395196250    -0.2747368005
| 19>  H        0.6180939444    -0.2210347879    -2.1008559902
| 20>  H        1.8839976605    -0.2082652100    -0.8814817604
| 21>  H        0.7066582925    -2.5064617684     1.0074699379
| 22>  H        1.4226379280    -3.8362257044     0.0865093181
| 23>  H        2.3862455135    -2.3874728464     0.4384702192
| 24>  H        0.0560116477    -4.3074834681    -2.8178742009
| 25>  H       -0.2942685318    -2.7730423421    -3.6668005230
| 26> *
| 27>
| 28>                          ****END OF INPUT****

CARTESIAN COORDINATES (ANGSTROEM)
---------------------------------
  C     -0.240863    1.541699   -0.208716
  C     -0.134554    0.018364   -0.095028
  C      0.870635   -0.572768   -1.092310
  C      0.905102   -2.104423   -1.110431
  C      1.384777   -2.747936    0.184724
  O     -0.380182   -2.662285   -1.543528
  C      0.145982   -3.214947   -2.763526
  C      1.535389   -2.689781   -2.389045
  O      2.628896   -2.716568   -2.865601
  H      0.724023    2.023946   -0.015971
  H     -0.565650    1.842473   -1.210896
  H     -0.962740    1.942478    0.509455
  H      0.152632   -0.248572    0.928658
  H     -1.113637   -0.439520   -0.274737
  H      0.618094   -0.221035   -2.100856
  H      1.883998   -0.208265   -0.881482
  H      0.706658   -2.506462    1.007470
  H      1.422638   -3.836226    0.086509
  H      2.386246   -2.387473    0.438470
  H      0.056012   -4.307483   -2.817874
  H     -0.294269   -2.773042   -3.666801

 Total Charge           Charge          ....    0
 Multiplicity           Mult            ....    1
 Number of Electrons    NEL             ....   70
 Basis Dimension        Dim             ....  351

ORBITAL ENERGIES
----------------

  NO   OCC          E(Eh)            E(eV)
   0   2.0000     -20.569363      -559.7208
   1   2.0000     -20.565130      -559.6057
   2   2.0000     -11.341752      -308.6248
   3   2.0000     -11.303993      -307.5973
   4   2.0000     -11.297048      -307.4083
   5   2.0000     -11.235394      -305.7306
   6   2.0000     -11.232039      -305.6393
   7   2.0000     -11.226409      -305.4861
   8   2.0000     -11.218185      -305.2623
   9   2.0000      -1.420093       -38.6427
  10   2.0000      -1.387349       -37.7517
  11   2.0000      -1.090059       -29.6620
  12   2.0000      -1.027056       -27.9476
  13   2.0000      -0.976799       -26.5801
  14   2.0000      -0.943434       -25.6721
  15   2.0000      -0.876197       -23.8425
  16   2.0000      -0.808606       -22.0033
  17   2.0000      -0.710098       -19.3228
  18   2.0000      -0.683477       -18.5983
  19   2.0000      -0.679002       -18.4766
  20   2.0000      -0.671265       -18.2661
  21   2.0000      -0.639070       -17.3900
  22   2.0000      -0.599800       -16.3214
  23   2.0000      -0.582460       -15.8495
  24   2.0000      -0.571492       -15.5511
  25   2.0000      -0.559901       -15.2357
  26   2.0000      -0.543420       -14.7872
  27   2.0000      -0.532450       -14.4887
  28   2.0000      -0.526204       -14.3187
  29   2.0000      -0.514283       -13.9944
  30   2.0000      -0.499792       -13.6000
  31   2.0000      -0.483842       -13.1660
  32   2.0000      -0.476320       -12.9613
  33   2.0000      -0.433219       -11.7885
  34   2.0000      -0.401008       -10.9120
  35   0.0000       0.125540         3.4161
  36   0.0000       0.132441         3.6039
  37   0.0000       0.148507         4.0411
  38   0.0000       0.159470         4.3394
  39   0.0000       0.176898         4.8136

MULLIKEN ATOMIC CHARGES
-----------------------
   0 C :   -0.387016
   1 C :   -0.227231
   2 C :   -0.262005
   3 C :    0.311976
   4 C :   -0.434226
   5 O :   -0.350194
   6 C :   -0.047600
   7 C :    0.089297
   8 O :   -0.242533
   9 H :    0.122096
  10 H :    0.126000
  11 H :    0.135990
  12 H :    0.109172
  13 H :    0.135860
  14 H :    0.113448
  15 H :    0.126831
  16 H :    0.151224
  17 H :    0.137939
  18 H :    0.142167
  19 H :    0.124900
  20 H :    0.123904
Sum of atomic charges:   -0.0000000

LOEWDIN ATOMIC CHARGES
----------------------
   0 C :   -0.318996
   1 C :   -0.288794
   2 C :   -0.222146
   3 C :   -0.308537
   4 C :   -0.259196
   5 O :    0.156894
   6 C :   -0.249898
   7 C :   -0.284504
   8 O :    0.177553
   9 H :    0.120525
  10 H :    0.121146
  11 H :    0.121747
  12 H :    0.134404
  13 H :    0.142118
  14 H :    0.147481
  15 H :    0.148860
  16 H :    0.132671
  17 H :    0.131611
  18 H :    0.135871
  19 H :    0.130734
  20 H :    0.130456

  Mayer bond orders larger than 0.1
B(  0-C ,  1-C ) :   0.9163 B(  0-C ,  9-H ) :   0.9371 B(  0-C , 10-H ) :   0.9421
B(  0-C , 11-H ) :   0.9434 B(  1-C ,  2-C ) :   0.9212 B(  1-C , 12-H ) :   0.9324
B(  1-C , 13-H ) :   0.9340 B(  2-C ,  3-C ) :   0.9191 B(  2-C , 14-H ) :   0.9156
B(  2-C , 15-H ) :   0.9265 B(  3-C ,  4-C ) :   0.8911 B(  3-C ,  5-O ) :   0.8619
B(  3-C ,  6-C ) :  -0.1028 B(  3-C ,  7-C ) :   0.7909 B(  4-C , 16-H ) :   0.9388
B(  4-C , 17-H ) :   0.9272 B(  4-C , 18-H ) :   0.9312 B(  5-O ,  6-C ) :   0.9588
B(  6-C ,  7-C ) :   0.9728 B(  6-C , 19-H ) :   0.8988 B(  6-C , 20-H ) :   0.8991
B(  7-C ,  8-O ) :   2.0732

MP2 TOTAL ENERGY:     -423.522757300 Eh
FINAL SINGLE POINT ENERGY      -423.522757299699

DIPOLE MOMENT
-------------
                                X             Y             Z
Electronic contribution:      3.29658      -8.24015      -6.95669
Nuclear contribution   :     -3.60078       8.38880       7.25982
                        -----------------------------------------
Total Dipole Moment    :     -0.30420       0.14865       0.30313
                        -----------------------------------------
Magnitude (a.u.)       :      0.45445
Magnitude (Debye)      :      1.15511

                             ****ORCA TERMINATED NORMALLY****
TOTAL RUN TIME: 0 days 0 hours 18 minutes 0 seconds 27 msec
