                         Program Version 3.0.3 - RELEASE   -
|  1> ! RI-MP2 RIJK def2-TZVP def2-TZVP/C def2-TZVP/JK TIGHTSCF
|  2> % maxcore 2000
|  3> % mp2 density relaxed end
|  4> *xyz 0 1
|  5>  C        0.0128726257     1.5195111278    -0.4428600071
|  6>  C       -0.0112730952     0.0540177238    -0.0585964372
|  7>  C        1.1766897633    -0.7652912323    -0.3423076217
|  8>  O        0.9115852313    -0.2998395582     0.9856985671
|  9>  C       -1.3933339763    -0.5730097095     0.0482421809
| 10>  C       -1.4330765055    -2.0777854644     0.4274115343
| 11>  C       -2.7024459240    -2.1971601253     1.2360232276
| 12>  C       -3.1764076195    -1.0081879341     1.6011342109
| 13>  C       -2.3124413552     0.1224312673     1.0981816983
| 14>  H        1.0398128897     1.8908396585    -0.4798697436
| 15>  H       -0.4485729782     1.6697937623    -1.4251206533
| 16>  H       -0.5402407798     2.1237564116     0.2828828002
| 17>  H        1.0837218353    -1.8398111962    -0.4869885385
| 18>  H        2.0370615503    -0.3091092648    -0.8312237806
| 19>  H       -1.8740100850    -0.4612162831    -0.9321295525
| 20>  H       -1.4191858518    -2.7306121924    -0.4526119152
| 21>  H       -0.5647543506    -2.3474552680     1.0436248787
| 22>  H       -3.1272447907    -3.1556937105     1.5132801180
| 23>  H       -4.0486831431    -0.8427024374     2.2239145951
| 24>  H       -1.7204942285     0.5488364133     1.9210066528
| 25>  H       -2.8898283122     0.9482014016     0.6679218558
| 26> *
| 27>
| 28>                          ****END OF INPUT****

CARTESIAN COORDINATES (ANGSTROEM)
---------------------------------
  C      0.012873    1.519511   -0.442860
  C     -0.011273    0.054018   -0.058596
  C      1.176690   -0.765291   -0.342308
  O      0.911585   -0.299840    0.985699
  C     -1.393334   -0.573010    0.048242
  C     -1.433077   -2.077785    0.427412
  C     -2.702446   -2.197160    1.236023
  C     -3.176408   -1.008188    1.601134
  C     -2.312441    0.122431    1.098182
  H      1.039813    1.890840   -0.479870
  H     -0.448573    1.669794   -1.425121
  H     -0.540241    2.123756    0.282883
  H      1.083722   -1.839811   -0.486989
  H      2.037062   -0.309109   -0.831224
  H     -1.874010   -0.461216   -0.932130
  H     -1.419186   -2.730612   -0.452612
  H     -0.564754   -2.347455    1.043625
  H     -3.127245   -3.155694    1.513280
  H     -4.048683   -0.842702    2.223915
  H     -1.720494    0.548836    1.921007
  H     -2.889828    0.948201    0.667922

 Total Charge           Charge          ....    0
 Multiplicity           Mult            ....    1
 Number of Electrons    NEL             ....   68
 Basis Dimension        Dim             ....  351

ORBITAL ENERGIES
----------------

  NO   OCC          E(Eh)            E(eV)
   0   2.0000     -20.559405      -559.4499
   1   2.0000     -11.288847      -307.1851
   2   2.0000     -11.275656      -306.8262
   3   2.0000     -11.233778      -305.6867
   4   2.0000     -11.223697      -305.4123
   5   2.0000     -11.222233      -305.3725
   6   2.0000     -11.222089      -305.3686
   7   2.0000     -11.221371      -305.3490
   8   2.0000     -11.219668      -305.3027
   9   2.0000      -1.403780       -38.1988
  10   2.0000      -1.134747       -30.8780
  11   2.0000      -1.028345       -27.9827
  12   2.0000      -0.963015       -26.2050
  13   2.0000      -0.953909       -25.9572
  14   2.0000      -0.903207       -24.5775
  15   2.0000      -0.827564       -22.5192
  16   2.0000      -0.749403       -20.3923
  17   2.0000      -0.727837       -19.8054
  18   2.0000      -0.692521       -18.8445
  19   2.0000      -0.668561       -18.1925
  20   2.0000      -0.638791       -17.3824
  21   2.0000      -0.587331       -15.9821
  22   2.0000      -0.580106       -15.7855
  23   2.0000      -0.560092       -15.2409
  24   2.0000      -0.551854       -15.0167
  25   2.0000      -0.532032       -14.4773
  26   2.0000      -0.524061       -14.2604
  27   2.0000      -0.497832       -13.5467
  28   2.0000      -0.488010       -13.2794
  29   2.0000      -0.486573       -13.2403
  30   2.0000      -0.473146       -12.8750
  31   2.0000      -0.435191       -11.8421
  32   2.0000      -0.415338       -11.3019
  33   2.0000      -0.342454        -9.3186
  34   0.0000       0.136895         3.7251
  35   0.0000       0.160002         4.3539
  36   0.0000       0.163784         4.4568
  37   0.0000       0.166056         4.5186
  38   0.0000       0.172328         4.6893

MULLIKEN ATOMIC CHARGES
-----------------------
   0 C :   -0.428850
   1 C :    0.139693
   2 C :   -0.079756
   3 O :   -0.346516
   4 C :    0.014977
   5 C :   -0.209177
   6 C :   -0.181289
   7 C :   -0.167839
   8 C :   -0.239682
   9 H :    0.140619
  10 H :    0.132510
  11 H :    0.143066
  12 H :    0.118873
  13 H :    0.114688
  14 H :    0.095401
  15 H :    0.120154
  16 H :    0.131795
  17 H :    0.124711
  18 H :    0.124923
  19 H :    0.128089
  20 H :    0.123611
Sum of atomic charges:    0.0000000

LOEWDIN ATOMIC CHARGES
----------------------
   0 C :   -0.263679
   1 C :   -0.334062
   2 C :   -0.247840
   3 O :    0.158749
   4 C :   -0.186780
   5 C :   -0.218638
   6 C :   -0.161831
   7 C :   -0.164135
   8 C :   -0.215759
   9 H :    0.131434
  10 H :    0.130765
  11 H :    0.130588
  12 H :    0.120595
  13 H :    0.119815
  14 H :    0.162021
  15 H :    0.135011
  16 H :    0.149947
  17 H :    0.135549
  18 H :    0.135473
  19 H :    0.147337
  20 H :    0.135441

  Mayer bond orders larger than 0.1
B(  0-C ,  1-C ) :   0.8950 B(  0-C ,  9-H ) :   0.9372 B(  0-C , 10-H ) :   0.9357
B(  0-C , 11-H ) :   0.9365 B(  1-C ,  2-C ) :   0.9754 B(  1-C ,  3-O ) :   0.8509
B(  1-C ,  4-C ) :   0.9291 B(  2-C ,  3-O ) :   0.8962 B(  2-C , 12-H ) :   0.9037
B(  2-C , 13-H ) :   0.9140 B(  4-C ,  5-C ) :   0.9269 B(  4-C ,  8-C ) :   0.9090
B(  4-C , 14-H ) :   0.9207 B(  5-C ,  6-C ) :   0.9566 B(  5-C , 15-H ) :   0.9183
B(  5-C , 16-H ) :   0.9024 B(  6-C ,  7-C ) :   1.8035 B(  6-C , 17-H ) :   0.9304
B(  7-C ,  8-C ) :   0.9482 B(  7-C , 18-H ) :   0.9293 B(  8-C , 19-H ) :   0.8983
B(  8-C , 20-H ) :   0.9253

MP2 TOTAL ENERGY:     -386.404200690 Eh
FINAL SINGLE POINT ENERGY      -386.404200689887

DIPOLE MOMENT
-------------
                                X             Y             Z
Electronic contribution:      0.94104      -1.94283       2.06177
Nuclear contribution   :     -1.14243       1.98695      -2.72854
                        -----------------------------------------
Total Dipole Moment    :     -0.20139       0.04412      -0.66677
                        -----------------------------------------
Magnitude (a.u.)       :      0.69791
Magnitude (Debye)      :      1.77395

                             ****ORCA TERMINATED NORMALLY****
TOTAL RUN TIME: 0 days 0 hours 18 minutes 17 seconds 981 msec
