                         Program Version 3.0.3 - RELEASE   -
|  1> ! RI-MP2 RIJK def2-TZVP def2-TZVP/C def2-TZVP/JK TIGHTSCF
|  2> % maxcore 2000
|  3> % mp2 density relaxed end
|  4> *xyz 0 1
|  5>  C       -0.2581268850     0.9844172508     1.2130410293
|  6>  C       -0.0956543978    -0.0643836930     0.1298713222
|  7>  O       -1.2889205233    -0.8690097699     0.1231622056
|  8>  C       -1.3390441986    -1.8572365301    -0.7787921747
|  9>  N       -0.4156219470    -2.1055751430    -1.6053279399
| 10>  C       -2.6889343472    -2.5952802897    -0.6847961128
| 11>  O       -2.7590706500    -3.6400125551    -1.6423886908
| 12>  C       -2.9531129275    -3.0741483205     0.6710144331
| 13>  C       -3.1538228136    -3.5331387058     1.7631435257
| 14>  H        0.6334909743     1.6171801902     1.2527736288
| 15>  H       -1.1244178024     1.6216509204     1.0137847132
| 16>  H       -0.3936912588     0.5164262987     2.1921184035
| 17>  H        0.0359299156     0.3810702593    -0.8616623743
| 18>  H        0.7670988224    -0.7138820585     0.3100364293
| 19>  H       -0.7076438460    -2.8816665312    -2.1995515653
| 20>  H       -3.4644609365    -1.8715921506    -0.9673439952
| 21>  H       -2.4052230141    -4.4359400517    -1.2299431508
| 22>  H       -3.3383815246    -3.9205068303     2.7348902132
| 23> *
| 24>
| 25>                          ****END OF INPUT****

CARTESIAN COORDINATES (ANGSTROEM)
---------------------------------
  C     -0.258127    0.984417    1.213041
  C     -0.095654   -0.064384    0.129871
  O     -1.288921   -0.869010    0.123162
  C     -1.339044   -1.857237   -0.778792
  N     -0.415622   -2.105575   -1.605328
  C     -2.688934   -2.595280   -0.684796
  O     -2.759071   -3.640013   -1.642389
  C     -2.953113   -3.074148    0.671014
  C     -3.153823   -3.533139    1.763144
  H      0.633491    1.617180    1.252774
  H     -1.124418    1.621651    1.013785
  H     -0.393691    0.516426    2.192118
  H      0.035930    0.381070   -0.861662
  H      0.767099   -0.713882    0.310036
  H     -0.707644   -2.881667   -2.199552
  H     -3.464461   -1.871592   -0.967344
  H     -2.405223   -4.435940   -1.229943
  H     -3.338382   -3.920507    2.734890

 Total Charge           Charge          ....    0
 Multiplicity           Mult            ....    1
 Number of Electrons    NEL             ....   68
 Basis Dimension        Dim             ....  333

ORBITAL ENERGIES
----------------

  NO   OCC          E(Eh)            E(eV)
   0   2.0000     -20.592179      -560.3417
   1   2.0000     -20.586155      -560.1778
   2   2.0000     -15.535854      -422.7521
   3   2.0000     -11.342016      -308.6319
   4   2.0000     -11.335230      -308.4473
   5   2.0000     -11.282717      -307.0183
   6   2.0000     -11.251193      -306.1605
   7   2.0000     -11.245020      -305.9926
   8   2.0000     -11.220932      -305.3371
   9   2.0000      -1.432670       -38.9849
  10   2.0000      -1.394604       -37.9491
  11   2.0000      -1.197126       -32.5754
  12   2.0000      -1.073713       -29.2172
  13   2.0000      -1.033049       -28.1107
  14   2.0000      -0.975301       -26.5393
  15   2.0000      -0.864690       -23.5294
  16   2.0000      -0.786228       -21.3944
  17   2.0000      -0.771286       -20.9878
  18   2.0000      -0.722239       -19.6531
  19   2.0000      -0.703497       -19.1431
  20   2.0000      -0.681706       -18.5502
  21   2.0000      -0.669867       -18.2280
  22   2.0000      -0.639034       -17.3890
  23   2.0000      -0.580903       -15.8072
  24   2.0000      -0.574381       -15.6297
  25   2.0000      -0.550731       -14.9862
  26   2.0000      -0.546071       -14.8593
  27   2.0000      -0.507243       -13.8028
  28   2.0000      -0.500129       -13.6092
  29   2.0000      -0.484713       -13.1897
  30   2.0000      -0.450772       -12.2661
  31   2.0000      -0.412904       -11.2357
  32   2.0000      -0.407468       -11.0878
  33   2.0000      -0.398496       -10.8436
  34   0.0000       0.123530         3.3614
  35   0.0000       0.146526         3.9872
  36   0.0000       0.154177         4.1954
  37   0.0000       0.158584         4.3153
  38   0.0000       0.168140         4.5753

MULLIKEN ATOMIC CHARGES
-----------------------
   0 C :   -0.356510
   1 C :   -0.056456
   2 O :   -0.252394
   3 C :    0.172271
   4 N :   -0.397578
   5 C :    0.041411
   6 O :   -0.471046
   7 C :   -0.074716
   8 C :   -0.142276
   9 H :    0.129220
  10 H :    0.130513
  11 H :    0.132567
  12 H :    0.120271
  13 H :    0.120452
  14 H :    0.235486
  15 H :    0.137846
  16 H :    0.333080
  17 H :    0.197859
Sum of atomic charges:   -0.0000000

LOEWDIN ATOMIC CHARGES
----------------------
   0 C :   -0.316257
   1 C :   -0.303134
   2 O :    0.263189
   3 C :   -0.411919
   4 N :   -0.055648
   5 C :   -0.305300
   6 O :    0.003653
   7 C :   -0.092982
   8 C :   -0.075744
   9 H :    0.127669
  10 H :    0.124457
  11 H :    0.125078
  12 H :    0.128788
  13 H :    0.128645
  14 H :    0.171401
  15 H :    0.173143
  16 H :    0.184990
  17 H :    0.129971

  Mayer bond orders larger than 0.1
B(  0-C ,  1-C ) :   0.9369 B(  0-C ,  9-H ) :   0.9355 B(  0-C , 10-H ) :   0.9338
B(  0-C , 11-H ) :   0.9337 B(  1-C ,  2-O ) :   0.8366 B(  1-C , 12-H ) :   0.9322
B(  1-C , 13-H ) :   0.9314 B(  2-O ,  3-C ) :   1.1212 B(  3-C ,  4-N ) :   1.8988
B(  3-C ,  5-C ) :   0.9322 B(  4-N , 14-H ) :   0.8449 B(  5-C ,  6-O ) :   0.9223
B(  5-C ,  7-C ) :   1.0875 B(  5-C , 15-H ) :   0.9253 B(  6-O , 16-H ) :   0.8315
B(  7-C ,  8-C ) :   2.6118 B(  8-C , 17-H ) :   0.8984

MP2 TOTAL ENERGY:     -438.324230198 Eh
FINAL SINGLE POINT ENERGY      -438.324230198013

DIPOLE MOMENT
-------------
                                X             Y             Z
Electronic contribution:     -4.40418      -6.49366      -2.51157
Nuclear contribution   :      4.33880       6.38364       3.19143
                        -----------------------------------------
Total Dipole Moment    :     -0.06539      -0.11001       0.67986
                        -----------------------------------------
Magnitude (a.u.)       :      0.69180
Magnitude (Debye)      :      1.75841

                             ****ORCA TERMINATED NORMALLY****
TOTAL RUN TIME: 0 days 0 hours 14 minutes 51 seconds 754 msec
