                         Program Version 3.0.3 - RELEASE   -
|  1> ! RI-MP2 RIJK def2-TZVP def2-TZVP/C def2-TZVP/JK TIGHTSCF
|  2> % maxcore 2000
|  3> % mp2 density relaxed end
|  4> *xyz 0 1
|  5>  C        0.2936197815     1.3916559410    -0.0431853407
|  6>  O        1.1841688068     0.2997335064    -0.2369078311
|  7>  C       -0.2014580989     0.0018417032     0.0152017807
|  8>  C       -0.5248345866    -0.6829101975     1.2800357567
|  9>  C       -1.4716307505    -1.6179853008     1.4359845485
| 10>  C       -1.4652598425    -2.1589570627     2.8238339053
| 11>  N       -0.1767574383    -2.8415583740     3.1540885141
| 12>  C       -0.3840358861    -1.4313055585     3.5430849755
| 13>  C        0.2319427963    -0.4264203085     2.5752169966
| 14>  H        0.4352756003     1.9566154687     0.8765984024
| 15>  H        0.0818258169     1.9917154118    -0.9277428663
| 16>  H       -0.7365252460    -0.3679745634    -0.8597573998
| 17>  H       -2.1272413424    -1.9807569448     0.6528621212
| 18>  H       -2.3745440853    -2.5026691237     3.3049477210
| 19>  H       -0.3238358954    -3.4200758178     3.9803984800
| 20>  H       -0.4567841636    -1.1874848876     4.5973792382
| 21>  H        1.3077175678    -0.5807597902     2.4436620525
| 22>  H        0.0918687260     0.6028835083     2.9307506653
| 23> *
| 24>
| 25>                          ****END OF INPUT****

CARTESIAN COORDINATES (ANGSTROEM)
---------------------------------
  C      0.293620    1.391656   -0.043185
  O      1.184169    0.299734   -0.236908
  C     -0.201458    0.001842    0.015202
  C     -0.524835   -0.682910    1.280036
  C     -1.471631   -1.617985    1.435985
  C     -1.465260   -2.158957    2.823834
  N     -0.176757   -2.841558    3.154089
  C     -0.384036   -1.431306    3.543085
  C      0.231943   -0.426420    2.575217
  H      0.435276    1.956615    0.876598
  H      0.081826    1.991715   -0.927743
  H     -0.736525   -0.367975   -0.859757
  H     -2.127241   -1.980757    0.652862
  H     -2.374544   -2.502669    3.304948
  H     -0.323836   -3.420076    3.980398
  H     -0.456784   -1.187485    4.597379
  H      1.307718   -0.580760    2.443662
  H      0.091869    0.602884    2.930751

 Total Charge           Charge          ....    0
 Multiplicity           Mult            ....    1
 Number of Electrons    NEL             ....   66
 Basis Dimension        Dim             ....  333

ORBITAL ENERGIES
----------------

  NO   OCC          E(Eh)            E(eV)
   0   2.0000     -20.569415      -559.7222
   1   2.0000     -15.558748      -423.3751
   2   2.0000     -11.292152      -307.2751
   3   2.0000     -11.284604      -307.0697
   4   2.0000     -11.262192      -306.4598
   5   2.0000     -11.260531      -306.4146
   6   2.0000     -11.239478      -305.8417
   7   2.0000     -11.230508      -305.5977
   8   2.0000     -11.228865      -305.5529
   9   2.0000      -1.411259       -38.4023
  10   2.0000      -1.269535       -34.5458
  11   2.0000      -1.098124       -29.8815
  12   2.0000      -0.970973       -26.4215
  13   2.0000      -0.949701       -25.8427
  14   2.0000      -0.898409       -24.4470
  15   2.0000      -0.838768       -22.8240
  16   2.0000      -0.783658       -21.3244
  17   2.0000      -0.739091       -20.1117
  18   2.0000      -0.722583       -19.6625
  19   2.0000      -0.679635       -18.4938
  20   2.0000      -0.658545       -17.9199
  21   2.0000      -0.594508       -16.1774
  22   2.0000      -0.583881       -15.8882
  23   2.0000      -0.560092       -15.2409
  24   2.0000      -0.541705       -14.7405
  25   2.0000      -0.525924       -14.3111
  26   2.0000      -0.513038       -13.9605
  27   2.0000      -0.487853       -13.2751
  28   2.0000      -0.477121       -12.9831
  29   2.0000      -0.457762       -12.4563
  30   2.0000      -0.445392       -12.1197
  31   2.0000      -0.384131       -10.4527
  32   2.0000      -0.334095        -9.0912
  33   0.0000       0.132745         3.6122
  34   0.0000       0.140748         3.8299
  35   0.0000       0.158676         4.3178
  36   0.0000       0.167130         4.5478
  37   0.0000       0.187780         5.1098

MULLIKEN ATOMIC CHARGES
-----------------------
   0 C :   -0.068993
   1 O :   -0.320691
   2 C :    0.001147
   3 C :    0.010011
   4 C :   -0.250055
   5 C :    0.022215
   6 N :   -0.383053
   7 C :   -0.108585
   8 C :   -0.124349
   9 H :    0.119567
  10 H :    0.119714
  11 H :    0.127120
  12 H :    0.133319
  13 H :    0.132584
  14 H :    0.214015
  15 H :    0.133221
  16 H :    0.138214
  17 H :    0.104599
Sum of atomic charges:   -0.0000000

LOEWDIN ATOMIC CHARGES
----------------------
   0 C :   -0.263660
   1 O :    0.151658
   2 C :   -0.249668
   3 C :   -0.137434
   4 C :   -0.106802
   5 C :   -0.233158
   6 N :    0.002744
   7 C :   -0.237310
   8 C :   -0.185673
   9 H :    0.119272
  10 H :    0.119289
  11 H :    0.145437
  12 H :    0.141619
  13 H :    0.134739
  14 H :    0.167107
  15 H :    0.133510
  16 H :    0.155499
  17 H :    0.142830

  Mayer bond orders larger than 0.1
B(  0-C ,  1-O ) :   0.8881 B(  0-C ,  2-C ) :   0.9513 B(  0-C ,  9-H ) :   0.9196
B(  0-C , 10-H ) :   0.9174 B(  1-O ,  2-C ) :   0.9543 B(  2-C ,  3-C ) :   0.9108
B(  2-C , 11-H ) :   0.9307 B(  3-C ,  4-C ) :   1.7565 B(  3-C ,  8-C ) :   0.9666
B(  4-C ,  5-C ) :   0.9561 B(  4-C , 12-H ) :   0.9195 B(  5-C ,  6-N ) :   0.9021
B(  5-C ,  7-C ) :   0.9266 B(  5-C , 13-H ) :   0.9214 B(  6-N ,  7-C ) :   0.9857
B(  6-N , 14-H ) :   0.8699 B(  7-C ,  8-C ) :   0.9501 B(  7-C , 15-H ) :   0.9282
B(  8-C , 16-H ) :   0.8825 B(  8-C , 17-H ) :   0.9074

MP2 TOTAL ENERGY:     -401.207436042 Eh
FINAL SINGLE POINT ENERGY      -401.207436041566

DIPOLE MOMENT
-------------
                                X             Y             Z
Electronic contribution:      0.79015      -1.24800      -1.76360
Nuclear contribution   :     -1.77280       1.69028       2.40839
                        -----------------------------------------
Total Dipole Moment    :     -0.98264       0.44228       0.64478
                        -----------------------------------------
Magnitude (a.u.)       :      1.25576
Magnitude (Debye)      :      3.19190

                             ****ORCA TERMINATED NORMALLY****
TOTAL RUN TIME: 0 days 0 hours 16 minutes 20 seconds 285 msec
