                         Program Version 3.0.3 - RELEASE   -
|  1> ! RI-MP2 RIJK def2-TZVP def2-TZVP/C def2-TZVP/JK TIGHTSCF
|  2> % maxcore 2000
|  3> % mp2 density relaxed end
|  4> *xyz 0 1
|  5>  C       -0.0117702110     1.5040482906     0.0036391195
|  6>  C       -0.0207564932     0.0061787395    -0.0014934273
|  7>  C       -0.0922018071    -0.8495789314    -1.0696845014
|  8>  C        0.2019811769    -1.2558845290    -2.5068045924
|  9>  C        0.3873087593    -2.7037198113    -1.9178884263
| 10>  N       -0.0579628207    -2.1551722337    -0.6202319855
| 11>  C        0.0725779051    -2.1837693652     0.7396795713
| 12>  N        0.2307767027    -3.3922765472     1.4417932486
| 13>  C        0.0357070998    -0.8619622844     1.1532267711
| 14>  H        0.8459791710     1.9011422156     0.5595026779
| 15>  H        0.0404869644     1.9005705450    -1.0148832366
| 16>  H       -0.9130621171     1.9221952910     0.4696139489
| 17>  H       -0.6188213937    -1.1578364289    -3.2234654776
| 18>  H        1.1080943577    -0.8333576733    -2.9485563272
| 19>  H       -0.2588126299    -3.4896675955    -2.3188332804
| 20>  H        1.4246683336    -3.0499415188    -1.9054454228
| 21>  H       -0.5457880630    -4.0296530654     1.2941437848
| 22>  H        0.3113805575    -3.2186565874     2.4360221176
| 23>  H       -0.0046082223    -0.5387276002     2.1846458378
| 24> *
| 25>
| 26>                          ****END OF INPUT****

CARTESIAN COORDINATES (ANGSTROEM)
---------------------------------
  C     -0.011770    1.504048    0.003639
  C     -0.020756    0.006179   -0.001493
  C     -0.092202   -0.849579   -1.069685
  C      0.201981   -1.255885   -2.506805
  C      0.387309   -2.703720   -1.917888
  N     -0.057963   -2.155172   -0.620232
  C      0.072578   -2.183769    0.739680
  N      0.230777   -3.392277    1.441793
  C      0.035707   -0.861962    1.153227
  H      0.845979    1.901142    0.559503
  H      0.040487    1.900571   -1.014883
  H     -0.913062    1.922195    0.469614
  H     -0.618821   -1.157836   -3.223465
  H      1.108094   -0.833358   -2.948556
  H     -0.258813   -3.489668   -2.318833
  H      1.424668   -3.049942   -1.905445
  H     -0.545788   -4.029653    1.294144
  H      0.311381   -3.218657    2.436022
  H     -0.004608   -0.538728    2.184646

 Total Charge           Charge          ....    0
 Multiplicity           Mult            ....    1
 Number of Electrons    NEL             ....   66
 Basis Dimension        Dim             ....  339

ORBITAL ENERGIES
----------------

  NO   OCC          E(Eh)            E(eV)
   0   2.0000     -15.573914      -423.7877
   1   2.0000     -15.561284      -423.4441
   2   2.0000     -11.283218      -307.0320
   3   2.0000     -11.279442      -306.9292
   4   2.0000     -11.244085      -305.9671
   5   2.0000     -11.231887      -305.6352
   6   2.0000     -11.209821      -305.0347
   7   2.0000     -11.208302      -304.9934
   8   2.0000     -11.192015      -304.5502
   9   2.0000      -1.312298       -35.7094
  10   2.0000      -1.195177       -32.5224
  11   2.0000      -1.080272       -29.3957
  12   2.0000      -1.020354       -27.7652
  13   2.0000      -0.933167       -25.3928
  14   2.0000      -0.904634       -24.6163
  15   2.0000      -0.846764       -23.0416
  16   2.0000      -0.766554       -20.8590
  17   2.0000      -0.706805       -19.2331
  18   2.0000      -0.677698       -18.4411
  19   2.0000      -0.660894       -17.9838
  20   2.0000      -0.644381       -17.5345
  21   2.0000      -0.588855       -16.0236
  22   2.0000      -0.560998       -15.2655
  23   2.0000      -0.552093       -15.0232
  24   2.0000      -0.541537       -14.7360
  25   2.0000      -0.535675       -14.5764
  26   2.0000      -0.523427       -14.2432
  27   2.0000      -0.516974       -14.0676
  28   2.0000      -0.481897       -13.1131
  29   2.0000      -0.469287       -12.7699
  30   2.0000      -0.437769       -11.9123
  31   2.0000      -0.321735        -8.7549
  32   2.0000      -0.260885        -7.0991
  33   0.0000       0.131499         3.5783
  34   0.0000       0.144744         3.9387
  35   0.0000       0.157453         4.2845
  36   0.0000       0.181649         4.9429
  37   0.0000       0.183234         4.9860

MULLIKEN ATOMIC CHARGES
-----------------------
   0 C :   -0.455289
   1 C :   -0.042359
   2 C :    0.020945
   3 C :   -0.194494
   4 C :   -0.136106
   5 N :   -0.079948
   6 C :    0.132270
   7 N :   -0.539038
   8 C :   -0.229920
   9 H :    0.136784
  10 H :    0.130958
  11 H :    0.137471
  12 H :    0.131598
  13 H :    0.129336
  14 H :    0.118336
  15 H :    0.125556
  16 H :    0.249867
  17 H :    0.246400
  18 H :    0.117632
Sum of atomic charges:    0.0000000

LOEWDIN ATOMIC CHARGES
----------------------
   0 C :   -0.280788
   1 C :   -0.200227
   2 C :   -0.179260
   3 C :   -0.202492
   4 C :   -0.192487
   5 N :    0.283436
   6 C :   -0.324693
   7 N :   -0.108415
   8 C :   -0.169330
   9 H :    0.127099
  10 H :    0.128560
  11 H :    0.127048
  12 H :    0.132134
  13 H :    0.134985
  14 H :    0.122687
  15 H :    0.131054
  16 H :    0.165615
  17 H :    0.169591
  18 H :    0.135483

  Mayer bond orders larger than 0.1
B(  0-C ,  1-C ) :   0.8470 B(  0-C ,  9-H ) :   0.9450 B(  0-C , 10-H ) :   0.9566
B(  0-C , 11-H ) :   0.9390 B(  1-C ,  2-C ) :   1.5089 B(  1-C ,  8-C ) :   1.2322
B(  2-C ,  3-C ) :   0.9002 B(  2-C ,  5-N ) :   1.0603 B(  3-C ,  4-C ) :   0.9681
B(  3-C , 12-H ) :   0.9326 B(  3-C , 13-H ) :   0.9014 B(  4-C ,  5-N ) :   0.8820
B(  4-C , 14-H ) :   0.9139 B(  4-C , 15-H ) :   0.9128 B(  5-N ,  6-C ) :   1.1731
B(  6-C ,  7-N ) :   1.0231 B(  6-C ,  8-C ) :   1.4499 B(  7-N , 16-H ) :   0.8724
B(  7-N , 17-H ) :   0.8879 B(  8-C , 18-H ) :   0.9234

MP2 TOTAL ENERGY:     -381.387904687 Eh
FINAL SINGLE POINT ENERGY      -381.387904687224

DIPOLE MOMENT
-------------
                                X             Y             Z
Electronic contribution:     -0.62553      -3.18348       1.19808
Nuclear contribution   :      0.48179       2.68435      -1.40135
                        -----------------------------------------
Total Dipole Moment    :     -0.14374      -0.49913      -0.20327
                        -----------------------------------------
Magnitude (a.u.)       :      0.55777
Magnitude (Debye)      :      1.41774

                             ****ORCA TERMINATED NORMALLY****
TOTAL RUN TIME: 0 days 0 hours 19 minutes 10 seconds 442 msec
