                         Program Version 3.0.3 - RELEASE   -
|  1> ! RI-MP2 RIJK def2-TZVP def2-TZVP/C def2-TZVP/JK TIGHTSCF
|  2> % maxcore 2000
|  3> % mp2 density relaxed end
|  4> *xyz 0 1
|  5>  O        0.0020218298     1.3949726762    -0.1823711600
|  6>  C        0.0108963005    -0.0183349478     0.0076862437
|  7>  C        0.6846924981    -0.4544481530     1.3366809762
|  8>  C       -0.3820422050    -0.5968771928     2.4281442710
|  9>  C       -1.3194301569     0.6480764242     2.4091990467
| 10>  C       -2.1684816432    -0.1211586127     1.3840789897
| 11>  C       -1.5962152116    -1.4736594366     1.9097592628
| 12>  C       -1.4622799796    -1.9873489214     0.4665802913
| 13>  C       -1.4412884569    -0.4926631746     0.0281785971
| 14>  H        0.9152446505     1.6988605624    -0.1820318325
| 15>  H        0.5272351566    -0.4969914887    -0.8398618063
| 16>  H        1.2143996022    -1.4032869487     1.1947634246
| 17>  H        1.4394238363     0.2870817183     1.6270981733
| 18>  H        0.0537322192    -0.8879729318     3.3867002000
| 19>  H       -1.8686898242     0.7510392678     3.3506669786
| 20>  H       -0.8878653941     1.6093686525     2.1257225895
| 21>  H       -3.2368581187     0.0755904903     1.2806812831
| 22>  H       -2.0875520293    -2.0778992774     2.6741902928
| 23>  H       -0.6118009832    -2.6184803152     0.1851135763
| 24>  H       -2.3837516700    -2.4857111053     0.1516089149
| 25>  H       -1.9538993105    -0.2181886458    -0.8953480129
| 26> *
| 27>
| 28>                          ****END OF INPUT****

CARTESIAN COORDINATES (ANGSTROEM)
---------------------------------
  O      0.002022    1.394973   -0.182371
  C      0.010896   -0.018335    0.007686
  C      0.684692   -0.454448    1.336681
  C     -0.382042   -0.596877    2.428144
  C     -1.319430    0.648076    2.409199
  C     -2.168482   -0.121159    1.384079
  C     -1.596215   -1.473659    1.909759
  C     -1.462280   -1.987349    0.466580
  C     -1.441288   -0.492663    0.028179
  H      0.915245    1.698861   -0.182032
  H      0.527235   -0.496991   -0.839862
  H      1.214400   -1.403287    1.194763
  H      1.439424    0.287082    1.627098
  H      0.053732   -0.887973    3.386700
  H     -1.868690    0.751039    3.350667
  H     -0.887865    1.609369    2.125723
  H     -3.236858    0.075590    1.280681
  H     -2.087552   -2.077899    2.674190
  H     -0.611801   -2.618480    0.185114
  H     -2.383752   -2.485711    0.151609
  H     -1.953899   -0.218189   -0.895348

 Total Charge           Charge          ....    0
 Multiplicity           Mult            ....    1
 Number of Electrons    NEL             ....   68
 Basis Dimension        Dim             ....  351

ORBITAL ENERGIES
----------------

  NO   OCC          E(Eh)            E(eV)
   0   2.0000     -20.549221      -559.1727
   1   2.0000     -11.275316      -306.8169
   2   2.0000     -11.225127      -305.4512
   3   2.0000     -11.222564      -305.3815
   4   2.0000     -11.220279      -305.3193
   5   2.0000     -11.219831      -305.3071
   6   2.0000     -11.218778      -305.2785
   7   2.0000     -11.216792      -305.2244
   8   2.0000     -11.207258      -304.9650
   9   2.0000      -1.356016       -36.8991
  10   2.0000      -1.181486       -32.1499
  11   2.0000      -1.023387       -27.8478
  12   2.0000      -1.008030       -27.4299
  13   2.0000      -0.927388       -25.2355
  14   2.0000      -0.825636       -22.4667
  15   2.0000      -0.813239       -22.1294
  16   2.0000      -0.792001       -21.5515
  17   2.0000      -0.693569       -18.8730
  18   2.0000      -0.686656       -18.6849
  19   2.0000      -0.666989       -18.1497
  20   2.0000      -0.627219       -17.0675
  21   2.0000      -0.596462       -16.2305
  22   2.0000      -0.593569       -16.1518
  23   2.0000      -0.561515       -15.2796
  24   2.0000      -0.539698       -14.6859
  25   2.0000      -0.530871       -14.4457
  26   2.0000      -0.512389       -13.9428
  27   2.0000      -0.490400       -13.3445
  28   2.0000      -0.455048       -12.3825
  29   2.0000      -0.453685       -12.3454
  30   2.0000      -0.433574       -11.7982
  31   2.0000      -0.404539       -11.0081
  32   2.0000      -0.399530       -10.8718
  33   2.0000      -0.386084       -10.5059
  34   0.0000       0.133266         3.6263
  35   0.0000       0.152370         4.1462
  36   0.0000       0.163343         4.4448
  37   0.0000       0.167509         4.5582
  38   0.0000       0.183975         5.0062

MULLIKEN ATOMIC CHARGES
-----------------------
   0 O :   -0.464639
   1 C :    0.015030
   2 C :   -0.314939
   3 C :    0.009684
   4 C :   -0.249679
   5 C :   -0.134723
   6 C :   -0.118787
   7 C :   -0.298578
   8 C :    0.026138
   9 H :    0.310478
  10 H :    0.088421
  11 H :    0.118421
  12 H :    0.112116
  13 H :    0.109604
  14 H :    0.109364
  15 H :    0.113996
  16 H :    0.112348
  17 H :    0.113523
  18 H :    0.109830
  19 H :    0.117396
  20 H :    0.114994
Sum of atomic charges:    0.0000000

LOEWDIN ATOMIC CHARGES
----------------------
   0 O :   -0.018956
   1 C :   -0.318082
   2 C :   -0.226169
   3 C :   -0.190958
   4 C :   -0.204597
   5 C :   -0.154391
   6 C :   -0.159869
   7 C :   -0.203212
   8 C :   -0.170860
   9 H :    0.169716
  10 H :    0.134137
  11 H :    0.139894
  12 H :    0.137604
  13 H :    0.135347
  14 H :    0.135605
  15 H :    0.127098
  16 H :    0.132118
  17 H :    0.130908
  18 H :    0.124550
  19 H :    0.139131
  20 H :    0.140986

  Mayer bond orders larger than 0.1
B(  0-O ,  1-C ) :   1.0200 B(  0-O ,  9-H ) :   0.8453 B(  1-C ,  2-C ) :   0.9430
B(  1-C ,  8-C ) :   0.8918 B(  1-C , 10-H ) :   0.9487 B(  2-C ,  3-C ) :   0.9240
B(  2-C , 11-H ) :   0.9175 B(  2-C , 12-H ) :   0.9213 B(  3-C ,  4-C ) :   0.9531
B(  3-C ,  6-C ) :   0.9039 B(  3-C , 13-H ) :   0.9189 B(  4-C ,  5-C ) :   0.9480
B(  4-C , 14-H ) :   0.9224 B(  4-C , 15-H ) :   0.9010 B(  5-C ,  6-C ) :   0.9180
B(  5-C ,  8-C ) :   0.9095 B(  5-C , 16-H ) :   0.9113 B(  6-C ,  7-C ) :   0.9295
B(  6-C , 17-H ) :   0.9132 B(  7-C ,  8-C ) :   0.9140 B(  7-C , 18-H ) :   0.9130
B(  7-C , 19-H ) :   0.9196 B(  8-C , 20-H ) :   0.9086

MP2 TOTAL ENERGY:     -386.402249880 Eh
FINAL SINGLE POINT ENERGY      -386.402249879909

DIPOLE MOMENT
-------------
                                X             Y             Z
Electronic contribution:     -0.36932       1.67198      -1.19263
Nuclear contribution   :      0.84557      -1.98524       1.29501
                        -----------------------------------------
Total Dipole Moment    :      0.47624      -0.31325       0.10238
                        -----------------------------------------
Magnitude (a.u.)       :      0.57915
Magnitude (Debye)      :      1.47209

                             ****ORCA TERMINATED NORMALLY****
TOTAL RUN TIME: 0 days 0 hours 20 minutes 49 seconds 965 msec
