                         Program Version 3.0.3 - RELEASE   -
|  1> ! RI-MP2 RIJK def2-TZVP def2-TZVP/C def2-TZVP/JK TIGHTSCF
|  2> % maxcore 2000
|  3> % mp2 density relaxed end
|  4> *xyz 0 1
|  5>  C        0.1222293005     1.5100133226     0.0757614511
|  6>  C       -0.0564121205    -0.0059239900     0.0346255302
|  7>  C       -1.5165519331    -0.4360877652    -0.0249612737
|  8>  O       -2.4328201424     0.3461341690    -0.0377741705
|  9>  C       -1.7432669872    -1.9483556798    -0.0680262267
| 10>  O       -3.1115563188    -2.2283733443    -0.1208877837
| 11>  C       -3.4060818121    -3.6009093644    -0.1633641563
| 12>  C       -4.9175308601    -3.7551444509    -0.2184373515
| 13>  O       -5.4723445047    -4.8202616799    -0.2609961270
| 14>  H        1.1827721782     1.7721633204     0.1174275287
| 15>  H       -0.3170792869     1.9776525875    -0.8087491916
| 16>  H       -0.3760531873     1.9369129819     0.9495535672
| 17>  H        0.4622002815    -0.4423939796    -0.8304240713
| 18>  H        0.4029263936    -0.4826707054     0.9118372683
| 19>  H       -1.2091156595    -2.3599647801    -0.9435262867
| 20>  H       -1.2688250702    -2.4012903920     0.8213507699
| 21>  H       -2.9670433678    -4.0937645210    -1.0476312972
| 22>  H       -3.0271645963    -4.1358345943     0.7242178488
| 23>  H       -5.4636204171    -2.7871584845    -0.2157702880
| 24> *
| 25>
| 26>                          ****END OF INPUT****

CARTESIAN COORDINATES (ANGSTROEM)
---------------------------------
  C      0.122229    1.510013    0.075761
  C     -0.056412   -0.005924    0.034626
  C     -1.516552   -0.436088   -0.024961
  O     -2.432820    0.346134   -0.037774
  C     -1.743267   -1.948356   -0.068026
  O     -3.111556   -2.228373   -0.120888
  C     -3.406082   -3.600909   -0.163364
  C     -4.917531   -3.755144   -0.218437
  O     -5.472345   -4.820262   -0.260996
  H      1.182772    1.772163    0.117428
  H     -0.317079    1.977653   -0.808749
  H     -0.376053    1.936913    0.949554
  H      0.462200   -0.442394   -0.830424
  H      0.402926   -0.482671    0.911837
  H     -1.209116   -2.359965   -0.943526
  H     -1.268825   -2.401290    0.821351
  H     -2.967043   -4.093765   -1.047631
  H     -3.027165   -4.135835    0.724218
  H     -5.463620   -2.787158   -0.215770

 Total Charge           Charge          ....    0
 Multiplicity           Mult            ....    1
 Number of Electrons    NEL             ....   70
 Basis Dimension        Dim             ....  339

ORBITAL ENERGIES
----------------

  NO   OCC          E(Eh)            E(eV)
   0   2.0000     -20.587090      -560.2032
   1   2.0000     -20.563858      -559.5710
   2   2.0000     -20.554828      -559.3253
   3   2.0000     -11.339335      -308.5590
   4   2.0000     -11.338229      -308.5289
   5   2.0000     -11.310944      -307.7864
   6   2.0000     -11.305827      -307.6472
   7   2.0000     -11.251903      -306.1798
   8   2.0000     -11.226118      -305.4782
   9   2.0000      -1.423593       -38.7379
  10   2.0000      -1.403599       -38.1939
  11   2.0000      -1.391287       -37.8589
  12   2.0000      -1.074492       -29.2384
  13   2.0000      -1.035447       -28.1759
  14   2.0000      -0.957686       -26.0600
  15   2.0000      -0.876134       -23.8408
  16   2.0000      -0.817772       -22.2527
  17   2.0000      -0.749275       -20.3888
  18   2.0000      -0.711039       -19.3484
  19   2.0000      -0.706536       -19.2258
  20   2.0000      -0.683592       -18.6015
  21   2.0000      -0.653003       -17.7691
  22   2.0000      -0.643784       -17.5182
  23   2.0000      -0.628805       -17.1107
  24   2.0000      -0.619528       -16.8582
  25   2.0000      -0.602822       -16.4036
  26   2.0000      -0.542804       -14.7704
  27   2.0000      -0.532496       -14.4899
  28   2.0000      -0.531936       -14.4747
  29   2.0000      -0.522795       -14.2260
  30   2.0000      -0.513951       -13.9853
  31   2.0000      -0.497117       -13.5272
  32   2.0000      -0.453425       -12.3383
  33   2.0000      -0.434420       -11.8212
  34   2.0000      -0.417240       -11.3537
  35   0.0000       0.111746         3.0408
  36   0.0000       0.121070         3.2945
  37   0.0000       0.135490         3.6869
  38   0.0000       0.141541         3.8515
  39   0.0000       0.162731         4.4281

MULLIKEN ATOMIC CHARGES
-----------------------
   0 C :   -0.366802
   1 C :   -0.258623
   2 C :    0.209146
   3 O :   -0.263990
   4 C :   -0.095842
   5 O :   -0.267181
   6 C :   -0.034811
   7 C :    0.086353
   8 O :   -0.265995
   9 H :    0.134393
  10 H :    0.136173
  11 H :    0.136159
  12 H :    0.132101
  13 H :    0.132116
  14 H :    0.117202
  15 H :    0.117215
  16 H :    0.120746
  17 H :    0.120776
  18 H :    0.110863
Sum of atomic charges:   -0.0000000

LOEWDIN ATOMIC CHARGES
----------------------
   0 C :   -0.309246
   1 C :   -0.270925
   2 C :   -0.328915
   3 O :    0.175018
   4 C :   -0.309146
   5 O :    0.186028
   6 C :   -0.327462
   7 C :   -0.283775
   8 O :    0.137075
   9 H :    0.122083
  10 H :    0.128018
  11 H :    0.128015
  12 H :    0.150074
  13 H :    0.150082
  14 H :    0.133958
  15 H :    0.133961
  16 H :    0.133649
  17 H :    0.133638
  18 H :    0.117872

  Mayer bond orders larger than 0.1
B(  0-C ,  1-C ) :   0.9359 B(  0-C ,  9-H ) :   0.9390 B(  0-C , 10-H ) :   0.9358
B(  0-C , 11-H ) :   0.9358 B(  1-C ,  2-C ) :   0.9054 B(  1-C , 12-H ) :   0.9090
B(  1-C , 13-H ) :   0.9089 B(  2-C ,  3-O ) :   2.0099 B(  2-C ,  4-C ) :   0.9301
B(  4-C ,  5-O ) :   0.9721 B(  4-C , 14-H ) :   0.9114 B(  4-C , 15-H ) :   0.9113
B(  5-O ,  6-C ) :   0.9080 B(  6-C ,  7-C ) :   0.8938 B(  6-C , 16-H ) :   0.9033
B(  6-C , 17-H ) :   0.9034 B(  7-C ,  8-O ) :   1.9833 B(  7-C , 18-H ) :   0.9294

MP2 TOTAL ENERGY:     -459.424703549 Eh
FINAL SINGLE POINT ENERGY      -459.424703548813

DIPOLE MOMENT
-------------
                                X             Y             Z
Electronic contribution:    -10.01258      -5.35593      -0.46252
Nuclear contribution   :     11.73817       5.30191       0.51876
                        -----------------------------------------
Total Dipole Moment    :      1.72559      -0.05402       0.05624
                        -----------------------------------------
Magnitude (a.u.)       :      1.72735
Magnitude (Debye)      :      4.39058

                             ****ORCA TERMINATED NORMALLY****
TOTAL RUN TIME: 0 days 0 hours 13 minutes 8 seconds 251 msec
