                         Program Version 3.0.3 - RELEASE   -
|  1> ! RI-MP2 RIJK def2-TZVP def2-TZVP/C def2-TZVP/JK TIGHTSCF
|  2> % maxcore 2000
|  3> % mp2 density relaxed end
|  4> *xyz 0 1
|  5>  N        0.1190290014     1.1207092404     0.8347874756
|  6>  C        0.0790894043     0.1251283200    -0.1014694412
|  7>  O        0.8584522081     0.0564432911    -1.0290766831
|  8>  C       -1.1002905372    -0.8161790803     0.0660535025
|  9>  C       -1.1526722090    -2.2995609650    -0.1216668350
| 10>  C       -0.0887147749    -3.0853941642     0.6665582455
| 11>  C        0.8257871009    -2.2861631871     1.5010170268
| 12>  N       -0.5518924796    -2.5229977374     1.9874117103
| 13>  C       -1.5553082202    -1.6913896039     1.2123500175
| 14>  H        0.8763229397     1.7838343888     0.7968487556
| 15>  H       -0.4500602615     1.0795826525     1.6624985225
| 16>  H       -1.9817096939    -0.3548793833    -0.3826140745
| 17>  H       -1.7743650644    -2.7673656342    -0.8730113857
| 18>  H        0.0245230095    -4.1571611127     0.5413871886
| 19>  H        1.5489906956    -2.8449262497     2.0894019258
| 20>  H        1.1644929493    -1.3005513966     1.2161023343
| 21>  H       -2.5306752382    -1.5816338784     1.6706131046
| 22> *
| 23>
| 24>                          ****END OF INPUT****

CARTESIAN COORDINATES (ANGSTROEM)
---------------------------------
  N      0.119029    1.120709    0.834787
  C      0.079089    0.125128   -0.101469
  O      0.858452    0.056443   -1.029077
  C     -1.100291   -0.816179    0.066054
  C     -1.152672   -2.299561   -0.121667
  C     -0.088715   -3.085394    0.666558
  C      0.825787   -2.286163    1.501017
  N     -0.551892   -2.522998    1.987412
  C     -1.555308   -1.691390    1.212350
  H      0.876323    1.783834    0.796849
  H     -0.450060    1.079583    1.662499
  H     -1.981710   -0.354879   -0.382614
  H     -1.774365   -2.767366   -0.873011
  H      0.024523   -4.157161    0.541387
  H      1.548991   -2.844926    2.089402
  H      1.164493   -1.300551    1.216102
  H     -2.530675   -1.581634    1.670613

 Total Charge           Charge          ....    0
 Multiplicity           Mult            ....    1
 Number of Electrons    NEL             ....   66
 Basis Dimension        Dim             ....  327

ORBITAL ENERGIES
----------------

  NO   OCC          E(Eh)            E(eV)
   0   2.0000     -20.523062      -558.4609
   1   2.0000     -15.587525      -424.1581
   2   2.0000     -15.568492      -423.6402
   3   2.0000     -11.359653      -309.1119
   4   2.0000     -11.282275      -307.0063
   5   2.0000     -11.274222      -306.7872
   6   2.0000     -11.264760      -306.5297
   7   2.0000     -11.263891      -306.5061
   8   2.0000     -11.254062      -306.2386
   9   2.0000      -1.388165       -37.7739
  10   2.0000      -1.308881       -35.6165
  11   2.0000      -1.216090       -33.0915
  12   2.0000      -1.128180       -30.6993
  13   2.0000      -0.938660       -25.5422
  14   2.0000      -0.920682       -25.0530
  15   2.0000      -0.842469       -22.9247
  16   2.0000      -0.774119       -21.0649
  17   2.0000      -0.750801       -20.4303
  18   2.0000      -0.734436       -19.9850
  19   2.0000      -0.715329       -19.4651
  20   2.0000      -0.679027       -18.4773
  21   2.0000      -0.628949       -17.1146
  22   2.0000      -0.611724       -16.6459
  23   2.0000      -0.588888       -16.0244
  24   2.0000      -0.576903       -15.6983
  25   2.0000      -0.539118       -14.6701
  26   2.0000      -0.496399       -13.5077
  27   2.0000      -0.489859       -13.3297
  28   2.0000      -0.471853       -12.8398
  29   2.0000      -0.435880       -11.8609
  30   2.0000      -0.422997       -11.5103
  31   2.0000      -0.386879       -10.5275
  32   2.0000      -0.351923        -9.5763
  33   0.0000       0.126069         3.4305
  34   0.0000       0.140059         3.8112
  35   0.0000       0.160637         4.3712
  36   0.0000       0.175472         4.7748
  37   0.0000       0.182987         4.9793

MULLIKEN ATOMIC CHARGES
-----------------------
   0 N :   -0.461708
   1 C :    0.231847
   2 O :   -0.316829
   3 C :   -0.176523
   4 C :   -0.123473
   5 C :   -0.061661
   6 C :   -0.150111
   7 N :   -0.243684
   8 C :   -0.081300
   9 H :    0.261060
  10 H :    0.269634
  11 H :    0.143972
  12 H :    0.150256
  13 H :    0.138614
  14 H :    0.131110
  15 H :    0.146592
  16 H :    0.142204
Sum of atomic charges:   -0.0000000

LOEWDIN ATOMIC CHARGES
----------------------
   0 N :   -0.015825
   1 C :   -0.489058
   2 O :    0.098286
   3 C :   -0.169748
   4 C :   -0.146905
   5 C :   -0.189870
   6 C :   -0.233083
   7 N :    0.113910
   8 C :   -0.185305
   9 H :    0.172979
  10 H :    0.175104
  11 H :    0.181539
  12 H :    0.142964
  13 H :    0.137702
  14 H :    0.137057
  15 H :    0.135162
  16 H :    0.135091

  Mayer bond orders larger than 0.1
B(  0-N ,  1-C ) :   1.1322 B(  0-N ,  9-H ) :   0.8570 B(  0-N , 10-H ) :   0.8650
B(  1-C ,  2-O ) :   2.0602 B(  1-C ,  3-C ) :   0.8748 B(  3-C ,  4-C ) :   0.8787
B(  3-C ,  8-C ) :   0.8980 B(  3-C , 11-H ) :   0.9041 B(  4-C ,  5-C ) :   0.9416
B(  4-C ,  8-C ) :   0.8559 B(  4-C , 12-H ) :   0.9148 B(  5-C ,  6-C ) :   0.9673
B(  5-C ,  7-N ) :   0.8650 B(  5-C , 13-H ) :   0.9001 B(  6-C ,  7-N ) :   0.8908
B(  6-C , 14-H ) :   0.9232 B(  6-C , 15-H ) :   0.8876 B(  7-N ,  8-C ) :   0.9313
B(  8-C , 16-H ) :   0.9293

MP2 TOTAL ENERGY:     -417.231532215 Eh
FINAL SINGLE POINT ENERGY      -417.231532215305

DIPOLE MOMENT
-------------
                                X             Y             Z
Electronic contribution:      0.46129       0.85400      -1.52224
Nuclear contribution   :     -1.01335      -0.44027       2.14733
                        -----------------------------------------
Total Dipole Moment    :     -0.55205       0.41374       0.62509
                        -----------------------------------------
Magnitude (a.u.)       :      0.93096
Magnitude (Debye)      :      2.36630

                             ****ORCA TERMINATED NORMALLY****
TOTAL RUN TIME: 0 days 0 hours 19 minutes 24 seconds 416 msec
