                         Program Version 3.0.3 - RELEASE   -
|  1> ! RI-MP2 RIJK def2-TZVP def2-TZVP/C def2-TZVP/JK TIGHTSCF
|  2> % maxcore 2000
|  3> % mp2 density relaxed end
|  4> *xyz 0 1
|  5>  C       -0.0446616138     1.5531666706    -0.1346467863
|  6>  C        0.0640440696     0.0352379395    -0.0144084891
|  7>  C        0.8857604175    -0.6459677328    -1.1401121843
|  8>  C        1.3601133384    -1.9745640939    -0.5579527166
|  9>  C        2.5828083687    -1.9871158402     0.2878458717
| 10>  C        1.2364885800    -1.8656270503     0.9843543919
| 11>  C        0.7178631316    -0.4667760118     1.2981646531
| 12>  C        0.7427337194    -3.0457594525     1.7229151085
| 13>  O        1.1229685509    -4.1807502309     1.5446445497
| 14>  H        0.9460584510     2.0214977525    -0.0968922296
| 15>  H       -0.5153549933     1.8461006357    -1.0790701397
| 16>  H       -0.6436755343     1.9758858500     0.6789012965
| 17>  H       -0.9466734895    -0.3934425241    -0.0518342262
| 18>  H        0.2882650599    -0.7901723553    -2.0445978217
| 19>  H        1.7412591102    -0.0174211881    -1.4198361760
| 20>  H        1.0587204662    -2.9074092478    -1.0208266441
| 21>  H        3.0864890263    -2.9378746610     0.4255013955
| 22>  H        3.2200126760    -1.1075792553     0.2990295278
| 23>  H        1.5345794987     0.1997388218     1.6025875221
| 24>  H        0.0011840804    -0.4837609263     2.1269284253
| 25>  H       -0.0485736740    -2.8224797997     2.4757053915
| 26> *
| 27>
| 28>                          ****END OF INPUT****

CARTESIAN COORDINATES (ANGSTROEM)
---------------------------------
  C     -0.044662    1.553167   -0.134647
  C      0.064044    0.035238   -0.014408
  C      0.885760   -0.645968   -1.140112
  C      1.360113   -1.974564   -0.557953
  C      2.582808   -1.987116    0.287846
  C      1.236489   -1.865627    0.984354
  C      0.717863   -0.466776    1.298165
  C      0.742734   -3.045759    1.722915
  O      1.122969   -4.180750    1.544645
  H      0.946058    2.021498   -0.096892
  H     -0.515355    1.846101   -1.079070
  H     -0.643676    1.975886    0.678901
  H     -0.946673   -0.393443   -0.051834
  H      0.288265   -0.790172   -2.044598
  H      1.741259   -0.017421   -1.419836
  H      1.058720   -2.907409   -1.020827
  H      3.086489   -2.937875    0.425501
  H      3.220013   -1.107579    0.299030
  H      1.534579    0.199739    1.602588
  H      0.001184   -0.483761    2.126928
  H     -0.048574   -2.822480    2.475705

 Total Charge           Charge          ....    0
 Multiplicity           Mult            ....    1
 Number of Electrons    NEL             ....   68
 Basis Dimension        Dim             ....  351

ORBITAL ENERGIES
----------------

  NO   OCC          E(Eh)            E(eV)
   0   2.0000     -20.542434      -558.9880
   1   2.0000     -11.325793      -308.1905
   2   2.0000     -11.246132      -306.0228
   3   2.0000     -11.242462      -305.9229
   4   2.0000     -11.238517      -305.8156
   5   2.0000     -11.237026      -305.7750
   6   2.0000     -11.233694      -305.6844
   7   2.0000     -11.230604      -305.6003
   8   2.0000     -11.221110      -305.3419
   9   2.0000      -1.382985       -37.6329
  10   2.0000      -1.187478       -32.3129
  11   2.0000      -1.069209       -29.0947
  12   2.0000      -0.987536       -26.8722
  13   2.0000      -0.943806       -25.6823
  14   2.0000      -0.884655       -24.0727
  15   2.0000      -0.803363       -21.8606
  16   2.0000      -0.779694       -21.2165
  17   2.0000      -0.737621       -20.0717
  18   2.0000      -0.698167       -18.9981
  19   2.0000      -0.655917       -17.8484
  20   2.0000      -0.622851       -16.9486
  21   2.0000      -0.606261       -16.4972
  22   2.0000      -0.590797       -16.0764
  23   2.0000      -0.571436       -15.5496
  24   2.0000      -0.566951       -15.4275
  25   2.0000      -0.540891       -14.7184
  26   2.0000      -0.532742       -14.4967
  27   2.0000      -0.519517       -14.1368
  28   2.0000      -0.479628       -13.0513
  29   2.0000      -0.468903       -12.7595
  30   2.0000      -0.465091       -12.6558
  31   2.0000      -0.442960       -12.0536
  32   2.0000      -0.406893       -11.0721
  33   2.0000      -0.385446       -10.4885
  34   0.0000       0.121863         3.3161
  35   0.0000       0.127025         3.4565
  36   0.0000       0.155945         4.2435
  37   0.0000       0.164437         4.4745
  38   0.0000       0.169626         4.6158

MULLIKEN ATOMIC CHARGES
-----------------------
   0 C :   -0.415040
   1 C :   -0.004197
   2 C :   -0.300528
   3 C :   -0.064038
   4 C :   -0.334437
   5 C :    0.168967
   6 C :   -0.316959
   7 C :    0.058923
   8 O :   -0.297388
   9 H :    0.122603
  10 H :    0.135767
  11 H :    0.134625
  12 H :    0.096478
  13 H :    0.127755
  14 H :    0.123417
  15 H :    0.147383
  16 H :    0.152691
  17 H :    0.136412
  18 H :    0.125850
  19 H :    0.128509
  20 H :    0.073208
Sum of atomic charges:    0.0000000

LOEWDIN ATOMIC CHARGES
----------------------
   0 C :   -0.298638
   1 C :   -0.260353
   2 C :   -0.208836
   3 C :   -0.151743
   4 C :   -0.164663
   5 C :   -0.213699
   6 C :   -0.189615
   7 C :   -0.272182
   8 O :    0.117873
   9 H :    0.122778
  10 H :    0.125034
  11 H :    0.124799
  12 H :    0.153052
  13 H :    0.140430
  14 H :    0.141760
  15 H :    0.151349
  16 H :    0.146222
  17 H :    0.137635
  18 H :    0.142268
  19 H :    0.141553
  20 H :    0.114975

  Mayer bond orders larger than 0.1
B(  0-C ,  1-C ) :   0.8996 B(  0-C ,  9-H ) :   0.9350 B(  0-C , 10-H ) :   0.9409
B(  0-C , 11-H ) :   0.9396 B(  1-C ,  2-C ) :   0.9420 B(  1-C ,  6-C ) :   0.9351
B(  1-C , 12-H ) :   0.9267 B(  2-C ,  3-C ) :   0.8987 B(  2-C , 13-H ) :   0.9287
B(  2-C , 14-H ) :   0.9174 B(  3-C ,  4-C ) :   0.9499 B(  3-C ,  5-C ) :   0.7475
B(  3-C , 15-H ) :   0.9143 B(  4-C ,  5-C ) :   0.8317 B(  4-C , 16-H ) :   0.9140
B(  4-C , 17-H ) :   0.9182 B(  5-C ,  6-C ) :   0.8787 B(  5-C ,  7-C ) :   0.8943
B(  6-C , 18-H ) :   0.9221 B(  6-C , 19-H ) :   0.9257 B(  7-C ,  8-O ) :   1.9661
B(  7-C , 20-H ) :   0.9662

MP2 TOTAL ENERGY:     -386.432007565 Eh
FINAL SINGLE POINT ENERGY      -386.432007564773

DIPOLE MOMENT
-------------
                                X             Y             Z
Electronic contribution:      1.39534      -9.41504       3.02602
Nuclear contribution   :     -1.60932      10.57949      -3.28264
                        -----------------------------------------
Total Dipole Moment    :     -0.21398       1.16446      -0.25662
                        -----------------------------------------
Magnitude (a.u.)       :      1.21145
Magnitude (Debye)      :      3.07925

                             ****ORCA TERMINATED NORMALLY****
TOTAL RUN TIME: 0 days 0 hours 19 minutes 58 seconds 697 msec
