                         Program Version 3.0.3 - RELEASE   -
|  1> ! RI-MP2 RIJK def2-TZVP def2-TZVP/C def2-TZVP/JK TIGHTSCF
|  2> % maxcore 2000
|  3> % mp2 density relaxed end
|  4> *xyz 0 1
|  5>  O        0.0971002362    -0.0003060081     0.0631601647
|  6>  C        0.0743482390     1.1867930152    -0.0355996700
|  7>  O        1.1906578000     1.9467438203     0.0754164954
|  8>  C        1.0081033256     3.3473694907    -0.0038325076
|  9>  O        0.5313932688     3.8224429677     1.2338610941
| 10>  C        1.1965586296     5.0289554279     1.6152783702
| 11>  C        2.4434479061     5.0946566800     0.7616736363
| 12>  O        3.2256879298     3.9028311093     0.8487686308
| 13>  C        2.3295611006     4.0433796206    -0.2510950567
| 14>  H       -0.8347110376     1.7852538672    -0.2344174100
| 15>  H        0.2888370116     3.5720369354    -0.8085045716
| 16>  H        0.5574782182     5.9028897055     1.4246563813
| 17>  H        1.4119787154     4.9738288026     2.6867803077
| 18>  H        2.9807178484     6.0261324269     0.6111743131
| 19>  H        2.7625871683     4.0781744487    -1.2456133675
| 20> *
| 21>
| 22>                          ****END OF INPUT****

CARTESIAN COORDINATES (ANGSTROEM)
---------------------------------
  O      0.097100   -0.000306    0.063160
  C      0.074348    1.186793   -0.035600
  O      1.190658    1.946744    0.075416
  C      1.008103    3.347369   -0.003833
  O      0.531393    3.822443    1.233861
  C      1.196559    5.028955    1.615278
  C      2.443448    5.094657    0.761674
  O      3.225688    3.902831    0.848769
  C      2.329561    4.043380   -0.251095
  H     -0.834711    1.785254   -0.234417
  H      0.288837    3.572037   -0.808505
  H      0.557478    5.902890    1.424656
  H      1.411979    4.973829    2.686780
  H      2.980718    6.026132    0.611174
  H      2.762587    4.078174   -1.245613

 Total Charge           Charge          ....    0
 Multiplicity           Mult            ....    1
 Number of Electrons    NEL             ....   68
 Basis Dimension        Dim             ....  315

ORBITAL ENERGIES
----------------

  NO   OCC          E(Eh)            E(eV)
   0   2.0000     -20.615880      -560.9866
   1   2.0000     -20.595003      -560.4185
   2   2.0000     -20.589396      -560.2659
   3   2.0000     -20.555379      -559.3403
   4   2.0000     -11.387431      -309.8677
   5   2.0000     -11.376182      -309.5617
   6   2.0000     -11.316001      -307.9240
   7   2.0000     -11.314981      -307.8963
   8   2.0000     -11.309511      -307.7475
   9   2.0000      -1.487206       -40.4689
  10   2.0000      -1.450497       -39.4700
  11   2.0000      -1.404360       -38.2146
  12   2.0000      -1.368974       -37.2517
  13   2.0000      -1.034773       -28.1576
  14   2.0000      -1.018928       -27.7264
  15   2.0000      -0.881671       -23.9915
  16   2.0000      -0.852361       -23.1939
  17   2.0000      -0.837471       -22.7888
  18   2.0000      -0.768545       -20.9132
  19   2.0000      -0.746475       -20.3126
  20   2.0000      -0.691769       -18.8240
  21   2.0000      -0.679489       -18.4898
  22   2.0000      -0.662402       -18.0249
  23   2.0000      -0.647019       -17.6063
  24   2.0000      -0.603567       -16.4239
  25   2.0000      -0.579735       -15.7754
  26   2.0000      -0.576529       -15.6881
  27   2.0000      -0.567211       -15.4346
  28   2.0000      -0.542864       -14.7721
  29   2.0000      -0.490602       -13.3500
  30   2.0000      -0.483500       -13.1567
  31   2.0000      -0.467252       -12.7146
  32   2.0000      -0.455993       -12.4082
  33   2.0000      -0.444817       -12.1041
  34   0.0000       0.128671         3.5013
  35   0.0000       0.142545         3.8789
  36   0.0000       0.161343         4.3904
  37   0.0000       0.164258         4.4697
  38   0.0000       0.178200         4.8491

MULLIKEN ATOMIC CHARGES
-----------------------
   0 O :   -0.256253
   1 C :    0.193083
   2 O :   -0.181159
   3 C :    0.139823
   4 O :   -0.296785
   5 C :   -0.002644
   6 C :   -0.043612
   7 O :   -0.299586
   8 C :    0.045576
   9 H :    0.085470
  10 H :    0.085120
  11 H :    0.106755
  12 H :    0.128506
  13 H :    0.141872
  14 H :    0.153833
Sum of atomic charges:   -0.0000000

LOEWDIN ATOMIC CHARGES
----------------------
   0 O :    0.133066
   1 C :   -0.434289
   2 O :    0.270703
   3 C :   -0.374531
   4 O :    0.186631
   5 C :   -0.269246
   6 C :   -0.261586
   7 O :    0.199474
   8 C :   -0.241175
   9 H :    0.106521
  10 H :    0.132913
  11 H :    0.130092
  12 H :    0.137457
  13 H :    0.140780
  14 H :    0.143190

  Mayer bond orders larger than 0.1
B(  0-O ,  1-C ) :   2.0400 B(  1-C ,  2-O ) :   1.0393 B(  1-C ,  9-H ) :   0.9141
B(  2-O ,  3-C ) :   0.9413 B(  3-C ,  4-O ) :   1.0069 B(  3-C ,  8-C ) :   0.9219
B(  3-C , 10-H ) :   0.9155 B(  4-O ,  5-C ) :   0.9229 B(  5-C ,  6-C ) :   0.9493
B(  5-C , 11-H ) :   0.9219 B(  5-C , 12-H ) :   0.9074 B(  6-C ,  7-O ) :   0.9167
B(  6-C ,  8-C ) :   0.9489 B(  6-C , 13-H ) :   0.9174 B(  7-O ,  8-C ) :   0.9122
B(  8-C , 14-H ) :   0.9125

MP2 TOTAL ENERGY:     -494.129617037 Eh
FINAL SINGLE POINT ENERGY      -494.129617037495

DIPOLE MOMENT
-------------
                                X             Y             Z
Electronic contribution:      0.49279      -4.85592      -0.18857
Nuclear contribution   :     -0.74972       7.10590      -0.44027
                        -----------------------------------------
Total Dipole Moment    :     -0.25693       2.24998      -0.62884
                        -----------------------------------------
Magnitude (a.u.)       :      2.35029
Magnitude (Debye)      :      5.97397

                             ****ORCA TERMINATED NORMALLY****
TOTAL RUN TIME: 0 days 0 hours 13 minutes 44 seconds 302 msec
