                         Program Version 3.0.3 - RELEASE   -
|  1> ! RI-MP2 RIJK def2-TZVP def2-TZVP/C def2-TZVP/JK TIGHTSCF
|  2> % maxcore 2000
|  3> % mp2 density relaxed end
|  4> *xyz 0 1
|  5>  O       -0.1219761487     1.3853443622     0.0640513229
|  6>  C        0.0374567584     0.0118404201     0.0493159725
|  7>  C        0.8863505134    -0.8031051130    -0.9703603297
|  8>  N        0.7849736881    -1.9254972170     0.0383321778
|  9>  C        0.8075598351    -0.8443794182     1.0978554146
| 10>  C       -0.6763240694    -2.2047519744    -0.0265729318
| 11>  C       -1.3056027310    -0.7561644696    -0.0348224968
| 12>  C       -2.2107058591    -0.4884235588     1.0739500753
| 13>  N       -2.9258957985    -0.3040232586     1.9635883389
| 14>  H        0.7386579850     1.7998651815     0.1846561721
| 15>  H        0.4798789922    -1.0226192499    -1.9617738876
| 16>  H        1.9195164097    -0.4560063386    -1.0486528654
| 17>  H        1.8327623133    -0.5056108485     1.2663237368
| 18>  H        0.3254553295    -1.0990481059     2.0447261077
| 19>  H       -0.9141101972    -2.7604001350    -0.9354909428
| 20>  H       -0.9891493747    -2.7890701754     0.8398634329
| 21>  H       -1.8230776559    -0.5272772709    -0.9706654771
| 22> *
| 23>
| 24>                          ****END OF INPUT****

CARTESIAN COORDINATES (ANGSTROEM)
---------------------------------
  O     -0.121976    1.385344    0.064051
  C      0.037457    0.011840    0.049316
  C      0.886351   -0.803105   -0.970360
  N      0.784974   -1.925497    0.038332
  C      0.807560   -0.844379    1.097855
  C     -0.676324   -2.204752   -0.026573
  C     -1.305603   -0.756164   -0.034822
  C     -2.210706   -0.488424    1.073950
  N     -2.925896   -0.304023    1.963588
  H      0.738658    1.799865    0.184656
  H      0.479879   -1.022619   -1.961774
  H      1.919516   -0.456006   -1.048653
  H      1.832762   -0.505611    1.266324
  H      0.325455   -1.099048    2.044726
  H     -0.914110   -2.760400   -0.935491
  H     -0.989149   -2.789070    0.839863
  H     -1.823078   -0.527277   -0.970665

 Total Charge           Charge          ....    0
 Multiplicity           Mult            ....    1
 Number of Electrons    NEL             ....   66
 Basis Dimension        Dim             ....  327

ORBITAL ENERGIES
----------------

  NO   OCC          E(Eh)            E(eV)
   0   2.0000     -20.591306      -560.3179
   1   2.0000     -15.583533      -424.0495
   2   2.0000     -15.567359      -423.6094
   3   2.0000     -11.326999      -308.2233
   4   2.0000     -11.287532      -307.1494
   5   2.0000     -11.282742      -307.0190
   6   2.0000     -11.277501      -306.8764
   7   2.0000     -11.275598      -306.8246
   8   2.0000     -11.270612      -306.6889
   9   2.0000      -1.407533       -38.3009
  10   2.0000      -1.299492       -35.3610
  11   2.0000      -1.215395       -33.0726
  12   2.0000      -1.062611       -28.9151
  13   2.0000      -1.006432       -27.3864
  14   2.0000      -0.946823       -25.7644
  15   2.0000      -0.844992       -22.9934
  16   2.0000      -0.813363       -22.1327
  17   2.0000      -0.746231       -20.3060
  18   2.0000      -0.707641       -19.2559
  19   2.0000      -0.688274       -18.7289
  20   2.0000      -0.638746       -17.3812
  21   2.0000      -0.625737       -17.0272
  22   2.0000      -0.591781       -16.1032
  23   2.0000      -0.568714       -15.4755
  24   2.0000      -0.553345       -15.0573
  25   2.0000      -0.549694       -14.9579
  26   2.0000      -0.538752       -14.6602
  27   2.0000      -0.519142       -14.1266
  28   2.0000      -0.498505       -13.5650
  29   2.0000      -0.464218       -12.6320
  30   2.0000      -0.454570       -12.3695
  31   2.0000      -0.444836       -12.1046
  32   2.0000      -0.394307       -10.7296
  33   0.0000       0.113063         3.0766
  34   0.0000       0.132831         3.6145
  35   0.0000       0.152957         4.1622
  36   0.0000       0.168103         4.5743
  37   0.0000       0.172499         4.6939

MULLIKEN ATOMIC CHARGES
-----------------------
   0 O :   -0.436116
   1 C :    0.145694
   2 C :   -0.179274
   3 N :   -0.174719
   4 C :   -0.230364
   5 C :   -0.170872
   6 C :    0.044058
   7 C :   -0.255489
   8 N :   -0.045399
   9 H :    0.330565
  10 H :    0.126532
  11 H :    0.129615
  12 H :    0.129952
  13 H :    0.148123
  14 H :    0.141179
  15 H :    0.152783
  16 H :    0.143732
Sum of atomic charges:    0.0000000

LOEWDIN ATOMIC CHARGES
----------------------
   0 O :    0.046192
   1 C :   -0.359518
   2 C :   -0.212667
   3 N :    0.089732
   4 C :   -0.208605
   5 C :   -0.219561
   6 C :   -0.197915
   7 C :   -0.172604
   8 N :    0.063727
   9 H :    0.187524
  10 H :    0.128774
  11 H :    0.135255
  12 H :    0.135081
  13 H :    0.134368
  14 H :    0.134579
  15 H :    0.140547
  16 H :    0.175088

  Mayer bond orders larger than 0.1
B(  0-O ,  1-C ) :   1.0630 B(  0-O ,  9-H ) :   0.8315 B(  1-C ,  2-C ) :   0.9186
B(  1-C ,  4-C ) :   0.9076 B(  1-C ,  6-C ) :   0.8726 B(  2-C ,  3-N ) :   0.9302
B(  2-C , 10-H ) :   0.9255 B(  2-C , 11-H ) :   0.9166 B(  3-N ,  4-C ) :   0.9268
B(  3-N ,  5-C ) :   0.9087 B(  4-C , 12-H ) :   0.9156 B(  4-C , 13-H ) :   0.9206
B(  5-C ,  6-C ) :   0.8922 B(  5-C , 14-H ) :   0.9329 B(  5-C , 15-H ) :   0.9297
B(  6-C ,  7-C ) :   0.9576 B(  6-C , 16-H ) :   0.8913 B(  7-C ,  8-N ) :   2.8728

MP2 TOTAL ENERGY:     -417.290284136 Eh
FINAL SINGLE POINT ENERGY      -417.290284135723

DIPOLE MOMENT
-------------
                                X             Y             Z
Electronic contribution:     -3.79039       2.23570       2.08517
Nuclear contribution   :      5.09432      -2.19172      -3.12752
                        -----------------------------------------
Total Dipole Moment    :      1.30393       0.04398      -1.04235
                        -----------------------------------------
Magnitude (a.u.)       :      1.66993
Magnitude (Debye)      :      4.24462

                             ****ORCA TERMINATED NORMALLY****
TOTAL RUN TIME: 0 days 0 hours 18 minutes 7 seconds 851 msec
