                         Program Version 3.0.3 - RELEASE   -
|  1> ! RI-MP2 RIJK def2-TZVP def2-TZVP/C def2-TZVP/JK TIGHTSCF
|  2> % maxcore 2000
|  3> % mp2 density relaxed end
|  4> *xyz 0 1
|  5>  O        0.0988889429     1.4000942815     0.0545465666
|  6>  C        0.0414028687    -0.0052274211     0.0909931198
|  7>  C        0.2117908749    -0.6023235816     1.5191256055
|  8>  C       -1.1554202676    -1.2834457794     1.3733482989
|  9>  C       -2.2078741504    -0.2370124975     1.1210037840
| 10>  C       -1.3375662680    -0.6798279894    -0.0206776192
| 11>  C       -1.8749992216    -1.2758431910    -1.3015950213
| 12>  C       -2.0987128922    -0.2268217132    -2.3019105888
| 13>  N       -2.2299453948     0.6341644749    -3.0621552876
| 14>  H       -0.1723988070     1.6925829007    -0.8232109326
| 15>  H        0.7532827646    -0.4530984741    -0.6180366185
| 16>  H        1.0548746965    -1.2917989132     1.5903631464
| 17>  H        0.2855887188     0.1426598524     2.3158951335
| 18>  H       -1.4065484832    -2.2810841863     1.7126720883
| 19>  H       -3.2308017231    -0.5994481144     1.0870911879
| 20>  H       -2.0952333402     0.7635755175     1.5286690446
| 21>  H       -1.1702466453    -2.0029059973    -1.7248477273
| 22>  H       -2.8155790930    -1.8095545986    -1.1266631204
| 23> *
| 24>
| 25>                          ****END OF INPUT****

CARTESIAN COORDINATES (ANGSTROEM)
---------------------------------
  O      0.098889    1.400094    0.054547
  C      0.041403   -0.005227    0.090993
  C      0.211791   -0.602324    1.519126
  C     -1.155420   -1.283446    1.373348
  C     -2.207874   -0.237012    1.121004
  C     -1.337566   -0.679828   -0.020678
  C     -1.874999   -1.275843   -1.301595
  C     -2.098713   -0.226822   -2.301911
  N     -2.229945    0.634164   -3.062155
  H     -0.172399    1.692583   -0.823211
  H      0.753283   -0.453098   -0.618037
  H      1.054875   -1.291799    1.590363
  H      0.285589    0.142660    2.315895
  H     -1.406548   -2.281084    1.712672
  H     -3.230802   -0.599448    1.087091
  H     -2.095233    0.763576    1.528669
  H     -1.170247   -2.002906   -1.724848
  H     -2.815579   -1.809555   -1.126663

 Total Charge           Charge          ....    0
 Multiplicity           Mult            ....    1
 Number of Electrons    NEL             ....   66
 Basis Dimension        Dim             ....  333

ORBITAL ENERGIES
----------------

  NO   OCC          E(Eh)            E(eV)
   0   2.0000     -20.561030      -559.4941
   1   2.0000     -15.575287      -423.8251
   2   2.0000     -11.295963      -307.3788
   3   2.0000     -11.292533      -307.2854
   4   2.0000     -11.280430      -306.9561
   5   2.0000     -11.260184      -306.4052
   6   2.0000     -11.252256      -306.1895
   7   2.0000     -11.241718      -305.9027
   8   2.0000     -11.236017      -305.7476
   9   2.0000      -1.371122       -37.3101
  10   2.0000      -1.227403       -33.3993
  11   2.0000      -1.205946       -32.8155
  12   2.0000      -1.056605       -28.7517
  13   2.0000      -0.992116       -26.9969
  14   2.0000      -0.885587       -24.0981
  15   2.0000      -0.817456       -22.2441
  16   2.0000      -0.747605       -20.3434
  17   2.0000      -0.719821       -19.5873
  18   2.0000      -0.707081       -19.2407
  19   2.0000      -0.676480       -18.4080
  20   2.0000      -0.648050       -17.6343
  21   2.0000      -0.617012       -16.7897
  22   2.0000      -0.599038       -16.3007
  23   2.0000      -0.570491       -15.5238
  24   2.0000      -0.561119       -15.2688
  25   2.0000      -0.551866       -15.0170
  26   2.0000      -0.519501       -14.1363
  27   2.0000      -0.483523       -13.1573
  28   2.0000      -0.471178       -12.8214
  29   2.0000      -0.465425       -12.6648
  30   2.0000      -0.445990       -12.1360
  31   2.0000      -0.417864       -11.3706
  32   2.0000      -0.397945       -10.8286
  33   0.0000       0.116841         3.1794
  34   0.0000       0.149828         4.0770
  35   0.0000       0.150209         4.0874
  36   0.0000       0.160350         4.3634
  37   0.0000       0.168837         4.5943

MULLIKEN ATOMIC CHARGES
-----------------------
   0 O :   -0.461735
   1 C :    0.040918
   2 C :   -0.212845
   3 C :   -0.151689
   4 C :   -0.285805
   5 C :    0.032324
   6 C :   -0.117815
   7 C :   -0.180735
   8 N :   -0.067334
   9 H :    0.326648
  10 H :    0.089759
  11 H :    0.127629
  12 H :    0.123065
  13 H :    0.135862
  14 H :    0.134756
  15 H :    0.146550
  16 H :    0.160252
  17 H :    0.160195
Sum of atomic charges:   -0.0000000

LOEWDIN ATOMIC CHARGES
----------------------
   0 O :   -0.008609
   1 C :   -0.282852
   2 C :   -0.187108
   3 C :   -0.157808
   4 C :   -0.175814
   5 C :   -0.196201
   6 C :   -0.210610
   7 C :   -0.184602
   8 N :    0.053996
   9 H :    0.182549
  10 H :    0.136040
  11 H :    0.135728
  12 H :    0.137611
  13 H :    0.136562
  14 H :    0.142592
  15 H :    0.140808
  16 H :    0.168068
  17 H :    0.169650

  Mayer bond orders larger than 0.1
B(  0-O ,  1-C ) :   1.0904 B(  0-O ,  9-H ) :   0.8374 B(  1-C ,  2-C ) :   0.9352
B(  1-C ,  5-C ) :   0.9072 B(  1-C , 10-H ) :   0.9682 B(  2-C ,  3-C ) :   0.9492
B(  2-C , 11-H ) :   0.9293 B(  2-C , 12-H ) :   0.9059 B(  3-C ,  4-C ) :   0.8888
B(  3-C ,  5-C ) :   0.7927 B(  3-C , 13-H ) :   0.9172 B(  4-C ,  5-C ) :   0.8873
B(  4-C , 14-H ) :   0.9314 B(  4-C , 15-H ) :   0.9110 B(  5-C ,  6-C ) :   0.9103
B(  6-C ,  7-C ) :   0.9233 B(  6-C , 16-H ) :   0.9116 B(  6-C , 17-H ) :   0.9077
B(  7-C ,  8-N ) :   2.8533

MP2 TOTAL ENERGY:     -401.245005804 Eh
FINAL SINGLE POINT ENERGY      -401.245005803991

DIPOLE MOMENT
-------------
                                X             Y             Z
Electronic contribution:     -1.27852       2.26166      -5.23144
Nuclear contribution   :      1.33483      -3.64115       5.90040
                        -----------------------------------------
Total Dipole Moment    :      0.05630      -1.37950       0.66897
                        -----------------------------------------
Magnitude (a.u.)       :      1.53418
Magnitude (Debye)      :      3.89957

                             ****ORCA TERMINATED NORMALLY****
TOTAL RUN TIME: 0 days 0 hours 17 minutes 56 seconds 936 msec
