                         Program Version 3.0.3 - RELEASE   -
|  1> ! RI-MP2 RIJK def2-TZVP def2-TZVP/C def2-TZVP/JK TIGHTSCF
|  2> % maxcore 2000
|  3> % mp2 density relaxed end
|  4> *xyz 0 1
|  5>  C       -0.0571991724     1.5244047942    -0.0239202073
|  6>  C        0.0130560559     0.0133998552     0.0358379815
|  7>  C        1.3479441579    -0.6994274457    -0.1970079069
|  8>  C        0.7117227540    -0.6957323434     1.1484485915
|  9>  C        1.1899788970    -0.1971807756     2.5395630782
| 10>  C       -0.2020431990    -0.6970142687     3.0647930250
| 11>  C        0.2343414894    -1.8402449408     2.0822811491
| 12>  C        1.6276015423    -1.6672335183     2.7232008253
| 13>  O        2.5429039954    -2.3112268417     3.1289053923
| 14>  H        0.8436104898     1.9774779804     0.4024434414
| 15>  H       -0.1468239093     1.8727732446    -1.0587059645
| 16>  H       -0.9182080866     1.9098810830     0.5331314079
| 17>  H       -0.8561398835    -0.4948628066    -0.3767045576
| 18>  H        1.3475481546    -1.6185789244    -0.7745129009
| 19>  H        2.2226215868    -0.0749551780    -0.3553301281
| 20>  H        1.7133477626     0.7235179581     2.7861563842
| 21>  H       -0.2771298256    -0.9478300405     4.1245890520
| 22>  H       -1.0512049344    -0.1076624505     2.7160568778
| 23>  H       -0.3082485049    -2.7441300015     1.8145330390
| 24> *
| 25>
| 26>                          ****END OF INPUT****

CARTESIAN COORDINATES (ANGSTROEM)
---------------------------------
  C     -0.057199    1.524405   -0.023920
  C      0.013056    0.013400    0.035838
  C      1.347944   -0.699427   -0.197008
  C      0.711723   -0.695732    1.148449
  C      1.189979   -0.197181    2.539563
  C     -0.202043   -0.697014    3.064793
  C      0.234341   -1.840245    2.082281
  C      1.627602   -1.667234    2.723201
  O      2.542904   -2.311227    3.128905
  H      0.843610    1.977478    0.402443
  H     -0.146824    1.872773   -1.058706
  H     -0.918208    1.909881    0.533131
  H     -0.856140   -0.494863   -0.376705
  H      1.347548   -1.618579   -0.774513
  H      2.222622   -0.074955   -0.355330
  H      1.713348    0.723518    2.786156
  H     -0.277130   -0.947830    4.124589
  H     -1.051205   -0.107662    2.716057
  H     -0.308249   -2.744130    1.814533

 Total Charge           Charge          ....    0
 Multiplicity           Mult            ....    1
 Number of Electrons    NEL             ....   66
 Basis Dimension        Dim             ....  339

ORBITAL ENERGIES
----------------

  NO   OCC          E(Eh)            E(eV)
   0   2.0000     -20.547719      -559.1318
   1   2.0000     -11.339371      -308.5600
   2   2.0000     -11.264956      -306.5350
   3   2.0000     -11.262171      -306.4593
   4   2.0000     -11.261630      -306.4445
   5   2.0000     -11.256010      -306.2916
   6   2.0000     -11.243546      -305.9524
   7   2.0000     -11.231454      -305.6234
   8   2.0000     -11.227881      -305.5262
   9   2.0000      -1.396215       -37.9929
  10   2.0000      -1.235745       -33.6263
  11   2.0000      -1.128808       -30.7164
  12   2.0000      -0.971713       -26.4416
  13   2.0000      -0.893164       -24.3042
  14   2.0000      -0.888688       -24.1824
  15   2.0000      -0.819513       -22.3001
  16   2.0000      -0.771963       -21.0062
  17   2.0000      -0.705995       -19.2111
  18   2.0000      -0.690479       -18.7889
  19   2.0000      -0.655594       -17.8396
  20   2.0000      -0.636226       -17.3126
  21   2.0000      -0.605605       -16.4794
  22   2.0000      -0.595063       -16.1925
  23   2.0000      -0.575202       -15.6520
  24   2.0000      -0.553711       -15.0672
  25   2.0000      -0.525843       -14.3089
  26   2.0000      -0.510762       -13.8985
  27   2.0000      -0.500187       -13.6108
  28   2.0000      -0.478461       -13.0196
  29   2.0000      -0.462252       -12.5785
  30   2.0000      -0.409780       -11.1507
  31   2.0000      -0.409085       -11.1318
  32   2.0000      -0.388278       -10.5656
  33   0.0000       0.129663         3.5283
  34   0.0000       0.150367         4.0917
  35   0.0000       0.155075         4.2198
  36   0.0000       0.167596         4.5605
  37   0.0000       0.186256         5.0683

MULLIKEN ATOMIC CHARGES
-----------------------
   0 C :   -0.413624
   1 C :   -0.079293
   2 C :   -0.291903
   3 C :   -0.066290
   4 C :   -0.073280
   5 C :   -0.230527
   6 C :   -0.070314
   7 C :    0.122946
   8 O :   -0.248045
   9 H :    0.128752
  10 H :    0.139235
  11 H :    0.131711
  12 H :    0.121254
  13 H :    0.135938
  14 H :    0.131038
  15 H :    0.151597
  16 H :    0.132346
  17 H :    0.129194
  18 H :    0.149265
Sum of atomic charges:   -0.0000000

LOEWDIN ATOMIC CHARGES
----------------------
   0 C :   -0.291200
   1 C :   -0.205858
   2 C :   -0.178667
   3 C :   -0.177765
   4 C :   -0.106203
   5 C :   -0.170547
   6 C :   -0.104922
   7 C :   -0.271145
   8 O :    0.163084
   9 H :    0.127802
  10 H :    0.126765
  11 H :    0.124937
  12 H :    0.150786
  13 H :    0.137307
  14 H :    0.139208
  15 H :    0.133087
  16 H :    0.132061
  17 H :    0.138200
  18 H :    0.133070

  Mayer bond orders larger than 0.1
B(  0-C ,  1-C ) :   0.8837 B(  0-C ,  9-H ) :   0.9359 B(  0-C , 10-H ) :   0.9381
B(  0-C , 11-H ) :   0.9393 B(  1-C ,  2-C ) :   0.9493 B(  1-C ,  3-C ) :   0.8611
B(  1-C , 12-H ) :   0.9162 B(  2-C ,  3-C ) :   0.8562 B(  2-C , 13-H ) :   0.9166
B(  2-C , 14-H ) :   0.9137 B(  3-C ,  4-C ) :   0.8498 B(  3-C ,  6-C ) :   0.8396
B(  4-C ,  5-C ) :   0.9105 B(  4-C ,  7-C ) :   0.8196 B(  4-C , 15-H ) :   0.8711
B(  5-C ,  6-C ) :   0.9128 B(  5-C , 16-H ) :   0.9233 B(  5-C , 17-H ) :   0.9252
B(  6-C ,  7-C ) :   0.8287 B(  6-C , 18-H ) :   0.8715 B(  7-C ,  8-O ) :   2.0845

MP2 TOTAL ENERGY:     -385.155727282 Eh
FINAL SINGLE POINT ENERGY      -385.155727282127

DIPOLE MOMENT
-------------
                                X             Y             Z
Electronic contribution:      4.43946      -6.47101       5.35489
Nuclear contribution   :     -5.37513       7.17115      -5.86666
                        -----------------------------------------
Total Dipole Moment    :     -0.93566       0.70014      -0.51177
                        -----------------------------------------
Magnitude (a.u.)       :      1.27576
Magnitude (Debye)      :      3.24274

                             ****ORCA TERMINATED NORMALLY****
TOTAL RUN TIME: 0 days 0 hours 16 minutes 48 seconds 744 msec
