                         Program Version 3.0.3 - RELEASE   -
|  1> ! RI-MP2 RIJK def2-TZVP def2-TZVP/C def2-TZVP/JK TIGHTSCF
|  2> % maxcore 2000
|  3> % mp2 density relaxed end
|  4> *xyz 0 1
|  5>  C       -0.1925044812     1.4146401955    -0.0982866141
|  6>  O        0.0123059224     0.0189090133    -0.0193333641
|  7>  C        0.7317956782    -0.5224154193    -1.0953248740
|  8>  C       -0.0216317742    -0.6497891030    -2.4434690160
|  9>  O        0.1842620687    -2.0770346849    -2.4636260229
| 10>  C        0.7580567445    -2.0735028850    -1.1311819499
| 11>  C        2.2157702350    -2.5110164182    -1.1304597309
| 12>  C        2.9527782664    -1.3079393335    -1.7541685996
| 13>  C        2.2055425880    -0.0796049375    -1.1914599578
| 14>  H        0.7516172408     1.9761973557    -0.0616746845
| 15>  H       -0.7295788255     1.6986297901    -1.0158579573
| 16>  H       -0.8016115875     1.6970323315     0.7634178978
| 17>  H       -1.0857540623    -0.3891372839    -2.3738797993
| 18>  H        0.4215622346    -0.1589094241    -3.3187845891
| 19>  H        0.1129190384    -2.5853152334    -0.4104852585
| 20>  H        2.5409432098    -2.6705413397    -0.0947113923
| 21>  H        2.3636772516    -3.4459695159    -1.6779418292
| 22>  H        4.0211546525    -1.2902590620    -1.5242488640
| 23>  H        2.8537382192    -1.3435605144    -2.8439273974
| 24>  H        2.3520820860     0.8196960083    -1.7971554383
| 25>  H        2.5519798946     0.1396391305    -0.1744263687
| 26> *
| 27>
| 28>                          ****END OF INPUT****

CARTESIAN COORDINATES (ANGSTROEM)
---------------------------------
  C     -0.192504    1.414640   -0.098287
  O      0.012306    0.018909   -0.019333
  C      0.731796   -0.522415   -1.095325
  C     -0.021632   -0.649789   -2.443469
  O      0.184262   -2.077035   -2.463626
  C      0.758057   -2.073503   -1.131182
  C      2.215770   -2.511016   -1.130460
  C      2.952778   -1.307939   -1.754169
  C      2.205543   -0.079605   -1.191460
  H      0.751617    1.976197   -0.061675
  H     -0.729579    1.698630   -1.015858
  H     -0.801612    1.697032    0.763418
  H     -1.085754   -0.389137   -2.373880
  H      0.421562   -0.158909   -3.318785
  H      0.112919   -2.585315   -0.410485
  H      2.540943   -2.670541   -0.094711
  H      2.363677   -3.445970   -1.677942
  H      4.021155   -1.290259   -1.524249
  H      2.853738   -1.343561   -2.843927
  H      2.352082    0.819696   -1.797155
  H      2.551980    0.139639   -0.174426

 Total Charge           Charge          ....    0
 Multiplicity           Mult            ....    1
 Number of Electrons    NEL             ....   70
 Basis Dimension        Dim             ....  351

ORBITAL ENERGIES
----------------

  NO   OCC          E(Eh)            E(eV)
   0   2.0000     -20.561787      -559.5147
   1   2.0000     -20.544216      -559.0365
   2   2.0000     -11.285159      -307.0848
   3   2.0000     -11.276591      -306.8516
   4   2.0000     -11.273901      -306.7784
   5   2.0000     -11.272800      -306.7485
   6   2.0000     -11.225787      -305.4692
   7   2.0000     -11.223676      -305.4117
   8   2.0000     -11.219776      -305.3056
   9   2.0000      -1.394840       -37.9555
  10   2.0000      -1.363526       -37.1034
  11   2.0000      -1.105700       -30.0876
  12   2.0000      -0.998629       -27.1741
  13   2.0000      -0.963512       -26.2185
  14   2.0000      -0.912377       -24.8270
  15   2.0000      -0.891173       -24.2501
  16   2.0000      -0.794501       -21.6195
  17   2.0000      -0.731782       -19.9128
  18   2.0000      -0.704248       -19.1636
  19   2.0000      -0.670429       -18.2433
  20   2.0000      -0.654863       -17.8197
  21   2.0000      -0.625263       -17.0143
  22   2.0000      -0.614730       -16.7277
  23   2.0000      -0.592061       -16.1108
  24   2.0000      -0.582457       -15.8495
  25   2.0000      -0.570698       -15.5295
  26   2.0000      -0.543439       -14.7877
  27   2.0000      -0.512247       -13.9389
  28   2.0000      -0.494525       -13.4567
  29   2.0000      -0.483471       -13.1559
  30   2.0000      -0.479376       -13.0445
  31   2.0000      -0.472526       -12.8581
  32   2.0000      -0.427238       -11.6257
  33   2.0000      -0.416896       -11.3443
  34   2.0000      -0.405037       -11.0216
  35   0.0000       0.133013         3.6195
  36   0.0000       0.152662         4.1542
  37   0.0000       0.167611         4.5609
  38   0.0000       0.180155         4.9023
  39   0.0000       0.184837         5.0297

MULLIKEN ATOMIC CHARGES
-----------------------
   0 C :   -0.223944
   1 O :   -0.300294
   2 C :    0.206021
   3 C :   -0.072592
   4 O :   -0.337407
   5 C :    0.060879
   6 C :   -0.225827
   7 C :   -0.228124
   8 C :   -0.296871
   9 H :    0.121553
  10 H :    0.113651
  11 H :    0.145680
  12 H :    0.098945
  13 H :    0.097888
  14 H :    0.102947
  15 H :    0.112812
  16 H :    0.126750
  17 H :    0.127686
  18 H :    0.120618
  19 H :    0.128420
  20 H :    0.121210
Sum of atomic charges:    0.0000000

LOEWDIN ATOMIC CHARGES
----------------------
   0 C :   -0.347779
   1 O :    0.181202
   2 C :   -0.330116
   3 C :   -0.240620
   4 O :    0.136010
   5 C :   -0.226385
   6 C :   -0.238696
   7 C :   -0.248804
   8 C :   -0.223398
   9 H :    0.103868
  10 H :    0.103579
  11 H :    0.114959
  12 H :    0.122204
  13 H :    0.117784
  14 H :    0.136636
  15 H :    0.143352
  16 H :    0.141062
  17 H :    0.132858
  18 H :    0.140543
  19 H :    0.135486
  20 H :    0.146256

  Mayer bond orders larger than 0.1
B(  0-C ,  1-O ) :   0.9015 B(  0-C ,  9-H ) :   0.9346 B(  0-C , 10-H ) :   0.9312
B(  0-C , 11-H ) :   0.9412 B(  1-O ,  2-C ) :   1.0204 B(  2-C ,  3-C ) :   0.9626
B(  2-C ,  5-C ) :   0.9267 B(  2-C ,  8-C ) :   0.9201 B(  3-C ,  4-O ) :   0.9505
B(  3-C , 12-H ) :   0.8995 B(  3-C , 13-H ) :   0.9053 B(  4-O ,  5-C ) :   0.9685
B(  5-C ,  6-C ) :   0.9336 B(  5-C , 14-H ) :   0.9120 B(  6-C ,  7-C ) :   0.9467
B(  6-C , 15-H ) :   0.9185 B(  6-C , 16-H ) :   0.9199 B(  7-C ,  8-C ) :   0.9296
B(  7-C , 17-H ) :   0.9303 B(  7-C , 18-H ) :   0.9261 B(  8-C , 19-H ) :   0.9182
B(  8-C , 20-H ) :   0.9255

MP2 TOTAL ENERGY:     -423.509431119 Eh
FINAL SINGLE POINT ENERGY      -423.509431119429

DIPOLE MOMENT
-------------
                                X             Y             Z
Electronic contribution:     -3.21945      -3.43277      -0.31224
Nuclear contribution   :      3.61704       4.21380       0.47554
                        -----------------------------------------
Total Dipole Moment    :      0.39759       0.78103       0.16330
                        -----------------------------------------
Magnitude (a.u.)       :      0.89149
Magnitude (Debye)      :      2.26599

                             ****ORCA TERMINATED NORMALLY****
TOTAL RUN TIME: 0 days 0 hours 18 minutes 58 seconds 646 msec
