                         Program Version 3.0.3 - RELEASE   -
|  1> ! RI-MP2 RIJK def2-TZVP def2-TZVP/C def2-TZVP/JK TIGHTSCF
|  2> % maxcore 2000
|  3> % mp2 density relaxed end
|  4> *xyz 0 1
|  5>  N       -0.1119729170    -1.1226801980    -0.2488101390
|  6>  C       -0.0552081313     0.0245517516    -0.1252432231
|  7>  C        0.0029191686     1.4902123897     0.0021044903
|  8>  N       -0.6910979183     1.9076086983     1.2212479855
|  9>  C       -0.7023314058     3.3674161002     1.3372526983
| 10>  C        0.7007437200     3.8681020248     1.6985553741
| 11>  C        1.7890871258     3.1879552388     0.8674935042
| 12>  C        2.2841259468     1.8137688699     1.2545981615
| 13>  C        1.4478136755     1.9801621634     0.0175497750
| 14>  H       -0.4788982859     1.9041892557    -0.9053701993
| 15>  H       -1.6344476531     1.5375872804     1.2167298241
| 16>  H       -1.0379012482     3.8484440700     0.3992814971
| 17>  H       -1.4167005159     3.6440619398     2.1176982679
| 18>  H        0.7407734477     4.9511801525     1.5445970507
| 19>  H        0.8839480386     3.6924157017     2.7640734546
| 20>  H        2.5319784836     3.8566405287     0.4448238703
| 21>  H        3.3357524224     1.5819146928     1.1303523357
| 22>  H        1.8090223733     1.3473213523     2.1107388838
| 23>  H        1.9440642531     1.8832388075    -0.9421944817
| 24> *
| 25>
| 26>                          ****END OF INPUT****

CARTESIAN COORDINATES (ANGSTROEM)
---------------------------------
  N     -0.111973   -1.122680   -0.248810
  C     -0.055208    0.024552   -0.125243
  C      0.002919    1.490212    0.002104
  N     -0.691098    1.907609    1.221248
  C     -0.702331    3.367416    1.337253
  C      0.700744    3.868102    1.698555
  C      1.789087    3.187955    0.867494
  C      2.284126    1.813769    1.254598
  C      1.447814    1.980162    0.017550
  H     -0.478898    1.904189   -0.905370
  H     -1.634448    1.537587    1.216730
  H     -1.037901    3.848444    0.399281
  H     -1.416701    3.644062    2.117698
  H      0.740773    4.951180    1.544597
  H      0.883948    3.692416    2.764073
  H      2.531978    3.856641    0.444824
  H      3.335752    1.581915    1.130352
  H      1.809022    1.347321    2.110739
  H      1.944064    1.883239   -0.942194

 Total Charge           Charge          ....    0
 Multiplicity           Mult            ....    1
 Number of Electrons    NEL             ....   66
 Basis Dimension        Dim             ....  339

ORBITAL ENERGIES
----------------

  NO   OCC          E(Eh)            E(eV)
   0   2.0000     -15.569833      -423.6767
   1   2.0000     -15.567201      -423.6051
   2   2.0000     -11.313466      -307.8551
   3   2.0000     -11.267601      -306.6070
   4   2.0000     -11.267069      -306.5925
   5   2.0000     -11.250538      -306.1427
   6   2.0000     -11.244805      -305.9867
   7   2.0000     -11.235082      -305.7221
   8   2.0000     -11.230312      -305.5923
   9   2.0000      -1.256087       -34.1799
  10   2.0000      -1.208998       -32.8985
  11   2.0000      -1.150185       -31.2981
  12   2.0000      -1.052568       -28.6418
  13   2.0000      -0.960737       -26.1430
  14   2.0000      -0.874492       -23.7961
  15   2.0000      -0.821817       -22.3628
  16   2.0000      -0.759673       -20.6718
  17   2.0000      -0.734796       -19.9948
  18   2.0000      -0.692233       -18.8366
  19   2.0000      -0.648904       -17.6576
  20   2.0000      -0.640048       -17.4166
  21   2.0000      -0.616743       -16.7824
  22   2.0000      -0.591026       -16.0826
  23   2.0000      -0.553317       -15.0565
  24   2.0000      -0.542980       -14.7752
  25   2.0000      -0.541340       -14.7306
  26   2.0000      -0.520142       -14.1538
  27   2.0000      -0.484930       -13.1956
  28   2.0000      -0.461673       -12.5628
  29   2.0000      -0.455938       -12.4067
  30   2.0000      -0.430086       -11.7032
  31   2.0000      -0.416614       -11.3366
  32   2.0000      -0.392283       -10.6746
  33   0.0000       0.119432         3.2499
  34   0.0000       0.148980         4.0539
  35   0.0000       0.150994         4.1087
  36   0.0000       0.158459         4.3119
  37   0.0000       0.168870         4.5952

MULLIKEN ATOMIC CHARGES
-----------------------
   0 N :   -0.050363
   1 C :   -0.205570
   2 C :    0.144876
   3 N :   -0.373003
   4 C :   -0.192988
   5 C :   -0.169674
   6 C :   -0.096752
   7 C :   -0.321271
   8 C :   -0.093903
   9 H :    0.117684
  10 H :    0.217124
  11 H :    0.104136
  12 H :    0.131298
  13 H :    0.120509
  14 H :    0.116795
  15 H :    0.128170
  16 H :    0.137573
  17 H :    0.151657
  18 H :    0.133704
Sum of atomic charges:    0.0000000

LOEWDIN ATOMIC CHARGES
----------------------
   0 N :    0.065408
   1 C :   -0.159700
   2 C :   -0.277756
   3 N :    0.016137
   4 C :   -0.294239
   5 C :   -0.242414
   6 C :   -0.192141
   7 C :   -0.194969
   8 C :   -0.176915
   9 H :    0.160939
  10 H :    0.176887
  11 H :    0.120658
  12 H :    0.133658
  13 H :    0.141972
  14 H :    0.143189
  15 H :    0.147841
  16 H :    0.133824
  17 H :    0.144175
  18 H :    0.153444

  Mayer bond orders larger than 0.1
B(  0-N ,  1-C ) :   2.8874 B(  1-C ,  2-C ) :   0.8976 B(  2-C ,  3-N ) :   0.8763
B(  2-C ,  8-C ) :   0.9128 B(  2-C ,  9-H ) :   0.9177 B(  3-N ,  4-C ) :   0.9468
B(  3-N , 10-H ) :   0.8738 B(  4-C ,  5-C ) :   0.9579 B(  4-C , 11-H ) :   0.9345
B(  4-C , 12-H ) :   0.9254 B(  5-C ,  6-C ) :   0.9099 B(  5-C , 13-H ) :   0.9316
B(  5-C , 14-H ) :   0.9214 B(  6-C ,  7-C ) :   0.8851 B(  6-C ,  8-C ) :   0.8709
B(  6-C , 15-H ) :   0.9322 B(  7-C ,  8-C ) :   0.8884 B(  7-C , 16-H ) :   0.9265
B(  7-C , 17-H ) :   0.9177 B(  8-C , 18-H ) :   0.9216

MP2 TOTAL ENERGY:     -381.399076953 Eh
FINAL SINGLE POINT ENERGY      -381.399076952760

DIPOLE MOMENT
-------------
                                X             Y             Z
Electronic contribution:     -1.64852      -7.20047      -2.75988
Nuclear contribution   :      1.55912       8.94305       2.79682
                        -----------------------------------------
Total Dipole Moment    :     -0.08940       1.74258       0.03694
                        -----------------------------------------
Magnitude (a.u.)       :      1.74526
Magnitude (Debye)      :      4.43610

                             ****ORCA TERMINATED NORMALLY****
TOTAL RUN TIME: 0 days 0 hours 20 minutes 13 seconds 240 msec
