                         Program Version 3.0.3 - RELEASE   -
|  1> ! RI-MP2 RIJK def2-TZVP def2-TZVP/C def2-TZVP/JK TIGHTSCF
|  2> % maxcore 2000
|  3> % mp2 density relaxed end
|  4> *xyz 0 1
|  5>  C       -0.1467931130     1.5079379377    -0.0081424752
|  6>  C       -0.2379807067    -0.0058561929    -0.2132105550
|  7>  C        0.9028071393    -0.5326034680    -1.0914415846
|  8>  N        0.8550966123    -1.9726560407    -1.2826672922
|  9>  C        0.0283375244    -2.7018210851    -2.0835219183
| 10>  C        0.3868536986    -4.0092132585    -1.8266924786
| 11>  N       -0.1478509957    -5.2026223756    -2.3095021663
| 12>  N        1.3843139053    -4.0081916454    -0.9023827640
| 13>  N        1.6579343881    -2.7701579246    -0.5713770609
| 14>  H        0.7939825363     1.7869928749     0.4785223216
| 15>  H       -0.1995264839     2.0450044162    -0.9617845196
| 16>  H       -0.9658186016     1.8673214686     0.6209472687
| 17>  H       -0.2008008723    -0.5247950118     0.7508373011
| 18>  H       -1.1985248713    -0.2661969955    -0.6732925746
| 19>  H        0.8863945198    -0.0517363784    -2.0759509719
| 20>  H        1.8713001008    -0.3245919461    -0.6303098621
| 21>  H       -0.7023612212    -2.2505538295    -2.7320611594
| 22>  H       -0.3422994642    -5.1900659968    -3.3016350563
| 23>  H        0.4601128950    -5.9796054287    -2.0819301925
| 24> *
| 25>
| 26>                          ****END OF INPUT****

CARTESIAN COORDINATES (ANGSTROEM)
---------------------------------
  C     -0.146793    1.507938   -0.008142
  C     -0.237981   -0.005856   -0.213211
  C      0.902807   -0.532603   -1.091442
  N      0.855097   -1.972656   -1.282667
  C      0.028338   -2.701821   -2.083522
  C      0.386854   -4.009213   -1.826692
  N     -0.147851   -5.202622   -2.309502
  N      1.384314   -4.008192   -0.902383
  N      1.657934   -2.770158   -0.571377
  H      0.793983    1.786993    0.478522
  H     -0.199526    2.045004   -0.961785
  H     -0.965819    1.867321    0.620947
  H     -0.200801   -0.524795    0.750837
  H     -1.198525   -0.266197   -0.673293
  H      0.886395   -0.051736   -2.075951
  H      1.871300   -0.324592   -0.630310
  H     -0.702361   -2.250554   -2.732061
  H     -0.342299   -5.190066   -3.301635
  H      0.460113   -5.979605   -2.081930

 Total Charge           Charge          ....    0
 Multiplicity           Mult            ....    1
 Number of Electrons    NEL             ....   68
 Basis Dimension        Dim             ....  339

ORBITAL ENERGIES
----------------

  NO   OCC          E(Eh)            E(eV)
   0   2.0000     -15.651260      -425.8924
   1   2.0000     -15.629530      -425.3011
   2   2.0000     -15.576957      -423.8705
   3   2.0000     -15.562058      -423.4651
   4   2.0000     -11.286231      -307.1140
   5   2.0000     -11.283104      -307.0289
   6   2.0000     -11.261372      -306.4375
   7   2.0000     -11.238802      -305.8233
   8   2.0000     -11.228974      -305.5559
   9   2.0000      -1.429351       -38.8946
  10   2.0000      -1.233011       -33.5519
  11   2.0000      -1.188371       -32.3372
  12   2.0000      -1.071415       -29.1547
  13   2.0000      -1.045931       -28.4612
  14   2.0000      -0.961071       -26.1521
  15   2.0000      -0.848395       -23.0860
  16   2.0000      -0.818583       -22.2748
  17   2.0000      -0.803625       -21.8678
  18   2.0000      -0.717776       -19.5317
  19   2.0000      -0.671682       -18.2774
  20   2.0000      -0.660848       -17.9826
  21   2.0000      -0.651233       -17.7210
  22   2.0000      -0.628024       -17.0894
  23   2.0000      -0.601439       -16.3660
  24   2.0000      -0.576930       -15.6991
  25   2.0000      -0.557345       -15.1661
  26   2.0000      -0.529647       -14.4124
  27   2.0000      -0.512292       -13.9402
  28   2.0000      -0.503905       -13.7119
  29   2.0000      -0.493745       -13.4355
  30   2.0000      -0.475886       -12.9495
  31   2.0000      -0.431218       -11.7340
  32   2.0000      -0.387504       -10.5445
  33   2.0000      -0.312116        -8.4931
  34   0.0000       0.123633         3.3642
  35   0.0000       0.134540         3.6610
  36   0.0000       0.142435         3.8759
  37   0.0000       0.158190         4.3046
  38   0.0000       0.178329         4.8526

MULLIKEN ATOMIC CHARGES
-----------------------
   0 C :   -0.395436
   1 C :   -0.202169
   2 C :   -0.201855
   3 N :    0.166276
   4 C :   -0.211967
   5 C :    0.148534
   6 N :   -0.535464
   7 N :   -0.177765
   8 N :   -0.202710
   9 H :    0.133029
  10 H :    0.124273
  11 H :    0.142924
  12 H :    0.135727
  13 H :    0.115853
  14 H :    0.137400
  15 H :    0.160338
  16 H :    0.155644
  17 H :    0.247750
  18 H :    0.259617
Sum of atomic charges:    0.0000000

LOEWDIN ATOMIC CHARGES
----------------------
   0 C :   -0.315518
   1 C :   -0.289933
   2 C :   -0.248462
   3 N :    0.181665
   4 C :   -0.230366
   5 C :   -0.389326
   6 N :   -0.090189
   7 N :    0.004085
   8 N :   -0.043606
   9 H :    0.124132
  10 H :    0.121557
  11 H :    0.125599
  12 H :    0.143184
  13 H :    0.136196
  14 H :    0.140083
  15 H :    0.149608
  16 H :    0.139332
  17 H :    0.167048
  18 H :    0.174911

  Mayer bond orders larger than 0.1
B(  0-C ,  1-C ) :   0.9162 B(  0-C ,  9-H ) :   0.9378 B(  0-C , 10-H ) :   0.9352
B(  0-C , 11-H ) :   0.9386 B(  1-C ,  2-C ) :   0.9203 B(  1-C , 12-H ) :   0.9299
B(  1-C , 13-H ) :   0.9324 B(  2-C ,  3-N ) :   0.8529 B(  2-C , 14-H ) :   0.9323
B(  2-C , 15-H ) :   0.9180 B(  3-N ,  4-C ) :   1.1737 B(  3-N ,  8-N ) :   1.0436
B(  4-C ,  5-C ) :   1.4215 B(  4-C ,  8-N ) :   0.1067 B(  4-C , 16-H ) :   0.9113
B(  5-C ,  6-N ) :   1.0357 B(  5-C ,  7-N ) :   1.4077 B(  6-N , 17-H ) :   0.8785
B(  6-N , 18-H ) :   0.8712 B(  7-N ,  8-N ) :   1.2082

MP2 TOTAL ENERGY:     -414.690553252 Eh
FINAL SINGLE POINT ENERGY      -414.690553251940

DIPOLE MOMENT
-------------
                                X             Y             Z
Electronic contribution:      3.58341     -10.87908      -1.89850
Nuclear contribution   :     -4.38211      11.96054       0.78308
                        -----------------------------------------
Total Dipole Moment    :     -0.79870       1.08147      -1.11542
                        -----------------------------------------
Magnitude (a.u.)       :      1.74690
Magnitude (Debye)      :      4.44026

                             ****ORCA TERMINATED NORMALLY****
TOTAL RUN TIME: 0 days 0 hours 17 minutes 6 seconds 145 msec
