                         Program Version 3.0.3 - RELEASE   -
|  1> ! RI-MP2 RIJK def2-TZVP def2-TZVP/C def2-TZVP/JK TIGHTSCF
|  2> % maxcore 2000
|  3> % mp2 density relaxed end
|  4> *xyz 0 1
|  5>  C       -0.1303810354     1.5696089726     0.0360908333
|  6>  C        0.0223360750     0.0695743140    -0.0400782545
|  7>  C       -0.0248989335    -0.5498233566    -1.2251618914
|  8>  C        0.0900866316    -2.0134788833    -1.5777941332
|  9>  O        1.3243472146    -2.2601712618    -2.2608951817
| 10>  C       -0.1097492767    -3.0040935430    -0.4188037085
| 11>  C        0.9586354159    -2.8826526070     0.6373475386
| 12>  C        1.0981791787    -1.7990127850     1.3979135260
| 13>  C        0.1917730574    -0.5914384005     1.3214484888
| 14>  H        0.7662808906     2.0357858444     0.4651628036
| 15>  H       -0.3110116118     2.0124794760    -0.9463378996
| 16>  H       -0.9657975114     1.8453432372     0.6932174194
| 17>  H       -0.1310014444     0.0814317940    -2.1065816581
| 18>  H       -0.6748062716    -2.2315441882    -2.3339538288
| 19>  H        2.0244459264    -1.9730668241    -1.6630487354
| 20>  H       -1.1021602870    -2.8300915230     0.0207386286
| 21>  H       -0.1169214232    -4.0130996062    -0.8402123197
| 22>  H        1.6439668269    -3.7163182277     0.7645103940
| 23>  H        1.8874477416    -1.7654912872     2.1447585885
| 24>  H        0.5544601591     0.1691077509     2.0206036233
| 25>  H       -0.8076565927    -0.8646519255     1.7007243768
| 26> *
| 27>
| 28>                          ****END OF INPUT****

CARTESIAN COORDINATES (ANGSTROEM)
---------------------------------
  C     -0.130381    1.569609    0.036091
  C      0.022336    0.069574   -0.040078
  C     -0.024899   -0.549823   -1.225162
  C      0.090087   -2.013479   -1.577794
  O      1.324347   -2.260171   -2.260895
  C     -0.109749   -3.004094   -0.418804
  C      0.958635   -2.882653    0.637348
  C      1.098179   -1.799013    1.397914
  C      0.191773   -0.591438    1.321448
  H      0.766281    2.035786    0.465163
  H     -0.311012    2.012479   -0.946338
  H     -0.965798    1.845343    0.693217
  H     -0.131001    0.081432   -2.106582
  H     -0.674806   -2.231544   -2.333954
  H      2.024446   -1.973067   -1.663049
  H     -1.102160   -2.830092    0.020739
  H     -0.116921   -4.013100   -0.840212
  H      1.643967   -3.716318    0.764510
  H      1.887448   -1.765491    2.144759
  H      0.554460    0.169108    2.020604
  H     -0.807657   -0.864652    1.700724

 Total Charge           Charge          ....    0
 Multiplicity           Mult            ....    1
 Number of Electrons    NEL             ....   68
 Basis Dimension        Dim             ....  351

ORBITAL ENERGIES
----------------

  NO   OCC          E(Eh)            E(eV)
   0   2.0000     -20.545373      -559.0680
   1   2.0000     -11.280678      -306.9628
   2   2.0000     -11.244161      -305.9692
   3   2.0000     -11.237643      -305.7918
   4   2.0000     -11.231209      -305.6167
   5   2.0000     -11.227304      -305.5105
   6   2.0000     -11.224880      -305.4445
   7   2.0000     -11.224228      -305.4268
   8   2.0000     -11.217025      -305.2308
   9   2.0000      -1.351220       -36.7686
  10   2.0000      -1.123689       -30.5771
  11   2.0000      -1.061826       -28.8937
  12   2.0000      -1.020521       -27.7698
  13   2.0000      -0.945875       -25.7386
  14   2.0000      -0.908072       -24.7099
  15   2.0000      -0.849257       -23.1095
  16   2.0000      -0.733287       -19.9538
  17   2.0000      -0.708459       -19.2782
  18   2.0000      -0.684505       -18.6263
  19   2.0000      -0.653732       -17.7889
  20   2.0000      -0.631078       -17.1725
  21   2.0000      -0.606414       -16.5014
  22   2.0000      -0.582529       -15.8514
  23   2.0000      -0.573747       -15.6125
  24   2.0000      -0.555765       -15.1231
  25   2.0000      -0.547475       -14.8975
  26   2.0000      -0.545186       -14.8353
  27   2.0000      -0.513421       -13.9709
  28   2.0000      -0.498572       -13.5668
  29   2.0000      -0.488972       -13.3056
  30   2.0000      -0.457179       -12.4405
  31   2.0000      -0.440786       -11.9944
  32   2.0000      -0.351716        -9.5707
  33   2.0000      -0.346513        -9.4291
  34   0.0000       0.128243         3.4897
  35   0.0000       0.137528         3.7423
  36   0.0000       0.152147         4.1401
  37   0.0000       0.161787         4.4024
  38   0.0000       0.169568         4.6142

MULLIKEN ATOMIC CHARGES
-----------------------
   0 C :   -0.413405
   1 C :    0.098404
   2 C :   -0.337460
   3 C :    0.183396
   4 O :   -0.471450
   5 C :   -0.144622
   6 C :   -0.265251
   7 C :   -0.155225
   8 C :   -0.202331
   9 H :    0.137609
  10 H :    0.132313
  11 H :    0.138100
  12 H :    0.110417
  13 H :    0.098928
  14 H :    0.317065
  15 H :    0.115085
  16 H :    0.126042
  17 H :    0.131831
  18 H :    0.126892
  19 H :    0.138933
  20 H :    0.134732
Sum of atomic charges:   -0.0000000

LOEWDIN ATOMIC CHARGES
----------------------
   0 C :   -0.272886
   1 C :   -0.183530
   2 C :   -0.145315
   3 C :   -0.331460
   4 O :   -0.022823
   5 C :   -0.233515
   6 C :   -0.179970
   7 C :   -0.170117
   8 C :   -0.213660
   9 H :    0.128967
  10 H :    0.127435
  11 H :    0.130234
  12 H :    0.149814
  13 H :    0.150237
  14 H :    0.173633
  15 H :    0.151384
  16 H :    0.145611
  17 H :    0.143033
  18 H :    0.142587
  19 H :    0.151039
  20 H :    0.159301

  Mayer bond orders larger than 0.1
B(  0-C ,  1-C ) :   0.8908 B(  0-C ,  9-H ) :   0.9306 B(  0-C , 10-H ) :   0.9418
B(  0-C , 11-H ) :   0.9301 B(  1-C ,  2-C ) :   1.7409 B(  1-C ,  8-C ) :   0.9095
B(  2-C ,  3-C ) :   0.9815 B(  2-C , 12-H ) :   0.9353 B(  3-C ,  4-O ) :   0.9131
B(  3-C ,  5-C ) :   0.9005 B(  3-C , 13-H ) :   0.9219 B(  4-O , 14-H ) :   0.8385
B(  5-C ,  6-C ) :   0.9104 B(  5-C , 15-H ) :   0.9065 B(  5-C , 16-H ) :   0.9278
B(  6-C ,  7-C ) :   1.7940 B(  6-C , 17-H ) :   0.9299 B(  7-C ,  8-C ) :   0.9349
B(  7-C , 18-H ) :   0.9265 B(  8-C , 19-H ) :   0.9403 B(  8-C , 20-H ) :   0.8937

MP2 TOTAL ENERGY:     -386.415966701 Eh
FINAL SINGLE POINT ENERGY      -386.415966701311

DIPOLE MOMENT
-------------
                                X             Y             Z
Electronic contribution:      1.66742      -3.39587      -2.29606
Nuclear contribution   :     -1.84614       3.75628       3.03926
                        -----------------------------------------
Total Dipole Moment    :     -0.17872       0.36040       0.74320
                        -----------------------------------------
Magnitude (a.u.)       :      0.84509
Magnitude (Debye)      :      2.14804

                             ****ORCA TERMINATED NORMALLY****
TOTAL RUN TIME: 0 days 0 hours 20 minutes 44 seconds 81 msec
