                         Program Version 3.0.3 - RELEASE   -
|  1> ! RI-MP2 RIJK def2-TZVP def2-TZVP/C def2-TZVP/JK TIGHTSCF
|  2> % maxcore 2000
|  3> % mp2 density relaxed end
|  4> *xyz 0 1
|  5>  C       -0.0463162481     1.5198853346     0.0106661811
|  6>  C        1.4156507735     1.9052817432    -0.0012778085
|  7>  C        2.1986024081     0.8130649546    -0.0146876308
|  8>  C        1.3615525613    -0.3879198647    -0.0131011857
|  9>  C        1.6602939745    -1.7465227169    -0.0232671626
| 10>  N        0.7112410610    -2.6895734963    -0.0192409260
| 11>  C       -0.5642222526    -2.2928532724    -0.0048769889
| 12>  C       -0.9756032183    -0.9555878300     0.0062647110
| 13>  C        0.0119829583     0.0116677818     0.0019924687
| 14>  H       -0.5696063673     1.9085771338     0.8946793721
| 15>  H       -0.5864408082     1.9180250807    -0.8588979943
| 16>  H        1.7532543729     2.9336488168     0.0010215877
| 17>  H        3.2814121009     0.8009887778    -0.0251468438
| 18>  H        2.6903471510    -2.0969873165    -0.0350423286
| 19>  H       -1.3086456079    -3.0857597387    -0.0019977441
| 20>  H       -2.0318933391    -0.7067502675     0.0177366228
| 21> *
| 22>
| 23>                          ****END OF INPUT****

CARTESIAN COORDINATES (ANGSTROEM)
---------------------------------
  C     -0.046316    1.519885    0.010666
  C      1.415651    1.905282   -0.001278
  C      2.198602    0.813065   -0.014688
  C      1.361553   -0.387920   -0.013101
  C      1.660294   -1.746523   -0.023267
  N      0.711241   -2.689573   -0.019241
  C     -0.564222   -2.292853   -0.004877
  C     -0.975603   -0.955588    0.006265
  C      0.011983    0.011668    0.001992
  H     -0.569606    1.908577    0.894679
  H     -0.586441    1.918025   -0.858898
  H      1.753254    2.933649    0.001022
  H      3.281412    0.800989   -0.025147
  H      2.690347   -2.096987   -0.035042
  H     -1.308646   -3.085760   -0.001998
  H     -2.031893   -0.706750    0.017737

 Total Charge           Charge          ....    0
 Multiplicity           Mult            ....    1
 Number of Electrons    NEL             ....   62
 Basis Dimension        Dim             ....  321

ORBITAL ENERGIES
----------------

  NO   OCC          E(Eh)            E(eV)
   0   2.0000     -15.558203      -423.3602
   1   2.0000     -11.268194      -306.6231
   2   2.0000     -11.267580      -306.6064
   3   2.0000     -11.255853      -306.2873
   4   2.0000     -11.248658      -306.0915
   5   2.0000     -11.243250      -305.9444
   6   2.0000     -11.241576      -305.8988
   7   2.0000     -11.238806      -305.8235
   8   2.0000     -11.237363      -305.7842
   9   2.0000      -1.253079       -34.0980
  10   2.0000      -1.164070       -31.6760
  11   2.0000      -1.053631       -28.6708
  12   2.0000      -1.010390       -27.4941
  13   2.0000      -0.961621       -26.1670
  14   2.0000      -0.854569       -23.2540
  15   2.0000      -0.815991       -22.2042
  16   2.0000      -0.768377       -20.9086
  17   2.0000      -0.709128       -19.2964
  18   2.0000      -0.665687       -18.1143
  19   2.0000      -0.635755       -17.2998
  20   2.0000      -0.612288       -16.6612
  21   2.0000      -0.602647       -16.3988
  22   2.0000      -0.583665       -15.8823
  23   2.0000      -0.543801       -14.7976
  24   2.0000      -0.530368       -14.4321
  25   2.0000      -0.518378       -14.1058
  26   2.0000      -0.498665       -13.5694
  27   2.0000      -0.420616       -11.4455
  28   2.0000      -0.413107       -11.2412
  29   2.0000      -0.365571        -9.9477
  30   2.0000      -0.306386        -8.3372
  31   0.0000       0.096396         2.6231
  32   0.0000       0.112699         3.0667
  33   0.0000       0.140881         3.8336
  34   0.0000       0.167374         4.5545
  35   0.0000       0.170747         4.6463

MULLIKEN ATOMIC CHARGES
-----------------------
   0 C :   -0.129419
   1 C :   -0.173044
   2 C :   -0.191176
   3 C :    0.124494
   4 C :   -0.088784
   5 N :   -0.240975
   6 C :   -0.024011
   7 C :   -0.153918
   8 C :   -0.058247
   9 H :    0.141410
  10 H :    0.141411
  11 H :    0.136913
  12 H :    0.134952
  13 H :    0.125535
  14 H :    0.127223
  15 H :    0.127636
Sum of atomic charges:    0.0000000

LOEWDIN ATOMIC CHARGES
----------------------
   0 C :   -0.188568
   1 C :   -0.129860
   2 C :   -0.112014
   3 C :   -0.109498
   4 C :   -0.185183
   5 N :    0.128515
   6 C :   -0.218212
   7 C :   -0.122804
   8 C :   -0.089596
   9 H :    0.159353
  10 H :    0.159352
  11 H :    0.138121
  12 H :    0.144100
  13 H :    0.139488
  14 H :    0.137401
  15 H :    0.149403

  Mayer bond orders larger than 0.1
B(  0-C ,  1-C ) :   0.9694 B(  0-C ,  8-C ) :   0.9923 B(  0-C ,  9-H ) :   0.8837
B(  0-C , 10-H ) :   0.8837 B(  1-C ,  2-C ) :   1.7189 B(  1-C , 11-H ) :   0.9322
B(  2-C ,  3-C ) :   0.9911 B(  2-C , 12-H ) :   0.9273 B(  3-C ,  4-C ) :   1.2481
B(  3-C ,  8-C ) :   1.2667 B(  4-C ,  5-N ) :   1.4119 B(  4-C , 13-H ) :   0.9575
B(  5-N ,  6-C ) :   1.3885 B(  6-C ,  7-C ) :   1.3072 B(  6-C , 14-H ) :   0.9440
B(  7-C ,  8-C ) :   1.3515 B(  7-C , 15-H ) :   0.9205

MP2 TOTAL ENERGY:     -363.010770121 Eh
FINAL SINGLE POINT ENERGY      -363.010770121476

DIPOLE MOMENT
-------------
                                X             Y             Z
Electronic contribution:      0.85251      -3.14088      -0.02508
Nuclear contribution   :     -1.11988       4.33616       0.03407
                        -----------------------------------------
Total Dipole Moment    :     -0.26737       1.19528       0.00899
                        -----------------------------------------
Magnitude (a.u.)       :      1.22485
Magnitude (Debye)      :      3.11332

                             ****ORCA TERMINATED NORMALLY****
TOTAL RUN TIME: 0 days 0 hours 16 minutes 58 seconds 134 msec
