                         Program Version 3.0.3 - RELEASE   -
|  1> ! RI-MP2 RIJK def2-TZVP def2-TZVP/C def2-TZVP/JK TIGHTSCF
|  2> % maxcore 2000
|  3> % mp2 density relaxed end
|  4> *xyz 0 1
|  5>  O       -0.4103735763     0.0049872167    -0.1069865851
|  6>  C       -0.1196426911     1.1684305166    -0.1594686143
|  7>  N        1.1582299444     1.7055526723    -0.1556831012
|  8>  C        2.3820793674     1.0435145587    -0.1229927698
|  9>  N        2.5484808336    -0.2122385609    -0.2634708814
| 10>  C        3.9803581115    -0.5131003700    -0.1098100326
| 11>  C        4.7017907298     0.8194493420     0.0708327284
| 12>  N        4.5362557942     1.7131445789    -1.0931708317
| 13>  C        3.6339109986     1.8494143502     0.0839192758
| 14>  H       -0.8691388956     1.9855220486    -0.2089450409
| 15>  H        1.2044680277     2.7122508784    -0.1920544244
| 16>  H        4.1200987687    -1.1685294174     0.7585133815
| 17>  H        4.3355135545    -1.0549946151    -0.9928069988
| 18>  H        5.5923923016     0.9037569884     0.6836911480
| 19>  H        5.2404425130     2.4476653077    -1.0397357445
| 20>  H        3.6525934079     2.7523558650     0.6857420310
| 21> *
| 22>
| 23>                          ****END OF INPUT****

CARTESIAN COORDINATES (ANGSTROEM)
---------------------------------
  O     -0.410374    0.004987   -0.106987
  C     -0.119643    1.168431   -0.159469
  N      1.158230    1.705553   -0.155683
  C      2.382079    1.043515   -0.122993
  N      2.548481   -0.212239   -0.263471
  C      3.980358   -0.513100   -0.109810
  C      4.701791    0.819449    0.070833
  N      4.536256    1.713145   -1.093171
  C      3.633911    1.849414    0.083919
  H     -0.869139    1.985522   -0.208945
  H      1.204468    2.712251   -0.192054
  H      4.120099   -1.168529    0.758513
  H      4.335514   -1.054995   -0.992807
  H      5.592392    0.903757    0.683691
  H      5.240443    2.447665   -1.039736
  H      3.652593    2.752356    0.685742

 Total Charge           Charge          ....    0
 Multiplicity           Mult            ....    1
 Number of Electrons    NEL             ....   66
 Basis Dimension        Dim             ....  321

ORBITAL ENERGIES
----------------

  NO   OCC          E(Eh)            E(eV)
   0   2.0000     -20.537640      -558.8576
   1   2.0000     -15.614231      -424.8848
   2   2.0000     -15.582211      -424.0135
   3   2.0000     -15.542343      -422.9287
   4   2.0000     -11.361464      -309.1611
   5   2.0000     -11.321774      -308.0811
   6   2.0000     -11.285501      -307.0941
   7   2.0000     -11.277622      -306.8797
   8   2.0000     -11.255236      -306.2705
   9   2.0000      -1.398258       -38.0485
  10   2.0000      -1.318162       -35.8690
  11   2.0000      -1.262909       -34.3655
  12   2.0000      -1.194846       -32.5134
  13   2.0000      -0.988197       -26.8902
  14   2.0000      -0.946199       -25.7474
  15   2.0000      -0.868560       -23.6347
  16   2.0000      -0.821135       -22.3442
  17   2.0000      -0.756092       -20.5743
  18   2.0000      -0.742711       -20.2102
  19   2.0000      -0.723504       -19.6876
  20   2.0000      -0.656746       -17.8710
  21   2.0000      -0.628597       -17.1050
  22   2.0000      -0.611806       -16.6481
  23   2.0000      -0.591652       -16.0997
  24   2.0000      -0.577867       -15.7246
  25   2.0000      -0.551543       -15.0082
  26   2.0000      -0.525683       -14.3046
  27   2.0000      -0.509513       -13.8645
  28   2.0000      -0.462547       -12.5865
  29   2.0000      -0.451044       -12.2735
  30   2.0000      -0.418044       -11.3756
  31   2.0000      -0.391090       -10.6421
  32   2.0000      -0.365592        -9.9483
  33   0.0000       0.113830         3.0975
  34   0.0000       0.125006         3.4016
  35   0.0000       0.134935         3.6718
  36   0.0000       0.168651         4.5892
  37   0.0000       0.173975         4.7341

MULLIKEN ATOMIC CHARGES
-----------------------
   0 O :   -0.273032
   1 C :    0.180699
   2 N :   -0.323221
   3 C :    0.227026
   4 N :   -0.202361
   5 C :   -0.078711
   6 C :   -0.081536
   7 N :   -0.366655
   8 C :   -0.165417
   9 H :    0.078623
  10 H :    0.246266
  11 H :    0.117220
  12 H :    0.126588
  13 H :    0.141775
  14 H :    0.221159
  15 H :    0.151580
Sum of atomic charges:    0.0000000

LOEWDIN ATOMIC CHARGES
----------------------
   0 O :    0.123756
   1 C :   -0.403719
   2 N :    0.127745
   3 C :   -0.300150
   4 N :    0.134216
   5 C :   -0.251748
   6 C :   -0.243727
   7 N :    0.009941
   8 C :   -0.225238
   9 H :    0.109609
  10 H :    0.197083
  11 H :    0.136577
  12 H :    0.141614
  13 H :    0.136349
  14 H :    0.170512
  15 H :    0.137180

  Mayer bond orders larger than 0.1
B(  0-O ,  1-C ) :   1.9907 B(  1-C ,  2-N ) :   1.0197 B(  1-C ,  9-H ) :   0.9274
B(  2-N ,  3-C ) :   0.9846 B(  2-N , 10-H ) :   0.8741 B(  3-C ,  4-N ) :   1.8417
B(  3-C ,  8-C ) :   0.9247 B(  4-N ,  5-C ) :   0.9373 B(  5-C ,  6-C ) :   0.9610
B(  5-C , 11-H ) :   0.9296 B(  5-C , 12-H ) :   0.9038 B(  6-C ,  7-N ) :   0.9095
B(  6-C ,  8-C ) :   0.9412 B(  6-C , 13-H ) :   0.9125 B(  7-N ,  8-C ) :   0.9757
B(  7-N , 14-H ) :   0.8693 B(  8-C , 15-H ) :   0.8828

MP2 TOTAL ENERGY:     -433.343092246 Eh
FINAL SINGLE POINT ENERGY      -433.343092245954

DIPOLE MOMENT
-------------
                                X             Y             Z
Electronic contribution:     -4.42831      -0.53448      -0.41035
Nuclear contribution   :      5.66342       2.47046       1.07738
                        -----------------------------------------
Total Dipole Moment    :      1.23511       1.93598       0.66703
                        -----------------------------------------
Magnitude (a.u.)       :      2.39133
Magnitude (Debye)      :      6.07827

                             ****ORCA TERMINATED NORMALLY****
TOTAL RUN TIME: 0 days 0 hours 14 minutes 55 seconds 659 msec
