                         Program Version 3.0.3 - RELEASE   -
|  1> ! RI-MP2 RIJK def2-TZVP def2-TZVP/C def2-TZVP/JK TIGHTSCF
|  2> % maxcore 2000
|  3> % mp2 density relaxed end
|  4> *xyz 0 1
|  5>  C        0.1276430972     1.3567200765     0.6808027601
|  6>  C       -0.0340685501     0.0415698890    -0.0848215721
|  7>  C       -1.3486800645    -0.6682795210     0.2385937244
|  8>  C       -1.5505852658    -1.9497887690    -0.5512332232
|  9>  O       -0.8003035945    -2.2999831096    -1.4358192254
| 10>  C       -2.7679939047    -2.7954231540    -0.2264842314
| 11>  C       -3.3123870696    -3.6253657939    -1.3640303769
| 12>  C       -2.9518040934    -3.2356365747     1.1747303805
| 13>  O       -3.7325755050    -2.1758111366     0.6399701051
| 14>  H        1.0754484994     1.8437713700     0.4320986235
| 15>  H       -0.6794306143     2.0587350409     0.4426897507
| 16>  H        0.1122131355     1.1944737701     1.7646328291
| 17>  H        0.0160547356     0.2218058078    -1.1635666437
| 18>  H        0.8018608391    -0.6305427053     0.1399047424
| 19>  H       -1.4314603821    -0.8822718491     1.3119980068
| 20>  H       -2.2127608767    -0.0224329905     0.0277576763
| 21>  H       -2.5259628385    -4.2673263806    -1.7665746103
| 22>  H       -4.1487791083    -4.2391590989    -1.0223673809
| 23>  H       -3.6625141321    -2.9803513944    -2.1757430511
| 24>  H       -3.4810881695    -4.1704977184     1.3549587959
| 25>  H       -2.2330465377    -2.9541529384     1.9428054304
| 26> *
| 27>
| 28>                          ****END OF INPUT****

CARTESIAN COORDINATES (ANGSTROEM)
---------------------------------
  C      0.127643    1.356720    0.680803
  C     -0.034069    0.041570   -0.084822
  C     -1.348680   -0.668280    0.238594
  C     -1.550585   -1.949789   -0.551233
  O     -0.800304   -2.299983   -1.435819
  C     -2.767994   -2.795423   -0.226484
  C     -3.312387   -3.625366   -1.364030
  C     -2.951804   -3.235637    1.174730
  O     -3.732576   -2.175811    0.639970
  H      1.075448    1.843771    0.432099
  H     -0.679431    2.058735    0.442690
  H      0.112213    1.194474    1.764633
  H      0.016055    0.221806   -1.163567
  H      0.801861   -0.630543    0.139905
  H     -1.431460   -0.882272    1.311998
  H     -2.212761   -0.022433    0.027758
  H     -2.525963   -4.267326   -1.766575
  H     -4.148779   -4.239159   -1.022367
  H     -3.662514   -2.980351   -2.175743
  H     -3.481088   -4.170498    1.354959
  H     -2.233047   -2.954153    1.942805

 Total Charge           Charge          ....    0
 Multiplicity           Mult            ....    1
 Number of Electrons    NEL             ....   70
 Basis Dimension        Dim             ....  351

ORBITAL ENERGIES
----------------

  NO   OCC          E(Eh)            E(eV)
   0   2.0000     -20.585980      -560.1730
   1   2.0000     -20.550930      -559.2192
   2   2.0000     -11.335688      -308.4598
   3   2.0000     -11.308016      -307.7068
   4   2.0000     -11.301713      -307.5352
   5   2.0000     -11.237031      -305.7752
   6   2.0000     -11.228946      -305.5551
   7   2.0000     -11.222859      -305.3895
   8   2.0000     -11.216358      -305.2126
   9   2.0000      -1.433242       -39.0005
  10   2.0000      -1.393294       -37.9135
  11   2.0000      -1.074585       -29.2409
  12   2.0000      -1.031242       -28.0615
  13   2.0000      -0.972597       -26.4657
  14   2.0000      -0.924795       -25.1650
  15   2.0000      -0.877594       -23.8805
  16   2.0000      -0.809495       -22.0275
  17   2.0000      -0.738591       -20.0981
  18   2.0000      -0.702853       -19.1256
  19   2.0000      -0.675303       -18.3759
  20   2.0000      -0.644489       -17.5374
  21   2.0000      -0.632040       -17.1987
  22   2.0000      -0.601388       -16.3646
  23   2.0000      -0.580791       -15.8041
  24   2.0000      -0.570677       -15.5289
  25   2.0000      -0.560177       -15.2432
  26   2.0000      -0.556355       -15.1392
  27   2.0000      -0.535324       -14.5669
  28   2.0000      -0.509599       -13.8669
  29   2.0000      -0.504587       -13.7305
  30   2.0000      -0.487130       -13.2555
  31   2.0000      -0.477889       -13.0040
  32   2.0000      -0.473680       -12.8895
  33   2.0000      -0.442606       -12.0439
  34   2.0000      -0.409170       -11.1341
  35   0.0000       0.129700         3.5293
  36   0.0000       0.133204         3.6247
  37   0.0000       0.152219         4.1421
  38   0.0000       0.168672         4.5898
  39   0.0000       0.177227         4.8226

MULLIKEN ATOMIC CHARGES
-----------------------
   0 C :   -0.384242
   1 C :   -0.161404
   2 C :   -0.284675
   3 C :    0.171850
   4 O :   -0.294221
   5 C :    0.191196
   6 C :   -0.395112
   7 C :   -0.084479
   8 O :   -0.329679
   9 H :    0.137286
  10 H :    0.123115
  11 H :    0.119947
  12 H :    0.121460
  13 H :    0.111575
  14 H :    0.129081
  15 H :    0.147691
  16 H :    0.155416
  17 H :    0.138468
  18 H :    0.138601
  19 H :    0.128126
  20 H :    0.119999
Sum of atomic charges:    0.0000000

LOEWDIN ATOMIC CHARGES
----------------------
   0 C :   -0.320427
   1 C :   -0.287704
   2 C :   -0.239156
   3 C :   -0.287854
   4 O :    0.163396
   5 C :   -0.311749
   6 C :   -0.259808
   7 C :   -0.240650
   8 O :    0.177428
   9 H :    0.121856
  10 H :    0.120545
  11 H :    0.119437
  12 H :    0.141360
  13 H :    0.139214
  14 H :    0.152402
  15 H :    0.160623
  16 H :    0.139564
  17 H :    0.131388
  18 H :    0.134081
  19 H :    0.125270
  20 H :    0.120783

  Mayer bond orders larger than 0.1
B(  0-C ,  1-C ) :   0.9137 B(  0-C ,  9-H ) :   0.9455 B(  0-C , 10-H ) :   0.9384
B(  0-C , 11-H ) :   0.9377 B(  1-C ,  2-C ) :   0.9312 B(  1-C , 12-H ) :   0.9331
B(  1-C , 13-H ) :   0.9327 B(  2-C ,  3-C ) :   0.9398 B(  2-C , 14-H ) :   0.9126
B(  2-C , 15-H ) :   0.8936 B(  3-C ,  4-O ) :   1.9599 B(  3-C ,  5-C ) :   0.9008
B(  5-C ,  6-C ) :   0.9164 B(  5-C ,  7-C ) :   0.9575 B(  5-C ,  8-O ) :   0.8602
B(  6-C , 16-H ) :   0.9291 B(  6-C , 17-H ) :   0.9357 B(  6-C , 18-H ) :   0.9327
B(  7-C ,  8-O ) :   0.9046 B(  7-C , 19-H ) :   0.9178 B(  7-C , 20-H ) :   0.9000

MP2 TOTAL ENERGY:     -423.520992550 Eh
FINAL SINGLE POINT ENERGY      -423.520992549539

DIPOLE MOMENT
-------------
                                X             Y             Z
Electronic contribution:     -3.37039      -5.34695      -1.75120
Nuclear contribution   :      3.23849       5.14985       2.34421
                        -----------------------------------------
Total Dipole Moment    :     -0.13189      -0.19710       0.59300
                        -----------------------------------------
Magnitude (a.u.)       :      0.63867
Magnitude (Debye)      :      1.62337

                             ****ORCA TERMINATED NORMALLY****
TOTAL RUN TIME: 0 days 0 hours 17 minutes 9 seconds 933 msec
