                         Program Version 3.0.3 - RELEASE   -
|  1> ! RI-MP2 RIJK def2-TZVP def2-TZVP/C def2-TZVP/JK TIGHTSCF
|  2> % maxcore 2000
|  3> % mp2 density relaxed end
|  4> *xyz 0 1
|  5>  N       -0.1565360452     1.3215378510     0.0501246086
|  6>  C        0.0384023544    -0.0282517761    -0.0028336750
|  7>  O        1.1389891176    -0.5521621532    -0.0339472540
|  8>  C       -1.1967274953    -0.8336843676    -0.0066057269
|  9>  C       -1.3672969473    -2.1852372835    -0.0453450196
| 10>  C       -2.7789277325    -2.4195307614    -0.0278845521
| 11>  N       -3.4032162580    -3.6662546321    -0.1285442331
| 12>  C       -3.3597494792    -1.1808559538     0.0197785237
| 13>  O       -2.4032397297    -0.2053127755     0.0287975101
| 14>  H        0.6503131732     1.9181115354    -0.0159269548
| 15>  H       -1.0777566860     1.7191391296    -0.0067515201
| 16>  H       -0.5740632599    -2.9145653100    -0.0855389942
| 17>  H       -2.8816595803    -4.4060082057     0.3220088333
| 18>  H       -4.3572894466    -3.6694838712     0.2061169329
| 19>  H       -4.3824484551    -0.8436192459     0.0422950311
| 20> *
| 21>
| 22>                          ****END OF INPUT****

CARTESIAN COORDINATES (ANGSTROEM)
---------------------------------
  N     -0.156536    1.321538    0.050125
  C      0.038402   -0.028252   -0.002834
  O      1.138989   -0.552162   -0.033947
  C     -1.196727   -0.833684   -0.006606
  C     -1.367297   -2.185237   -0.045345
  C     -2.778928   -2.419531   -0.027885
  N     -3.403216   -3.666255   -0.128544
  C     -3.359749   -1.180856    0.019779
  O     -2.403240   -0.205313    0.028798
  H      0.650313    1.918112   -0.015927
  H     -1.077757    1.719139   -0.006752
  H     -0.574063   -2.914565   -0.085539
  H     -2.881660   -4.406008    0.322009
  H     -4.357289   -3.669484    0.206117
  H     -4.382448   -0.843619    0.042295

 Total Charge           Charge          ....    0
 Multiplicity           Mult            ....    1
 Number of Electrons    NEL             ....   66
 Basis Dimension        Dim             ....  315

ORBITAL ENERGIES
----------------

  NO   OCC          E(Eh)            E(eV)
   0   2.0000     -20.631695      -561.4170
   1   2.0000     -20.517069      -558.2978
   2   2.0000     -15.582578      -424.0235
   3   2.0000     -15.575315      -423.8259
   4   2.0000     -11.360199      -309.1267
   5   2.0000     -11.299835      -307.4842
   6   2.0000     -11.286509      -307.1215
   7   2.0000     -11.282169      -307.0034
   8   2.0000     -11.245249      -305.9988
   9   2.0000      -1.469574       -39.9892
  10   2.0000      -1.380017       -37.5522
  11   2.0000      -1.226311       -33.3696
  12   2.0000      -1.211669       -32.9712
  13   2.0000      -1.075944       -29.2779
  14   2.0000      -1.020205       -27.7612
  15   2.0000      -0.873328       -23.7645
  16   2.0000      -0.808580       -22.0026
  17   2.0000      -0.780961       -21.2510
  18   2.0000      -0.757104       -20.6018
  19   2.0000      -0.700184       -19.0530
  20   2.0000      -0.679771       -18.4975
  21   2.0000      -0.659150       -17.9364
  22   2.0000      -0.655265       -17.8307
  23   2.0000      -0.622152       -16.9296
  24   2.0000      -0.598170       -16.2770
  25   2.0000      -0.579229       -15.7616
  26   2.0000      -0.569235       -15.4897
  27   2.0000      -0.544944       -14.8287
  28   2.0000      -0.510377       -13.8881
  29   2.0000      -0.437093       -11.8939
  30   2.0000      -0.416776       -11.3411
  31   2.0000      -0.373920       -10.1749
  32   2.0000      -0.312247        -8.4967
  33   0.0000       0.094618         2.5747
  34   0.0000       0.125523         3.4156
  35   0.0000       0.142793         3.8856
  36   0.0000       0.168049         4.5729
  37   0.0000       0.178516         4.8577

MULLIKEN ATOMIC CHARGES
-----------------------
   0 N :   -0.476454
   1 C :    0.210261
   2 O :   -0.351395
   3 C :    0.258945
   4 C :   -0.309782
   5 C :    0.238356
   6 N :   -0.518282
   7 C :   -0.131203
   8 O :   -0.250851
   9 H :    0.260404
  10 H :    0.269559
  11 H :    0.155375
  12 H :    0.254774
  13 H :    0.245753
  14 H :    0.144541
Sum of atomic charges:    0.0000000

LOEWDIN ATOMIC CHARGES
----------------------
   0 N :   -0.008027
   1 C :   -0.463138
   2 O :    0.085347
   3 C :   -0.228154
   4 C :   -0.107012
   5 C :   -0.278527
   6 N :   -0.083837
   7 C :   -0.235871
   8 O :    0.345468
   9 H :    0.174548
  10 H :    0.173374
  11 H :    0.155021
  12 H :    0.170965
  13 H :    0.168420
  14 H :    0.131424

  Mayer bond orders larger than 0.1
B(  0-N ,  1-C ) :   1.2080 B(  0-N ,  9-H ) :   0.8606 B(  0-N , 10-H ) :   0.8621
B(  1-C ,  2-O ) :   2.0118 B(  1-C ,  3-C ) :   0.8983 B(  2-O ,  3-C ) :  -0.1102
B(  3-C ,  4-C ) :   1.4804 B(  3-C ,  8-O ) :   0.9822 B(  4-C ,  5-C ) :   1.1919
B(  4-C , 11-H ) :   0.9201 B(  5-C ,  6-N ) :   1.0042 B(  5-C ,  7-C ) :   1.4748
B(  6-N , 12-H ) :   0.8756 B(  6-N , 13-H ) :   0.8806 B(  7-C ,  8-O ) :   1.0355
B(  7-C , 14-H ) :   0.9406

MP2 TOTAL ENERGY:     -453.263326014 Eh
FINAL SINGLE POINT ENERGY      -453.263326014115

DIPOLE MOMENT
-------------
                                X             Y             Z
Electronic contribution:      2.06132       1.92650      -0.11136
Nuclear contribution   :     -3.47944      -1.73162       0.49922
                        -----------------------------------------
Total Dipole Moment    :     -1.41812       0.19488       0.38786
                        -----------------------------------------
Magnitude (a.u.)       :      1.48307
Magnitude (Debye)      :      3.76966

                             ****ORCA TERMINATED NORMALLY****
TOTAL RUN TIME: 0 days 0 hours 13 minutes 12 seconds 508 msec
