                         Program Version 3.0.3 - RELEASE   -
|  1> ! RI-MP2 RIJK def2-TZVP def2-TZVP/C def2-TZVP/JK TIGHTSCF
|  2> % maxcore 2000
|  3> % mp2 density relaxed end
|  4> *xyz 0 1
|  5>  C       -0.1708483311     1.4442717796    -0.0046119984
|  6>  C        0.0439701063    -0.0907516046     0.0001797829
|  7>  C        0.7859469290    -0.5197357743    -1.2554491548
|  8>  O        0.2243482253    -1.0179925885    -2.2000351061
|  9>  C        2.2928678365    -0.2730976046    -1.2581642058
| 10>  C        2.9254968070    -0.5101338111     0.0825965035
| 11>  C        2.2406872175    -0.6029796256     1.2293038011
| 12>  C        0.7711977849    -0.4774378265     1.2937121150
| 13>  O        0.1526120582    -0.6396038529     2.3250606926
| 14>  H        0.7793916022     1.9872846530     0.0127726634
| 15>  H       -0.7295519484     1.7472078164    -0.8940395399
| 16>  H       -0.7404514497     1.7280279369     0.8836823658
| 17>  H       -0.9336006125    -0.5791549768     0.0017455883
| 18>  H        2.7454824039    -0.8972778124    -2.0348256400
| 19>  H        2.4699121925     0.7683411396    -1.5687805439
| 20>  H        4.0069888102    -0.6220498657     0.0923268814
| 21>  H        2.7363979281    -0.7921543924     2.1758182348
| 22> *
| 23>
| 24>                          ****END OF INPUT****

CARTESIAN COORDINATES (ANGSTROEM)
---------------------------------
  C     -0.170848    1.444272   -0.004612
  C      0.043970   -0.090752    0.000180
  C      0.785947   -0.519736   -1.255449
  O      0.224348   -1.017993   -2.200035
  C      2.292868   -0.273098   -1.258164
  C      2.925497   -0.510134    0.082597
  C      2.240687   -0.602980    1.229304
  C      0.771198   -0.477438    1.293712
  O      0.152612   -0.639604    2.325061
  H      0.779392    1.987285    0.012773
  H     -0.729552    1.747208   -0.894040
  H     -0.740451    1.728028    0.883682
  H     -0.933601   -0.579155    0.001746
  H      2.745482   -0.897278   -2.034826
  H      2.469912    0.768341   -1.568781
  H      4.006989   -0.622050    0.092327
  H      2.736398   -0.792154    2.175818

 Total Charge           Charge          ....    0
 Multiplicity           Mult            ....    1
 Number of Electrons    NEL             ....   66
 Basis Dimension        Dim             ....  327

ORBITAL ENERGIES
----------------

  NO   OCC          E(Eh)            E(eV)
   0   2.0000     -20.562577      -559.5362
   1   2.0000     -20.553440      -559.2875
   2   2.0000     -11.347879      -308.7915
   3   2.0000     -11.343534      -308.6733
   4   2.0000     -11.286866      -307.1312
   5   2.0000     -11.267789      -306.6121
   6   2.0000     -11.260235      -306.4066
   7   2.0000     -11.255406      -306.2752
   8   2.0000     -11.248855      -306.0969
   9   2.0000      -1.407492       -38.2998
  10   2.0000      -1.395774       -37.9809
  11   2.0000      -1.147229       -31.2177
  12   2.0000      -1.072417       -29.1820
  13   2.0000      -1.010708       -27.5028
  14   2.0000      -0.926222       -25.2038
  15   2.0000      -0.848090       -23.0777
  16   2.0000      -0.799516       -21.7559
  17   2.0000      -0.712682       -19.3931
  18   2.0000      -0.690285       -18.7836
  19   2.0000      -0.684863       -18.6361
  20   2.0000      -0.648028       -17.6337
  21   2.0000      -0.627885       -17.0856
  22   2.0000      -0.626474       -17.0472
  23   2.0000      -0.594696       -16.1825
  24   2.0000      -0.582318       -15.8457
  25   2.0000      -0.573276       -15.5996
  26   2.0000      -0.545445       -14.8423
  27   2.0000      -0.541402       -14.7323
  28   2.0000      -0.525465       -14.2986
  29   2.0000      -0.495874       -13.4934
  30   2.0000      -0.431588       -11.7441
  31   2.0000      -0.417957       -11.3732
  32   2.0000      -0.394926       -10.7465
  33   0.0000       0.073028         1.9872
  34   0.0000       0.116844         3.1795
  35   0.0000       0.131329         3.5736
  36   0.0000       0.150627         4.0988
  37   0.0000       0.173331         4.7166

MULLIKEN ATOMIC CHARGES
-----------------------
   0 C :   -0.461258
   1 C :    0.049520
   2 C :    0.131905
   3 O :   -0.259537
   4 C :   -0.203098
   5 C :   -0.119216
   6 C :   -0.240481
   7 C :    0.204170
   8 O :   -0.281892
   9 H :    0.138649
  10 H :    0.155410
  11 H :    0.161376
  12 H :    0.122636
  13 H :    0.155820
  14 H :    0.155853
  15 H :    0.147291
  16 H :    0.142852
Sum of atomic charges:   -0.0000000

LOEWDIN ATOMIC CHARGES
----------------------
   0 C :   -0.261735
   1 C :   -0.202371
   2 C :   -0.295235
   3 O :    0.166671
   4 C :   -0.212508
   5 C :   -0.116353
   6 C :   -0.133234
   7 C :   -0.302701
   8 O :    0.157904
   9 H :    0.127114
  10 H :    0.131897
  11 H :    0.135944
  12 H :    0.172244
  13 H :    0.159383
  14 H :    0.166861
  15 H :    0.150410
  16 H :    0.155709

  Mayer bond orders larger than 0.1
B(  0-C ,  1-C ) :   0.8651 B(  0-C ,  9-H ) :   0.9249 B(  0-C , 10-H ) :   0.9321
B(  0-C , 11-H ) :   0.9289 B(  1-C ,  2-C ) :   0.8631 B(  1-C ,  7-C ) :   0.8573
B(  1-C , 12-H ) :   0.9014 B(  2-C ,  3-O ) :   2.0516 B(  2-C ,  4-C ) :   0.9158
B(  4-C ,  5-C ) :   0.9078 B(  4-C , 13-H ) :   0.9138 B(  4-C , 14-H ) :   0.8851
B(  5-C ,  6-C ) :   1.6805 B(  5-C , 15-H ) :   0.9181 B(  6-C ,  7-C ) :   1.0258
B(  6-C , 16-H ) :   0.9161 B(  7-C ,  8-O ) :   1.9524

MP2 TOTAL ENERGY:     -421.162820933 Eh
FINAL SINGLE POINT ENERGY      -421.162820933169

DIPOLE MOMENT
-------------
                                X             Y             Z
Electronic contribution:     -1.06874      -4.53276       1.07137
Nuclear contribution   :      2.22215       5.26536      -1.35094
                        -----------------------------------------
Total Dipole Moment    :      1.15341       0.73260      -0.27957
                        -----------------------------------------
Magnitude (a.u.)       :      1.39471
Magnitude (Debye)      :      3.54507

                             ****ORCA TERMINATED NORMALLY****
TOTAL RUN TIME: 0 days 0 hours 16 minutes 20 seconds 427 msec
