                         Program Version 3.0.3 - RELEASE   -
|  1> ! RI-MP2 RIJK def2-TZVP def2-TZVP/C def2-TZVP/JK TIGHTSCF
|  2> % maxcore 2000
|  3> % mp2 density relaxed end
|  4> *xyz 0 1
|  5>  C       -0.1401957757     1.6417698904     0.0187323561
|  6>  C       -0.0308070023     0.1043924368     0.0430261136
|  7>  C        0.7743587658    -0.4130610397     1.2515440161
|  8>  C        2.2744543048    -0.1598870107     1.1165860032
|  9>  C        3.1102915709    -0.4474971492     2.3476385735
| 10>  O        2.7619521312     0.2337677246     0.0817468190
| 11>  C       -1.3614438117    -0.5098698051     0.0277071059
| 12>  N       -2.4124165575    -0.9912106354     0.0278140818
| 13>  H        0.8606567881     2.0745050864    -0.0277807917
| 14>  H       -0.7041754100     1.9765141315    -0.8549437244
| 15>  H       -0.6501128775     2.0096003130     0.9141699211
| 16>  H        0.4970341758    -0.2160377816    -0.8621489710
| 17>  H        0.4066811840     0.0292682422     2.1854137296
| 18>  H        0.6390024722    -1.4963209999     1.3674245984
| 19>  H        2.8939103214    -1.4456745080     2.7430342441
| 20>  H        4.1699304418    -0.3623042845     2.1051832296
| 21>  H        2.8598932585     0.2681839993     3.1395293653
| 22> *
| 23>
| 24>                          ****END OF INPUT****

CARTESIAN COORDINATES (ANGSTROEM)
---------------------------------
  C     -0.140196    1.641770    0.018732
  C     -0.030807    0.104392    0.043026
  C      0.774359   -0.413061    1.251544
  C      2.274454   -0.159887    1.116586
  C      3.110292   -0.447497    2.347639
  O      2.761952    0.233768    0.081747
  C     -1.361444   -0.509870    0.027707
  N     -2.412417   -0.991211    0.027814
  H      0.860657    2.074505   -0.027781
  H     -0.704175    1.976514   -0.854944
  H     -0.650113    2.009600    0.914170
  H      0.497034   -0.216038   -0.862149
  H      0.406681    0.029268    2.185414
  H      0.639002   -1.496321    1.367425
  H      2.893910   -1.445675    2.743034
  H      4.169930   -0.362304    2.105183
  H      2.859893    0.268184    3.139529

 Total Charge           Charge          ....    0
 Multiplicity           Mult            ....    1
 Number of Electrons    NEL             ....   60
 Basis Dimension        Dim             ....  302

ORBITAL ENERGIES
----------------

  NO   OCC          E(Eh)            E(eV)
   0   2.0000     -20.564941      -559.6005
   1   2.0000     -15.568868      -423.6504
   2   2.0000     -11.353031      -308.9317
   3   2.0000     -11.290257      -307.2235
   4   2.0000     -11.271634      -306.7167
   5   2.0000     -11.268999      -306.6450
   6   2.0000     -11.251563      -306.1706
   7   2.0000     -11.242088      -305.9128
   8   2.0000      -1.410240       -38.3746
   9   2.0000      -1.220206       -33.2035
  10   2.0000      -1.119748       -30.4699
  11   2.0000      -1.042288       -28.3621
  12   2.0000      -0.972021       -26.4500
  13   2.0000      -0.893434       -24.3116
  14   2.0000      -0.758611       -20.6429
  15   2.0000      -0.719840       -19.5878
  16   2.0000      -0.670934       -18.2570
  17   2.0000      -0.653412       -17.7803
  18   2.0000      -0.640670       -17.4335
  19   2.0000      -0.609633       -16.5889
  20   2.0000      -0.589860       -16.0509
  21   2.0000      -0.572747       -15.5852
  22   2.0000      -0.569521       -15.4975
  23   2.0000      -0.542980       -14.7753
  24   2.0000      -0.535068       -14.5600
  25   2.0000      -0.527802       -14.3622
  26   2.0000      -0.508307       -13.8317
  27   2.0000      -0.462917       -12.5966
  28   2.0000      -0.455468       -12.3939
  29   2.0000      -0.429320       -11.6824
  30   0.0000       0.110757         3.0138
  31   0.0000       0.122990         3.3467
  32   0.0000       0.142541         3.8787
  33   0.0000       0.166148         4.5211
  34   0.0000       0.171699         4.6722

MULLIKEN ATOMIC CHARGES
-----------------------
   0 C :   -0.425412
   1 C :    0.069658
   2 C :   -0.291727
   3 C :    0.218510
   4 C :   -0.405775
   5 O :   -0.294716
   6 C :   -0.179925
   7 N :   -0.058499
   8 H :    0.163076
   9 H :    0.151288
  10 H :    0.134504
  11 H :    0.144927
  12 H :    0.149779
  13 H :    0.166640
  14 H :    0.147427
  15 H :    0.159783
  16 H :    0.150464
Sum of atomic charges:   -0.0000000

LOEWDIN ATOMIC CHARGES
----------------------
   0 C :   -0.263917
   1 C :   -0.260329
   2 C :   -0.203855
   3 C :   -0.344885
   4 C :   -0.275855
   5 O :    0.153436
   6 C :   -0.173934
   7 N :    0.057117
   8 H :    0.132726
   9 H :    0.132397
  10 H :    0.128177
  11 H :    0.183217
  12 H :    0.157414
  13 H :    0.164741
  14 H :    0.137673
  15 H :    0.135742
  16 H :    0.140136

  Mayer bond orders larger than 0.1
B(  0-C ,  1-C ) :   0.8992 B(  0-C ,  8-H ) :   0.9343 B(  0-C ,  9-H ) :   0.9352
B(  0-C , 10-H ) :   0.9258 B(  1-C ,  2-C ) :   0.8993 B(  1-C ,  6-C ) :   0.9051
B(  1-C , 11-H ) :   0.9132 B(  2-C ,  3-C ) :   0.8966 B(  2-C , 12-H ) :   0.9068
B(  2-C , 13-H ) :   0.8997 B(  3-C ,  4-C ) :   0.9299 B(  3-C ,  5-O ) :   1.9510
B(  4-C , 14-H ) :   0.9154 B(  4-C , 15-H ) :   0.9370 B(  4-C , 16-H ) :   0.9156
B(  6-C ,  7-N ) :   2.8848

MP2 TOTAL ENERGY:     -363.282234440 Eh
FINAL SINGLE POINT ENERGY      -363.282234440419

DIPOLE MOMENT
-------------
                                X             Y             Z
Electronic contribution:     -3.35691      -2.68613      -3.73067
Nuclear contribution   :      4.45605       3.01751       4.70256
                        -----------------------------------------
Total Dipole Moment    :      1.09914       0.33139       0.97189
                        -----------------------------------------
Magnitude (a.u.)       :      1.50416
Magnitude (Debye)      :      3.82326

                             ****ORCA TERMINATED NORMALLY****
TOTAL RUN TIME: 0 days 0 hours 11 minutes 29 seconds 289 msec
