                         Program Version 3.0.3 - RELEASE   -
|  1> ! RI-MP2 RIJK def2-TZVP def2-TZVP/C def2-TZVP/JK TIGHTSCF
|  2> % maxcore 2000
|  3> % mp2 density relaxed end
|  4> *xyz 0 1
|  5>  C       -0.1563466858     1.4109853714     0.0221158713
|  6>  C        0.0209553780    -0.1005944657    -0.0431077430
|  7>  C        0.8697357643    -0.5923473590    -1.2206403898
|  8>  C        2.1580913003    -0.5022809579    -0.3993685727
|  9>  C        1.1847064322    -0.6492810990     0.8310359437
| 10>  O        1.1107973586    -2.0903062951     0.6373564478
| 11>  C        1.5888299279    -1.8475064168    -0.6956463324
| 12>  C        2.0335462093    -3.0235153394    -1.4967163188
| 13>  O        0.9529422060    -3.8774865584    -1.8384490876
| 14>  H        0.7992729703     1.9295244334    -0.1124262174
| 15>  H       -0.8375738684     1.7618501071    -0.7598075559
| 16>  H       -0.5755497404     1.7145436034     0.9877915070
| 17>  H       -0.9315157599    -0.6172233809     0.1232571861
| 18>  H        0.7362588604    -0.4055366891    -2.2791730301
| 19>  H        3.1226206527    -0.0436688910    -0.5669919672
| 20>  H        1.3439243230    -0.3529372344     1.8666022651
| 21>  H        2.4755993333    -2.6792953209    -2.4376040899
| 22>  H        2.8116997377    -3.5679488262    -0.9396106375
| 23>  H        0.5044238905    -4.1022768213    -1.0157366087
| 24> *
| 25>
| 26>                          ****END OF INPUT****

CARTESIAN COORDINATES (ANGSTROEM)
---------------------------------
  C     -0.156347    1.410985    0.022116
  C      0.020955   -0.100594   -0.043108
  C      0.869736   -0.592347   -1.220640
  C      2.158091   -0.502281   -0.399369
  C      1.184706   -0.649281    0.831036
  O      1.110797   -2.090306    0.637356
  C      1.588830   -1.847506   -0.695646
  C      2.033546   -3.023515   -1.496716
  O      0.952942   -3.877487   -1.838449
  H      0.799273    1.929524   -0.112426
  H     -0.837574    1.761850   -0.759808
  H     -0.575550    1.714544    0.987792
  H     -0.931516   -0.617223    0.123257
  H      0.736259   -0.405537   -2.279173
  H      3.122621   -0.043669   -0.566992
  H      1.343924   -0.352937    1.866602
  H      2.475599   -2.679295   -2.437604
  H      2.811700   -3.567949   -0.939611
  H      0.504424   -4.102277   -1.015737

 Total Charge           Charge          ....    0
 Multiplicity           Mult            ....    1
 Number of Electrons    NEL             ....   68
 Basis Dimension        Dim             ....  339

ORBITAL ENERGIES
----------------

  NO   OCC          E(Eh)            E(eV)
   0   2.0000     -20.555951      -559.3559
   1   2.0000     -20.555205      -559.3356
   2   2.0000     -11.297994      -307.4341
   3   2.0000     -11.293877      -307.3220
   4   2.0000     -11.283762      -307.0468
   5   2.0000     -11.244052      -305.9662
   6   2.0000     -11.242195      -305.9157
   7   2.0000     -11.238925      -305.8267
   8   2.0000     -11.222085      -305.3684
   9   2.0000      -1.408135       -38.3173
  10   2.0000      -1.358323       -36.9619
  11   2.0000      -1.158503       -31.5245
  12   2.0000      -1.038748       -28.2658
  13   2.0000      -0.971343       -26.4316
  14   2.0000      -0.890399       -24.2290
  15   2.0000      -0.869992       -23.6737
  16   2.0000      -0.762698       -20.7541
  17   2.0000      -0.733371       -19.9560
  18   2.0000      -0.717825       -19.5330
  19   2.0000      -0.676363       -18.4048
  20   2.0000      -0.649807       -17.6821
  21   2.0000      -0.627683       -17.0801
  22   2.0000      -0.603994       -16.4355
  23   2.0000      -0.587590       -15.9891
  24   2.0000      -0.571555       -15.5528
  25   2.0000      -0.552843       -15.0436
  26   2.0000      -0.539180       -14.6718
  27   2.0000      -0.508245       -13.8300
  28   2.0000      -0.502247       -13.6668
  29   2.0000      -0.465861       -12.6767
  30   2.0000      -0.457649       -12.4533
  31   2.0000      -0.430902       -11.7254
  32   2.0000      -0.393009       -10.6943
  33   2.0000      -0.378994       -10.3129
  34   0.0000       0.138868         3.7788
  35   0.0000       0.151254         4.1158
  36   0.0000       0.159097         4.3292
  37   0.0000       0.175064         4.7637
  38   0.0000       0.184235         5.0133

MULLIKEN ATOMIC CHARGES
-----------------------
   0 C :   -0.442580
   1 C :   -0.001975
   2 C :   -0.145055
   3 C :   -0.231531
   4 C :    0.051444
   5 O :   -0.337379
   6 C :    0.086526
   7 C :   -0.014628
   8 O :   -0.464710
   9 H :    0.133978
  10 H :    0.136388
  11 H :    0.133560
  12 H :    0.104402
  13 H :    0.140875
  14 H :    0.159871
  15 H :    0.136621
  16 H :    0.111827
  17 H :    0.115768
  18 H :    0.326598
Sum of atomic charges:   -0.0000000

LOEWDIN ATOMIC CHARGES
----------------------
   0 C :   -0.287813
   1 C :   -0.220207
   2 C :   -0.124644
   3 C :   -0.113888
   4 C :   -0.175129
   5 O :    0.176782
   6 C :   -0.285079
   7 C :   -0.307470
   8 O :   -0.041525
   9 H :    0.128309
  10 H :    0.126597
  11 H :    0.124715
  12 H :    0.143643
  13 H :    0.141573
  14 H :    0.134348
  15 H :    0.130132
  16 H :    0.140703
  17 H :    0.128703
  18 H :    0.180250

  Mayer bond orders larger than 0.1
B(  0-C ,  1-C ) :   0.8945 B(  0-C ,  9-H ) :   0.9365 B(  0-C , 10-H ) :   0.9336
B(  0-C , 11-H ) :   0.9392 B(  1-C ,  2-C ) :   0.9070 B(  1-C ,  4-C ) :   0.9244
B(  1-C , 12-H ) :   0.9071 B(  2-C ,  3-C ) :   0.8557 B(  2-C ,  6-C ) :   0.8355
B(  2-C , 13-H ) :   0.9090 B(  3-C ,  4-C ) :   0.9294 B(  3-C ,  6-C ) :   0.8330
B(  3-C , 14-H ) :   0.8893 B(  4-C ,  5-O ) :   0.8936 B(  4-C , 15-H ) :   0.8998
B(  5-O ,  6-C ) :   0.9837 B(  6-C ,  7-C ) :   0.9209 B(  7-C ,  8-O ) :   0.9269
B(  7-C , 16-H ) :   0.9250 B(  7-C , 17-H ) :   0.9316 B(  8-O , 18-H ) :   0.8386

MP2 TOTAL ENERGY:     -422.251764792 Eh
FINAL SINGLE POINT ENERGY      -422.251764792183

DIPOLE MOMENT
-------------
                                X             Y             Z
Electronic contribution:      1.44667      -5.46835       0.51738
Nuclear contribution   :     -1.17729       6.29655      -0.32427
                        -----------------------------------------
Total Dipole Moment    :      0.26938       0.82821       0.19310
                        -----------------------------------------
Magnitude (a.u.)       :      0.89206
Magnitude (Debye)      :      2.26745

                             ****ORCA TERMINATED NORMALLY****
TOTAL RUN TIME: 0 days 0 hours 16 minutes 12 seconds 316 msec
