                         Program Version 3.0.3 - RELEASE   -
|  1> ! RI-MP2 RIJK def2-TZVP def2-TZVP/C def2-TZVP/JK TIGHTSCF
|  2> % maxcore 2000
|  3> % mp2 density relaxed end
|  4> *xyz 0 1
|  5>  C        0.0141727852     1.6474658513     0.1045204793
|  6>  C        0.0319081356     0.1199034265     0.0287634733
|  7>  C       -1.3709219633    -0.4584924924    -0.2110281964
|  8>  C       -2.0648861890     0.0165037270    -1.4831928368
|  9>  O       -3.2541628799    -0.7489957610    -1.6277891685
| 10>  C        1.1019655283    -0.5348367833    -0.9289019736
| 11>  C        1.6856506417    -1.3028595042     0.2617351015
| 12>  C        2.1719993063    -0.3419003014     1.3075946335
| 13>  C        0.6983618789    -0.6224077076     1.2097569886
| 14>  H        0.9941033076     2.0480662259     0.3787983208
| 15>  H       -0.2612763361     2.0952368111    -0.8565191188
| 16>  H       -0.7083679475     1.9939868051     0.8528805794
| 17>  H       -1.3074987395    -1.5525584838    -0.2540044828
| 18>  H       -2.0148805930    -0.2191150428     0.6454343944
| 19>  H       -2.2961256971     1.0901849650    -1.4170267314
| 20>  H       -1.3984737415    -0.1198822451    -2.3508742146
| 21>  H       -3.7250888668    -0.4271537583    -2.4018745755
| 22>  H        0.6457528762    -1.1774825004    -1.6854699072
| 23>  H        1.7920866639     0.1535027890    -1.4295061995
| 24>  H        2.0055531604    -2.3374717662     0.2429750922
| 25>  H        2.6643133464    -0.7929912017     2.1635867591
| 26>  H        2.5866381751     0.6216878210     1.0210280372
| 27>  H        0.1485002981    -1.0501918735     2.0413080657
| 28> *
| 29>
| 30>                          ****END OF INPUT****

CARTESIAN COORDINATES (ANGSTROEM)
---------------------------------
  C      0.014173    1.647466    0.104520
  C      0.031908    0.119903    0.028763
  C     -1.370922   -0.458492   -0.211028
  C     -2.064886    0.016504   -1.483193
  O     -3.254163   -0.748996   -1.627789
  C      1.101966   -0.534837   -0.928902
  C      1.685651   -1.302860    0.261735
  C      2.171999   -0.341900    1.307595
  C      0.698362   -0.622408    1.209757
  H      0.994103    2.048066    0.378798
  H     -0.261276    2.095237   -0.856519
  H     -0.708368    1.993987    0.852881
  H     -1.307499   -1.552558   -0.254004
  H     -2.014881   -0.219115    0.645434
  H     -2.296126    1.090185   -1.417027
  H     -1.398474   -0.119882   -2.350874
  H     -3.725089   -0.427154   -2.401875
  H      0.645753   -1.177483   -1.685470
  H      1.792087    0.153503   -1.429506
  H      2.005553   -2.337472    0.242975
  H      2.664313   -0.792991    2.163587
  H      2.586638    0.621688    1.021028
  H      0.148500   -1.050192    2.041308

 Total Charge           Charge          ....    0
 Multiplicity           Mult            ....    1
 Number of Electrons    NEL             ....   70
 Basis Dimension        Dim             ....  363

ORBITAL ENERGIES
----------------

  NO   OCC          E(Eh)            E(eV)
   0   2.0000     -20.552188      -559.2535
   1   2.0000     -11.271435      -306.7113
   2   2.0000     -11.237075      -305.7764
   3   2.0000     -11.226868      -305.4986
   4   2.0000     -11.224724      -305.4403
   5   2.0000     -11.222406      -305.3772
   6   2.0000     -11.219977      -305.3111
   7   2.0000     -11.213619      -305.1381
   8   2.0000     -11.210212      -305.0454
   9   2.0000      -1.355655       -36.8892
  10   2.0000      -1.188294       -32.3351
  11   2.0000      -1.056794       -28.7568
  12   2.0000      -0.968435       -26.3525
  13   2.0000      -0.940285       -25.5865
  14   2.0000      -0.875148       -23.8140
  15   2.0000      -0.806707       -21.9516
  16   2.0000      -0.782680       -21.2978
  17   2.0000      -0.712218       -19.3804
  18   2.0000      -0.697363       -18.9762
  19   2.0000      -0.654831       -17.8189
  20   2.0000      -0.647708       -17.6250
  21   2.0000      -0.618465       -16.8293
  22   2.0000      -0.591872       -16.1056
  23   2.0000      -0.571242       -15.5443
  24   2.0000      -0.564589       -15.3632
  25   2.0000      -0.547764       -14.9054
  26   2.0000      -0.521682       -14.1957
  27   2.0000      -0.511616       -13.9218
  28   2.0000      -0.493576       -13.4309
  29   2.0000      -0.476671       -12.9709
  30   2.0000      -0.447447       -12.1757
  31   2.0000      -0.438663       -11.9366
  32   2.0000      -0.431761       -11.7488
  33   2.0000      -0.401528       -10.9261
  34   2.0000      -0.371653       -10.1132
  35   0.0000       0.133678         3.6376
  36   0.0000       0.150240         4.0882
  37   0.0000       0.158750         4.3198
  38   0.0000       0.170905         4.6506
  39   0.0000       0.178755         4.8642

MULLIKEN ATOMIC CHARGES
-----------------------
   0 C :   -0.442560
   1 C :    0.170692
   2 C :   -0.235152
   3 C :   -0.102836
   4 O :   -0.462177
   5 C :   -0.276163
   6 C :   -0.129000
   7 C :   -0.268776
   8 C :   -0.142321
   9 H :    0.126151
  10 H :    0.132812
  11 H :    0.131353
  12 H :    0.129083
  13 H :    0.114898
  14 H :    0.103866
  15 H :    0.096863
  16 H :    0.313829
  17 H :    0.122853
  18 H :    0.112082
  19 H :    0.127854
  20 H :    0.128597
  21 H :    0.123041
  22 H :    0.125009
Sum of atomic charges:   -0.0000000

LOEWDIN ATOMIC CHARGES
----------------------
   0 C :   -0.271375
   1 C :   -0.254083
   2 C :   -0.227858
   3 C :   -0.347597
   4 O :   -0.051710
   5 C :   -0.177265
   6 C :   -0.182572
   7 C :   -0.209642
   8 C :   -0.150405
   9 H :    0.123697
  10 H :    0.123673
  11 H :    0.128013
  12 H :    0.150463
  13 H :    0.143776
  14 H :    0.114278
  15 H :    0.114750
  16 H :    0.170763
  17 H :    0.136304
  18 H :    0.129460
  19 H :    0.132689
  20 H :    0.139450
  21 H :    0.128191
  22 H :    0.136999

  Mayer bond orders larger than 0.1
B(  0-C ,  1-C ) :   0.8993 B(  0-C ,  9-H ) :   0.9320 B(  0-C , 10-H ) :   0.9384
B(  0-C , 11-H ) :   0.9372 B(  1-C ,  2-C ) :   0.8724 B(  1-C ,  5-C ) :   0.9207
B(  1-C ,  8-C ) :   0.8972 B(  2-C ,  3-C ) :   0.9219 B(  2-C ,  4-O ) :  -0.1056
B(  2-C , 12-H ) :   0.9246 B(  2-C , 13-H ) :   0.9283 B(  3-C ,  4-O ) :   1.0281
B(  3-C , 14-H ) :   0.9373 B(  3-C , 15-H ) :   0.9289 B(  4-O , 16-H ) :   0.8499
B(  5-C ,  6-C ) :   0.9474 B(  5-C , 17-H ) :   0.9257 B(  5-C , 18-H ) :   0.9087
B(  6-C ,  7-C ) :   0.8949 B(  6-C ,  8-C ) :   0.8599 B(  6-C , 19-H ) :   0.9295
B(  7-C ,  8-C ) :   0.8780 B(  7-C , 20-H ) :   0.9330 B(  7-C , 21-H ) :   0.9165
B(  8-C , 22-H ) :   0.9227

MP2 TOTAL ENERGY:     -387.585464794 Eh
FINAL SINGLE POINT ENERGY      -387.585464794225

DIPOLE MOMENT
-------------
                                X             Y             Z
Electronic contribution:     -1.68535      -2.97856      -0.14116
Nuclear contribution   :      1.80911       3.35693      -0.21301
                        -----------------------------------------
Total Dipole Moment    :      0.12377       0.37837      -0.35417
                        -----------------------------------------
Magnitude (a.u.)       :      0.53284
Magnitude (Debye)      :      1.35438

                             ****ORCA TERMINATED NORMALLY****
TOTAL RUN TIME: 0 days 0 hours 19 minutes 46 seconds 211 msec
