                         Program Version 3.0.3 - RELEASE   -
|  1> ! RI-MP2 RIJK def2-TZVP def2-TZVP/C def2-TZVP/JK TIGHTSCF
|  2> % maxcore 2000
|  3> % mp2 density relaxed end
|  4> *xyz 0 1
|  5>  C        0.0444776946    -1.2209173815    -0.0640389846
|  6>  C        0.0564540451    -0.0209429364    -0.0310000387
|  7>  C        0.0297032861     1.4438501856     0.0031728645
|  8>  C        1.3793973203     2.0151410585    -0.0265615143
|  9>  C        2.4743508309     2.5083621616    -0.0399132423
| 10>  C       -0.8686276700     1.9973119912    -1.1343232276
| 11>  C       -0.8829315853     3.5243937312    -1.3568008308
| 12>  C       -0.3381783939     3.1730483561    -2.7559004211
| 13>  O       -0.3210910150     1.7622339440    -2.4396779509
| 14>  H        0.0462995074    -2.2822818147    -0.0978712682
| 15>  H       -0.4534879147     1.7555641648     0.9427292207
| 16>  H        3.4509173343     2.9255705730    -0.0527402677
| 17>  H       -1.8568570794     1.5324848418    -1.0247866678
| 18>  H       -1.8687658985     3.9897835060    -1.3298021651
| 19>  H       -0.1929506286     4.0827087910    -0.7230478527
| 20>  H       -1.0109777475     3.3913079611    -3.5936340057
| 21>  H        0.6645026443     3.5467482967    -2.9887536377
| 22> *
| 23>
| 24>                          ****END OF INPUT****

CARTESIAN COORDINATES (ANGSTROEM)
---------------------------------
  C      0.044478   -1.220917   -0.064039
  C      0.056454   -0.020943   -0.031000
  C      0.029703    1.443850    0.003173
  C      1.379397    2.015141   -0.026562
  C      2.474351    2.508362   -0.039913
  C     -0.868628    1.997312   -1.134323
  C     -0.882932    3.524394   -1.356801
  C     -0.338178    3.173048   -2.755900
  O     -0.321091    1.762234   -2.439678
  H      0.046300   -2.282282   -0.097871
  H     -0.453488    1.755564    0.942729
  H      3.450917    2.925571   -0.052740
  H     -1.856857    1.532485   -1.024787
  H     -1.868766    3.989784   -1.329802
  H     -0.192951    4.082709   -0.723048
  H     -1.010978    3.391308   -3.593634
  H      0.664503    3.546748   -2.988754

 Total Charge           Charge          ....    0
 Multiplicity           Mult            ....    1
 Number of Electrons    NEL             ....   64
 Basis Dimension        Dim             ....  327

ORBITAL ENERGIES
----------------

  NO   OCC          E(Eh)            E(eV)
   0   2.0000     -20.551321      -559.2299
   1   2.0000     -11.301516      -307.5299
   2   2.0000     -11.292102      -307.2737
   3   2.0000     -11.281531      -306.9861
   4   2.0000     -11.241643      -305.9007
   5   2.0000     -11.238128      -305.8050
   6   2.0000     -11.235874      -305.7437
   7   2.0000     -11.228936      -305.5549
   8   2.0000     -11.225862      -305.4712
   9   2.0000      -1.386180       -37.7199
  10   2.0000      -1.117962       -30.4213
  11   2.0000      -1.024643       -27.8820
  12   2.0000      -1.017686       -27.6926
  13   2.0000      -0.982997       -26.7487
  14   2.0000      -0.903556       -24.5870
  15   2.0000      -0.779655       -21.2155
  16   2.0000      -0.746789       -20.3212
  17   2.0000      -0.715184       -19.4612
  18   2.0000      -0.695333       -18.9210
  19   2.0000      -0.675041       -18.3688
  20   2.0000      -0.660745       -17.9798
  21   2.0000      -0.643424       -17.5085
  22   2.0000      -0.581364       -15.8197
  23   2.0000      -0.570415       -15.5218
  24   2.0000      -0.544092       -14.8055
  25   2.0000      -0.481520       -13.1028
  26   2.0000      -0.468141       -12.7388
  27   2.0000      -0.427836       -11.6420
  28   2.0000      -0.405660       -11.0386
  29   2.0000      -0.403829       -10.9887
  30   2.0000      -0.386935       -10.5290
  31   2.0000      -0.379349       -10.3226
  32   0.0000       0.131095         3.5673
  33   0.0000       0.151379         4.1192
  34   0.0000       0.156491         4.2583
  35   0.0000       0.160663         4.3719
  36   0.0000       0.166664         4.5352

MULLIKEN ATOMIC CHARGES
-----------------------
   0 C :   -0.133302
   1 C :   -0.030599
   2 C :   -0.211843
   3 C :   -0.037746
   4 C :   -0.162811
   5 C :    0.117214
   6 C :   -0.299341
   7 C :   -0.005844
   8 O :   -0.334271
   9 H :    0.193531
  10 H :    0.136777
  11 H :    0.192280
  12 H :    0.099027
  13 H :    0.131921
  14 H :    0.139934
  15 H :    0.102034
  16 H :    0.103039
Sum of atomic charges:    0.0000000

LOEWDIN ATOMIC CHARGES
----------------------
   0 C :   -0.081141
   1 C :   -0.067019
   2 C :   -0.216505
   3 C :   -0.066850
   4 C :   -0.086322
   5 C :   -0.244654
   6 C :   -0.222224
   7 C :   -0.263970
   8 O :    0.151812
   9 H :    0.128268
  10 H :    0.192983
  11 H :    0.128260
  12 H :    0.142375
  13 H :    0.130883
  14 H :    0.139201
  15 H :    0.116232
  16 H :    0.118672

  Mayer bond orders larger than 0.1
B(  0-C ,  1-C ) :   2.5806 B(  0-C ,  9-H ) :   0.8902 B(  1-C ,  2-C ) :   1.1623
B(  2-C ,  3-C ) :   1.1062 B(  2-C ,  4-C ) :  -0.1056 B(  2-C ,  5-C ) :   0.8819
B(  2-C , 10-H ) :   0.8976 B(  3-C ,  4-C ) :   2.5836 B(  4-C , 11-H ) :   0.8953
B(  5-C ,  6-C ) :   0.9008 B(  5-C ,  8-O ) :   0.9723 B(  5-C , 12-H ) :   0.9183
B(  6-C ,  7-C ) :   0.9891 B(  6-C , 13-H ) :   0.9287 B(  6-C , 14-H ) :   0.9227
B(  7-C ,  8-O ) :   0.9296 B(  7-C , 15-H ) :   0.9180 B(  7-C , 16-H ) :   0.9154

MP2 TOTAL ENERGY:     -383.898832221 Eh
FINAL SINGLE POINT ENERGY      -383.898832221038

DIPOLE MOMENT
-------------
                                X             Y             Z
Electronic contribution:      1.86267      -4.02904       1.54952
Nuclear contribution   :     -2.17630       4.74834      -1.28969
                        -----------------------------------------
Total Dipole Moment    :     -0.31363       0.71930       0.25984
                        -----------------------------------------
Magnitude (a.u.)       :      0.82660
Magnitude (Debye)      :      2.10106

                             ****ORCA TERMINATED NORMALLY****
TOTAL RUN TIME: 0 days 0 hours 16 minutes 18 seconds 509 msec
