                         Program Version 3.0.3 - RELEASE   -
|  1> ! RI-MP2 RIJK def2-TZVP def2-TZVP/C def2-TZVP/JK TIGHTSCF
|  2> % maxcore 2000
|  3> % mp2 density relaxed end
|  4> *xyz 0 1
|  5>  C       -0.2402905014     1.5347241803    -0.0403165048
|  6>  N        0.1818713965     0.1369147373     0.0663731354
|  7>  C        1.4031804048    -0.4971638008    -0.2967707533
|  8>  C        2.7141291723     0.1882522733     0.2292865498
|  9>  N        2.3459585060     1.4539430536     0.9108351444
| 10>  C        2.2056507991     0.1584971788     1.6098054112
| 11>  C        0.8656762423    -0.5391604010     1.1325634062
| 12>  C        0.2574789783    -1.5863084648     1.8832465652
| 13>  C       -0.2202045068    -2.4610999664     2.5579060483
| 14>  H        0.3921860196     2.0850377263    -0.7391001694
| 15>  H       -1.2751470820     1.5527235119    -0.4029280010
| 16>  H       -0.1916975746     2.0425483694     0.9240596797
| 17>  H        1.4073957530    -1.2893990966    -1.0387345143
| 18>  H        3.7115275303     0.0044582785    -0.1461256686
| 19>  H        3.2111636404     1.8804152136     1.2424075427
| 20>  H        2.7130385840    -0.0636113773     2.5386515659
| 21>  H       -0.6559712619    -3.2356547560     3.1386335225
| 22> *
| 23>
| 24>                          ****END OF INPUT****

CARTESIAN COORDINATES (ANGSTROEM)
---------------------------------
  C     -0.240291    1.534724   -0.040317
  N      0.181871    0.136915    0.066373
  C      1.403180   -0.497164   -0.296771
  C      2.714129    0.188252    0.229287
  N      2.345959    1.453943    0.910835
  C      2.205651    0.158497    1.609805
  C      0.865676   -0.539160    1.132563
  C      0.257479   -1.586308    1.883247
  C     -0.220205   -2.461100    2.557906
  H      0.392186    2.085038   -0.739100
  H     -1.275147    1.552724   -0.402928
  H     -0.191698    2.042548    0.924060
  H      1.407396   -1.289399   -1.038735
  H      3.711528    0.004458   -0.146126
  H      3.211164    1.880415    1.242408
  H      2.713039   -0.063611    2.538652
  H     -0.655971   -3.235655    3.138634

 Total Charge           Charge          ....    0
 Multiplicity           Mult            ....    1
 Number of Electrons    NEL             ....   64
 Basis Dimension        Dim             ....  327

ORBITAL ENERGIES
----------------

  NO   OCC          E(Eh)            E(eV)
   0   2.0000     -15.572186      -423.7407
   1   2.0000     -15.566120      -423.5756
   2   2.0000     -11.289950      -307.2151
   3   2.0000     -11.276645      -306.8531
   4   2.0000     -11.274896      -306.8055
   5   2.0000     -11.272069      -306.7286
   6   2.0000     -11.236279      -305.7547
   7   2.0000     -11.234357      -305.7024
   8   2.0000     -11.223588      -305.4094
   9   2.0000      -1.328739       -36.1568
  10   2.0000      -1.238896       -33.7121
  11   2.0000      -1.046291       -28.4710
  12   2.0000      -1.008453       -27.4414
  13   2.0000      -0.914831       -24.8938
  14   2.0000      -0.904310       -24.6075
  15   2.0000      -0.809219       -22.0200
  16   2.0000      -0.768029       -20.8991
  17   2.0000      -0.744384       -20.2557
  18   2.0000      -0.703954       -19.1556
  19   2.0000      -0.655193       -17.8287
  20   2.0000      -0.638981       -17.3875
  21   2.0000      -0.599254       -16.3065
  22   2.0000      -0.588577       -16.0160
  23   2.0000      -0.533299       -14.5118
  24   2.0000      -0.517037       -14.0693
  25   2.0000      -0.492092       -13.3905
  26   2.0000      -0.472111       -12.8468
  27   2.0000      -0.461449       -12.5567
  28   2.0000      -0.413069       -11.2402
  29   2.0000      -0.386566       -10.5190
  30   2.0000      -0.360590        -9.8121
  31   2.0000      -0.331453        -9.0193
  32   0.0000       0.134308         3.6547
  33   0.0000       0.142778         3.8852
  34   0.0000       0.163109         4.4384
  35   0.0000       0.169771         4.6197
  36   0.0000       0.176332         4.7982

MULLIKEN ATOMIC CHARGES
-----------------------
   0 C :   -0.254979
   1 N :   -0.179966
   2 C :   -0.093806
   3 C :   -0.043573
   4 N :   -0.390407
   5 C :   -0.127422
   6 C :   -0.071666
   7 C :    0.021839
   8 C :   -0.099537
   9 H :    0.128306
  10 H :    0.132135
  11 H :    0.133002
  12 H :    0.138281
  13 H :    0.146816
  14 H :    0.218968
  15 H :    0.149006
  16 H :    0.193002
Sum of atomic charges:    0.0000000

LOEWDIN ATOMIC CHARGES
----------------------
   0 C :   -0.314019
   1 N :    0.181543
   2 C :   -0.164400
   3 C :   -0.219230
   4 N :    0.015754
   5 C :   -0.187192
   6 C :   -0.213425
   7 C :   -0.070249
   8 C :   -0.083408
   9 H :    0.117739
  10 H :    0.110427
  11 H :    0.118596
  12 H :    0.137681
  13 H :    0.131942
  14 H :    0.174709
  15 H :    0.136492
  16 H :    0.127040

  Mayer bond orders larger than 0.1
B(  0-C ,  1-N ) :   0.8400 B(  0-C ,  9-H ) :   0.9368 B(  0-C , 10-H ) :   0.9301
B(  0-C , 11-H ) :   0.9357 B(  1-N ,  2-C ) :   1.0123 B(  1-N ,  6-C ) :   0.7958
B(  2-C ,  3-C ) :   0.8508 B(  2-C ,  6-C ) :   0.8491 B(  2-C , 12-H ) :   0.9118
B(  3-C ,  4-N ) :   0.9425 B(  3-C ,  5-C ) :   0.9718 B(  3-C , 13-H ) :   0.9147
B(  4-N ,  5-C ) :   0.9599 B(  4-N , 14-H ) :   0.8702 B(  5-C ,  6-C ) :   0.8651
B(  5-C , 15-H ) :   0.9208 B(  6-C ,  7-C ) :   1.2080 B(  6-C ,  8-C ) :  -0.1902
B(  7-C ,  8-C ) :   2.6000 B(  8-C , 16-H ) :   0.8697

MP2 TOTAL ENERGY:     -380.027104960 Eh
FINAL SINGLE POINT ENERGY      -380.027104959789

DIPOLE MOMENT
-------------
                                X             Y             Z
Electronic contribution:      0.22157      -3.56415       1.47965
Nuclear contribution   :      0.69981       3.62568      -1.33937
                        -----------------------------------------
Total Dipole Moment    :      0.92138       0.06153       0.14027
                        -----------------------------------------
Magnitude (a.u.)       :      0.93402
Magnitude (Debye)      :      2.37410

                             ****ORCA TERMINATED NORMALLY****
TOTAL RUN TIME: 0 days 0 hours 17 minutes 29 seconds 407 msec
