                         Program Version 3.0.3 - RELEASE   -
|  1> ! RI-MP2 RIJK def2-TZVP def2-TZVP/C def2-TZVP/JK TIGHTSCF
|  2> % maxcore 2000
|  3> % mp2 density relaxed end
|  4> *xyz 0 1
|  5>  O       -0.0138060297     1.3597739618    -0.2742926758
|  6>  C        0.0271929788    -0.0098003379     0.0789696035
|  7>  C       -1.3702841138    -0.5670212875     0.1956376357
|  8>  C       -2.3102150277    -0.0077723381     1.2574065126
|  9>  O       -3.4860210487    -0.8231193684     1.1472826434
| 10>  C       -3.1325063266    -1.9685279709     0.4130556297
| 11>  C       -2.5396310207    -1.7618611723    -0.9706434584
| 12>  O       -2.0892532780    -0.4128090194    -1.0873391681
| 13>  C       -1.6513451623    -2.0904533814     0.2058118640
| 14>  H       -0.5266490248     1.4133405128    -1.0901270156
| 15>  H        0.5914991001    -0.6041810880    -0.6549085422
| 16>  H        0.5468731185    -0.0781696722     1.0409828363
| 17>  H       -1.8782242449    -0.0879815861     2.2666299042
| 18>  H       -2.5763786820     1.0321657153     1.0563536570
| 19>  H       -3.7582532379    -2.8304049121     0.6106788478
| 20>  H       -2.7978404918    -2.2998373545    -1.8757155027
| 21>  H       -0.9814333085    -2.9028875112     0.4527114187
| 22> *
| 23>
| 24>                          ****END OF INPUT****

CARTESIAN COORDINATES (ANGSTROEM)
---------------------------------
  O     -0.013806    1.359774   -0.274293
  C      0.027193   -0.009800    0.078970
  C     -1.370284   -0.567021    0.195638
  C     -2.310215   -0.007772    1.257407
  O     -3.486021   -0.823119    1.147283
  C     -3.132506   -1.968528    0.413056
  C     -2.539631   -1.761861   -0.970643
  O     -2.089253   -0.412809   -1.087339
  C     -1.651345   -2.090453    0.205812
  H     -0.526649    1.413341   -1.090127
  H      0.591499   -0.604181   -0.654909
  H      0.546873   -0.078170    1.040983
  H     -1.878224   -0.087982    2.266630
  H     -2.576379    1.032166    1.056354
  H     -3.758253   -2.830405    0.610679
  H     -2.797840   -2.299837   -1.875716
  H     -0.981433   -2.902888    0.452711

 Total Charge           Charge          ....    0
 Multiplicity           Mult            ....    1
 Number of Electrons    NEL             ....   68
 Basis Dimension        Dim             ....  327

ORBITAL ENERGIES
----------------

  NO   OCC          E(Eh)            E(eV)
   0   2.0000     -20.566144      -559.6332
   1   2.0000     -20.564297      -559.5830
   2   2.0000     -20.562944      -559.5462
   3   2.0000     -11.306810      -307.6739
   4   2.0000     -11.301633      -307.5331
   5   2.0000     -11.297140      -307.4108
   6   2.0000     -11.290219      -307.2225
   7   2.0000     -11.281327      -306.9805
   8   2.0000     -11.248720      -306.0932
   9   2.0000      -1.431343       -38.9488
  10   2.0000      -1.372541       -37.3487
  11   2.0000      -1.358471       -36.9659
  12   2.0000      -1.120908       -30.5015
  13   2.0000      -1.046679       -28.4816
  14   2.0000      -0.936574       -25.4855
  15   2.0000      -0.855776       -23.2869
  16   2.0000      -0.820028       -22.3141
  17   2.0000      -0.755589       -20.5606
  18   2.0000      -0.737375       -20.0650
  19   2.0000      -0.697908       -18.9910
  20   2.0000      -0.675997       -18.3948
  21   2.0000      -0.650377       -17.6977
  22   2.0000      -0.630075       -17.1452
  23   2.0000      -0.611658       -16.6441
  24   2.0000      -0.597423       -16.2567
  25   2.0000      -0.563583       -15.3359
  26   2.0000      -0.548550       -14.9268
  27   2.0000      -0.525317       -14.2946
  28   2.0000      -0.514384       -13.9971
  29   2.0000      -0.495720       -13.4892
  30   2.0000      -0.466264       -12.6877
  31   2.0000      -0.451538       -12.2870
  32   2.0000      -0.412741       -11.2313
  33   2.0000      -0.371528       -10.1098
  34   0.0000       0.142205         3.8696
  35   0.0000       0.159675         4.3450
  36   0.0000       0.161803         4.4029
  37   0.0000       0.176047         4.7905
  38   0.0000       0.187124         5.0919

MULLIKEN ATOMIC CHARGES
-----------------------
   0 O :   -0.469648
   1 C :   -0.012095
   2 C :    0.138540
   3 C :   -0.008643
   4 O :   -0.311647
   5 C :    0.044226
   6 C :    0.030462
   7 O :   -0.352642
   8 C :   -0.258309
   9 H :    0.333162
  10 H :    0.115948
  11 H :    0.112767
  12 H :    0.091429
  13 H :    0.120446
  14 H :    0.133176
  15 H :    0.136127
  16 H :    0.156702
Sum of atomic charges:    0.0000000

LOEWDIN ATOMIC CHARGES
----------------------
   0 O :   -0.033328
   1 C :   -0.304260
   2 C :   -0.287102
   3 C :   -0.238391
   4 O :    0.181132
   5 C :   -0.261132
   6 C :   -0.223199
   7 O :    0.174659
   8 C :   -0.137738
   9 H :    0.183442
  10 H :    0.128483
  11 H :    0.138103
  12 H :    0.127267
  13 H :    0.136890
  14 H :    0.145333
  15 H :    0.131444
  16 H :    0.138398

  Mayer bond orders larger than 0.1
B(  0-O ,  1-C ) :   0.9328 B(  0-O ,  9-H ) :   0.8312 B(  1-C ,  2-C ) :   0.9128
B(  1-C , 10-H ) :   0.9375 B(  1-C , 11-H ) :   0.9145 B(  2-C ,  3-C ) :   0.9970
B(  2-C ,  7-O ) :   0.8099 B(  2-C ,  8-C ) :   0.8675 B(  3-C ,  4-O ) :   0.9439
B(  3-C , 12-H ) :   0.9182 B(  3-C , 13-H ) :   0.9009 B(  4-O ,  5-C ) :   0.9736
B(  5-C ,  6-C ) :   0.8496 B(  5-C ,  8-C ) :   0.8999 B(  5-C , 14-H ) :   0.9325
B(  6-C ,  7-O ) :   0.9513 B(  6-C ,  8-C ) :   0.9003 B(  6-C , 15-H ) :   0.9141
B(  8-C , 16-H ) :   0.8988

MP2 TOTAL ENERGY:     -458.172715239 Eh
FINAL SINGLE POINT ENERGY      -458.172715238707

DIPOLE MOMENT
-------------
                                X             Y             Z
Electronic contribution:     -2.57372       0.14837      -1.02829
Nuclear contribution   :      2.95414      -1.16880       0.95121
                        -----------------------------------------
Total Dipole Moment    :      0.38042      -1.02043      -0.07708
                        -----------------------------------------
Magnitude (a.u.)       :      1.09176
Magnitude (Debye)      :      2.77503

                             ****ORCA TERMINATED NORMALLY****
TOTAL RUN TIME: 0 days 0 hours 16 minutes 49 seconds 346 msec
