                         Program Version 3.0.3 - RELEASE   -
|  1> ! RI-MP2 RIJK def2-TZVP def2-TZVP/C def2-TZVP/JK TIGHTSCF
|  2> % maxcore 2000
|  3> % mp2 density relaxed end
|  4> *xyz 0 1
|  5>  C        0.1325513472     1.4165102765    -0.0494628218
|  6>  N        0.0683640580    -0.0266308697    -0.0217635394
|  7>  N        0.1548836194    -0.7761249451    -1.1641697679
|  8>  C        0.0596571620    -1.9968111175    -0.7442272667
|  9>  O       -0.0851080499    -2.1038635156     0.6101448621
| 10>  C       -0.0808625606    -0.8003498485     1.1033718165
| 11>  O       -0.1873287296    -0.4954885053     2.2564357035
| 12>  C        0.0911974673    -3.1650300394    -1.5273376825
| 13>  C        0.1155862477    -4.1756001229    -2.1780584737
| 14>  H        1.0870261177     1.7491455148    -0.4660752833
| 15>  H       -0.6852357903     1.8244470767    -0.6495105471
| 16>  H        0.0403282772     1.7591771843     0.9819215751
| 17>  H        0.1379501239    -5.0656329385    -2.7583271247
| 18> *
| 19>
| 20>                          ****END OF INPUT****

CARTESIAN COORDINATES (ANGSTROEM)
---------------------------------
  C      0.132551    1.416510   -0.049463
  N      0.068364   -0.026631   -0.021764
  N      0.154884   -0.776125   -1.164170
  C      0.059657   -1.996811   -0.744227
  O     -0.085108   -2.103864    0.610145
  C     -0.080863   -0.800350    1.103372
  O     -0.187329   -0.495489    2.256436
  C      0.091197   -3.165030   -1.527338
  C      0.115586   -4.175600   -2.178058
  H      1.087026    1.749146   -0.466075
  H     -0.685236    1.824447   -0.649511
  H      0.040328    1.759177    0.981922
  H      0.137950   -5.065633   -2.758327

 Total Charge           Charge          ....    0
 Multiplicity           Mult            ....    1
 Number of Electrons    NEL             ....   64
 Basis Dimension        Dim             ....  303

ORBITAL ENERGIES
----------------

  NO   OCC          E(Eh)            E(eV)
   0   2.0000     -20.658258      -562.1398
   1   2.0000     -20.548611      -559.1561
   2   2.0000     -15.655001      -425.9942
   3   2.0000     -15.641324      -425.6221
   4   2.0000     -11.427183      -310.9495
   5   2.0000     -11.386718      -309.8483
   6   2.0000     -11.285842      -307.1034
   7   2.0000     -11.278866      -306.9136
   8   2.0000     -11.273661      -306.7719
   9   2.0000      -1.536078       -41.7988
  10   2.0000      -1.401732       -38.1431
  11   2.0000      -1.357356       -36.9355
  12   2.0000      -1.174813       -31.9683
  13   2.0000      -1.077212       -29.3124
  14   2.0000      -0.997892       -27.1540
  15   2.0000      -0.921527       -25.0760
  16   2.0000      -0.852949       -23.2099
  17   2.0000      -0.799148       -21.7459
  18   2.0000      -0.737747       -20.0751
  19   2.0000      -0.728483       -19.8230
  20   2.0000      -0.688434       -18.7333
  21   2.0000      -0.662290       -18.0218
  22   2.0000      -0.633482       -17.2379
  23   2.0000      -0.628707       -17.1080
  24   2.0000      -0.579002       -15.7554
  25   2.0000      -0.556232       -15.1358
  26   2.0000      -0.541479       -14.7344
  27   2.0000      -0.519906       -14.1474
  28   2.0000      -0.474211       -12.9039
  29   2.0000      -0.457696       -12.4545
  30   2.0000      -0.441622       -12.0171
  31   2.0000      -0.353581        -9.6214
  32   0.0000       0.077164         2.0997
  33   0.0000       0.135694         3.6924
  34   0.0000       0.142341         3.8733
  35   0.0000       0.146479         3.9859
  36   0.0000       0.179207         4.8765

MULLIKEN ATOMIC CHARGES
-----------------------
   0 C :   -0.313718
   1 N :    0.007127
   2 N :   -0.209061
   3 C :    0.051916
   4 O :   -0.200872
   5 C :    0.297319
   6 O :   -0.322274
   7 C :    0.031894
   8 C :   -0.043112
   9 H :    0.155536
  10 H :    0.155537
  11 H :    0.179846
  12 H :    0.209861
Sum of atomic charges:   -0.0000000

LOEWDIN ATOMIC CHARGES
----------------------
   0 C :   -0.270610
   1 N :    0.148818
   2 N :    0.109999
   3 C :   -0.349275
   4 O :    0.336763
   5 C :   -0.525505
   6 O :    0.108771
   7 C :   -0.064638
   8 C :   -0.023023
   9 H :    0.126590
  10 H :    0.126592
  11 H :    0.140572
  12 H :    0.134947

  Mayer bond orders larger than 0.1
B(  0-C ,  1-N ) :   0.8590 B(  0-C ,  9-H ) :   0.9302 B(  0-C , 10-H ) :   0.9302
B(  0-C , 11-H ) :   0.9205 B(  1-N ,  2-N ) :   0.8976 B(  1-N ,  5-C ) :   1.1468
B(  2-N ,  3-C ) :   1.6540 B(  3-C ,  4-O ) :   1.0829 B(  3-C ,  7-C ) :   1.2352
B(  3-C ,  8-C ) :  -0.1549 B(  4-O ,  5-C ) :   0.9955 B(  5-C ,  6-O ) :   1.9983
B(  7-C ,  8-C ) :   2.6355 B(  8-C , 12-H ) :   0.8578

MP2 TOTAL ENERGY:     -451.997700677 Eh
FINAL SINGLE POINT ENERGY      -451.997700677457

DIPOLE MOMENT
-------------
                                X             Y             Z
Electronic contribution:     -0.32416      -4.86137       1.13845
Nuclear contribution   :      0.44439       5.01631      -2.23565
                        -----------------------------------------
Total Dipole Moment    :      0.12023       0.15494      -1.09720
                        -----------------------------------------
Magnitude (a.u.)       :      1.11459
Magnitude (Debye)      :      2.83306

                             ****ORCA TERMINATED NORMALLY****
TOTAL RUN TIME: 0 days 0 hours 13 minutes 55 seconds 675 msec
