                         Program Version 3.0.3 - RELEASE   -
|  1> ! RI-MP2 RIJK def2-TZVP def2-TZVP/C def2-TZVP/JK TIGHTSCF
|  2> % maxcore 2000
|  3> % mp2 density relaxed end
|  4> *xyz 0 1
|  5>  C       -0.7943310921     1.2607616907     0.1703913394
|  6>  C        0.0767313345     0.0196128373    -0.0491030208
|  7>  C        0.9429205152     0.1673409547    -1.3246957083
|  8>  C        2.2304954679    -0.6880948678    -1.2976345193
|  9>  C        2.7706835689    -0.8658412259     0.1367492779
| 10>  C        4.2045064635    -1.3670987532     0.1607173896
| 11>  C        1.6977482109    -1.6411802243     0.9574445961
| 12>  C        0.9860097529    -0.2790366389     1.1601726404
| 13>  C        2.3875457253     0.3805748121     0.9986298572
| 14>  H       -0.1753687854     2.1448936496     0.3652055892
| 15>  H       -1.4098009496     1.4760893120    -0.7100214313
| 16>  H       -1.4663273064     1.1290295202     1.0252100794
| 17>  H       -0.5923595001    -0.8441678165    -0.1698856708
| 18>  H        0.3494510231    -0.0519450704    -2.2185308551
| 19>  H        1.2312247951     1.2213086876    -1.4140271307
| 20>  H        2.0500579995    -1.6825429800    -1.7262862046
| 21>  H        2.9908600059    -0.2144585651    -1.9310817474
| 22>  H        4.8849153149    -0.6504567976    -0.3147788404
| 23>  H        4.5515483644    -1.5286694820     1.1872392093
| 24>  H        4.3006311203    -2.3180708577    -0.3775691425
| 25>  H        1.1433197823    -2.4387225311     0.4502925229
| 26>  H        2.1124359487    -2.0301918178     1.8928301958
| 27>  H        0.4547042894    -0.1211466635     2.1029825569
| 28>  H        2.9358707274     0.3825455548     1.9453313578
| 29>  H        2.4596870835     1.3752751127     0.5488534094
| 30> *
| 31>
| 32>                          ****END OF INPUT****

CARTESIAN COORDINATES (ANGSTROEM)
---------------------------------
  C     -0.794331    1.260762    0.170391
  C      0.076731    0.019613   -0.049103
  C      0.942921    0.167341   -1.324696
  C      2.230495   -0.688095   -1.297635
  C      2.770684   -0.865841    0.136749
  C      4.204506   -1.367099    0.160717
  C      1.697748   -1.641180    0.957445
  C      0.986010   -0.279037    1.160173
  C      2.387546    0.380575    0.998630
  H     -0.175369    2.144894    0.365206
  H     -1.409801    1.476089   -0.710021
  H     -1.466327    1.129030    1.025210
  H     -0.592360   -0.844168   -0.169886
  H      0.349451   -0.051945   -2.218531
  H      1.231225    1.221309   -1.414027
  H      2.050058   -1.682543   -1.726286
  H      2.990860   -0.214459   -1.931082
  H      4.884915   -0.650457   -0.314779
  H      4.551548   -1.528669    1.187239
  H      4.300631   -2.318071   -0.377569
  H      1.143320   -2.438723    0.450293
  H      2.112436   -2.030192    1.892830
  H      0.454704   -0.121147    2.102983
  H      2.935871    0.382546    1.945331
  H      2.459687    1.375275    0.548853

 Total Charge           Charge          ....    0
 Multiplicity           Mult            ....    1
 Number of Electrons    NEL             ....   70
 Basis Dimension        Dim             ....  375

ORBITAL ENERGIES
----------------

  NO   OCC          E(Eh)            E(eV)
   0   2.0000     -11.227438      -305.5141
   1   2.0000     -11.219833      -305.3072
   2   2.0000     -11.218886      -305.2814
   3   2.0000     -11.213119      -305.1245
   4   2.0000     -11.212337      -305.1032
   5   2.0000     -11.211742      -305.0870
   6   2.0000     -11.209288      -305.0202
   7   2.0000     -11.207632      -304.9752
   8   2.0000     -11.207080      -304.9602
   9   2.0000      -1.161875       -31.6162
  10   2.0000      -1.047592       -28.5064
  11   2.0000      -1.008155       -27.4333
  12   2.0000      -0.955351       -25.9964
  13   2.0000      -0.892542       -24.2873
  14   2.0000      -0.872897       -23.7527
  15   2.0000      -0.817797       -22.2534
  16   2.0000      -0.764417       -20.8008
  17   2.0000      -0.697127       -18.9698
  18   2.0000      -0.645961       -17.5775
  19   2.0000      -0.629287       -17.1238
  20   2.0000      -0.598176       -16.2772
  21   2.0000      -0.587967       -15.9994
  22   2.0000      -0.575395       -15.6573
  23   2.0000      -0.552929       -15.0460
  24   2.0000      -0.537141       -14.6163
  25   2.0000      -0.527125       -14.3438
  26   2.0000      -0.519882       -14.1467
  27   2.0000      -0.514189       -13.9918
  28   2.0000      -0.485487       -13.2108
  29   2.0000      -0.468758       -12.7556
  30   2.0000      -0.460165       -12.5217
  31   2.0000      -0.432018       -11.7558
  32   2.0000      -0.417734       -11.3671
  33   2.0000      -0.410316       -11.1653
  34   2.0000      -0.399072       -10.8593
  35   0.0000       0.133561         3.6344
  36   0.0000       0.147022         4.0007
  37   0.0000       0.165038         4.4909
  38   0.0000       0.166757         4.5377
  39   0.0000       0.183272         4.9871

MULLIKEN ATOMIC CHARGES
-----------------------
   0 C :   -0.413204
   1 C :   -0.120266
   2 C :   -0.244279
   3 C :   -0.302016
   4 C :    0.240491
   5 C :   -0.407088
   6 C :   -0.334750
   7 C :    0.059116
   8 C :   -0.352368
   9 H :    0.124907
  10 H :    0.132244
  11 H :    0.128903
  12 H :    0.087157
  13 H :    0.125089
  14 H :    0.118067
  15 H :    0.110176
  16 H :    0.112434
  17 H :    0.127660
  18 H :    0.124488
  19 H :    0.128480
  20 H :    0.109618
  21 H :    0.111933
  22 H :    0.104340
  23 H :    0.113322
  24 H :    0.115545
Sum of atomic charges:    0.0000000

LOEWDIN ATOMIC CHARGES
----------------------
   0 C :   -0.295471
   1 C :   -0.257283
   2 C :   -0.232952
   3 C :   -0.215343
   4 C :   -0.275780
   5 C :   -0.278930
   6 C :   -0.179449
   7 C :   -0.198270
   8 C :   -0.176679
   9 H :    0.123208
  10 H :    0.123146
  11 H :    0.121373
  12 H :    0.150702
  13 H :    0.135673
  14 H :    0.140061
  15 H :    0.138420
  16 H :    0.138992
  17 H :    0.125119
  18 H :    0.123550
  19 H :    0.126695
  20 H :    0.125900
  21 H :    0.136362
  22 H :    0.136512
  23 H :    0.137993
  24 H :    0.126452

  Mayer bond orders larger than 0.1
B(  0-C ,  1-C ) :   0.9007 B(  0-C ,  9-H ) :   0.9349 B(  0-C , 10-H ) :   0.9422
B(  0-C , 11-H ) :   0.9413 B(  1-C ,  2-C ) :   0.9379 B(  1-C ,  7-C ) :   0.8623
B(  1-C , 12-H ) :   0.9316 B(  2-C ,  3-C ) :   0.9419 B(  2-C , 13-H ) :   0.9301
B(  2-C , 14-H ) :   0.9313 B(  3-C ,  4-C ) :   0.8886 B(  3-C , 15-H ) :   0.9293
B(  3-C , 16-H ) :   0.9276 B(  4-C ,  5-C ) :   0.8715 B(  4-C ,  6-C ) :   0.8908
B(  4-C ,  8-C ) :   0.8966 B(  5-C , 17-H ) :   0.9418 B(  5-C , 18-H ) :   0.9391
B(  5-C , 19-H ) :   0.9393 B(  6-C ,  7-C ) :   0.8915 B(  6-C , 20-H ) :   0.9245
B(  6-C , 21-H ) :   0.9161 B(  7-C ,  8-C ) :   0.9065 B(  7-C , 22-H ) :   0.9307
B(  8-C , 23-H ) :   0.9170 B(  8-C , 24-H ) :   0.9216

MP2 TOTAL ENERGY:     -351.729458797 Eh
FINAL SINGLE POINT ENERGY      -351.729458796636

DIPOLE MOMENT
-------------
                                X             Y             Z
Electronic contribution:     -0.04114      -0.99534       0.76170
Nuclear contribution   :      0.03181       0.98385      -0.78924
                        -----------------------------------------
Total Dipole Moment    :     -0.00933      -0.01149      -0.02754
                        -----------------------------------------
Magnitude (a.u.)       :      0.03127
Magnitude (Debye)      :      0.07948

                             ****ORCA TERMINATED NORMALLY****
TOTAL RUN TIME: 0 days 0 hours 24 minutes 22 seconds 77 msec
