                         Program Version 3.0.3 - RELEASE   -
|  1> ! RI-MP2 RIJK def2-TZVP def2-TZVP/C def2-TZVP/JK TIGHTSCF
|  2> % maxcore 2000
|  3> % mp2 density relaxed end
|  4> *xyz 0 1
|  5>  C        0.2761176778     1.5144674913    -0.2015624666
|  6>  C       -0.0669856910     0.0462385333     0.0775366171
|  7>  C        0.5397399322    -0.4852442751     1.3457991355
|  8>  C        0.5339636156     0.1512985466     2.7298384961
|  9>  C        1.7516949246    -0.7534069637     2.9840185120
| 10>  C        1.2561326977    -2.2192953459     2.9577814261
| 11>  C        0.1798832106    -2.7298821751     3.9062511604
| 12>  C        0.9676974129    -1.9144293717     1.4966437425
| 13>  N        2.0085657698    -0.8243978265     1.4432516486
| 14>  H        1.3605165489     1.6553521215    -0.2358285468
| 15>  H       -0.1415693994     1.8365200703    -1.1600731367
| 16>  H       -0.1261204113     2.1754969727     0.5729330445
| 17>  H       -1.1569842424    -0.0830319192     0.1228579168
| 18>  H        0.2822218130    -0.5751266979    -0.7560692222
| 19>  H        0.8377413409     1.1998484544     2.6720293263
| 20>  H       -0.3480920372     0.0627363377     3.3725049786
| 21>  H        2.5585989934    -0.4428123785     3.6457809700
| 22>  H        2.1362326699    -2.8715290189     2.9993633304
| 23>  H       -0.7250093127    -2.1165956306     3.8723293367
| 24>  H       -0.1072098072    -3.7548463298     3.6471419508
| 25>  H        0.5419739537    -2.7413423861     4.9403378523
| 26>  H        0.8625100402    -2.6214640689     0.6795949576
| 27> *
| 28>
| 29>                          ****END OF INPUT****

CARTESIAN COORDINATES (ANGSTROEM)
---------------------------------
  C      0.276118    1.514467   -0.201562
  C     -0.066986    0.046239    0.077537
  C      0.539740   -0.485244    1.345799
  C      0.533964    0.151299    2.729838
  C      1.751695   -0.753407    2.984019
  C      1.256133   -2.219295    2.957781
  C      0.179883   -2.729882    3.906251
  C      0.967697   -1.914429    1.496644
  N      2.008566   -0.824398    1.443252
  H      1.360517    1.655352   -0.235829
  H     -0.141569    1.836520   -1.160073
  H     -0.126120    2.175497    0.572933
  H     -1.156984   -0.083032    0.122858
  H      0.282222   -0.575127   -0.756069
  H      0.837741    1.199848    2.672029
  H     -0.348092    0.062736    3.372505
  H      2.558599   -0.442812    3.645781
  H      2.136233   -2.871529    2.999363
  H     -0.725009   -2.116596    3.872329
  H     -0.107210   -3.754846    3.647142
  H      0.541974   -2.741342    4.940338
  H      0.862510   -2.621464    0.679595

 Total Charge           Charge          ....    0
 Multiplicity           Mult            ....    1
 Number of Electrons    NEL             ....   68
 Basis Dimension        Dim             ....  357

ORBITAL ENERGIES
----------------

  NO   OCC          E(Eh)            E(eV)
   0   2.0000     -15.551719      -423.1838
   1   2.0000     -11.261383      -306.4378
   2   2.0000     -11.260800      -306.4219
   3   2.0000     -11.253678      -306.2281
   4   2.0000     -11.234729      -305.7125
   5   2.0000     -11.227002      -305.5023
   6   2.0000     -11.225259      -305.4548
   7   2.0000     -11.217445      -305.2422
   8   2.0000     -11.211406      -305.0779
   9   2.0000      -1.309912       -35.6445
  10   2.0000      -1.056561       -28.7505
  11   2.0000      -1.022597       -27.8263
  12   2.0000      -0.990930       -26.9646
  13   2.0000      -0.921229       -25.0679
  14   2.0000      -0.879896       -23.9432
  15   2.0000      -0.838234       -22.8095
  16   2.0000      -0.729034       -19.8380
  17   2.0000      -0.717659       -19.5285
  18   2.0000      -0.680526       -18.5181
  19   2.0000      -0.626238       -17.0408
  20   2.0000      -0.612971       -16.6798
  21   2.0000      -0.592887       -16.1333
  22   2.0000      -0.570747       -15.5308
  23   2.0000      -0.561542       -15.2803
  24   2.0000      -0.544088       -14.8054
  25   2.0000      -0.532100       -14.4792
  26   2.0000      -0.517175       -14.0731
  27   2.0000      -0.497817       -13.5463
  28   2.0000      -0.487003       -13.2520
  29   2.0000      -0.470782       -12.8106
  30   2.0000      -0.442181       -12.0324
  31   2.0000      -0.418311       -11.3828
  32   2.0000      -0.395880       -10.7725
  33   2.0000      -0.365937        -9.9576
  34   0.0000       0.135411         3.6847
  35   0.0000       0.148801         4.0491
  36   0.0000       0.163727         4.4552
  37   0.0000       0.168900         4.5960
  38   0.0000       0.186790         5.0828

MULLIKEN ATOMIC CHARGES
-----------------------
   0 C :   -0.423699
   1 C :   -0.215066
   2 C :    0.068128
   3 C :   -0.202207
   4 C :   -0.047585
   5 C :    0.006396
   6 C :   -0.424738
   7 C :   -0.162302
   8 N :   -0.226535
   9 H :    0.145583
  10 H :    0.134124
  11 H :    0.125094
  12 H :    0.113187
  13 H :    0.116773
  14 H :    0.121442
  15 H :    0.115177
  16 H :    0.132539
  17 H :    0.102616
  18 H :    0.128681
  19 H :    0.133359
  20 H :    0.131603
  21 H :    0.127429
Sum of atomic charges:   -0.0000000

LOEWDIN ATOMIC CHARGES
----------------------
   0 C :   -0.312076
   1 C :   -0.255117
   2 C :   -0.248025
   3 C :   -0.190552
   4 C :   -0.167711
   5 C :   -0.236932
   6 C :   -0.294487
   7 C :   -0.177052
   8 N :    0.155561
   9 H :    0.127178
  10 H :    0.121024
  11 H :    0.119332
  12 H :    0.143513
  13 H :    0.148221
  14 H :    0.144263
  15 H :    0.125658
  16 H :    0.127804
  17 H :    0.158887
  18 H :    0.122620
  19 H :    0.126475
  20 H :    0.125592
  21 H :    0.135825

  Mayer bond orders larger than 0.1
B(  0-C ,  1-C ) :   0.9190 B(  0-C ,  9-H ) :   0.9369 B(  0-C , 10-H ) :   0.9392
B(  0-C , 11-H ) :   0.9383 B(  1-C ,  2-C ) :   0.8992 B(  1-C , 12-H ) :   0.9361
B(  1-C , 13-H ) :   0.9275 B(  2-C ,  3-C ) :   0.9290 B(  2-C ,  7-C ) :   0.9005
B(  2-C ,  8-N ) :   0.8275 B(  3-C ,  4-C ) :   0.9375 B(  3-C , 14-H ) :   0.9097
B(  3-C , 15-H ) :   0.9165 B(  4-C ,  5-C ) :   0.9497 B(  4-C ,  8-N ) :   0.9561
B(  4-C , 16-H ) :   0.9027 B(  5-C ,  6-C ) :   0.9015 B(  5-C ,  7-C ) :   0.9247
B(  5-C , 17-H ) :   0.9125 B(  6-C , 18-H ) :   0.9379 B(  6-C , 19-H ) :   0.9364
B(  6-C , 20-H ) :   0.9341 B(  7-C ,  8-N ) :   0.9376 B(  7-C , 21-H ) :   0.9046

MP2 TOTAL ENERGY:     -366.508201010 Eh
FINAL SINGLE POINT ENERGY      -366.508201010056

DIPOLE MOMENT
-------------
                                X             Y             Z
Electronic contribution:      3.65567      -1.92077       0.12429
Nuclear contribution   :     -4.23569       1.80209       0.24233
                        -----------------------------------------
Total Dipole Moment    :     -0.58002      -0.11868       0.36662
                        -----------------------------------------
Magnitude (a.u.)       :      0.69636
Magnitude (Debye)      :      1.77000

                             ****ORCA TERMINATED NORMALLY****
TOTAL RUN TIME: 0 days 0 hours 21 minutes 52 seconds 756 msec
