                         Program Version 3.0.3 - RELEASE   -
|  1> ! RI-MP2 RIJK def2-TZVP def2-TZVP/C def2-TZVP/JK TIGHTSCF
|  2> % maxcore 2000
|  3> % mp2 density relaxed end
|  4> *xyz 0 1
|  5>  O       -0.0201965243     1.3325778765     0.1739320836
|  6>  N        0.0792586769    -0.0626517060     0.1845850518
|  7>  C       -1.0584341459    -0.6070929570     0.0866268191
|  8>  C       -2.4751523842    -0.1404026625    -0.1779373242
|  9>  C       -2.7916267480    -1.5875084025    -0.7005363522
| 10>  C       -2.7760527115    -1.6957825673    -2.1469900432
| 11>  N       -2.7093578482    -1.7849357063    -3.2982346022
| 12>  C       -1.4094433605    -2.0784496428    -0.0593051834
| 13>  O       -0.5853545872    -2.9530209032    -0.7449069304
| 14>  H        0.9026725350     1.6071864720     0.2188410918
| 15>  H       -3.0350474065     0.1068550440     0.7278469133
| 16>  H       -2.5811573994     0.6743186061    -0.8952191493
| 17>  H       -3.6859524495    -2.0641147352    -0.2964024767
| 18>  H       -1.6219396544    -2.5408155378     0.9105743984
| 19>  H       -0.2863510225    -2.5269682980    -1.5577180864
| 20> *
| 21>
| 22>                          ****END OF INPUT****

CARTESIAN COORDINATES (ANGSTROEM)
---------------------------------
  O     -0.020197    1.332578    0.173932
  N      0.079259   -0.062652    0.184585
  C     -1.058434   -0.607093    0.086627
  C     -2.475152   -0.140403   -0.177937
  C     -2.791627   -1.587508   -0.700536
  C     -2.776053   -1.695783   -2.146990
  N     -2.709358   -1.784936   -3.298235
  C     -1.409443   -2.078450   -0.059305
  O     -0.585355   -2.953021   -0.744907
  H      0.902673    1.607186    0.218841
  H     -3.035047    0.106855    0.727847
  H     -2.581157    0.674319   -0.895219
  H     -3.685952   -2.064115   -0.296402
  H     -1.621940   -2.540816    0.910574
  H     -0.286351   -2.526968   -1.557718

 Total Charge           Charge          ....    0
 Multiplicity           Mult            ....    1
 Number of Electrons    NEL             ....   66
 Basis Dimension        Dim             ....  315

ORBITAL ENERGIES
----------------

  NO   OCC          E(Eh)            E(eV)
   0   2.0000     -20.613602      -560.9246
   1   2.0000     -20.588866      -560.2515
   2   2.0000     -15.642369      -425.6505
   3   2.0000     -15.581954      -424.0065
   4   2.0000     -11.332659      -308.3773
   5   2.0000     -11.302527      -307.5574
   6   2.0000     -11.300173      -307.4933
   7   2.0000     -11.284552      -307.0683
   8   2.0000     -11.277813      -306.8849
   9   2.0000      -1.442782       -39.2601
  10   2.0000      -1.403751       -38.1980
  11   2.0000      -1.234153       -33.5830
  12   2.0000      -1.203116       -32.7385
  13   2.0000      -1.124105       -30.5884
  14   2.0000      -0.945261       -25.7218
  15   2.0000      -0.938495       -25.5377
  16   2.0000      -0.796005       -21.6604
  17   2.0000      -0.735610       -20.0170
  18   2.0000      -0.723273       -19.6812
  19   2.0000      -0.707895       -19.2628
  20   2.0000      -0.643194       -17.5022
  21   2.0000      -0.634052       -17.2534
  22   2.0000      -0.623649       -16.9703
  23   2.0000      -0.614936       -16.7333
  24   2.0000      -0.594236       -16.1700
  25   2.0000      -0.573714       -15.6116
  26   2.0000      -0.559858       -15.2345
  27   2.0000      -0.521018       -14.1776
  28   2.0000      -0.498179       -13.5562
  29   2.0000      -0.464207       -12.6317
  30   2.0000      -0.452181       -12.3045
  31   2.0000      -0.445466       -12.1217
  32   2.0000      -0.407935       -11.1005
  33   0.0000       0.099574         2.7095
  34   0.0000       0.127444         3.4679
  35   0.0000       0.145884         3.9697
  36   0.0000       0.148194         4.0326
  37   0.0000       0.155410         4.2289

MULLIKEN ATOMIC CHARGES
-----------------------
   0 O :   -0.354682
   1 N :   -0.052827
   2 C :   -0.099199
   3 C :   -0.205150
   4 C :    0.078962
   5 C :   -0.275315
   6 N :   -0.042211
   7 C :    0.088071
   8 O :   -0.425883
   9 H :    0.344975
  10 H :    0.151233
  11 H :    0.163947
  12 H :    0.159072
  13 H :    0.134338
  14 H :    0.334668
Sum of atomic charges:    0.0000000

LOEWDIN ATOMIC CHARGES
----------------------
   0 O :   -0.061447
   1 N :    0.037773
   2 C :   -0.275433
   3 C :   -0.162627
   4 C :   -0.182485
   5 C :   -0.181235
   6 N :    0.067960
   7 C :   -0.269906
   8 O :    0.034346
   9 H :    0.175009
  10 H :    0.151815
  11 H :    0.152391
  12 H :    0.165579
  13 H :    0.157737
  14 H :    0.190522

  Mayer bond orders larger than 0.1
B(  0-O ,  1-N ) :   0.8195 B(  0-O ,  9-H ) :   0.8398 B(  1-N ,  2-C ) :   1.9011
B(  2-C ,  3-C ) :   0.9358 B(  2-C ,  7-C ) :   0.9290 B(  3-C ,  4-C ) :   0.8698
B(  3-C , 10-H ) :   0.9029 B(  3-C , 11-H ) :   0.9028 B(  4-C ,  5-C ) :   0.9480
B(  4-C ,  7-C ) :   0.8088 B(  4-C , 12-H ) :   0.9020 B(  5-C ,  6-N ) :   2.8419
B(  7-C ,  8-O ) :   1.0610 B(  7-C , 13-H ) :   0.9260 B(  8-O , 14-H ) :   0.8228

MP2 TOTAL ENERGY:     -453.158812627 Eh
FINAL SINGLE POINT ENERGY      -453.158812627309

DIPOLE MOMENT
-------------
                                X             Y             Z
Electronic contribution:      1.28605      -0.68757      -1.95725
Nuclear contribution   :     -1.45967       1.35828       3.16816
                        -----------------------------------------
Total Dipole Moment    :     -0.17362       0.67070       1.21091
                        -----------------------------------------
Magnitude (a.u.)       :      1.39510
Magnitude (Debye)      :      3.54605

                             ****ORCA TERMINATED NORMALLY****
TOTAL RUN TIME: 0 days 0 hours 14 minutes 51 seconds 108 msec
