                         Program Version 3.0.3 - RELEASE   -
|  1> ! RI-MP2 RIJK def2-TZVP def2-TZVP/C def2-TZVP/JK TIGHTSCF
|  2> % maxcore 2000
|  3> % mp2 density relaxed end
|  4> *xyz 0 1
|  5>  C       -0.0743892708     1.6484397536     0.4272530244
|  6>  N       -0.3732742761     0.4768760096    -0.3949624330
|  7>  C       -0.0909561347    -0.8147867760     0.2272891735
|  8>  C       -1.4926065037    -0.3405682535     0.0628589035
|  9>  C        1.3655000713     2.0398342656     0.2783117431
| 10>  N        2.2591040732     1.9079166603     1.1723717077
| 11>  C        3.5099352185     2.4155833404     0.5865963437
| 12>  C        3.1298979139     2.8141489632    -0.8634954990
| 13>  O        1.7073168652     2.5696271900    -0.9253064583
| 14>  H       -0.7088949911     2.4735689396     0.0849830461
| 15>  H       -0.2604399231     1.4825150506     1.4991313538
| 16>  H        0.3152560597    -1.5742450943    -0.4341810221
| 17>  H        0.3256418046    -0.8135596514     1.2326312350
| 18>  H       -2.0200136007    -0.0271783597     0.9625804464
| 19>  H       -2.1282796472    -0.7464470049    -0.7187442728
| 20>  H        3.8774246116     3.2636183736     1.1748787975
| 21>  H        4.2818903992     1.6401036808     0.6201355880
| 22>  H        3.3069536705     3.8680416349    -1.0938455883
| 23>  H        3.6165100498     2.1989086277    -1.6261361891
| 24> *
| 25>
| 26>                          ****END OF INPUT****

CARTESIAN COORDINATES (ANGSTROEM)
---------------------------------
  C     -0.074389    1.648440    0.427253
  N     -0.373274    0.476876   -0.394962
  C     -0.090956   -0.814787    0.227289
  C     -1.492607   -0.340568    0.062859
  C      1.365500    2.039834    0.278312
  N      2.259104    1.907917    1.172372
  C      3.509935    2.415583    0.586596
  C      3.129898    2.814149   -0.863495
  O      1.707317    2.569627   -0.925306
  H     -0.708895    2.473569    0.084983
  H     -0.260440    1.482515    1.499131
  H      0.315256   -1.574245   -0.434181
  H      0.325642   -0.813560    1.232631
  H     -2.020014   -0.027178    0.962580
  H     -2.128280   -0.746447   -0.718744
  H      3.877425    3.263618    1.174879
  H      4.281890    1.640104    0.620136
  H      3.306954    3.868042   -1.093846
  H      3.616510    2.198909   -1.626136

 Total Charge           Charge          ....    0
 Multiplicity           Mult            ....    1
 Number of Electrons    NEL             ....   68
 Basis Dimension        Dim             ....  339

ORBITAL ENERGIES
----------------

  NO   OCC          E(Eh)            E(eV)
   0   2.0000     -20.586267      -560.1808
   1   2.0000     -15.565740      -423.5653
   2   2.0000     -15.540658      -422.8828
   3   2.0000     -11.326966      -308.2224
   4   2.0000     -11.287384      -307.1453
   5   2.0000     -11.267158      -306.5949
   6   2.0000     -11.257519      -306.3327
   7   2.0000     -11.257238      -306.3250
   8   2.0000     -11.254528      -306.2513
   9   2.0000      -1.430658       -38.9302
  10   2.0000      -1.278535       -34.7907
  11   2.0000      -1.206183       -32.8219
  12   2.0000      -1.055142       -28.7119
  13   2.0000      -0.979937       -26.6655
  14   2.0000      -0.859319       -23.3833
  15   2.0000      -0.845777       -23.0148
  16   2.0000      -0.841034       -22.8857
  17   2.0000      -0.754898       -20.5418
  18   2.0000      -0.695218       -18.9178
  19   2.0000      -0.686066       -18.6688
  20   2.0000      -0.666807       -18.1447
  21   2.0000      -0.650701       -17.7065
  22   2.0000      -0.618850       -16.8398
  23   2.0000      -0.570408       -15.5216
  24   2.0000      -0.562100       -15.2955
  25   2.0000      -0.550140       -14.9701
  26   2.0000      -0.528727       -14.3874
  27   2.0000      -0.517118       -14.0715
  28   2.0000      -0.512155       -13.9364
  29   2.0000      -0.471891       -12.8408
  30   2.0000      -0.463735       -12.6189
  31   2.0000      -0.428281       -11.6541
  32   2.0000      -0.384704       -10.4683
  33   2.0000      -0.372086       -10.1250
  34   0.0000       0.144425         3.9300
  35   0.0000       0.153013         4.1637
  36   0.0000       0.165996         4.5170
  37   0.0000       0.178275         4.8511
  38   0.0000       0.184390         5.0175

MULLIKEN ATOMIC CHARGES
-----------------------
   0 C :   -0.102470
   1 N :   -0.232127
   2 C :   -0.189142
   3 C :   -0.170873
   4 C :    0.177263
   5 N :   -0.270081
   6 C :   -0.133521
   7 C :   -0.062295
   8 O :   -0.262441
   9 H :    0.131542
  10 H :    0.123385
  11 H :    0.128682
  12 H :    0.137134
  13 H :    0.121290
  14 H :    0.131095
  15 H :    0.120351
  16 H :    0.121740
  17 H :    0.116813
  18 H :    0.113657
Sum of atomic charges:   -0.0000000

LOEWDIN ATOMIC CHARGES
----------------------
   0 C :   -0.250405
   1 N :    0.094664
   2 C :   -0.265109
   3 C :   -0.268550
   4 C :   -0.380329
   5 N :    0.083123
   6 C :   -0.280670
   7 C :   -0.262421
   8 O :    0.238354
   9 H :    0.146357
  10 H :    0.139509
  11 H :    0.124643
  12 H :    0.126610
  13 H :    0.122232
  14 H :    0.124849
  15 H :    0.129640
  16 H :    0.130317
  17 H :    0.123501
  18 H :    0.123685

  Mayer bond orders larger than 0.1
B(  0-C ,  1-N ) :   0.8890 B(  0-C ,  4-C ) :   0.9194 B(  0-C ,  9-H ) :   0.9017
B(  0-C , 10-H ) :   0.9357 B(  1-N ,  2-C ) :   0.8837 B(  1-N ,  3-C ) :   0.8910
B(  2-C ,  3-C ) :   0.9437 B(  2-C , 11-H ) :   0.9292 B(  2-C , 12-H ) :   0.9221
B(  3-C , 13-H ) :   0.9249 B(  3-C , 14-H ) :   0.9259 B(  4-C ,  5-N ) :   1.8564
B(  4-C ,  8-O ) :   1.0988 B(  5-N ,  6-C ) :   0.9281 B(  6-C ,  7-C ) :   0.9427
B(  6-C , 15-H ) :   0.9270 B(  6-C , 16-H ) :   0.9231 B(  7-C ,  8-O ) :   0.8802
B(  7-C , 17-H ) :   0.9288 B(  7-C , 18-H ) :   0.9236

MP2 TOTAL ENERGY:     -418.474648268 Eh
FINAL SINGLE POINT ENERGY      -418.474648267939

DIPOLE MOMENT
-------------
                                X             Y             Z
Electronic contribution:      0.72203       2.38538      -1.09706
Nuclear contribution   :     -0.50288      -2.30442       1.10707
                        -----------------------------------------
Total Dipole Moment    :      0.21915       0.08096       0.01001
                        -----------------------------------------
Magnitude (a.u.)       :      0.23384
Magnitude (Debye)      :      0.59439

                             ****ORCA TERMINATED NORMALLY****
TOTAL RUN TIME: 0 days 0 hours 16 minutes 22 seconds 311 msec
