                         Program Version 3.0.3 - RELEASE   -
|  1> ! RI-MP2 RIJK def2-TZVP def2-TZVP/C def2-TZVP/JK TIGHTSCF
|  2> % maxcore 2000
|  3> % mp2 density relaxed end
|  4> *xyz 0 1
|  5>  O       -0.1196336567     1.3292066761     0.0505313691
|  6>  N        0.0276989443    -0.0751739538     0.0488344594
|  7>  C       -1.0981925365    -0.6498671895    -0.0440079614
|  8>  C       -2.5465276220    -0.2128330164    -0.0223964024
|  9>  C       -3.2524550334    -0.4400831830    -1.3927250090
| 10>  C       -3.2990304390    -1.9669187939    -1.1302361334
| 11>  C       -1.9361721711    -2.6737336113    -1.3398833971
| 12>  C       -1.4215818920    -2.1225378385     0.0241995918
| 13>  C       -2.9078435403    -1.7010334172     0.3682056426
| 14>  H        0.7899856220     1.6239406854     0.1653264632
| 15>  H       -2.7935973958     0.6804798702     0.5489267043
| 16>  H       -4.2594141526    -0.0134222577    -1.3653164118
| 17>  H       -2.7429625847    -0.0843934838    -2.2930810256
| 18>  H       -4.1929848358    -2.5015846963    -1.4514980024
| 19>  H       -2.0532687387    -3.7597713308    -1.2788878393
| 20>  H       -1.3584364588    -2.4303134854    -2.2366277933
| 21>  H       -0.7792619286    -2.7603804831     0.6303360928
| 22>  H       -3.4561850203    -2.0018975510     1.2563165727
| 23> *
| 24>
| 25>                          ****END OF INPUT****

CARTESIAN COORDINATES (ANGSTROEM)
---------------------------------
  O     -0.119634    1.329207    0.050531
  N      0.027699   -0.075174    0.048834
  C     -1.098193   -0.649867   -0.044008
  C     -2.546528   -0.212833   -0.022396
  C     -3.252455   -0.440083   -1.392725
  C     -3.299030   -1.966919   -1.130236
  C     -1.936172   -2.673734   -1.339883
  C     -1.421582   -2.122538    0.024200
  C     -2.907844   -1.701033    0.368206
  H      0.789986    1.623941    0.165326
  H     -2.793597    0.680480    0.548927
  H     -4.259414   -0.013422   -1.365316
  H     -2.742963   -0.084393   -2.293081
  H     -4.192985   -2.501585   -1.451498
  H     -2.053269   -3.759771   -1.278888
  H     -1.358436   -2.430313   -2.236628
  H     -0.779262   -2.760380    0.630336
  H     -3.456185   -2.001898    1.256317

 Total Charge           Charge          ....    0
 Multiplicity           Mult            ....    1
 Number of Electrons    NEL             ....   66
 Basis Dimension        Dim             ....  333

ORBITAL ENERGIES
----------------

  NO   OCC          E(Eh)            E(eV)
   0   2.0000     -20.582178      -560.0695
   1   2.0000     -15.604701      -424.6255
   2   2.0000     -11.269719      -306.6646
   3   2.0000     -11.242280      -305.9180
   4   2.0000     -11.240591      -305.8720
   5   2.0000     -11.240500      -305.8695
   6   2.0000     -11.236380      -305.7574
   7   2.0000     -11.232761      -305.6590
   8   2.0000     -11.232221      -305.6443
   9   2.0000      -1.405699       -38.2510
  10   2.0000      -1.219546       -33.1855
  11   2.0000      -1.128764       -30.7152
  12   2.0000      -1.010889       -27.5077
  13   2.0000      -0.972682       -26.4680
  14   2.0000      -0.868117       -23.6227
  15   2.0000      -0.820377       -22.3236
  16   2.0000      -0.762027       -20.7358
  17   2.0000      -0.700699       -19.0670
  18   2.0000      -0.688998       -18.7486
  19   2.0000      -0.674204       -18.3460
  20   2.0000      -0.640366       -17.4253
  21   2.0000      -0.615545       -16.7498
  22   2.0000      -0.585196       -15.9240
  23   2.0000      -0.578414       -15.7394
  24   2.0000      -0.566993       -15.4287
  25   2.0000      -0.516917       -14.0660
  26   2.0000      -0.503509       -13.7012
  27   2.0000      -0.463918       -12.6238
  28   2.0000      -0.451823       -12.2947
  29   2.0000      -0.424028       -11.5384
  30   2.0000      -0.413750       -11.2587
  31   2.0000      -0.403204       -10.9718
  32   2.0000      -0.370316       -10.0768
  33   0.0000       0.131283         3.5724
  34   0.0000       0.153847         4.1864
  35   0.0000       0.160989         4.3807
  36   0.0000       0.167208         4.5500
  37   0.0000       0.177663         4.8344

MULLIKEN ATOMIC CHARGES
-----------------------
   0 O :   -0.365391
   1 N :   -0.081727
   2 C :   -0.104051
   3 C :   -0.032046
   4 C :   -0.260841
   5 C :   -0.042614
   6 C :   -0.262260
   7 C :   -0.016037
   8 C :   -0.171301
   9 H :    0.334637
  10 H :    0.134597
  11 H :    0.121278
  12 H :    0.119233
  13 H :    0.117592
  14 H :    0.119972
  15 H :    0.118243
  16 H :    0.129047
  17 H :    0.141668
Sum of atomic charges:   -0.0000000

LOEWDIN ATOMIC CHARGES
----------------------
   0 O :   -0.082002
   1 N :    0.024605
   2 C :   -0.252536
   3 C :   -0.143082
   4 C :   -0.189609
   5 C :   -0.184064
   6 C :   -0.191860
   7 C :   -0.136924
   8 C :   -0.094292
   9 H :    0.167480
  10 H :    0.142352
  11 H :    0.140472
  12 H :    0.129490
  13 H :    0.130511
  14 H :    0.140491
  15 H :    0.128708
  16 H :    0.140398
  17 H :    0.129861

  Mayer bond orders larger than 0.1
B(  0-O ,  1-N ) :   0.7966 B(  0-O ,  9-H ) :   0.8451 B(  1-N ,  2-C ) :   1.9015
B(  2-C ,  3-C ) :   0.9210 B(  2-C ,  7-C ) :   0.9280 B(  3-C ,  4-C ) :   0.8802
B(  3-C ,  8-C ) :   0.8911 B(  3-C , 10-H ) :   0.9101 B(  4-C ,  5-C ) :   0.9273
B(  4-C , 11-H ) :   0.9213 B(  4-C , 12-H ) :   0.9168 B(  5-C ,  6-C ) :   0.9227
B(  5-C ,  8-C ) :   0.9155 B(  5-C , 13-H ) :   0.9206 B(  6-C ,  7-C ) :   0.8757
B(  6-C , 14-H ) :   0.9188 B(  6-C , 15-H ) :   0.9168 B(  7-C ,  8-C ) :   0.8875
B(  7-C , 16-H ) :   0.9082 B(  8-C , 17-H ) :   0.8909

MP2 TOTAL ENERGY:     -401.164279782 Eh
FINAL SINGLE POINT ENERGY      -401.164279782093

DIPOLE MOMENT
-------------
                                X             Y             Z
Electronic contribution:      4.00809       2.84287       2.39899
Nuclear contribution   :     -4.42138      -3.08045      -2.41673
                        -----------------------------------------
Total Dipole Moment    :     -0.41329      -0.23758      -0.01773
                        -----------------------------------------
Magnitude (a.u.)       :      0.47704
Magnitude (Debye)      :      1.21253

                             ****ORCA TERMINATED NORMALLY****
TOTAL RUN TIME: 0 days 0 hours 17 minutes 41 seconds 477 msec
