                         Program Version 3.0.3 - RELEASE   -
|  1> ! RI-MP2 RIJK def2-TZVP def2-TZVP/C def2-TZVP/JK TIGHTSCF
|  2> % maxcore 2000
|  3> % mp2 density relaxed end
|  4> *xyz 0 1
|  5>  C        0.7501863946     1.6607501118     0.7046659658
|  6>  C        0.4115650093     0.2382441064     0.2559732218
|  7>  C       -1.0923732002     0.0126919120     0.0418123456
|  8>  C       -1.3781713405    -1.3965956048    -0.5053148603
|  9>  N       -1.7847573608     0.1965687128     1.3113884812
| 10>  C       -3.0151611973     0.5507013324     1.3221099609
| 11>  N       -3.8833927221     0.7820638597     0.2900061490
| 12>  C       -3.6310555221     0.7289714092     2.6784257384
| 13>  O       -4.7556641132     1.1370399831     2.8447974594
| 14>  H        1.8247577470     1.7782729884     0.8744980838
| 15>  H        0.4511458632     2.3971778419    -0.0507337999
| 16>  H        0.2288050941     1.9031500337     1.6349892149
| 17>  H        0.9377490382     0.0035008937    -0.6775745691
| 18>  H        0.7570849351    -0.4813732617     1.0081178548
| 19>  H       -1.4339546156     0.7515878400    -0.7082778430
| 20>  H       -2.4479318578    -1.5468187193    -0.6772964056
| 21>  H       -0.8505031980    -1.5559303115    -1.4509578839
| 22>  H       -1.0411840094    -2.1518696326     0.2110657519
| 23>  H       -3.5306458513     0.9521757599    -0.6361839362
| 24>  H       -4.7408118442     1.2473215715     0.5509489766
| 25>  H       -2.9448213787     0.4663519836     3.5046797838
| 26> *
| 27>
| 28>                          ****END OF INPUT****

CARTESIAN COORDINATES (ANGSTROEM)
---------------------------------
  C      0.750186    1.660750    0.704666
  C      0.411565    0.238244    0.255973
  C     -1.092373    0.012692    0.041812
  C     -1.378171   -1.396596   -0.505315
  N     -1.784757    0.196569    1.311388
  C     -3.015161    0.550701    1.322110
  N     -3.883393    0.782064    0.290006
  C     -3.631056    0.728971    2.678426
  O     -4.755664    1.137040    2.844797
  H      1.824758    1.778273    0.874498
  H      0.451146    2.397178   -0.050734
  H      0.228805    1.903150    1.634989
  H      0.937749    0.003501   -0.677575
  H      0.757085   -0.481373    1.008118
  H     -1.433955    0.751588   -0.708278
  H     -2.447932   -1.546819   -0.677296
  H     -0.850503   -1.555930   -1.450958
  H     -1.041184   -2.151870    0.211066
  H     -3.530646    0.952176   -0.636184
  H     -4.740812    1.247322    0.550949
  H     -2.944821    0.466352    3.504680

 Total Charge           Charge          ....    0
 Multiplicity           Mult            ....    1
 Number of Electrons    NEL             ....   70
 Basis Dimension        Dim             ....  351

ORBITAL ENERGIES
----------------

  NO   OCC          E(Eh)            E(eV)
   0   2.0000     -20.575526      -559.8885
   1   2.0000     -15.584700      -424.0813
   2   2.0000     -15.552793      -423.2130
   3   2.0000     -11.343133      -308.6623
   4   2.0000     -11.324284      -308.1494
   5   2.0000     -11.262805      -306.4765
   6   2.0000     -11.218587      -305.2733
   7   2.0000     -11.217988      -305.2570
   8   2.0000     -11.209093      -305.0149
   9   2.0000      -1.413814       -38.4718
  10   2.0000      -1.280135       -34.8342
  11   2.0000      -1.182308       -32.1722
  12   2.0000      -1.064221       -28.9589
  13   2.0000      -0.987900       -26.8821
  14   2.0000      -0.926187       -25.2028
  15   2.0000      -0.861846       -23.4520
  16   2.0000      -0.793357       -21.5883
  17   2.0000      -0.775906       -21.1135
  18   2.0000      -0.738621       -20.0989
  19   2.0000      -0.691873       -18.8268
  20   2.0000      -0.656964       -17.8769
  21   2.0000      -0.635784       -17.3006
  22   2.0000      -0.605972       -16.4893
  23   2.0000      -0.588101       -16.0030
  24   2.0000      -0.579604       -15.7718
  25   2.0000      -0.572375       -15.5751
  26   2.0000      -0.544751       -14.8234
  27   2.0000      -0.526855       -14.3365
  28   2.0000      -0.502050       -13.6615
  29   2.0000      -0.485107       -13.2004
  30   2.0000      -0.482264       -13.1231
  31   2.0000      -0.475703       -12.9445
  32   2.0000      -0.446584       -12.1522
  33   2.0000      -0.412567       -11.2265
  34   2.0000      -0.369575       -10.0566
  35   0.0000       0.084399         2.2966
  36   0.0000       0.125255         3.4083
  37   0.0000       0.154146         4.1945
  38   0.0000       0.158503         4.3131
  39   0.0000       0.175667         4.7801

MULLIKEN ATOMIC CHARGES
-----------------------
   0 C :   -0.402855
   1 C :   -0.155522
   2 C :    0.010739
   3 C :   -0.383330
   4 N :   -0.272603
   5 C :    0.188829
   6 N :   -0.505770
   7 C :    0.126996
   8 O :   -0.292526
   9 H :    0.132380
  10 H :    0.111728
  11 H :    0.140208
  12 H :    0.103085
  13 H :    0.105393
  14 H :    0.052194
  15 H :    0.138095
  16 H :    0.129999
  17 H :    0.135027
  18 H :    0.258017
  19 H :    0.271351
  20 H :    0.108564
Sum of atomic charges:    0.0000000

LOEWDIN ATOMIC CHARGES
----------------------
   0 C :   -0.321179
   1 C :   -0.275454
   2 C :   -0.325324
   3 C :   -0.290977
   4 N :    0.131044
   5 C :   -0.391471
   6 N :   -0.024605
   7 C :   -0.252125
   8 O :    0.128652
   9 H :    0.120631
  10 H :    0.118004
  11 H :    0.124113
  12 H :    0.135821
  13 H :    0.140386
  14 H :    0.132409
  15 H :    0.123011
  16 H :    0.124439
  17 H :    0.128238
  18 H :    0.168174
  19 H :    0.180702
  20 H :    0.125509

  Mayer bond orders larger than 0.1
B(  0-C ,  1-C ) :   0.9231 B(  0-C ,  9-H ) :   0.9402 B(  0-C , 10-H ) :   0.9357
B(  0-C , 11-H ) :   0.9380 B(  1-C ,  2-C ) :   0.9278 B(  1-C , 12-H ) :   0.9317
B(  1-C , 13-H ) :   0.9283 B(  2-C ,  3-C ) :   0.8972 B(  2-C ,  4-N ) :   0.8600
B(  2-C , 14-H ) :   0.9222 B(  3-C , 15-H ) :   0.9349 B(  3-C , 16-H ) :   0.9374
B(  3-C , 17-H ) :   0.9331 B(  4-N ,  5-C ) :   1.7764 B(  5-C ,  6-N ) :   1.1139
B(  5-C ,  7-C ) :   0.8974 B(  6-N , 18-H ) :   0.8665 B(  6-N , 19-H ) :   0.8462
B(  7-C ,  8-O ) :   1.9218 B(  7-C , 20-H ) :   0.9359

MP2 TOTAL ENERGY:     -419.724677927 Eh
FINAL SINGLE POINT ENERGY      -419.724677927124

DIPOLE MOMENT
-------------
                                X             Y             Z
Electronic contribution:    -10.91212       1.58604       6.63268
Nuclear contribution   :     11.13314      -1.48692      -7.64267
                        -----------------------------------------
Total Dipole Moment    :      0.22103       0.09912      -1.00999
                        -----------------------------------------
Magnitude (a.u.)       :      1.03863
Magnitude (Debye)      :      2.64000

                             ****ORCA TERMINATED NORMALLY****
TOTAL RUN TIME: 0 days 0 hours 18 minutes 37 seconds 976 msec
