                         Program Version 3.0.3 - RELEASE   -
|  1> ! RI-MP2 RIJK def2-TZVP def2-TZVP/C def2-TZVP/JK TIGHTSCF
|  2> % maxcore 2000
|  3> % mp2 density relaxed end
|  4> *xyz 0 1
|  5>  O       -0.5080992685     1.1582409762    -0.1405112066
|  6>  C       -0.0552466740    -0.1549649720    -0.1214910130
|  7>  C        1.0287080684    -0.3580919096    -1.1753883361
|  8>  O        1.4234922663     0.5574253722    -1.8516824755
|  9>  C        0.5052627423    -0.6058228176     1.2258534934
| 10>  O        1.4143853165     0.2642061322     1.8777360146
| 11>  C        0.1588473003    -0.0100150279     2.5338604858
| 12>  C       -0.7684740320     1.0648582425     2.7503224386
| 13>  C       -1.5562735173     1.9179598306     3.0583241499
| 14>  H        0.1107069078     1.6444797623    -0.7082608252
| 15>  H       -0.8769744937    -0.8513947649    -0.3698233150
| 16>  H        1.4375952250    -1.3837074304    -1.2776661704
| 17>  H        0.7928425091    -1.6619001688     1.2374938169
| 18>  H        0.2684001381    -0.6708237194     3.3952585854
| 19>  H       -2.2538106384     2.6858456345     3.2856414172
| 20> *
| 21>
| 22>                          ****END OF INPUT****

CARTESIAN COORDINATES (ANGSTROEM)
---------------------------------
  O     -0.508099    1.158241   -0.140511
  C     -0.055247   -0.154965   -0.121491
  C      1.028708   -0.358092   -1.175388
  O      1.423492    0.557425   -1.851682
  C      0.505263   -0.605823    1.225853
  O      1.414385    0.264206    1.877736
  C      0.158847   -0.010015    2.533860
  C     -0.768474    1.064858    2.750322
  C     -1.556274    1.917960    3.058324
  H      0.110707    1.644480   -0.708261
  H     -0.876974   -0.851395   -0.369823
  H      1.437595   -1.383707   -1.277666
  H      0.792843   -1.661900    1.237494
  H      0.268400   -0.670824    3.395259
  H     -2.253811    2.685846    3.285641

 Total Charge           Charge          ....    0
 Multiplicity           Mult            ....    1
 Number of Electrons    NEL             ....   66
 Basis Dimension        Dim             ....  315

ORBITAL ENERGIES
----------------

  NO   OCC          E(Eh)            E(eV)
   0   2.0000     -20.593225      -560.3702
   1   2.0000     -20.586361      -560.1834
   2   2.0000     -20.567887      -559.6807
   3   2.0000     -11.356729      -309.0323
   4   2.0000     -11.329179      -308.2826
   5   2.0000     -11.320628      -308.0500
   6   2.0000     -11.319240      -308.0122
   7   2.0000     -11.241896      -305.9075
   8   2.0000     -11.235005      -305.7200
   9   2.0000      -1.443274       -39.2735
  10   2.0000      -1.430082       -38.9145
  11   2.0000      -1.377180       -37.4750
  12   2.0000      -1.055637       -28.7254
  13   2.0000      -1.046238       -28.4696
  14   2.0000      -0.948515       -25.8104
  15   2.0000      -0.878784       -23.9129
  16   2.0000      -0.816228       -22.2107
  17   2.0000      -0.750835       -20.4313
  18   2.0000      -0.742514       -20.2048
  19   2.0000      -0.720699       -19.6112
  20   2.0000      -0.698409       -19.0047
  21   2.0000      -0.674537       -18.3551
  22   2.0000      -0.642961       -17.4959
  23   2.0000      -0.606174       -16.4948
  24   2.0000      -0.573233       -15.5985
  25   2.0000      -0.560315       -15.2469
  26   2.0000      -0.544828       -14.8255
  27   2.0000      -0.508160       -13.8277
  28   2.0000      -0.498911       -13.5760
  29   2.0000      -0.457535       -12.4502
  30   2.0000      -0.448306       -12.1990
  31   2.0000      -0.400661       -10.9025
  32   2.0000      -0.383455       -10.4343
  33   0.0000       0.109444         2.9781
  34   0.0000       0.128618         3.4999
  35   0.0000       0.146540         3.9875
  36   0.0000       0.159327         4.3355
  37   0.0000       0.165775         4.5110

MULLIKEN ATOMIC CHARGES
-----------------------
   0 O :   -0.465683
   1 C :    0.075626
   2 C :    0.111030
   3 O :   -0.278611
   4 C :    0.124527
   5 O :   -0.310708
   6 C :   -0.258604
   7 C :    0.086238
   8 C :   -0.091648
   9 H :    0.335317
  10 H :    0.114312
  11 H :    0.103413
  12 H :    0.129338
  13 H :    0.129793
  14 H :    0.195659
Sum of atomic charges:    0.0000000

LOEWDIN ATOMIC CHARGES
----------------------
   0 O :    0.034318
   1 C :   -0.358145
   2 C :   -0.262038
   3 O :    0.141644
   4 C :   -0.251227
   5 O :    0.188975
   6 C :   -0.239454
   7 C :   -0.088615
   8 C :   -0.065285
   9 H :    0.187886
  10 H :    0.160822
  11 H :    0.120723
  12 H :    0.144026
  13 H :    0.157404
  14 H :    0.128966

  Mayer bond orders larger than 0.1
B(  0-O ,  1-C ) :   1.0987 B(  0-O ,  9-H ) :   0.8050 B(  1-C ,  2-C ) :   0.8826
B(  1-C ,  4-C ) :   0.8369 B(  1-C , 10-H ) :   0.9195 B(  2-C ,  3-O ) :   1.9330
B(  2-C , 11-H ) :   0.9222 B(  4-C ,  5-O ) :   0.8697 B(  4-C ,  6-C ) :   0.9512
B(  4-C , 12-H ) :   0.8927 B(  5-O ,  6-C ) :   0.9500 B(  6-C ,  7-C ) :   1.1249
B(  6-C ,  8-C ) :  -0.1331 B(  6-C , 13-H ) :   0.9415 B(  7-C ,  8-C ) :   2.6046
B(  8-C , 14-H ) :   0.8843

MP2 TOTAL ENERGY:     -456.953393593 Eh
FINAL SINGLE POINT ENERGY      -456.953393592883

DIPOLE MOMENT
-------------
                                X             Y             Z
Electronic contribution:      1.29346       1.51609      -0.41779
Nuclear contribution   :     -1.73648      -2.60955       0.57772
                        -----------------------------------------
Total Dipole Moment    :     -0.44302      -1.09346       0.15993
                        -----------------------------------------
Magnitude (a.u.)       :      1.19059
Magnitude (Debye)      :      3.02625

                             ****ORCA TERMINATED NORMALLY****
TOTAL RUN TIME: 0 days 0 hours 14 minutes 36 seconds 270 msec
