                         Program Version 3.0.3 - RELEASE   -
|  1> ! RI-MP2 RIJK def2-TZVP def2-TZVP/C def2-TZVP/JK TIGHTSCF
|  2> % maxcore 2000
|  3> % mp2 density relaxed end
|  4> *xyz 0 1
|  5>  C        0.0422079158     1.5660559788     0.1041137692
|  6>  C       -0.0108620416     0.0366428426     0.0165239015
|  7>  C       -1.4069001426    -0.5176053844    -0.0550889681
|  8>  C       -1.6517693186    -2.0422971073    -0.0917356096
|  9>  C       -3.2090853912    -2.0492002442     0.0729134634
| 10>  C       -3.4266420853    -0.5280319925     0.1556949285
| 11>  O       -2.3300347337    -0.0948881859     1.0237204891
| 12>  C       -2.5339465392     0.0119552019    -0.9807978997
| 13>  O       -2.6349532103     0.6986761680    -1.9497287528
| 14>  H        1.0771514269     1.9119703790     0.1754666979
| 15>  H       -0.4107104337     2.0239106470    -0.7796098732
| 16>  H       -0.5005216895     1.9203394605     0.9841206039
| 17>  H        0.5258406238    -0.3137677694    -0.8740425966
| 18>  H        0.4983861140    -0.4144627202     0.8779938924
| 19>  H       -1.3123925041    -2.4956187460    -1.0272587295
| 20>  H       -1.1406168326    -2.5348775364     0.7390588178
| 21>  H       -3.7355889161    -2.5048397107    -0.7700934623
| 22>  H       -3.5293615892    -2.5419456755     0.9931132235
| 23>  H       -4.4001516528    -0.1198494252     0.4190574347
| 24> *
| 25>
| 26>                          ****END OF INPUT****

CARTESIAN COORDINATES (ANGSTROEM)
---------------------------------
  C      0.042208    1.566056    0.104114
  C     -0.010862    0.036643    0.016524
  C     -1.406900   -0.517605   -0.055089
  C     -1.651769   -2.042297   -0.091736
  C     -3.209085   -2.049200    0.072913
  C     -3.426642   -0.528032    0.155695
  O     -2.330035   -0.094888    1.023720
  C     -2.533947    0.011955   -0.980798
  O     -2.634953    0.698676   -1.949729
  H      1.077151    1.911970    0.175467
  H     -0.410710    2.023911   -0.779610
  H     -0.500522    1.920339    0.984121
  H      0.525841   -0.313768   -0.874043
  H      0.498386   -0.414463    0.877994
  H     -1.312393   -2.495619   -1.027259
  H     -1.140617   -2.534878    0.739059
  H     -3.735589   -2.504840   -0.770093
  H     -3.529362   -2.541946    0.993113
  H     -4.400152   -0.119849    0.419057

 Total Charge           Charge          ....    0
 Multiplicity           Mult            ....    1
 Number of Electrons    NEL             ....   68
 Basis Dimension        Dim             ....  339

ORBITAL ENERGIES
----------------

  NO   OCC          E(Eh)            E(eV)
   0   2.0000     -20.573468      -559.8325
   1   2.0000     -20.564961      -559.6010
   2   2.0000     -11.342031      -308.6323
   3   2.0000     -11.306399      -307.6627
   4   2.0000     -11.303624      -307.5873
   5   2.0000     -11.247403      -306.0574
   6   2.0000     -11.246188      -306.0243
   7   2.0000     -11.237416      -305.7856
   8   2.0000     -11.214014      -305.1488
   9   2.0000      -1.425535       -38.7908
  10   2.0000      -1.390806       -37.8458
  11   2.0000      -1.092603       -29.7312
  12   2.0000      -1.062693       -28.9173
  13   2.0000      -0.965913       -26.2838
  14   2.0000      -0.935591       -25.4587
  15   2.0000      -0.856787       -23.3144
  16   2.0000      -0.804539       -21.8926
  17   2.0000      -0.716927       -19.5086
  18   2.0000      -0.688819       -18.7437
  19   2.0000      -0.668567       -18.1926
  20   2.0000      -0.661734       -18.0067
  21   2.0000      -0.635481       -17.2923
  22   2.0000      -0.597179       -16.2501
  23   2.0000      -0.573716       -15.6116
  24   2.0000      -0.559497       -15.2247
  25   2.0000      -0.544283       -14.8107
  26   2.0000      -0.528964       -14.3938
  27   2.0000      -0.520133       -14.1535
  28   2.0000      -0.506207       -13.7746
  29   2.0000      -0.500828       -13.6282
  30   2.0000      -0.490588       -13.3496
  31   2.0000      -0.483211       -13.1488
  32   2.0000      -0.444799       -12.1036
  33   2.0000      -0.391795       -10.6613
  34   0.0000       0.131319         3.5734
  35   0.0000       0.140300         3.8178
  36   0.0000       0.160879         4.3777
  37   0.0000       0.168034         4.5724
  38   0.0000       0.175149         4.7661

MULLIKEN ATOMIC CHARGES
-----------------------
   0 C :   -0.412609
   1 C :   -0.204290
   2 C :    0.094130
   3 C :   -0.207987
   4 C :   -0.226202
   5 C :    0.018728
   6 O :   -0.295644
   7 C :    0.157145
   8 O :   -0.241027
   9 H :    0.133268
  10 H :    0.147055
  11 H :    0.142910
  12 H :    0.121429
  13 H :    0.122755
  14 H :    0.130517
  15 H :    0.121416
  16 H :    0.123937
  17 H :    0.126593
  18 H :    0.147877
Sum of atomic charges:   -0.0000000

LOEWDIN ATOMIC CHARGES
----------------------
   0 C :   -0.306912
   1 C :   -0.250974
   2 C :   -0.272062
   3 C :   -0.199425
   4 C :   -0.224102
   5 C :   -0.228734
   6 O :    0.197952
   7 C :   -0.259959
   8 O :    0.173190
   9 H :    0.121520
  10 H :    0.127922
  11 H :    0.127237
  12 H :    0.152548
  13 H :    0.148146
  14 H :    0.140274
  15 H :    0.139812
  16 H :    0.138767
  17 H :    0.138189
  18 H :    0.136612

  Mayer bond orders larger than 0.1
B(  0-C ,  1-C ) :   0.9332 B(  0-C ,  9-H ) :   0.9366 B(  0-C , 10-H ) :   0.9350
B(  0-C , 11-H ) :   0.9354 B(  1-C ,  2-C ) :   0.8956 B(  1-C , 12-H ) :   0.9218
B(  1-C , 13-H ) :   0.9346 B(  2-C ,  3-C ) :   0.8997 B(  2-C ,  5-C ) :  -0.1141
B(  2-C ,  6-O ) :   0.8850 B(  2-C ,  7-C ) :   0.8580 B(  3-C ,  4-C ) :   0.9769
B(  3-C , 14-H ) :   0.9202 B(  3-C , 15-H ) :   0.9132 B(  4-C ,  5-C ) :   0.9132
B(  4-C , 16-H ) :   0.9169 B(  4-C , 17-H ) :   0.9123 B(  5-C ,  6-O ) :   0.9146
B(  5-C ,  7-C ) :   0.9239 B(  5-C , 18-H ) :   0.9006 B(  7-C ,  8-O ) :   2.0795

MP2 TOTAL ENERGY:     -422.320112595 Eh
FINAL SINGLE POINT ENERGY      -422.320112594577

DIPOLE MOMENT
-------------
                                X             Y             Z
Electronic contribution:     -5.44899       1.05069      -2.15087
Nuclear contribution   :      5.62494      -1.93000       2.42571
                        -----------------------------------------
Total Dipole Moment    :      0.17595      -0.87931       0.27484
                        -----------------------------------------
Magnitude (a.u.)       :      0.93792
Magnitude (Debye)      :      2.38400

                             ****ORCA TERMINATED NORMALLY****
TOTAL RUN TIME: 0 days 0 hours 18 minutes 32 seconds 887 msec
