                         Program Version 3.0.3 - RELEASE   -
|  1> ! RI-MP2 RIJK def2-TZVP def2-TZVP/C def2-TZVP/JK TIGHTSCF
|  2> % maxcore 2000
|  3> % mp2 density relaxed end
|  4> *xyz 0 1
|  5>  C       -0.1488407653     1.5131981912     0.1853244835
|  6>  C        0.0348239254     0.0070417494     0.0639152441
|  7>  C       -1.2445374554    -0.7131515100    -0.3314000440
|  8>  O        1.1155797564    -0.3149489955    -0.8671318297
|  9>  C        1.9845527703    -0.7530715453     0.1920176058
| 10>  C        0.8491879475    -0.6530974303     1.2168675698
| 11>  O        1.1324715583     0.1605992497     2.3440292437
| 12>  C        0.7358535541    -0.2603013703     3.5639509971
| 13>  O        0.9125534189     0.3791666250     4.5546799707
| 14>  H        0.7821344604     2.0044045302     0.4751370946
| 15>  H       -0.4708512555     1.9160032599    -0.7796440993
| 16>  H       -0.9092263470     1.7571384225     0.9338237126
| 17>  H       -1.6090515836    -0.3360487004    -1.2918417081
| 18>  H       -1.0701788364    -1.7881451626    -0.4336586282
| 19>  H       -2.0276051671    -0.5530197452     0.4176594239
| 20>  H        2.4002770866    -1.7494714133     0.0068513306
| 21>  H        2.8010289169    -0.0475512001     0.3907757936
| 22>  H        0.4404524319    -1.6155758237     1.5415427944
| 23>  H        0.2423701635    -1.2514878914     3.5339103048
| 24> *
| 25>
| 26>                          ****END OF INPUT****

CARTESIAN COORDINATES (ANGSTROEM)
---------------------------------
  C     -0.148841    1.513198    0.185324
  C      0.034824    0.007042    0.063915
  C     -1.244537   -0.713152   -0.331400
  O      1.115580   -0.314949   -0.867132
  C      1.984553   -0.753072    0.192018
  C      0.849188   -0.653097    1.216868
  O      1.132472    0.160599    2.344029
  C      0.735854   -0.260301    3.563951
  O      0.912553    0.379167    4.554680
  H      0.782134    2.004405    0.475137
  H     -0.470851    1.916003   -0.779644
  H     -0.909226    1.757138    0.933824
  H     -1.609052   -0.336049   -1.291842
  H     -1.070179   -1.788145   -0.433659
  H     -2.027605   -0.553020    0.417659
  H      2.400277   -1.749471    0.006851
  H      2.801029   -0.047551    0.390776
  H      0.440452   -1.615576    1.541543
  H      0.242370   -1.251488    3.533910

 Total Charge           Charge          ....    0
 Multiplicity           Mult            ....    1
 Number of Electrons    NEL             ....   70
 Basis Dimension        Dim             ....  339

ORBITAL ENERGIES
----------------

  NO   OCC          E(Eh)            E(eV)
   0   2.0000     -20.620530      -561.1131
   1   2.0000     -20.560033      -559.4669
   2   2.0000     -20.559188      -559.4439
   3   2.0000     -11.393355      -310.0289
   4   2.0000     -11.316458      -307.9365
   5   2.0000     -11.305872      -307.6484
   6   2.0000     -11.293196      -307.3035
   7   2.0000     -11.231807      -305.6330
   8   2.0000     -11.224202      -305.4261
   9   2.0000      -1.475134       -40.1404
  10   2.0000      -1.397868       -38.0379
  11   2.0000      -1.377963       -37.4963
  12   2.0000      -1.069755       -29.1095
  13   2.0000      -1.019628       -27.7455
  14   2.0000      -0.955149       -25.9909
  15   2.0000      -0.884106       -24.0577
  16   2.0000      -0.861608       -23.4455
  17   2.0000      -0.788649       -21.4602
  18   2.0000      -0.730399       -19.8752
  19   2.0000      -0.688527       -18.7358
  20   2.0000      -0.679532       -18.4910
  21   2.0000      -0.660033       -17.9604
  22   2.0000      -0.637775       -17.3547
  23   2.0000      -0.622129       -16.9290
  24   2.0000      -0.593263       -16.1435
  25   2.0000      -0.571039       -15.5388
  26   2.0000      -0.560312       -15.2469
  27   2.0000      -0.551066       -14.9953
  28   2.0000      -0.543844       -14.7987
  29   2.0000      -0.515529       -14.0283
  30   2.0000      -0.508350       -13.8329
  31   2.0000      -0.489775       -13.3275
  32   2.0000      -0.463799       -12.6206
  33   2.0000      -0.438178       -11.9234
  34   2.0000      -0.427716       -11.6388
  35   0.0000       0.124163         3.3786
  36   0.0000       0.135245         3.6802
  37   0.0000       0.152761         4.1568
  38   0.0000       0.166034         4.5180
  39   0.0000       0.173666         4.7257

MULLIKEN ATOMIC CHARGES
-----------------------
   0 C :   -0.396523
   1 C :    0.190959
   2 C :   -0.391625
   3 O :   -0.328064
   4 C :   -0.032939
   5 C :    0.008011
   6 O :   -0.205422
   7 C :    0.191715
   8 O :   -0.260036
   9 H :    0.147113
  10 H :    0.139959
  11 H :    0.130276
  12 H :    0.143138
  13 H :    0.131222
  14 H :    0.131879
  15 H :    0.109895
  16 H :    0.109638
  17 H :    0.106095
  18 H :    0.074709
Sum of atomic charges:    0.0000000

LOEWDIN ATOMIC CHARGES
----------------------
   0 C :   -0.265123
   1 C :   -0.346892
   2 C :   -0.269777
   3 O :    0.155494
   4 C :   -0.254992
   5 C :   -0.253127
   6 O :    0.275336
   7 C :   -0.445389
   8 O :    0.127366
   9 H :    0.133205
  10 H :    0.133066
  11 H :    0.131375
  12 H :    0.133829
  13 H :    0.127888
  14 H :    0.130576
  15 H :    0.120485
  16 H :    0.127098
  17 H :    0.137175
  18 H :    0.102406

  Mayer bond orders larger than 0.1
B(  0-C ,  1-C ) :   0.9439 B(  0-C ,  9-H ) :   0.9223 B(  0-C , 10-H ) :   0.9326
B(  0-C , 11-H ) :   0.9256 B(  1-C ,  2-C ) :   0.9145 B(  1-C ,  3-O ) :   0.9254
B(  1-C ,  5-C ) :   0.8930 B(  2-C , 12-H ) :   0.9338 B(  2-C , 13-H ) :   0.9311
B(  2-C , 14-H ) :   0.9300 B(  3-O ,  4-C ) :   0.9694 B(  4-C ,  5-C ) :   0.9860
B(  4-C , 15-H ) :   0.9154 B(  4-C , 16-H ) :   0.8988 B(  5-C ,  6-O ) :   0.9156
B(  5-C , 17-H ) :   0.9291 B(  6-O ,  7-C ) :   1.0477 B(  7-C ,  8-O ) :   2.0410
B(  7-C , 18-H ) :   0.9155

MP2 TOTAL ENERGY:     -459.434231025 Eh
FINAL SINGLE POINT ENERGY      -459.434231025004

DIPOLE MOMENT
-------------
                                X             Y             Z
Electronic contribution:      4.54115       0.07862       6.47601
Nuclear contribution   :     -5.03799      -0.94900      -7.00667
                        -----------------------------------------
Total Dipole Moment    :     -0.49684      -0.87038      -0.53066
                        -----------------------------------------
Magnitude (a.u.)       :      1.13403
Magnitude (Debye)      :      2.88247

                             ****ORCA TERMINATED NORMALLY****
TOTAL RUN TIME: 0 days 0 hours 17 minutes 21 seconds 971 msec
