                         Program Version 3.0.3 - RELEASE   -
|  1> ! RI-MP2 RIJK def2-TZVP def2-TZVP/C def2-TZVP/JK TIGHTSCF
|  2> % maxcore 2000
|  3> % mp2 density relaxed end
|  4> *xyz 0 1
|  5>  C       -0.5692104615     0.3776225928    -0.8506148476
|  6>  O       -1.5598419426     0.1567193332     0.1318592854
|  7>  C       -1.1077801884    -0.6131687228     1.2177547472
|  8>  C       -0.8402463767    -2.0704741180     0.8765759058
|  9>  N        0.2094369704    -2.6523342515     1.2805593035
| 10>  O       -1.8706234387    -2.5805282409     0.1487190404
| 11>  C       -1.7955632982    -3.9304435946    -0.2692687102
| 12>  C       -3.0196229058    -4.2138427621    -1.1274607100
| 13>  O       -3.2579778891    -5.2987407717    -1.5830225266
| 14>  H       -1.0156923369     1.0176552549    -1.6147659346
| 15>  H        0.3129443478     0.8826081607    -0.4290941418
| 16>  H       -0.2367797556    -0.5583553890    -1.3230560333
| 17>  H       -0.1878998172    -0.2109418017     1.6617606027
| 18>  H       -1.9054905532    -0.5752827005     1.9680611557
| 19>  H        0.2469943273    -3.6415434125     1.0370292948
| 20>  H       -0.8908558312    -4.1183028854    -0.8649377184
| 21>  H       -1.7863074626    -4.6219106715     0.5845850877
| 22>  H       -3.6679069278    -3.3280890596    -1.2969570908
| 23> *
| 24>
| 25>                          ****END OF INPUT****

CARTESIAN COORDINATES (ANGSTROEM)
---------------------------------
  C     -0.569210    0.377623   -0.850615
  O     -1.559842    0.156719    0.131859
  C     -1.107780   -0.613169    1.217755
  C     -0.840246   -2.070474    0.876576
  N      0.209437   -2.652334    1.280559
  O     -1.870623   -2.580528    0.148719
  C     -1.795563   -3.930444   -0.269269
  C     -3.019623   -4.213843   -1.127461
  O     -3.257978   -5.298741   -1.583023
  H     -1.015692    1.017655   -1.614766
  H      0.312944    0.882608   -0.429094
  H     -0.236780   -0.558355   -1.323056
  H     -0.187900   -0.210942    1.661761
  H     -1.905491   -0.575283    1.968061
  H      0.246994   -3.641543    1.037029
  H     -0.890856   -4.118303   -0.864938
  H     -1.786307   -4.621911    0.584585
  H     -3.667907   -3.328089   -1.296957

 Total Charge           Charge          ....    0
 Multiplicity           Mult            ....    1
 Number of Electrons    NEL             ....   70
 Basis Dimension        Dim             ....  333

ORBITAL ENERGIES
----------------

  NO   OCC          E(Eh)            E(eV)
   0   2.0000     -20.621089      -561.1284
   1   2.0000     -20.577048      -559.9299
   2   2.0000     -20.570667      -559.7563
   3   2.0000     -15.557305      -423.3358
   4   2.0000     -11.356134      -309.0161
   5   2.0000     -11.352384      -308.9141
   6   2.0000     -11.323389      -308.1251
   7   2.0000     -11.296321      -307.3885
   8   2.0000     -11.279944      -306.9429
   9   2.0000      -1.457695       -39.6659
  10   2.0000      -1.416970       -38.5577
  11   2.0000      -1.389350       -37.8061
  12   2.0000      -1.216138       -33.0928
  13   2.0000      -1.046789       -28.4846
  14   2.0000      -0.991760       -26.9872
  15   2.0000      -0.909902       -24.7597
  16   2.0000      -0.830206       -22.5911
  17   2.0000      -0.800867       -21.7927
  18   2.0000      -0.740153       -20.1406
  19   2.0000      -0.706959       -19.2373
  20   2.0000      -0.700395       -19.0587
  21   2.0000      -0.671039       -18.2599
  22   2.0000      -0.667312       -18.1585
  23   2.0000      -0.652857       -17.7651
  24   2.0000      -0.644562       -17.5394
  25   2.0000      -0.593429       -16.1480
  26   2.0000      -0.576516       -15.6878
  27   2.0000      -0.551811       -15.0155
  28   2.0000      -0.542902       -14.7731
  29   2.0000      -0.512002       -13.9323
  30   2.0000      -0.497905       -13.5487
  31   2.0000      -0.461544       -12.5593
  32   2.0000      -0.445611       -12.1257
  33   2.0000      -0.435849       -11.8601
  34   2.0000      -0.428267       -11.6537
  35   0.0000       0.109671         2.9843
  36   0.0000       0.123865         3.3705
  37   0.0000       0.147149         4.0041
  38   0.0000       0.159869         4.3502
  39   0.0000       0.173505         4.7213

MULLIKEN ATOMIC CHARGES
-----------------------
   0 C :   -0.220936
   1 O :   -0.304028
   2 C :    0.004288
   3 C :    0.130824
   4 N :   -0.371118
   5 O :   -0.235132
   6 C :   -0.079384
   7 C :    0.074079
   8 O :   -0.254921
   9 H :    0.141617
  10 H :    0.121140
  11 H :    0.111833
  12 H :    0.125820
  13 H :    0.129777
  14 H :    0.219015
  15 H :    0.144595
  16 H :    0.147953
  17 H :    0.114579
Sum of atomic charges:   -0.0000000

LOEWDIN ATOMIC CHARGES
----------------------
   0 C :   -0.350522
   1 O :    0.140635
   2 C :   -0.290243
   3 C :   -0.422041
   4 N :   -0.048199
   5 O :    0.255504
   6 C :   -0.306743
   7 C :   -0.284873
   8 O :    0.146502
   9 H :    0.114864
  10 H :    0.105083
  11 H :    0.102990
  12 H :    0.136112
  13 H :    0.143197
  14 H :    0.159028
  15 H :    0.140074
  16 H :    0.139779
  17 H :    0.118854

  Mayer bond orders larger than 0.1
B(  0-C ,  1-O ) :   0.9104 B(  0-C ,  9-H ) :   0.9388 B(  0-C , 10-H ) :   0.9371
B(  0-C , 11-H ) :   0.9313 B(  1-O ,  2-C ) :   0.9605 B(  2-C ,  3-C ) :   0.8709
B(  2-C , 12-H ) :   0.9547 B(  2-C , 13-H ) :   0.9141 B(  3-C ,  4-N ) :   1.9708
B(  3-C ,  5-O ) :   1.0887 B(  4-N , 14-H ) :   0.8673 B(  5-O ,  6-C ) :   0.8535
B(  6-C ,  7-C ) :   0.8911 B(  6-C , 15-H ) :   0.8987 B(  6-C , 16-H ) :   0.8987
B(  7-C ,  8-O ) :   1.9941 B(  7-C , 17-H ) :   0.9340

MP2 TOTAL ENERGY:     -475.449904582 Eh
FINAL SINGLE POINT ENERGY      -475.449904582456

DIPOLE MOMENT
-------------
                                X             Y             Z
Electronic contribution:     -4.09713      -5.00509      -0.07911
Nuclear contribution   :      4.37727       5.18220       0.05261
                        -----------------------------------------
Total Dipole Moment    :      0.28013       0.17711      -0.02650
                        -----------------------------------------
Magnitude (a.u.)       :      0.33248
Magnitude (Debye)      :      0.84511

                             ****ORCA TERMINATED NORMALLY****
TOTAL RUN TIME: 0 days 0 hours 12 minutes 55 seconds 163 msec
