                         Program Version 3.0.3 - RELEASE   -
|  1> ! RI-MP2 RIJK def2-TZVP def2-TZVP/C def2-TZVP/JK TIGHTSCF
|  2> % maxcore 2000
|  3> % mp2 density relaxed end
|  4> *xyz 0 1
|  5>  C        0.1815382889     1.4556986353     0.1671889692
|  6>  C       -0.0975245121    -0.0419373949    -0.0116959159
|  7>  O       -1.4870369186    -0.2914630543    -0.1806817576
|  8>  C        0.6694862181    -0.6082688533    -1.1711908049
|  9>  O        0.1839633104    -0.2041249048    -2.4716443834
| 10>  C        0.3674449770    -1.5605667066    -2.9703434968
| 11>  C        0.9932459880    -2.0073879111    -1.6574468850
| 12>  C        2.1005172336    -1.0423801768    -1.2484975552
| 13>  C        3.1191710575    -0.4394629336    -2.1899815361
| 14>  H        1.2335677765     1.6346421944     0.4117235025
| 15>  H       -0.0521197716     1.9988960636    -0.7543661071
| 16>  H       -0.4415350851     1.8540818018     0.9718245828
| 17>  H        0.1998637681    -0.5818981358     0.8953134011
| 18>  H       -1.6849476166    -0.0429303081    -1.0925950417
| 19>  H       -0.6028527423    -2.0268679169    -3.1706499318
| 20>  H        0.9841163773    -1.5850884613    -3.8760145649
| 21>  H        0.8378882684    -2.9649679678    -1.1787339363
| 22>  H        2.4922998945    -1.3110736924    -0.2682728248
| 23>  H        2.6366925469    -0.0336361337    -3.0822411029
| 24>  H        3.6534446080     0.3834984976    -1.7036731519
| 25>  H        3.8613214132    -1.1816512512    -2.5023254991
| 26> *
| 27>
| 28>                          ****END OF INPUT****

CARTESIAN COORDINATES (ANGSTROEM)
---------------------------------
  C      0.181538    1.455699    0.167189
  C     -0.097525   -0.041937   -0.011696
  O     -1.487037   -0.291463   -0.180682
  C      0.669486   -0.608269   -1.171191
  O      0.183963   -0.204125   -2.471644
  C      0.367445   -1.560567   -2.970343
  C      0.993246   -2.007388   -1.657447
  C      2.100517   -1.042380   -1.248498
  C      3.119171   -0.439463   -2.189982
  H      1.233568    1.634642    0.411724
  H     -0.052120    1.998896   -0.754366
  H     -0.441535    1.854082    0.971825
  H      0.199864   -0.581898    0.895313
  H     -1.684948   -0.042930   -1.092595
  H     -0.602853   -2.026868   -3.170650
  H      0.984116   -1.585088   -3.876015
  H      0.837888   -2.964968   -1.178734
  H      2.492300   -1.311074   -0.268273
  H      2.636693   -0.033636   -3.082241
  H      3.653445    0.383498   -1.703673
  H      3.861321   -1.181651   -2.502325

 Total Charge           Charge          ....    0
 Multiplicity           Mult            ....    1
 Number of Electrons    NEL             ....   70
 Basis Dimension        Dim             ....  351

ORBITAL ENERGIES
----------------

  NO   OCC          E(Eh)            E(eV)
   0   2.0000     -20.560236      -559.4725
   1   2.0000     -20.547068      -559.1141
   2   2.0000     -11.290440      -307.2285
   3   2.0000     -11.288336      -307.1712
   4   2.0000     -11.284855      -307.0765
   5   2.0000     -11.245200      -305.9974
   6   2.0000     -11.238010      -305.8018
   7   2.0000     -11.220065      -305.3135
   8   2.0000     -11.214070      -305.1504
   9   2.0000      -1.399270       -38.0761
  10   2.0000      -1.352337       -36.7990
  11   2.0000      -1.131406       -30.7871
  12   2.0000      -1.025405       -27.9027
  13   2.0000      -0.978435       -26.6246
  14   2.0000      -0.939384       -25.5619
  15   2.0000      -0.857037       -23.3212
  16   2.0000      -0.781279       -21.2597
  17   2.0000      -0.745868       -20.2961
  18   2.0000      -0.722151       -19.6507
  19   2.0000      -0.657458       -17.8903
  20   2.0000      -0.644113       -17.5272
  21   2.0000      -0.612191       -16.6586
  22   2.0000      -0.604783       -16.4570
  23   2.0000      -0.589912       -16.0523
  24   2.0000      -0.572017       -15.5654
  25   2.0000      -0.563050       -15.3214
  26   2.0000      -0.551225       -14.9996
  27   2.0000      -0.524760       -14.2794
  28   2.0000      -0.518998       -14.1227
  29   2.0000      -0.499869       -13.6021
  30   2.0000      -0.484147       -13.1743
  31   2.0000      -0.469845       -12.7851
  32   2.0000      -0.451724       -12.2920
  33   2.0000      -0.394440       -10.7333
  34   2.0000      -0.379301       -10.3213
  35   0.0000       0.130685         3.5561
  36   0.0000       0.153577         4.1790
  37   0.0000       0.160554         4.3689
  38   0.0000       0.166560         4.5323
  39   0.0000       0.191410         5.2085

MULLIKEN ATOMIC CHARGES
-----------------------
   0 C :   -0.394243
   1 C :    0.142749
   2 O :   -0.472072
   3 C :    0.148288
   4 O :   -0.380877
   5 C :   -0.049333
   6 C :   -0.181628
   7 C :   -0.124795
   8 C :   -0.415593
   9 H :    0.122690
  10 H :    0.134417
  11 H :    0.142423
  12 H :    0.088748
  13 H :    0.322415
  14 H :    0.117358
  15 H :    0.115166
  16 H :    0.143392
  17 H :    0.121288
  18 H :    0.152373
  19 H :    0.132983
  20 H :    0.134251
Sum of atomic charges:    0.0000000

LOEWDIN ATOMIC CHARGES
----------------------
   0 C :   -0.290814
   1 C :   -0.342599
   2 O :   -0.017114
   3 C :   -0.256309
   4 O :    0.152177
   5 C :   -0.241233
   6 C :   -0.160575
   7 C :   -0.196027
   8 C :   -0.289956
   9 H :    0.125237
  10 H :    0.127760
  11 H :    0.126341
  12 H :    0.151811
  13 H :    0.178726
  14 H :    0.126352
  15 H :    0.119148
  16 H :    0.139392
  17 H :    0.161608
  18 H :    0.132687
  19 H :    0.127254
  20 H :    0.126133

  Mayer bond orders larger than 0.1
B(  0-C ,  1-C ) :   0.9150 B(  0-C ,  9-H ) :   0.9291 B(  0-C , 10-H ) :   0.9244
B(  0-C , 11-H ) :   0.9395 B(  1-C ,  2-O ) :   0.9367 B(  1-C ,  3-C ) :   0.9275
B(  1-C , 12-H ) :   0.9190 B(  2-O , 13-H ) :   0.8281 B(  3-C ,  4-O ) :   0.9258
B(  3-C ,  6-C ) :   0.8163 B(  3-C ,  7-C ) :   0.8524 B(  4-O ,  5-C ) :   0.8932
B(  5-C ,  6-C ) :   0.9756 B(  5-C , 14-H ) :   0.9216 B(  5-C , 15-H ) :   0.9201
B(  6-C ,  7-C ) :   0.9027 B(  6-C , 16-H ) :   0.9029 B(  7-C ,  8-C ) :   0.8887
B(  7-C , 17-H ) :   0.9288 B(  8-C , 18-H ) :   0.9344 B(  8-C , 19-H ) :   0.9373
B(  8-C , 20-H ) :   0.9371

MP2 TOTAL ENERGY:     -423.484722597 Eh
FINAL SINGLE POINT ENERGY      -423.484722596884

DIPOLE MOMENT
-------------
                                X             Y             Z
Electronic contribution:     -4.53157      -2.24734      -0.43663
Nuclear contribution   :      5.20139       1.90434       0.26622
                        -----------------------------------------
Total Dipole Moment    :      0.66983      -0.34300      -0.17041
                        -----------------------------------------
Magnitude (a.u.)       :      0.77159
Magnitude (Debye)      :      1.96124

                             ****ORCA TERMINATED NORMALLY****
TOTAL RUN TIME: 0 days 0 hours 21 minutes 35 seconds 134 msec
