                         Program Version 3.0.3 - RELEASE   -
|  1> ! RI-MP2 RIJK def2-TZVP def2-TZVP/C def2-TZVP/JK TIGHTSCF
|  2> % maxcore 2000
|  3> % mp2 density relaxed end
|  4> *xyz 0 1
|  5>  C       -0.0130025298     1.5551301678    -0.0541020124
|  6>  C        0.0295816625     0.0264734680     0.0009548153
|  7>  C        0.7253284626    -0.5798059049    -1.2291599268
|  8>  C        0.8340585596    -2.0996909899    -1.0993906671
|  9>  O        1.4995943043    -2.4712143602     0.0969585959
| 10>  C        0.8284464360    -2.0124668482     1.2711354041
| 11>  C        1.6262961126    -2.5833802703     2.4379415408
| 12>  O        1.7154921192    -3.9908307250     2.3626906112
| 13>  C        0.7209900351    -0.4866512652     1.2768252485
| 14>  H        0.9993587700     1.9755786667    -0.0681265132
| 15>  H       -0.5309642132     1.9055560771    -0.9533213624
| 16>  H       -0.5329498046     1.9696541970     0.8162187060
| 17>  H       -1.0062556611    -0.3454828766     0.0129017645
| 18>  H        0.1803670982    -0.3260021770    -2.1464594352
| 19>  H        1.7347138697    -0.1583671142    -1.3239451850
| 20>  H       -0.1719008222    -2.5530576053    -1.1248441144
| 21>  H        1.4162145177    -2.5298260395    -1.9198091044
| 22>  H       -0.1841752190    -2.4531394242     1.2915577886
| 23>  H        2.6245276897    -2.1148195115     2.4474190343
| 24>  H        1.1304346701    -2.3372940619     3.3828838710
| 25>  H        1.9685703336    -4.1809693393     1.4509738586
| 26>  H        1.7310021360    -0.0596893977     1.3431006682
| 27>  H        0.1708291728    -0.1587413260     2.1672745340
| 28> *
| 29>
| 30>                          ****END OF INPUT****

CARTESIAN COORDINATES (ANGSTROEM)
---------------------------------
  C     -0.013003    1.555130   -0.054102
  C      0.029582    0.026473    0.000955
  C      0.725328   -0.579806   -1.229160
  C      0.834059   -2.099691   -1.099391
  O      1.499594   -2.471214    0.096959
  C      0.828446   -2.012467    1.271135
  C      1.626296   -2.583380    2.437942
  O      1.715492   -3.990831    2.362691
  C      0.720990   -0.486651    1.276825
  H      0.999359    1.975579   -0.068127
  H     -0.530964    1.905556   -0.953321
  H     -0.532950    1.969654    0.816219
  H     -1.006256   -0.345483    0.012902
  H      0.180367   -0.326002   -2.146459
  H      1.734714   -0.158367   -1.323945
  H     -0.171901   -2.553058   -1.124844
  H      1.416215   -2.529826   -1.919809
  H     -0.184175   -2.453139    1.291558
  H      2.624528   -2.114820    2.447419
  H      1.130435   -2.337294    3.382884
  H      1.968570   -4.180969    1.450974
  H      1.731002   -0.059689    1.343101
  H      0.170829   -0.158741    2.167275

 Total Charge           Charge          ....    0
 Multiplicity           Mult            ....    1
 Number of Electrons    NEL             ....   72
 Basis Dimension        Dim             ....  363

ORBITAL ENERGIES
----------------

  NO   OCC          E(Eh)            E(eV)
   0   2.0000     -20.558561      -559.4269
   1   2.0000     -20.542936      -559.0017
   2   2.0000     -11.278493      -306.9034
   3   2.0000     -11.277454      -306.8751
   4   2.0000     -11.268100      -306.6206
   5   2.0000     -11.235407      -305.7310
   6   2.0000     -11.225662      -305.4658
   7   2.0000     -11.224794      -305.4422
   8   2.0000     -11.219215      -305.2904
   9   2.0000      -1.385919       -37.7128
  10   2.0000      -1.345550       -36.6143
  11   2.0000      -1.100761       -29.9532
  12   2.0000      -1.048563       -28.5329
  13   2.0000      -0.968608       -26.3572
  14   2.0000      -0.918153       -24.9842
  15   2.0000      -0.861102       -23.4318
  16   2.0000      -0.811137       -22.0722
  17   2.0000      -0.774389       -21.0722
  18   2.0000      -0.695261       -18.9190
  19   2.0000      -0.668288       -18.1850
  20   2.0000      -0.646121       -17.5818
  21   2.0000      -0.632718       -17.2171
  22   2.0000      -0.620404       -16.8820
  23   2.0000      -0.598262       -16.2795
  24   2.0000      -0.580377       -15.7929
  25   2.0000      -0.573002       -15.5922
  26   2.0000      -0.547607       -14.9011
  27   2.0000      -0.528515       -14.3816
  28   2.0000      -0.524911       -14.2836
  29   2.0000      -0.502477       -13.6731
  30   2.0000      -0.496320       -13.5055
  31   2.0000      -0.479051       -13.0356
  32   2.0000      -0.461232       -12.5508
  33   2.0000      -0.452109       -12.3025
  34   2.0000      -0.427051       -11.6206
  35   2.0000      -0.413256       -11.2453
  36   0.0000       0.133083         3.6214
  37   0.0000       0.146466         3.9855
  38   0.0000       0.159275         4.3341
  39   0.0000       0.162952         4.4341
  40   0.0000       0.181666         4.9434

MULLIKEN ATOMIC CHARGES
-----------------------
   0 C :   -0.385003
   1 C :   -0.035254
   2 C :   -0.226893
   3 C :   -0.074432
   4 O :   -0.336437
   5 C :    0.019027
   6 C :    0.027783
   7 O :   -0.483080
   8 C :   -0.261642
   9 H :    0.125617
  10 H :    0.131963
  11 H :    0.131823
  12 H :    0.086090
  13 H :    0.118468
  14 H :    0.104674
  15 H :    0.098279
  16 H :    0.127569
  17 H :    0.080522
  18 H :    0.091549
  19 H :    0.103145
  20 H :    0.326906
  21 H :    0.106270
  22 H :    0.123056
Sum of atomic charges:    0.0000000

LOEWDIN ATOMIC CHARGES
----------------------
   0 C :   -0.293417
   1 C :   -0.284855
   2 C :   -0.249067
   3 C :   -0.315345
   4 O :    0.162776
   5 C :   -0.333262
   6 C :   -0.330982
   7 O :   -0.047209
   8 C :   -0.223345
   9 H :    0.124027
  10 H :    0.123640
  11 H :    0.123736
  12 H :    0.152385
  13 H :    0.141205
  14 H :    0.141813
  15 H :    0.121744
  16 H :    0.129336
  17 H :    0.139737
  18 H :    0.120221
  19 H :    0.130583
  20 H :    0.177241
  21 H :    0.144741
  22 H :    0.144298

  Mayer bond orders larger than 0.1
B(  0-C ,  1-C ) :   0.9159 B(  0-C ,  9-H ) :   0.9330 B(  0-C , 10-H ) :   0.9396
B(  0-C , 11-H ) :   0.9395 B(  1-C ,  2-C ) :   0.9266 B(  1-C ,  8-C ) :   0.9217
B(  1-C , 12-H ) :   0.9295 B(  2-C ,  3-C ) :   0.9463 B(  2-C , 13-H ) :   0.9242
B(  2-C , 14-H ) :   0.9137 B(  3-C ,  4-O ) :   0.9270 B(  3-C , 15-H ) :   0.9390
B(  3-C , 16-H ) :   0.9305 B(  4-O ,  5-C ) :   0.9001 B(  5-C ,  6-C ) :   0.9397
B(  5-C ,  8-C ) :   0.9292 B(  5-C , 17-H ) :   0.9340 B(  6-C ,  7-O ) :   0.9403
B(  6-C , 18-H ) :   0.9247 B(  6-C , 19-H ) :   0.9223 B(  7-O , 20-H ) :   0.8285
B(  8-C , 21-H ) :   0.9067 B(  8-C , 22-H ) :   0.9250

MP2 TOTAL ENERGY:     -424.746056726 Eh
FINAL SINGLE POINT ENERGY      -424.746056725588

DIPOLE MOMENT
-------------
                                X             Y             Z
Electronic contribution:      2.55674      -7.50761       1.97573
Nuclear contribution   :     -2.95540       8.35930      -2.61004
                        -----------------------------------------
Total Dipole Moment    :     -0.39866       0.85169      -0.63431
                        -----------------------------------------
Magnitude (a.u.)       :      1.13431
Magnitude (Debye)      :      2.88318

                             ****ORCA TERMINATED NORMALLY****
TOTAL RUN TIME: 0 days 0 hours 18 minutes 59 seconds 24 msec
