                         Program Version 3.0.3 - RELEASE   -
|  1> ! RI-MP2 RIJK def2-TZVP def2-TZVP/C def2-TZVP/JK TIGHTSCF
|  2> % maxcore 2000
|  3> % mp2 density relaxed end
|  4> *xyz 0 1
|  5>  O        0.0751402589     1.1975644910     0.2742059328
|  6>  C        0.0264878809    -0.2025424701     0.2197821941
|  7>  C       -0.9651476552    -0.8186371139     1.1893877350
|  8>  O       -1.6229806012     0.0608903650     2.0405186333
|  9>  C       -1.2541193597    -0.8004161887    -0.3086825755
| 10>  O       -2.1185652093     0.1586543816    -0.8357509292
| 11>  C       -3.4556067459    -0.2542643579    -0.9652379423
| 12>  C       -4.3350304795    -0.3177364804     0.2505804335
| 13>  C       -4.4939612910     0.8000940653    -0.7614499608
| 14>  H       -0.5756183084     1.5191129785    -0.3657361823
| 15>  H        0.9868857144    -0.6656619350     0.0134871428
| 16>  H       -0.7402354205    -1.7769486032     1.6493860699
| 17>  H       -1.2132312361     0.9259721883     1.8815140818
| 18>  H       -1.2098187221    -1.7408204701    -0.8575705698
| 19>  H       -3.6005114770    -0.9882732256    -1.7570067834
| 20>  H       -5.0926345584    -1.0928148230     0.2931670489
| 21>  H       -3.8618775486    -0.0709654495     1.1932284831
| 22>  H       -4.1348594582     1.7813769510    -0.4725534593
| 23>  H       -5.3581551131     0.8066552768    -1.4159934427
| 24> *
| 25>
| 26>                          ****END OF INPUT****

CARTESIAN COORDINATES (ANGSTROEM)
---------------------------------
  O      0.075140    1.197564    0.274206
  C      0.026488   -0.202542    0.219782
  C     -0.965148   -0.818637    1.189388
  O     -1.622981    0.060890    2.040519
  C     -1.254119   -0.800416   -0.308683
  O     -2.118565    0.158654   -0.835751
  C     -3.455607   -0.254264   -0.965238
  C     -4.335030   -0.317736    0.250580
  C     -4.493961    0.800094   -0.761450
  H     -0.575618    1.519113   -0.365736
  H      0.986886   -0.665662    0.013487
  H     -0.740235   -1.776949    1.649386
  H     -1.213231    0.925972    1.881514
  H     -1.209819   -1.740820   -0.857571
  H     -3.600511   -0.988273   -1.757007
  H     -5.092635   -1.092815    0.293167
  H     -3.861878   -0.070965    1.193228
  H     -4.134859    1.781377   -0.472553
  H     -5.358155    0.806655   -1.415993

 Total Charge           Charge          ....    0
 Multiplicity           Mult            ....    1
 Number of Electrons    NEL             ....   70
 Basis Dimension        Dim             ....  339

ORBITAL ENERGIES
----------------

  NO   OCC          E(Eh)            E(eV)
   0   2.0000     -20.580950      -560.0361
   1   2.0000     -20.573770      -559.8407
   2   2.0000     -20.560240      -559.4726
   3   2.0000     -11.291020      -307.2443
   4   2.0000     -11.289030      -307.1901
   5   2.0000     -11.287403      -307.1458
   6   2.0000     -11.286141      -307.1115
   7   2.0000     -11.228128      -305.5329
   8   2.0000     -11.222759      -305.3868
   9   2.0000      -1.419195       -38.6183
  10   2.0000      -1.381456       -37.5913
  11   2.0000      -1.359178       -36.9851
  12   2.0000      -1.141739       -31.0683
  13   2.0000      -1.098612       -29.8947
  14   2.0000      -0.861993       -23.4560
  15   2.0000      -0.833562       -22.6824
  16   2.0000      -0.826781       -22.4978
  17   2.0000      -0.793943       -21.6043
  18   2.0000      -0.739247       -20.1159
  19   2.0000      -0.706021       -19.2118
  20   2.0000      -0.689652       -18.7664
  21   2.0000      -0.674785       -18.3618
  22   2.0000      -0.643154       -17.5011
  23   2.0000      -0.606369       -16.5001
  24   2.0000      -0.591353       -16.0915
  25   2.0000      -0.584974       -15.9180
  26   2.0000      -0.566336       -15.4108
  27   2.0000      -0.535706       -14.5773
  28   2.0000      -0.521737       -14.1972
  29   2.0000      -0.510972       -13.9042
  30   2.0000      -0.499275       -13.5860
  31   2.0000      -0.426430       -11.6038
  32   2.0000      -0.417052       -11.3486
  33   2.0000      -0.408315       -11.1108
  34   2.0000      -0.374635       -10.1943
  35   0.0000       0.146805         3.9948
  36   0.0000       0.149263         4.0617
  37   0.0000       0.163680         4.4539
  38   0.0000       0.180643         4.9155
  39   0.0000       0.183423         4.9912

MULLIKEN ATOMIC CHARGES
-----------------------
   0 O :   -0.507908
   1 C :    0.062939
   2 C :    0.044260
   3 O :   -0.483162
   4 C :   -0.002493
   5 O :   -0.333376
   6 C :    0.040999
   7 C :   -0.254729
   8 C :   -0.284378
   9 H :    0.352444
  10 H :    0.126558
  11 H :    0.123505
  12 H :    0.338264
  13 H :    0.104427
  14 H :    0.111718
  15 H :    0.127176
  16 H :    0.167971
  17 H :    0.135893
  18 H :    0.129894
Sum of atomic charges:    0.0000000

LOEWDIN ATOMIC CHARGES
----------------------
   0 O :   -0.003594
   1 C :   -0.302276
   2 C :   -0.311915
   3 O :    0.004390
   4 C :   -0.291223
   5 O :    0.211560
   6 C :   -0.306407
   7 C :   -0.227567
   8 C :   -0.227135
   9 H :    0.187775
  10 H :    0.133701
  11 H :    0.136653
  12 H :    0.184409
  13 H :    0.135887
  14 H :    0.133021
  15 H :    0.130359
  16 H :    0.143322
  17 H :    0.137243
  18 H :    0.131798

  Mayer bond orders larger than 0.1
B(  0-O ,  1-C ) :   0.9143 B(  0-O ,  9-H ) :   0.8102 B(  1-C ,  2-C ) :   0.8702
B(  1-C ,  4-C ) :   0.8820 B(  1-C , 10-H ) :   0.9391 B(  2-C ,  3-O ) :   0.9586
B(  2-C ,  4-C ) :   0.8480 B(  2-C , 11-H ) :   0.9317 B(  3-O , 12-H ) :   0.8041
B(  4-C ,  5-O ) :   0.9312 B(  4-C , 13-H ) :   0.9166 B(  5-O ,  6-C ) :   0.9066
B(  6-C ,  7-C ) :   0.8770 B(  6-C ,  8-C ) :   0.9066 B(  6-C , 14-H ) :   0.9339
B(  7-C ,  8-C ) :   0.9071 B(  7-C , 15-H ) :   0.9230 B(  7-C , 16-H ) :   0.9125
B(  8-C , 17-H ) :   0.9261 B(  8-C , 18-H ) :   0.9262

MP2 TOTAL ENERGY:     -459.364262726 Eh
FINAL SINGLE POINT ENERGY      -459.364262726281

DIPOLE MOMENT
-------------
                                X             Y             Z
Electronic contribution:      4.47868       0.88760       0.60771
Nuclear contribution   :     -4.66731      -1.36168      -1.22509
                        -----------------------------------------
Total Dipole Moment    :     -0.18863      -0.47408      -0.61738
                        -----------------------------------------
Magnitude (a.u.)       :      0.80093
Magnitude (Debye)      :      2.03581

                             ****ORCA TERMINATED NORMALLY****
TOTAL RUN TIME: 0 days 0 hours 20 minutes 37 seconds 752 msec
