                         Program Version 3.0.3 - RELEASE   -
|  1> ! RI-MP2 RIJK def2-TZVP def2-TZVP/C def2-TZVP/JK TIGHTSCF
|  2> % maxcore 2000
|  3> % mp2 density relaxed end
|  4> *xyz 0 1
|  5>  C        0.0539262714    -1.2399194479    -0.0361708805
|  6>  C        0.0502303429    -0.0390806135     0.0216740497
|  7>  C        0.0287850882     1.4099371737     0.0774549482
|  8>  C       -0.1658057788     2.1497217918     1.4109813006
|  9>  C        1.2530409833     2.3030004501     1.9832503789
| 10>  O        2.1607451015     1.6385458571     1.1063298246
| 11>  C        1.3851257610     2.1946598469     0.0178448327
| 12>  C        0.7614775221     3.2797278823     0.9722597450
| 13>  H        0.0702349977    -2.3007713918    -0.0785044648
| 14>  H       -0.6571449475     1.8231695059    -0.6689469487
| 15>  H       -1.0597656221     2.2026708585     2.0181718392
| 16>  H        1.4947526581     2.3847825218     3.0340319102
| 17>  H        1.9451852308     2.3206121045    -0.9055523340
| 18>  H        0.6538530215     4.3541574406     0.9382239390
| 19> *
| 20>
| 21>                          ****END OF INPUT****

CARTESIAN COORDINATES (ANGSTROEM)
---------------------------------
  C      0.053926   -1.239919   -0.036171
  C      0.050230   -0.039081    0.021674
  C      0.028785    1.409937    0.077455
  C     -0.165806    2.149722    1.410981
  C      1.253041    2.303000    1.983250
  O      2.160745    1.638546    1.106330
  C      1.385126    2.194660    0.017845
  C      0.761478    3.279728    0.972260
  H      0.070235   -2.300771   -0.078504
  H     -0.657145    1.823170   -0.668947
  H     -1.059766    2.202671    2.018172
  H      1.494753    2.384783    3.034032
  H      1.945185    2.320612   -0.905552
  H      0.653853    4.354157    0.938224

 Total Charge           Charge          ....    0
 Multiplicity           Mult            ....    1
 Number of Electrons    NEL             ....   56
 Basis Dimension        Dim             ....  284

ORBITAL ENERGIES
----------------

  NO   OCC          E(Eh)            E(eV)
   0   2.0000     -20.559881      -559.4628
   1   2.0000     -11.308507      -307.7201
   2   2.0000     -11.298345      -307.4436
   3   2.0000     -11.267069      -306.5925
   4   2.0000     -11.254387      -306.2474
   5   2.0000     -11.249256      -306.1078
   6   2.0000     -11.228336      -305.5386
   7   2.0000     -11.219019      -305.2850
   8   2.0000      -1.413983       -38.4764
   9   2.0000      -1.164814       -31.6962
  10   2.0000      -1.050304       -28.5802
  11   2.0000      -0.978753       -26.6332
  12   2.0000      -0.903994       -24.5989
  13   2.0000      -0.798260       -21.7217
  14   2.0000      -0.759774       -20.6745
  15   2.0000      -0.735676       -20.0188
  16   2.0000      -0.717748       -19.5309
  17   2.0000      -0.663244       -18.0478
  18   2.0000      -0.637206       -17.3393
  19   2.0000      -0.605581       -16.4787
  20   2.0000      -0.556059       -15.1311
  21   2.0000      -0.549200       -14.9445
  22   2.0000      -0.504180       -13.7194
  23   2.0000      -0.455258       -12.3882
  24   2.0000      -0.413876       -11.2621
  25   2.0000      -0.400542       -10.8993
  26   2.0000      -0.378895       -10.3102
  27   2.0000      -0.372717       -10.1422
  28   0.0000       0.149299         4.0626
  29   0.0000       0.156584         4.2609
  30   0.0000       0.166633         4.5343
  31   0.0000       0.167566         4.5597
  32   0.0000       0.175204         4.7675

MULLIKEN ATOMIC CHARGES
-----------------------
   0 C :   -0.161473
   1 C :   -0.027001
   2 C :   -0.138330
   3 C :   -0.157573
   4 C :    0.012378
   5 O :   -0.310217
   6 C :    0.062654
   7 C :   -0.185524
   8 H :    0.189883
   9 H :    0.129788
  10 H :    0.141530
  11 H :    0.143926
  12 H :    0.142198
  13 H :    0.157763
Sum of atomic charges:   -0.0000000

LOEWDIN ATOMIC CHARGES
----------------------
   0 C :   -0.090248
   1 C :   -0.083605
   2 C :   -0.192452
   3 C :   -0.133759
   4 C :   -0.227746
   5 O :    0.184108
   6 C :   -0.167573
   7 C :   -0.132463
   8 H :    0.126468
   9 H :    0.174502
  10 H :    0.140114
  11 H :    0.136259
  12 H :    0.132218
  13 H :    0.134177

  Mayer bond orders larger than 0.1
B(  0-C ,  1-C ) :   2.5983 B(  0-C ,  8-H ) :   0.8911 B(  1-C ,  2-C ) :   1.1651
B(  2-C ,  3-C ) :   0.8971 B(  2-C ,  6-C ) :   0.9020 B(  2-C ,  9-H ) :   0.9268
B(  3-C ,  4-C ) :   0.8595 B(  3-C ,  7-C ) :   0.8505 B(  3-C , 10-H ) :   0.9197
B(  4-C ,  5-O ) :   0.9503 B(  4-C ,  7-C ) :   0.9014 B(  4-C , 11-H ) :   0.9223
B(  5-O ,  6-C ) :   0.9483 B(  6-C ,  7-C ) :   0.9531 B(  6-C , 12-H ) :   0.9135
B(  7-C , 13-H ) :   0.9011

MP2 TOTAL ENERGY:     -344.675533109 Eh
FINAL SINGLE POINT ENERGY      -344.675533108692

DIPOLE MOMENT
-------------
                                X             Y             Z
Electronic contribution:      1.28112      -1.10517      -0.06567
Nuclear contribution   :     -1.79246       1.74509       0.07102
                        -----------------------------------------
Total Dipole Moment    :     -0.51134       0.63992       0.00534
                        -----------------------------------------
Magnitude (a.u.)       :      0.81915
Magnitude (Debye)      :      2.08211

                             ****ORCA TERMINATED NORMALLY****
TOTAL RUN TIME: 0 days 0 hours 11 minutes 37 seconds 986 msec
