                         Program Version 3.0.3 - RELEASE   -
|  1> ! RI-MP2 RIJK def2-TZVP def2-TZVP/C def2-TZVP/JK TIGHTSCF
|  2> % maxcore 2000
|  3> % mp2 density relaxed end
|  4> *xyz 0 1
|  5>  C       -0.3199644711     1.4884559665     0.0033106384
|  6>  C        0.0402213955     0.0039468731    -0.0209422338
|  7>  C        0.9625372997    -0.3959761129    -1.1871548337
|  8>  C        1.5352063867    -1.7522244695    -0.7508683356
|  9>  O        2.7165962574    -2.1530901133    -1.4250036945
| 10>  C        1.8427830471    -1.5383263554     0.7365059131
| 11>  C        0.7782071262    -0.5465739293     1.2256927644
| 12>  C        1.0610803366     0.2966990114     2.4451877738
| 13>  C        0.0236773279    -0.7963419091     2.5060173723
| 14>  H        0.5753559345     2.1127067279     0.0926778538
| 15>  H       -0.8373280670     1.7739485630    -0.9188046267
| 16>  H       -0.9856096068     1.7327987060     0.8384619591
| 17>  H       -0.8945639563    -0.5655875244    -0.1261948509
| 18>  H        0.4419080902    -0.4307706709    -2.1505110418
| 19>  H        1.7949040405     0.3140333545    -1.2801591719
| 20>  H        0.7544172187    -2.5233471684    -0.8593574661
| 21>  H        2.4956928992    -2.3033704378    -2.3493754902
| 22>  H        1.8535404794    -2.4744903466     1.3018208762
| 23>  H        2.8475361399    -1.1039877454     0.8026929533
| 24>  H        2.0054182742     0.1348628194     2.9556696714
| 25>  H        0.7192176612     1.3253640419     2.4665604477
| 26>  H       -1.0207273711    -0.4993382105     2.5463105731
| 27>  H        0.2503765473    -1.6951346702     3.0710001887
| 28> *
| 29>
| 30>                          ****END OF INPUT****

CARTESIAN COORDINATES (ANGSTROEM)
---------------------------------
  C     -0.319964    1.488456    0.003311
  C      0.040221    0.003947   -0.020942
  C      0.962537   -0.395976   -1.187155
  C      1.535206   -1.752224   -0.750868
  O      2.716596   -2.153090   -1.425004
  C      1.842783   -1.538326    0.736506
  C      0.778207   -0.546574    1.225693
  C      1.061080    0.296699    2.445188
  C      0.023677   -0.796342    2.506017
  H      0.575356    2.112707    0.092678
  H     -0.837328    1.773949   -0.918805
  H     -0.985610    1.732799    0.838462
  H     -0.894564   -0.565588   -0.126195
  H      0.441908   -0.430771   -2.150511
  H      1.794904    0.314033   -1.280159
  H      0.754417   -2.523347   -0.859357
  H      2.495693   -2.303370   -2.349375
  H      1.853540   -2.474490    1.301821
  H      2.847536   -1.103988    0.802693
  H      2.005418    0.134863    2.955670
  H      0.719218    1.325364    2.466560
  H     -1.020727   -0.499338    2.546311
  H      0.250377   -1.695135    3.071000

 Total Charge           Charge          ....    0
 Multiplicity           Mult            ....    1
 Number of Electrons    NEL             ....   70
 Basis Dimension        Dim             ....  363

ORBITAL ENERGIES
----------------

  NO   OCC          E(Eh)            E(eV)
   0   2.0000     -20.551842      -559.2440
   1   2.0000     -11.273472      -306.7668
   2   2.0000     -11.231018      -305.6115
   3   2.0000     -11.228653      -305.5472
   4   2.0000     -11.218133      -305.2609
   5   2.0000     -11.217482      -305.2432
   6   2.0000     -11.215279      -305.1833
   7   2.0000     -11.214256      -305.1554
   8   2.0000     -11.213011      -305.1215
   9   2.0000      -1.357818       -36.9481
  10   2.0000      -1.159713       -31.5574
  11   2.0000      -1.073839       -29.2206
  12   2.0000      -1.004807       -27.3422
  13   2.0000      -0.921500       -25.0753
  14   2.0000      -0.860689       -23.4205
  15   2.0000      -0.820703       -22.3325
  16   2.0000      -0.783187       -21.3116
  17   2.0000      -0.722480       -19.6597
  18   2.0000      -0.699195       -19.0261
  19   2.0000      -0.661312       -17.9952
  20   2.0000      -0.633735       -17.2448
  21   2.0000      -0.608359       -16.5543
  22   2.0000      -0.585255       -15.9256
  23   2.0000      -0.574197       -15.6247
  24   2.0000      -0.550659       -14.9842
  25   2.0000      -0.541417       -14.7327
  26   2.0000      -0.534370       -14.5409
  27   2.0000      -0.507007       -13.7964
  28   2.0000      -0.496166       -13.5014
  29   2.0000      -0.478874       -13.0308
  30   2.0000      -0.467664       -12.7258
  31   2.0000      -0.447825       -12.1859
  32   2.0000      -0.423942       -11.5360
  33   2.0000      -0.403143       -10.9701
  34   2.0000      -0.384809       -10.4712
  35   0.0000       0.131948         3.5905
  36   0.0000       0.144949         3.9443
  37   0.0000       0.156555         4.2601
  38   0.0000       0.166103         4.5199
  39   0.0000       0.172324         4.6892

MULLIKEN ATOMIC CHARGES
-----------------------
   0 C :   -0.441870
   1 C :   -0.047378
   2 C :   -0.238460
   3 C :    0.074076
   4 O :   -0.456001
   5 C :   -0.203027
   6 C :    0.074290
   7 C :   -0.284533
   8 C :   -0.318280
   9 H :    0.135264
  10 H :    0.135367
  11 H :    0.135002
  12 H :    0.090572
  13 H :    0.117875
  14 H :    0.104884
  15 H :    0.070975
  16 H :    0.313566
  17 H :    0.121013
  18 H :    0.112523
  19 H :    0.127663
  20 H :    0.128577
  21 H :    0.122170
  22 H :    0.125734
Sum of atomic charges:   -0.0000000

LOEWDIN ATOMIC CHARGES
----------------------
   0 C :   -0.293559
   1 C :   -0.228579
   2 C :   -0.223332
   3 C :   -0.340006
   4 O :   -0.022336
   5 C :   -0.186198
   6 C :   -0.207620
   7 C :   -0.209819
   8 C :   -0.212294
   9 H :    0.125033
  10 H :    0.124865
  11 H :    0.123086
  12 H :    0.155171
  13 H :    0.130684
  14 H :    0.144396
  15 H :    0.133088
  16 H :    0.173665
  17 H :    0.138158
  18 H :    0.147750
  19 H :    0.132764
  20 H :    0.131776
  21 H :    0.132101
  22 H :    0.131206

  Mayer bond orders larger than 0.1
B(  0-C ,  1-C ) :   0.8818 B(  0-C ,  9-H ) :   0.9387 B(  0-C , 10-H ) :   0.9376
B(  0-C , 11-H ) :   0.9433 B(  1-C ,  2-C ) :   0.9325 B(  1-C ,  6-C ) :   0.8911
B(  1-C , 12-H ) :   0.9313 B(  2-C ,  3-C ) :   0.9267 B(  2-C , 13-H ) :   0.9207
B(  2-C , 14-H ) :   0.9100 B(  3-C ,  4-O ) :   1.0446 B(  3-C ,  5-C ) :   0.9309
B(  3-C , 15-H ) :   0.9497 B(  4-O , 16-H ) :   0.8476 B(  5-C ,  6-C ) :   0.8917
B(  5-C , 17-H ) :   0.9188 B(  5-C , 18-H ) :   0.9221 B(  6-C ,  7-C ) :   0.8435
B(  6-C ,  8-C ) :   0.8626 B(  7-C ,  8-C ) :   0.9382 B(  7-C , 19-H ) :   0.9285
B(  7-C , 20-H ) :   0.9212 B(  8-C , 21-H ) :   0.9243 B(  8-C , 22-H ) :   0.9247

MP2 TOTAL ENERGY:     -387.621785313 Eh
FINAL SINGLE POINT ENERGY      -387.621785312759

DIPOLE MOMENT
-------------
                                X             Y             Z
Electronic contribution:      3.01828      -4.03080      -1.81342
Nuclear contribution   :     -3.57028       4.11146       1.47436
                        -----------------------------------------
Total Dipole Moment    :     -0.55200       0.08065      -0.33906
                        -----------------------------------------
Magnitude (a.u.)       :      0.65281
Magnitude (Debye)      :      1.65932

                             ****ORCA TERMINATED NORMALLY****
TOTAL RUN TIME: 0 days 0 hours 21 minutes 7 seconds 597 msec
